<LesHouchesEvents version="3.0">
<header>
<!--
#*********************************************************************
#                                                                    *
#                        MadGraph5_aMC@NLO                           *
#                                                                    *
#                           Going Beyond                             *
#                                                                    *
#                   http://madgraph.hep.uiuc.edu                     *
#                   http://madgraph.phys.ucl.ac.be                   *
#                   http://amcatnlo.cern.ch                          *
#                                                                    *
#                     The MadGraph5_aMC@NLO team                     *
#                                                                    *
#....................................................................*
#                                                                    *
# This file contains all the information necessary to reproduce      *
# the events generated:                                              *
#                                                                    *
# 1. software version                                                *
# 2. proc_card          : code generation info including model       *
# 3. param_card         : model primary parameters in the LH format  *
# 4. run_card           : running parameters (collider and cuts)     *
# 5. pythia_card        : present only if pythia has been run        *
# 6. pgs_card           : present only if pgs has been run           *
# 7. delphes_cards      : present only if delphes has been run       *
#                                                                    *
#                                                                    *
#*********************************************************************
-->
<MGVersion>
#5.2.2.3
</MGVersion>
<MG5ProcCard>
#************************************************************
#*                     MadGraph5_aMC@NLO                    *
#*                                                          *
#*                *                       *                 *
#*                  *        * *        *                   *
#*                    * * * * 5 * * * *                     *
#*                  *        * *        *                   *
#*                *                       *                 *
#*                                                          *
#*                                                          *
#*         VERSION 2.2.3                 2015-02-10         *
#*                                                          *
#*    The MadGraph5_aMC@NLO Development Team - Find us at   *
#*    https://server06.fynu.ucl.ac.be/projects/madgraph     *
#*                                                          *
#************************************************************
#*                                                          *
#*               Command File for MadGraph5_aMC@NLO         *
#*                                                          *
#*     run as ./bin/mg5_aMC  filename                       *
#*                                                          *
#************************************************************
set group_subprocesses Auto
set ignore_six_quark_processes False
set loop_optimized_output True
set gauge unitary
set complex_mass_scheme False
import model sm
define p = g u c d s u~ c~ d~ s~
define j = g u c d s u~ c~ d~ s~
define l+ = e+ mu+
define l- = e- mu-
define vl = ve vm vt
define vl~ = ve~ vm~ vt~
import model Zprime_UFO
generate p p > zph, zph > j j
add process p p > zph, zph > b b~
output Dijet_signal
</MG5ProcCard>
<MGProcCard>
#*********************************************************************
#                        MadGraph/MadEvent                           *
#                   http://madgraph.hep.uiuc.edu                     *
#                                                                    *
#                          proc_card.dat                             *
#*********************************************************************
#                                                                    *
#            This Files is generated by MADGRAPH 5                   *
#                                                                    *
# WARNING: This Files is generated for MADEVENT (compatibility issue)*
#          This files is NOT a valid MG4 proc_card.dat               *
#          Running this in MG4 will NEVER reproduce the result of MG5*
#                                                                    *
#*********************************************************************
#*********************************************************************
# Process(es) requested : mg2 input                                  *
#*********************************************************************
# Begin PROCESS # This is TAG. Do not modify this line
p p > zph , zph > j j           #Process
# Be carefull the coupling are here in MG5 convention
          
end_coup           # End the couplings input

done               # this tells MG there are no more procs
# End PROCESS  # This is TAG. Do not modify this line
#*********************************************************************
# Model information                                                  *
#*********************************************************************
# Begin MODEL  # This is TAG. Do not modify this line
Zprime_UFO
# End   MODEL  # This is TAG. Do not modify this line
#*********************************************************************
# Start multiparticle definitions                                    *
#*********************************************************************
# Begin MULTIPARTICLES # This is TAG. Do not modify this line

# End  MULTIPARTICLES # This is TAG. Do not modify this line
</MGProcCard>
<MGRunCard>
#*********************************************************************
#                       MadGraph5_aMC@NLO                            *
#                                                                    *
#                     run_card.dat MadEvent                          *
#                                                                    *
#  This file is used to set the parameters of the run.               *
#                                                                    *
#  Some notation/conventions:                                        *
#                                                                    *
#   Lines starting with a '# ' are info or comments                  *
#                                                                    *
#   mind the format:   value    = variable     ! comment             *
#*********************************************************************
#
#*******************                                                 
# Running parameters
#*******************                                                 
#                                                                    
#*********************************************************************
# Tag name for the run (one word)                                    *
#*********************************************************************
  tag_1     = run_tag ! name of the run 
#*********************************************************************
# Run to generate the grid pack                                      *
#*********************************************************************
  .false.     = gridpack  !True = setting up the grid pack
#*********************************************************************
# Number of events and rnd seed                                      *
# Warning: Do not generate more than 1M events in a single run       *
# If you want to run Pythia, avoid more than 50k events in a run.    *
#*********************************************************************
  2000 = nevents ! Number of unweighted events requested 
 2235 = iseed   ! rnd seed (0=assigned automatically=default))
#*********************************************************************
# Collider type and energy                                           *
# lpp: 0=No PDF, 1=proton, -1=antiproton, 2=photon from proton,      *
#                                         3=photon from electron     *
#*********************************************************************
        1     = lpp1    ! beam 1 type 
        1     = lpp2    ! beam 2 type
     4000     = ebeam1  ! beam 1 total energy in GeV
     4000     = ebeam2  ! beam 2 total energy in GeV
#*********************************************************************
# Beam polarization from -100 (left-handed) to 100 (right-handed)    *
#*********************************************************************
        0     = polbeam1 ! beam polarization for beam 1
        0     = polbeam2 ! beam polarization for beam 2
#*********************************************************************
# PDF CHOICE: this automatically fixes also alpha_s and its evol.    *
#*********************************************************************
 'nn23lo1'    = pdlabel     ! PDF set                                     
 230000    = lhaid     ! if pdlabel=lhapdf, this is the lhapdf number
#*********************************************************************
# Renormalization and factorization scales                           *
#*********************************************************************
 F        = fixed_ren_scale  ! if .true. use fixed ren scale
 F        = fixed_fac_scale  ! if .true. use fixed fac scale
 91.1880  = scale            ! fixed ren scale
 91.1880  = dsqrt_q2fact1    ! fixed fact scale for pdf1
 91.1880  = dsqrt_q2fact2    ! fixed fact scale for pdf2
 1        = scalefact        ! scale factor for event-by-event scales
#*********************************************************************
# Matching - Warning! ickkw > 1 is still beta
#*********************************************************************
 0        = ickkw            ! 0 no matching, 1 MLM, 2 CKKW matching
 1        = highestmult      ! for ickkw=2, highest mult group
 1        = ktscheme         ! for ickkw=1, 1 Durham kT, 2 Pythia pTE
 1        = alpsfact         ! scale factor for QCD emission vx
 F        = chcluster        ! cluster only according to channel diag
 T        = pdfwgt           ! for ickkw=1, perform pdf reweighting
 5        = asrwgtflavor     ! highest quark flavor for a_s reweight
 T        = clusinfo         ! include clustering tag in output
 3.0      = lhe_version       ! Change the way clustering information pass to shower.        
#*********************************************************************
#**********************************************************
#
#**********************************************************
# Automatic ptj and mjj cuts if xqcut > 0
# (turn off for VBF and single top processes)
#**********************************************************
   T  = auto_ptj_mjj  ! Automatic setting of ptj and mjj
#**********************************************************
#                                                                    
#**********************************
# BW cutoff (M+/-bwcutoff*Gamma)
#**********************************
  15  = bwcutoff      ! (M+/-bwcutoff*Gamma)
#**********************************************************
# Apply pt/E/eta/dr/mij cuts on decay products or not
# (note that etmiss/ptll/ptheavy/ht/sorted cuts always apply)
#**********************************************************
   T  = cut_decays    ! Cut decay products 
#*************************************************************
# Number of helicities to sum per event (0 = all helicities)
# 0 gives more stable result, but longer run time (needed for
# long decay chains e.g.).
# Use >=2 if most helicities contribute, e.g. pure QCD.
#*************************************************************
   0  = nhel          ! Number of helicities used per event
#*******************                                                 
# Standard Cuts
#*******************                                                 
#                                                                    
#*********************************************************************
# Minimum and maximum pt's (for max, -1 means no cut)                *
#*********************************************************************
 20  = ptj       ! minimum pt for the jets 
  0  = ptb       ! minimum pt for the b 
 10  = pta       ! minimum pt for the photons 
 10  = ptl       ! minimum pt for the charged leptons 
  0  = misset    ! minimum missing Et (sum of neutrino's momenta)
  0  = ptheavy   ! minimum pt for one heavy final state
 1.0 = ptonium   ! minimum pt for the quarkonium states
 -1  = ptjmax    ! maximum pt for the jets
 -1  = ptbmax    ! maximum pt for the b
 -1  = ptamax    ! maximum pt for the photons
 -1  = ptlmax    ! maximum pt for the charged leptons
 -1  = missetmax ! maximum missing Et (sum of neutrino's momenta)
#*********************************************************************
# Minimum and maximum E's (in the center of mass frame)              *
#*********************************************************************
  0  = ej     ! minimum E for the jets 
  0  = eb     ! minimum E for the b 
  0  = ea     ! minimum E for the photons 
  0  = el     ! minimum E for the charged leptons 
 -1   = ejmax ! maximum E for the jets
 -1   = ebmax ! maximum E for the b
 -1   = eamax ! maximum E for the photons
 -1   = elmax ! maximum E for the charged leptons
#*********************************************************************
# Maximum and minimum absolute rapidity (for max, -1 means no cut)   *
#*********************************************************************
   5  = etaj    ! max rap for the jets 
  -1  = etab    ! max rap for the b
 2.5  = etaa    ! max rap for the photons 
 2.5  = etal    ! max rap for the charged leptons 
 0.6  = etaonium ! max rap for the quarkonium states
   0  = etajmin ! min rap for the jets
   0  = etabmin ! min rap for the b
   0  = etaamin ! min rap for the photons
   0  = etalmin ! main rap for the charged leptons
#*********************************************************************
# Minimum and maximum DeltaR distance                                *
#*********************************************************************
 0.4 = drjj    ! min distance between jets 
 0   = drbb    ! min distance between b's 
 0.4 = drll    ! min distance between leptons 
 0.4 = draa    ! min distance between gammas 
 0   = drbj    ! min distance between b and jet 
 0.4 = draj    ! min distance between gamma and jet 
 0.4 = drjl    ! min distance between jet and lepton 
 0   = drab    ! min distance between gamma and b 
 0   = drbl    ! min distance between b and lepton 
 0.4 = dral    ! min distance between gamma and lepton 
 -1  = drjjmax ! max distance between jets
 -1  = drbbmax ! max distance between b's
 -1  = drllmax ! max distance between leptons
 -1  = draamax ! max distance between gammas
 -1  = drbjmax ! max distance between b and jet
 -1  = drajmax ! max distance between gamma and jet
 -1  = drjlmax ! max distance between jet and lepton
 -1  = drabmax ! max distance between gamma and b
 -1  = drblmax ! max distance between b and lepton
 -1  = dralmax ! maxdistance between gamma and lepton
#*********************************************************************
# Minimum and maximum invariant mass for pairs                       *
# WARNING: for four lepton final state mmll cut require to have      *
#          different lepton masses for each flavor!                  *           
#*********************************************************************
 0   = mmjj    ! min invariant mass of a jet pair 
 0   = mmbb    ! min invariant mass of a b pair 
 0   = mmaa    ! min invariant mass of gamma gamma pair
 0   = mmll    ! min invariant mass of l+l- (same flavour) lepton pair
 -1  = mmjjmax ! max invariant mass of a jet pair
 -1  = mmbbmax ! max invariant mass of a b pair
 -1  = mmaamax ! max invariant mass of gamma gamma pair
 -1  = mmllmax ! max invariant mass of l+l- (same flavour) lepton pair
#*********************************************************************
# Minimum and maximum invariant mass for all letpons                 *
#*********************************************************************
 0   = mmnl    ! min invariant mass for all letpons (l+- and vl) 
 -1  = mmnlmax ! max invariant mass for all letpons (l+- and vl) 
#*********************************************************************
# Minimum and maximum pt for 4-momenta sum of leptons                *
#*********************************************************************
 0   = ptllmin  ! Minimum pt for 4-momenta sum of leptons(l and vl)
 -1  = ptllmax  ! Maximum pt for 4-momenta sum of leptons(l and vl)
#*********************************************************************
# Inclusive cuts                                                     *
#*********************************************************************
 0  = xptj ! minimum pt for at least one jet  
 0  = xptb ! minimum pt for at least one b 
 0  = xpta ! minimum pt for at least one photon 
 0  = xptl ! minimum pt for at least one charged lepton 
#*********************************************************************
# Control the pt's of the jets sorted by pt                          *
#*********************************************************************
 0   = ptj1min ! minimum pt for the leading jet in pt
 0   = ptj2min ! minimum pt for the second jet in pt
 0   = ptj3min ! minimum pt for the third jet in pt
 0   = ptj4min ! minimum pt for the fourth jet in pt
 -1  = ptj1max ! maximum pt for the leading jet in pt 
 -1  = ptj2max ! maximum pt for the second jet in pt
 -1  = ptj3max ! maximum pt for the third jet in pt
 -1  = ptj4max ! maximum pt for the fourth jet in pt
 0   = cutuse  ! reject event if fails any (0) / all (1) jet pt cuts
#*********************************************************************
# Control the pt's of leptons sorted by pt                           *
#*********************************************************************
 0   = ptl1min ! minimum pt for the leading lepton in pt
 0   = ptl2min ! minimum pt for the second lepton in pt
 0   = ptl3min ! minimum pt for the third lepton in pt
 0   = ptl4min ! minimum pt for the fourth lepton in pt
 -1  = ptl1max ! maximum pt for the leading lepton in pt 
 -1  = ptl2max ! maximum pt for the second lepton in pt
 -1  = ptl3max ! maximum pt for the third lepton in pt
 -1  = ptl4max ! maximum pt for the fourth lepton in pt
#*********************************************************************
# Control the Ht(k)=Sum of k leading jets                            *
#*********************************************************************
 0   = htjmin ! minimum jet HT=Sum(jet pt)
 -1  = htjmax ! maximum jet HT=Sum(jet pt)
 0   = ihtmin  !inclusive Ht for all partons (including b)
 -1  = ihtmax  !inclusive Ht for all partons (including b)
 0   = ht2min ! minimum Ht for the two leading jets
 0   = ht3min ! minimum Ht for the three leading jets
 0   = ht4min ! minimum Ht for the four leading jets
 -1  = ht2max ! maximum Ht for the two leading jets
 -1  = ht3max ! maximum Ht for the three leading jets
 -1  = ht4max ! maximum Ht for the four leading jets
#***********************************************************************
# Photon-isolation cuts, according to hep-ph/9801442                   *
# When ptgmin=0, all the other parameters are ignored                  *
# When ptgmin>0, pta and draj are not going to be used                 *
#***********************************************************************
   0 = ptgmin ! Min photon transverse momentum
 0.4 = R0gamma ! Radius of isolation code
 1.0 = xn ! n parameter of eq.(3.4) in hep-ph/9801442
 1.0 = epsgamma ! epsilon_gamma parameter of eq.(3.4) in hep-ph/9801442
 .true. = isoEM ! isolate photons from EM energy (photons and leptons)
#*********************************************************************
# WBF cuts                                                           *
#*********************************************************************
 0   = xetamin ! minimum rapidity for two jets in the WBF case  
 0   = deltaeta ! minimum rapidity for two jets in the WBF case 
#*********************************************************************
# KT DURHAM CUT                                                      *
#*********************************************************************
 -1    =  ktdurham        
 0.4  =  dparameter 
#*********************************************************************
# maximal pdg code for quark to be considered as a light jet         *
# (otherwise b cuts are applied)                                     *
#*********************************************************************
 4 = maxjetflavor    ! Maximum jet pdg code
#*********************************************************************
# Jet measure cuts                                                   *
#*********************************************************************
 0   = xqcut   ! minimum kt jet measure between partons
#*********************************************************************
#
#*********************************************************************
# Store info for systematics studies                                 *
# WARNING: If use_syst is T, matched Pythia output is                *
#          meaningful ONLY if plotted taking matchscale              *
#          reweighting into account!                                 *
#*********************************************************************
   F  = use_syst      ! Enable systematics studies
#
#**************************************
# Parameter of the systematics study
#  will be used by SysCalc (if installed)
#**************************************                                  
#
0.5 1 2 = sys_scalefact  # factorization/renormalization scale factor
0.5 1 2 = sys_alpsfact  # \alpha_s emission scale factors
30 50 = sys_matchscale # variation of merging scale
# PDF sets and number of members (0 or none for all members).
CT10nlo.LHgrid = sys_pdf # matching scales
# MSTW2008nlo68cl.LHgrid 1  = sys_pdf
</MGRunCard>
<slha>
######################################################################
## PARAM_CARD AUTOMATICALY GENERATED BY MG5 FOLLOWING UFO MODEL   ####
######################################################################
##                                                                  ##
##  Width set on Auto will be computed following the information    ##
##        present in the decay.py files of the model.               ##
##        See  arXiv:1402.1178 for more details.                    ##
##                                                                  ##
######################################################################

###################################
## INFORMATION FOR CKMBLOCK
###################################
Block ckmblock 
    1 2.277360e-01 # cabi 

###################################
## INFORMATION FOR FRBLOCK
###################################
Block frblock 
    1 1.200000e+00 # gz 

###################################
## INFORMATION FOR MASS
###################################
Block mass 
    1 5.040000e-03 # MD 
    2 2.550000e-03 # MU 
    3 1.010000e-01 # MS 
    4 1.270000e+00 # MC 
    5 4.700000e+00 # MB 
    6 1.720000e+02 # MT 
   11 5.110000e-04 # Me 
   13 1.056600e-01 # MM 
   15 1.777000e+00 # MTA 
   23 9.118760e+01 # MZ 
   25 1.200000e+02 # MH 
  10030 1.800000e+03 # MZph 
  10031 3.000000e+02 # MZpl 
## Dependent parameters, given by model restrictions.
## Those values should be edited following the 
## analytical expression. MG5 ignores those values 
## but they are important for interfacing the output of MG5
## to external program such as Pythia.
  12 0.000000 # ve : 0.0 
  14 0.000000 # vm : 0.0 
  16 0.000000 # vt : 0.0 
  21 0.000000 # g : 0.0 
  22 0.000000 # a : 0.0 
  24 79.824360 # w+ : cmath.sqrt(MZ__exp__2/2. + cmath.sqrt(MZ__exp__4/4. - (aEW*cmath.pi*MZ__exp__2)/(Gf*sqrt__2))) 

###################################
## INFORMATION FOR SMINPUTS
###################################
Block sminputs 
    1 1.279000e+02 # aEWM1 
    2 1.166370e-05 # Gf 
    3 1.184000e-01 # aS 

###################################
## INFORMATION FOR YUKAWA
###################################
Block yukawa 
    1 5.040000e-03 # ymdo 
    2 2.550000e-03 # ymup 
    3 1.010000e-01 # yms 
    4 1.270000e+00 # ymc 
    5 4.700000e+00 # ymb 
    6 1.720000e+02 # ymt 
   11 5.110000e-04 # yme 
   13 1.056600e-01 # ymm 
   15 1.777000e+00 # ymtau 

###################################
## INFORMATION FOR DECAY
###################################
DECAY   6 1.508336e+00 # WT 
DECAY  23 2.495200e+00 # WZ 
DECAY  24 2.085000e+00 # WW 
DECAY  25 5.753088e-03 # WH 
## Dependent parameters, given by model restrictions.
## Those values should be edited following the 
## analytical expression. MG5 ignores those values 
## but they are important for interfacing the output of MG5
## to external program such as Pythia.
DECAY  1 0.000000 # d : 0.0 
DECAY  2 0.000000 # u : 0.0 
DECAY  3 0.000000 # s : 0.0 
DECAY  4 0.000000 # c : 0.0 
DECAY  5 0.000000 # b : 0.0 
DECAY  11 0.000000 # e- : 0.0 
DECAY  12 0.000000 # ve : 0.0 
DECAY  13 0.000000 # mu- : 0.0 
DECAY  14 0.000000 # vm : 0.0 
DECAY  15 0.000000 # ta- : 0.0 
DECAY  16 0.000000 # vt : 0.0 
DECAY  21 0.000000 # g : 0.0 
DECAY  22 0.000000 # a : 0.0 
DECAY  10030 0.308725 # zph : (gz__exp__2*MZph*(5 + cmath.sqrt(1 - (4*MT__exp__2)/MZph__exp__2)))/(144.*cmath.pi) 
DECAY  10031 0.132629 # zpl : (5*gz__exp__2*MZpl)/(144.*cmath.pi) 
#===========================================================
# QUANTUM NUMBERS OF NEW STATE(S) (NON SM PDG CODE)
#===========================================================

Block QNUMBERS 10030  # zph 
        1 0  # 3 times electric charge
        2 3  # number of spin states (2S+1)
        3 1  # colour rep (1: singlet, 3: triplet, 8: octet)
        4 0  # Particle/Antiparticle distinction (0=own anti)
Block QNUMBERS 10031  # zpl 
        1 0  # 3 times electric charge
        2 3  # number of spin states (2S+1)
        3 1  # colour rep (1: singlet, 3: triplet, 8: octet)
        4 0  # Particle/Antiparticle distinction (0=own anti)
</slha>
## END BANNER##
<MGGenerationInfo>
#  Number of Events        :         3998
#  Integrated weight (pb)  :  0.10641E+00
#  Max wgt                 :  0.36286E-04
#  Average wgt             :  0.26616E-04
</MGGenerationInfo>
</header>
<init>
     2212     2212  0.40000000000E+04  0.40000000000E+04 0 0  247000  247000 2   1
  0.10650629081E+00  0.20322373166E-03  0.36285810000E-04   0
</init>
<event>
 5   0  0.3568870E-04  0.1793825E+04  0.7818609E-02  0.8709590E-01
       -2   -1    0    0    0  501  0.00000000000E+00  0.00000000000E+00  0.38814267333E+03  0.38814267334E+03  0.25500000920E-02 0.  1.
        2   -1    0    0  501    0  0.00000000000E+00  0.00000000000E+00 -0.20725678693E+04  0.20725678693E+04  0.25500000920E-02 0. -1.
    10030    2    1    2    0    0  0.00000000000E+00  0.00000000000E+00 -0.16844251960E+04  0.24607105427E+04  0.17938250009E+04 0.  0.
        1    1    3    3  502    0 -0.40764630779E+03  0.86413399035E+02 -0.19317182371E+04  0.19761523563E+04  0.50400001928E-02 0. -1.
       -1    1    3    3    0  502  0.40764630779E+03 -0.86413399035E+02  0.24729304109E+03  0.48455818638E+03  0.50400001928E-02 0.  1.
</event>
<event>
 5   0  0.3568870E-04  0.1426424E+04  0.7818609E-02  0.8934911E-01
        2   -1    0    0  501    0  0.00000000000E+00  0.00000000000E+00  0.97527466125E+03  0.97527466125E+03  0.25500000920E-02 0.  1.
       -2   -1    0    0    0  501  0.00000000000E+00  0.00000000000E+00 -0.52156713547E+03  0.52156713548E+03  0.25500000920E-02 0. -1.
    10030    2    1    2    0    0  0.00000000000E+00  0.00000000000E+00  0.45370752578E+03  0.14968417967E+04  0.14264237959E+04 0.  0.
        1    1    3    3  502    0  0.46670799935E+03 -0.41913364645E+03 -0.12928507273E+03  0.64047170140E+03  0.50400001928E-02 0. -1.
       -1    1    3    3    0  502 -0.46670799935E+03  0.41913364645E+03  0.58299259851E+03  0.85637009533E+03  0.50400001928E-02 0.  1.
</event>
<event>
 5   0  0.3531266E-04  0.1798702E+04  0.7818609E-02  0.8706990E-01
        2   -1    0    0  501    0  0.00000000000E+00  0.00000000000E+00  0.11478975559E+04  0.11478975559E+04  0.25500000920E-02 0. -1.
       -2   -1    0    0    0  501  0.00000000000E+00  0.00000000000E+00 -0.70462043964E+03  0.70462043964E+03  0.25500000920E-02 0.  1.
    10030    2    1    2    0    0  0.00000000000E+00  0.00000000000E+00  0.44327711622E+03  0.18525179955E+04  0.17987018435E+04 0.  0.
        3    1    3    3  502    0  0.73707893132E+02  0.20798239368E+03 -0.67630858846E+03  0.71139500041E+03  0.10100000352E+00 0.  1.
       -3    1    3    3    0  502 -0.73707893132E+02 -0.20798239368E+03  0.11195857047E+04  0.11411229951E+04  0.10100000352E+00 0. -1.
</event>
<event>
 5   0  0.3568870E-04  0.1805158E+04  0.7818609E-02  0.8703561E-01
       -2   -1    0    0    0  501  0.00000000000E+00  0.00000000000E+00  0.65477859469E+03  0.65477859469E+03  0.25500000920E-02 0.  1.
        2   -1    0    0  501    0  0.00000000000E+00  0.00000000000E+00 -0.12441591867E+04  0.12441591867E+04  0.25500000920E-02 0. -1.
    10030    2    1    2    0    0  0.00000000000E+00  0.00000000000E+00 -0.58938059198E+03  0.18989377814E+04  0.18051579475E+04 0.  0.
        1    1    3    3  502    0 -0.18271920598E+02 -0.13570965301E+03 -0.12331684945E+04  0.12407479634E+04  0.50400001928E-02 0. -1.
       -1    1    3    3    0  502  0.18271920598E+02  0.13570965301E+03  0.64378790249E+03  0.65818981793E+03  0.50400001928E-02 0.  1.
</event>
<event>
 5   0  0.3531266E-04  0.1893011E+04  0.7818609E-02  0.8658343E-01
       -2   -1    0    0    0  501  0.00000000000E+00  0.00000000000E+00  0.11314083106E+04  0.11314083106E+04  0.25500000920E-02 0.  1.
        2   -1    0    0  501    0  0.00000000000E+00  0.00000000000E+00 -0.79182072668E+03  0.79182072669E+03  0.25500000920E-02 0. -1.
    10030    2    1    2    0    0  0.00000000000E+00  0.00000000000E+00  0.33958758396E+03  0.19232290373E+04  0.18930108829E+04 0.  0.
        3    1    3    3  502    0 -0.49423014716E+03 -0.67050153477E+03 -0.28686637476E+03  0.88098131289E+03  0.10100000352E+00 0. -1.
       -3    1    3    3    0  502  0.49423014716E+03  0.67050153477E+03  0.62645395872E+03  0.10422477244E+04  0.10100000352E+00 0.  1.
</event>
<event>
 5   0  0.1837313E-04  0.1781157E+04  0.7818609E-02  0.8716385E-01
        1   -1    0    0  501    0  0.00000000000E+00  0.00000000000E+00  0.14562617069E+04  0.14562617069E+04  0.50400001928E-02 0.  1.
       -1   -1    0    0    0  501  0.00000000000E+00  0.00000000000E+00 -0.54463409935E+03  0.54463409938E+03  0.50400001928E-02 0. -1.
    10030    2    1    2    0    0  0.00000000000E+00  0.00000000000E+00  0.91162760755E+03  0.20008958063E+04  0.17811566839E+04 0.  0.
        1    1    3    3  502    0 -0.35147229241E+03  0.29202118233E+03  0.13145266552E+04  0.13916858376E+04  0.50400001928E-02 0.  1.
       -1    1    3    3    0  502  0.35147229241E+03 -0.29202118233E+03 -0.40289904769E+03  0.60920996867E+03  0.50400001928E-02 0. -1.
</event>
<event>
 5   0  0.1818778E-04  0.1728054E+04  0.7818609E-02  0.8745524E-01
       -1   -1    0    0    0  501  0.00000000000E+00  0.00000000000E+00  0.40259339504E+03  0.40259339507E+03  0.50400001928E-02 0.  1.
        1   -1    0    0  501    0  0.00000000000E+00  0.00000000000E+00 -0.18543335428E+04  0.18543335428E+04  0.50400001928E-02 0. -1.
    10030    2    1    2    0    0  0.00000000000E+00  0.00000000000E+00 -0.14517401478E+04  0.22569269379E+04  0.17280537452E+04 0.  0.
        3    1    3    3  502    0 -0.25036513158E+03 -0.64284722402E+03 -0.14052769022E+04  0.15654834507E+04  0.10100000352E+00 0. -1.
       -3    1    3    3    0  502  0.25036513158E+03  0.64284722402E+03 -0.46463245609E+02  0.69144348716E+03  0.10100000352E+00 0.  1.
</event>
<event>
 5   0  0.3568870E-04  0.1809123E+04  0.7818609E-02  0.8701463E-01
       -2   -1    0    0    0  501  0.00000000000E+00  0.00000000000E+00  0.57103012626E+03  0.57103012627E+03  0.25500000920E-02 0. -1.
        2   -1    0    0  501    0  0.00000000000E+00  0.00000000000E+00 -0.14329035517E+04  0.14329035517E+04  0.25500000920E-02 0.  1.
    10030    2    1    2    0    0  0.00000000000E+00  0.00000000000E+00 -0.86187342548E+03  0.20039336780E+04  0.18091225454E+04 0.  0.
        1    1    3    3  502    0 -0.43541548298E+03  0.11913708430E+03 -0.12992149545E+04  0.13754053169E+04  0.50400001928E-02 0.  1.
       -1    1    3    3    0  502  0.43541548298E+03 -0.11913708430E+03  0.43734152904E+03  0.62852836111E+03  0.50400001928E-02 0. -1.
</event>
<event>
 5   0  0.1330125E-04  0.1796875E+04  0.7818609E-02  0.8707963E-01
        4   -1    0    0  501    0  0.00000000000E+00  0.00000000000E+00  0.10660038039E+04  0.10660045604E+04  0.12699999809E+01 0.  1.
       -4   -1    0    0    0  501  0.00000000000E+00  0.00000000000E+00 -0.75720954722E+03  0.75721061224E+03  0.12699999809E+01 0. -1.
    10030    2    1    2    0    0  0.00000000000E+00  0.00000000000E+00  0.30879425671E+03  0.18232151727E+04  0.17968749742E+04 0.  0.
        5    1    3    3  502    0 -0.36250350636E+02 -0.42298998909E+03  0.95779505021E+03  0.10476774632E+04  0.46999998093E+01 0.  1.
       -5    1    3    3    0  502  0.36250350636E+02  0.42298998909E+03 -0.64900079350E+03  0.77553770944E+03  0.46999998093E+01 0. -1.
</event>
<event>
 5   0  0.3568870E-04  0.1734989E+04  0.7818609E-02  0.8741656E-01
       -2   -1    0    0    0  501  0.00000000000E+00  0.00000000000E+00  0.10236021631E+04  0.10236021631E+04  0.25500000920E-02 0. -1.
        2   -1    0    0  501    0  0.00000000000E+00  0.00000000000E+00 -0.73519492454E+03  0.73519492454E+03  0.25500000920E-02 0.  1.
    10030    2    1    2    0    0  0.00000000000E+00  0.00000000000E+00  0.28840723856E+03  0.17587970876E+04  0.17349894698E+04 0.  0.
        1    1    3    3  502    0 -0.44301058577E+03 -0.34203308303E+03 -0.52769003160E+03  0.76922154056E+03  0.50400001928E-02 0.  1.
       -1    1    3    3    0  502  0.44301058577E+03  0.34203308303E+03  0.81609727016E+03  0.98957554708E+03  0.50400001928E-02 0. -1.
</event>
<event>
 5   0  0.3575091E-04  0.1699100E+04  0.7818609E-02  0.8761878E-01
        2   -1    0    0  501    0  0.00000000000E+00  0.00000000000E+00  0.12323363937E+04  0.12323363937E+04  0.25500000920E-02 0.  1.
       -2   -1    0    0    0  501  0.00000000000E+00  0.00000000000E+00 -0.58566426706E+03  0.58566426706E+03  0.25500000920E-02 0. -1.
    10030    2    1    2    0    0  0.00000000000E+00  0.00000000000E+00  0.64667212663E+03  0.18180006608E+04  0.16991002216E+04 0.  0.
        5    1    3    3  502    0 -0.10722620956E+03  0.53691821020E+03 -0.37168449293E+03  0.66177796635E+03  0.46999998093E+01 0. -1.
       -5    1    3    3    0  502  0.10722620956E+03 -0.53691821020E+03  0.10183566196E+04  0.11562226944E+04  0.46999998093E+01 0.  1.
</event>
<event>
 5   0  0.3575091E-04  0.1698241E+04  0.7818609E-02  0.8762368E-01
       -2   -1    0    0    0  501  0.00000000000E+00  0.00000000000E+00  0.12465651586E+04  0.12465651586E+04  0.25500000920E-02 0.  1.
        2   -1    0    0  501    0  0.00000000000E+00  0.00000000000E+00 -0.57839366315E+03  0.57839366315E+03  0.25500000920E-02 0. -1.
    10030    2    1    2    0    0  0.00000000000E+00  0.00000000000E+00  0.66817149545E+03  0.18249588218E+04  0.16982407232E+04 0.  0.
        5    1    3    3  502    0 -0.73787169682E+03  0.18400713710E+03  0.73998681794E+03  0.10610918189E+04  0.46999998093E+01 0.  1.
       -5    1    3    3    0  502  0.73787169682E+03 -0.18400713710E+03 -0.71815322484E+02  0.76386700283E+03  0.46999998093E+01 0. -1.
</event>
<event>
 5   0  0.1883959E-04  0.1800568E+04  0.7818609E-02  0.8705997E-01
        1   -1    0    0  501    0  0.00000000000E+00  0.00000000000E+00  0.12081568600E+04  0.12081568600E+04  0.50400001928E-02 0. -1.
       -1   -1    0    0    0  501  0.00000000000E+00  0.00000000000E+00 -0.67086615367E+03  0.67086615369E+03  0.50400001928E-02 0.  1.
    10030    2    1    2    0    0  0.00000000000E+00  0.00000000000E+00  0.53729070635E+03  0.18790230137E+04  0.18005682944E+04 0.  0.
        5    1    3    3  502    0 -0.20632294351E+03  0.14628206510E+03  0.11703073476E+04  0.11973341127E+04  0.46999998093E+01 0. -1.
       -5    1    3    3    0  502  0.20632294351E+03 -0.14628206510E+03 -0.63301664128E+03  0.68168890099E+03  0.46999998093E+01 0.  1.
</event>
<event>
 5   0  0.1330125E-04  0.1789314E+04  0.7818609E-02  0.8712003E-01
       -3   -1    0    0    0  501  0.00000000000E+00  0.00000000000E+00  0.12896334268E+04  0.12896334307E+04  0.10100000352E+00 0.  1.
        3   -1    0    0  501    0  0.00000000000E+00  0.00000000000E+00 -0.62065005870E+03  0.62065006692E+03  0.10100000352E+00 0. -1.
    10030    2    1    2    0    0  0.00000000000E+00  0.00000000000E+00  0.66898336807E+03  0.19102834976E+04  0.17893139173E+04 0.  0.
        3    1    3    3  502    0  0.77513242544E+02  0.18103741967E+03  0.12662060584E+04  0.12814291407E+04  0.10100000352E+00 0.  1.
       -3    1    3    3    0  502 -0.77513242544E+02 -0.18103741967E+03 -0.59722269037E+03  0.62885435690E+03  0.10100000352E+00 0. -1.
</event>
<event>
 5   0  0.1837313E-04  0.1792945E+04  0.7818609E-02  0.8710060E-01
        1   -1    0    0  501    0  0.00000000000E+00  0.00000000000E+00  0.20075788490E+04  0.20075788490E+04  0.50400001928E-02 0. -1.
       -1   -1    0    0    0  501  0.00000000000E+00  0.00000000000E+00 -0.40031445366E+03  0.40031445369E+03  0.50400001928E-02 0.  1.
    10030    2    1    2    0    0  0.00000000000E+00  0.00000000000E+00  0.16072643953E+04  0.24078933027E+04  0.17929448738E+04 0.  0.
        1    1    3    3  502    0  0.41145134358E+02  0.45158037439E+02  0.20047800615E+04  0.20057106634E+04  0.50400001928E-02 0. -1.
       -1    1    3    3    0  502 -0.41145134358E+02 -0.45158037439E+02 -0.39751566617E+03  0.40218263924E+03  0.50400001928E-02 0.  1.
</event>
<event>
 5   0  0.1818778E-04  0.1798455E+04  0.7818609E-02  0.8707121E-01
       -1   -1    0    0    0  501  0.00000000000E+00  0.00000000000E+00  0.81074456823E+03  0.81074456825E+03  0.50400001928E-02 0.  1.
        1   -1    0    0  501    0  0.00000000000E+00  0.00000000000E+00 -0.99736730740E+03  0.99736730741E+03  0.50400001928E-02 0. -1.
    10030    2    1    2    0    0  0.00000000000E+00  0.00000000000E+00 -0.18662273917E+03  0.18081118757E+04  0.17984550337E+04 0.  0.
        3    1    3    3  502    0  0.24445588356E+03  0.50033651041E+03 -0.80315836627E+03  0.97732219568E+03  0.10100000352E+00 0. -1.
       -3    1    3    3    0  502 -0.24445588356E+03 -0.50033651041E+03  0.61653562711E+03  0.83078967997E+03  0.10100000352E+00 0.  1.
</event>
<event>
 5   0  0.1818778E-04  0.1818650E+04  0.7818609E-02  0.8696444E-01
       -1   -1    0    0    0  501  0.00000000000E+00  0.00000000000E+00  0.69785930752E+03  0.69785930753E+03  0.50400001928E-02 0. -1.
        1   -1    0    0  501    0  0.00000000000E+00  0.00000000000E+00 -0.11848685351E+04  0.11848685351E+04  0.50400001928E-02 0.  1.
    10030    2    1    2    0    0  0.00000000000E+00  0.00000000000E+00 -0.48700922758E+03  0.18827278426E+04  0.18186495379E+04 0.  0.
        3    1    3    3  502    0  0.28846494955E+03 -0.84382580847E+03 -0.42758279444E+03  0.98897981701E+03  0.10100000352E+00 0.  1.
       -3    1    3    3    0  502 -0.28846494955E+03  0.84382580847E+03 -0.59426433135E+02  0.89374802563E+03  0.10100000352E+00 0. -1.
</event>
<event>
 5   0  0.3568870E-04  0.1790677E+04  0.7818609E-02  0.8711273E-01
        2   -1    0    0  501    0  0.00000000000E+00  0.00000000000E+00  0.15281713528E+04  0.15281713528E+04  0.25500000920E-02 0.  1.
       -2   -1    0    0    0  501  0.00000000000E+00  0.00000000000E+00 -0.52456883391E+03  0.52456883392E+03  0.25500000920E-02 0. -1.
    10030    2    1    2    0    0  0.00000000000E+00  0.00000000000E+00  0.10036025189E+04  0.20527401867E+04  0.17906770391E+04 0.  0.
        1    1    3    3  502    0 -0.23570646991E+03 -0.19643940772E+03 -0.46241702696E+03  0.55495539254E+03  0.50400001928E-02 0. -1.
       -1    1    3    3    0  502  0.23570646991E+03  0.19643940772E+03  0.14660195459E+04  0.14977847942E+04  0.50400001928E-02 0.  1.
</event>
<event>
 5   0  0.1825253E-04  0.1733812E+04  0.7818609E-02  0.8742312E-01
        1   -1    0    0  501    0  0.00000000000E+00  0.00000000000E+00  0.19253827462E+04  0.19253827462E+04  0.50400001928E-02 0. -1.
       -1   -1    0    0    0  501  0.00000000000E+00  0.00000000000E+00 -0.39032545695E+03  0.39032545698E+03  0.50400001928E-02 0.  1.
    10030    2    1    2    0    0  0.00000000000E+00  0.00000000000E+00  0.15350572893E+04  0.23157082032E+04  0.17338118702E+04 0.  0.
        4    1    3    3  502    0  0.41119942358E+03  0.50792508840E+03  0.67528158942E+01  0.65354424089E+03  0.12699999809E+01 0.  1.
       -4    1    3    3    0  502 -0.41119942358E+03 -0.50792508840E+03  0.15283044734E+04  0.16621639623E+04  0.12699999809E+01 0. -1.
</event>
<event>
 5   0  0.1837313E-04  0.1842549E+04  0.7818609E-02  0.8683994E-01
       -1   -1    0    0    0  501  0.00000000000E+00  0.00000000000E+00  0.46269082319E+03  0.46269082322E+03  0.50400001928E-02 0.  1.
        1   -1    0    0  501    0  0.00000000000E+00  0.00000000000E+00 -0.18343714731E+04  0.18343714731E+04  0.50400001928E-02 0. -1.
    10030    2    1    2    0    0  0.00000000000E+00  0.00000000000E+00 -0.13716806499E+04  0.22970622964E+04  0.18425491548E+04 0.  0.
        1    1    3    3  502    0  0.34424601719E+03  0.53142501467E+03  0.14843574788E+03  0.65034685964E+03  0.50400001928E-02 0.  1.
       -1    1    3    3    0  502 -0.34424601719E+03 -0.53142501467E+03 -0.15201163978E+04  0.16467154367E+04  0.50400001928E-02 0. -1.
</event>
<event>
 5   0  0.3628581E-04  0.1719624E+04  0.7818609E-02  0.8750250E-01
       -2   -1    0    0    0  501  0.00000000000E+00  0.00000000000E+00  0.79905494659E+03  0.79905494659E+03  0.25500000920E-02 0.  1.
        2   -1    0    0  501    0  0.00000000000E+00  0.00000000000E+00 -0.92518893234E+03  0.92518893234E+03  0.25500000920E-02 0. -1.
    10030    2    1    2    0    0  0.00000000000E+00  0.00000000000E+00 -0.12613398575E+03  0.17242438789E+04  0.17196241367E+04 0.  0.
        2    1    3    3  502    0  0.49086514607E+03 -0.70295531934E+03 -0.12790926572E+03  0.86686536029E+03  0.25500000920E-02 0.  1.
       -2    1    3    3    0  502 -0.49086514607E+03  0.70295531934E+03  0.17752799646E+01  0.85737851865E+03  0.25500000920E-02 0. -1.
</event>
<event>
 5   0  0.1818778E-04  0.1808370E+04  0.7818609E-02  0.8701861E-01
       -1   -1    0    0    0  501  0.00000000000E+00  0.00000000000E+00  0.60968512262E+03  0.60968512264E+03  0.50400001928E-02 0. -1.
        1   -1    0    0  501    0  0.00000000000E+00  0.00000000000E+00 -0.13409386962E+04  0.13409386962E+04  0.50400001928E-02 0.  1.
    10030    2    1    2    0    0  0.00000000000E+00  0.00000000000E+00 -0.73125357357E+03  0.19506238188E+04  0.18083698443E+04 0.  0.
        3    1    3    3  502    0 -0.43813711252E+03 -0.58874547682E+03  0.20409276500E+03  0.76173435841E+03  0.10100000352E+00 0. -1.
       -3    1    3    3    0  502  0.43813711252E+03  0.58874547682E+03 -0.93534633857E+03  0.11888894604E+04  0.10100000352E+00 0.  1.
</event>
<event>
 5   0  0.1330125E-04  0.1789086E+04  0.7818609E-02  0.8712125E-01
       -3   -1    0    0    0  501  0.00000000000E+00  0.00000000000E+00  0.73504594548E+03  0.73504595242E+03  0.10100000352E+00 0.  1.
        3   -1    0    0  501    0  0.00000000000E+00  0.00000000000E+00 -0.10886489439E+04  0.10886489485E+04  0.10100000352E+00 0. -1.
    10030    2    1    2    0    0  0.00000000000E+00  0.00000000000E+00 -0.35360299837E+03  0.18236949010E+04  0.17890858032E+04 0.  0.
        5    1    3    3  502    0 -0.85874931690E+02  0.62917273972E+03 -0.81903070453E+03  0.10363716637E+04  0.46999998093E+01 0. -1.
       -5    1    3    3    0  502  0.85874931690E+02 -0.62917273972E+03  0.46542770616E+03  0.78732323728E+03  0.46999998093E+01 0.  1.
</event>
<event>
 5   0  0.3531266E-04  0.1794417E+04  0.7818609E-02  0.8709274E-01
        2   -1    0    0  501    0  0.00000000000E+00  0.00000000000E+00  0.71668672150E+03  0.71668672150E+03  0.25500000920E-02 0. -1.
       -2   -1    0    0    0  501  0.00000000000E+00  0.00000000000E+00 -0.11232006427E+04  0.11232006427E+04  0.25500000920E-02 0.  1.
    10030    2    1    2    0    0  0.00000000000E+00  0.00000000000E+00 -0.40651392122E+03  0.18398873642E+04  0.17944168816E+04 0.  0.
        3    1    3    3  502    0  0.48078991421E+03 -0.51495187627E+03 -0.77289639406E+03  0.10458026691E+04  0.10100000352E+00 0.  1.
       -3    1    3    3    0  502 -0.48078991421E+03  0.51495187627E+03  0.36638247284E+03  0.79408469516E+03  0.10100000352E+00 0. -1.
</event>
<event>
 5   0  0.1837313E-04  0.1798209E+04  0.7818609E-02  0.8707252E-01
       -1   -1    0    0    0  501  0.00000000000E+00  0.00000000000E+00  0.10334777077E+04  0.10334777077E+04  0.50400001928E-02 0.  1.
        1   -1    0    0  501    0  0.00000000000E+00  0.00000000000E+00 -0.78220262266E+03  0.78220262267E+03  0.50400001928E-02 0. -1.
    10030    2    1    2    0    0  0.00000000000E+00  0.00000000000E+00  0.25127508508E+03  0.18156803304E+04  0.17982090796E+04 0.  0.
        1    1    3    3  502    0  0.29964074568E+03 -0.15490345872E+03  0.96716735149E+03  0.10243009049E+04  0.50400001928E-02 0.  1.
       -1    1    3    3    0  502 -0.29964074568E+03  0.15490345872E+03 -0.71589226641E+03  0.79137942551E+03  0.50400001928E-02 0. -1.
</event>
<event>
 5   0  0.3628581E-04  0.1740908E+04  0.7818609E-02  0.8738371E-01
       -2   -1    0    0    0  501  0.00000000000E+00  0.00000000000E+00  0.24425767698E+03  0.24425767700E+03  0.25500000920E-02 0. -1.
        2   -1    0    0  501    0  0.00000000000E+00  0.00000000000E+00 -0.31020130558E+04  0.31020130558E+04  0.25500000920E-02 0.  1.
    10030    2    1    2    0    0  0.00000000000E+00  0.00000000000E+00 -0.28577553788E+04  0.33462707328E+04  0.17409083870E+04 0.  0.
        2    1    3    3  502    0 -0.56777781721E+03 -0.57361378076E+03 -0.80223011910E+03  0.11379708183E+04  0.25500000920E-02 0. -1.
       -2    1    3    3    0  502  0.56777781721E+03  0.57361378076E+03 -0.20555252597E+04  0.22082999145E+04  0.25500000920E-02 0.  1.
</event>
<event>
 5   0  0.1835421E-04  0.1814974E+04  0.7818609E-02  0.8698377E-01
        1   -1    0    0  501    0  0.00000000000E+00  0.00000000000E+00  0.14325013900E+04  0.14325013900E+04  0.50400001928E-02 0.  1.
       -1   -1    0    0    0  501  0.00000000000E+00  0.00000000000E+00 -0.57489127019E+03  0.57489127021E+03  0.50400001928E-02 0. -1.
    10030    2    1    2    0    0  0.00000000000E+00  0.00000000000E+00  0.85761011978E+03  0.20073926602E+04  0.18149738771E+04 0.  0.
        2    1    3    3  502    0 -0.51862837952E+03 -0.64290464811E+03  0.84445392874E+03  0.11812722888E+04  0.25500000920E-02 0.  1.
       -2    1    3    3    0  502  0.51862837952E+03  0.64290464811E+03  0.13156191042E+02  0.82612037136E+03  0.25500000920E-02 0. -1.
</event>
<event>
 5   0  0.3531266E-04  0.1617690E+04  0.7818609E-02  0.8809753E-01
        2   -1    0    0  501    0  0.00000000000E+00  0.00000000000E+00  0.24735077248E+04  0.24735077248E+04  0.25500000920E-02 0.  1.
       -2   -1    0    0    0  501  0.00000000000E+00  0.00000000000E+00 -0.26449500521E+03  0.26449500522E+03  0.25500000920E-02 0. -1.
    10030    2    1    2    0    0  0.00000000000E+00  0.00000000000E+00  0.22090127196E+04  0.27380027300E+04  0.16176902529E+04 0.  0.
        3    1    3    3  502    0  0.17922459906E+03 -0.78682166397E+03  0.10114838539E+04  0.12939510751E+04  0.10100000352E+00 0.  1.
       -3    1    3    3    0  502 -0.17922459906E+03  0.78682166397E+03  0.11975288657E+04  0.14440516550E+04  0.10100000352E+00 0. -1.
</event>
<event>
 5   0  0.3575091E-04  0.1813724E+04  0.7818609E-02  0.8699035E-01
       -2   -1    0    0    0  501  0.00000000000E+00  0.00000000000E+00  0.92977752664E+03  0.92977752664E+03  0.25500000920E-02 0.  1.
        2   -1    0    0  501    0  0.00000000000E+00  0.00000000000E+00 -0.88451108643E+03  0.88451108644E+03  0.25500000920E-02 0. -1.
    10030    2    1    2    0    0  0.00000000000E+00  0.00000000000E+00  0.45266440208E+02  0.18142886131E+04  0.18137238271E+04 0.  0.
        5    1    3    3  502    0 -0.52820230684E+03  0.17539127765E+03 -0.69356226025E+03  0.88927525326E+03  0.46999998093E+01 0. -1.
       -5    1    3    3    0  502  0.52820230684E+03 -0.17539127765E+03  0.73882870045E+03  0.92501335982E+03  0.46999998093E+01 0.  1.
</event>
<event>
 5   0  0.1835421E-04  0.1778833E+04  0.7818609E-02  0.8717637E-01
       -1   -1    0    0    0  501  0.00000000000E+00  0.00000000000E+00  0.94222292498E+03  0.94222292499E+03  0.50400001928E-02 0.  1.
        1   -1    0    0  501    0  0.00000000000E+00  0.00000000000E+00 -0.83956963846E+03  0.83956963848E+03  0.50400001928E-02 0. -1.
    10030    2    1    2    0    0  0.00000000000E+00  0.00000000000E+00  0.10265328652E+03  0.17817925635E+04  0.17788330563E+04 0.  0.
        2    1    3    3  502    0  0.29192004170E+03 -0.53148358737E+03  0.70307779821E+03  0.92844520826E+03  0.25500000920E-02 0.  1.
       -2    1    3    3    0  502 -0.29192004170E+03  0.53148358737E+03 -0.60042451170E+03  0.85334735521E+03  0.25500000920E-02 0. -1.
</event>
<event>
 5   0  0.3531266E-04  0.1788114E+04  0.7818609E-02  0.8712646E-01
       -2   -1    0    0    0  501  0.00000000000E+00  0.00000000000E+00  0.39083760993E+03  0.39083760994E+03  0.25500000920E-02 0. -1.
        2   -1    0    0  501    0  0.00000000000E+00  0.00000000000E+00 -0.20451918735E+04  0.20451918735E+04  0.25500000920E-02 0.  1.
    10030    2    1    2    0    0  0.00000000000E+00  0.00000000000E+00 -0.16543542636E+04  0.24360294835E+04  0.17881139826E+04 0.  0.
        3    1    3    3  502    0 -0.96456344001E+02  0.83001642886E+03 -0.39398803904E+03  0.92382773480E+03  0.10100000352E+00 0. -1.
       -3    1    3    3    0  502  0.96456344001E+02 -0.83001642886E+03 -0.12603662246E+04  0.15122017487E+04  0.10100000352E+00 0.  1.
</event>
<event>
 5   0  0.3568870E-04  0.1791614E+04  0.7818609E-02  0.8710772E-01
       -2   -1    0    0    0  501  0.00000000000E+00  0.00000000000E+00  0.58238612905E+03  0.58238612905E+03  0.25500000920E-02 0.  1.
        2   -1    0    0  501    0  0.00000000000E+00  0.00000000000E+00 -0.13779003247E+04  0.13779003247E+04  0.25500000920E-02 0. -1.
    10030    2    1    2    0    0  0.00000000000E+00  0.00000000000E+00 -0.79551419566E+03  0.19602864538E+04  0.17916138382E+04 0.  0.
        1    1    3    3  502    0  0.35815071213E+02  0.64744868459E+03  0.27848997932E+03  0.70571183008E+03  0.50400001928E-02 0.  1.
       -1    1    3    3    0  502 -0.35815071213E+02 -0.64744868459E+03 -0.10740041750E+04  0.12545746237E+04  0.50400001928E-02 0. -1.
</event>
<event>
 5   0  0.1818778E-04  0.1791974E+04  0.7818609E-02  0.8710579E-01
        1   -1    0    0  501    0  0.00000000000E+00  0.00000000000E+00  0.13308644464E+04  0.13308644464E+04  0.50400001928E-02 0. -1.
       -1   -1    0    0    0  501  0.00000000000E+00  0.00000000000E+00 -0.60321176848E+03  0.60321176850E+03  0.50400001928E-02 0.  1.
    10030    2    1    2    0    0  0.00000000000E+00  0.00000000000E+00  0.72765267795E+03  0.19340762149E+04  0.17919744377E+04 0.  0.
        3    1    3    3  502    0  0.32228323541E+03  0.82665171678E+03  0.49851637400E+03  0.10177122039E+04  0.10100000352E+00 0. -1.
       -3    1    3    3    0  502 -0.32228323541E+03 -0.82665171678E+03  0.22913630395E+03  0.91636401101E+03  0.10100000352E+00 0.  1.
</event>
<event>
 5   0  0.3531266E-04  0.1804079E+04  0.7818609E-02  0.8704133E-01
        2   -1    0    0  501    0  0.00000000000E+00  0.00000000000E+00  0.72758800180E+03  0.72758800181E+03  0.25500000920E-02 0.  1.
       -2   -1    0    0    0  501  0.00000000000E+00  0.00000000000E+00 -0.11183189229E+04  0.11183189229E+04  0.25500000920E-02 0. -1.
    10030    2    1    2    0    0  0.00000000000E+00  0.00000000000E+00 -0.39073092110E+03  0.18459069247E+04  0.18040791895E+04 0.  0.
        3    1    3    3  502    0  0.26207725017E+03  0.66373221287E+03 -0.75992862301E+03  0.10424569333E+04  0.10100000352E+00 0. -1.
       -3    1    3    3    0  502 -0.26207725017E+03 -0.66373221287E+03  0.36919770191E+03  0.80344999144E+03  0.10100000352E+00 0.  1.
</event>
<event>
 5   0  0.1825253E-04  0.1438877E+04  0.7818609E-02  0.8926148E-01
        1   -1    0    0  501    0  0.00000000000E+00  0.00000000000E+00  0.55314807516E+03  0.55314807518E+03  0.50400001928E-02 0.  1.
       -1   -1    0    0    0  501  0.00000000000E+00  0.00000000000E+00 -0.93572007384E+03  0.93572007385E+03  0.50400001928E-02 0. -1.
    10030    2    1    2    0    0  0.00000000000E+00  0.00000000000E+00 -0.38257199868E+03  0.14888681490E+04  0.14388770034E+04 0.  0.
        4    1    3    3  502    0  0.46668472359E+03 -0.50791193868E+03 -0.40289281436E+03  0.79880748710E+03  0.12699999809E+01 0. -1.
       -4    1    3    3    0  502 -0.46668472359E+03  0.50791193868E+03  0.20320815685E+02  0.69006066193E+03  0.12699999809E+01 0.  1.
</event>
<event>
 5   0  0.1837313E-04  0.1775933E+04  0.7818609E-02  0.8719203E-01
        1   -1    0    0  501    0  0.00000000000E+00  0.00000000000E+00  0.92279555574E+03  0.92279555576E+03  0.50400001928E-02 0.  1.
       -1   -1    0    0    0  501  0.00000000000E+00  0.00000000000E+00 -0.85445245874E+03  0.85445245875E+03  0.50400001928E-02 0. -1.
    10030    2    1    2    0    0  0.00000000000E+00  0.00000000000E+00  0.68343097006E+02  0.17772480145E+04  0.17759334802E+04 0.  0.
        1    1    3    3  502    0 -0.35427088599E+03 -0.35157197193E+03 -0.70079307475E+03  0.86036134603E+03  0.50400001928E-02 0. -1.
       -1    1    3    3    0  502  0.35427088599E+03  0.35157197193E+03  0.76913617175E+03  0.91688666848E+03  0.50400001928E-02 0.  1.
</event>
<event>
 5   0  0.1818778E-04  0.1801443E+04  0.7818609E-02  0.8705532E-01
        1   -1    0    0  501    0  0.00000000000E+00  0.00000000000E+00  0.42984245947E+03  0.42984245950E+03  0.50400001928E-02 0.  1.
       -1   -1    0    0    0  501  0.00000000000E+00  0.00000000000E+00 -0.18874348676E+04  0.18874348676E+04  0.50400001928E-02 0. -1.
    10030    2    1    2    0    0  0.00000000000E+00  0.00000000000E+00 -0.14575924082E+04  0.23172773271E+04  0.18014434719E+04 0.  0.
        3    1    3    3  502    0  0.14569225405E+03  0.14254885387E+03 -0.18573782387E+04  0.18685289242E+04  0.10100000352E+00 0. -1.
       -3    1    3    3    0  502 -0.14569225405E+03 -0.14254885387E+03  0.39978583057E+03  0.44874840295E+03  0.10100000352E+00 0.  1.
</event>
<event>
 5   0  0.3582186E-04  0.1825028E+04  0.7818609E-02  0.8693102E-01
       -2   -1    0    0    0  501  0.00000000000E+00  0.00000000000E+00  0.60891383927E+03  0.60891383927E+03  0.25500000920E-02 0.  1.
        2   -1    0    0  501    0  0.00000000000E+00  0.00000000000E+00 -0.13674870745E+04  0.13674870745E+04  0.25500000920E-02 0. -1.
    10030    2    1    2    0    0  0.00000000000E+00  0.00000000000E+00 -0.75857323526E+03  0.19764009138E+04  0.18250280049E+04 0.  0.
        4    1    3    3  502    0  0.53577934784E+03 -0.40194627021E+03  0.29184080211E+03  0.73061137439E+03  0.12699999809E+01 0.  1.
       -4    1    3    3    0  502 -0.53577934784E+03  0.40194627021E+03 -0.10504140374E+04  0.12457895394E+04  0.12699999809E+01 0. -1.
</event>
<event>
 5   0  0.3582186E-04  0.1741321E+04  0.7818609E-02  0.8738142E-01
        2   -1    0    0  501    0  0.00000000000E+00  0.00000000000E+00  0.22643023462E+04  0.22643023462E+04  0.25500000920E-02 0. -1.
       -2   -1    0    0    0  501  0.00000000000E+00  0.00000000000E+00 -0.33478290809E+03  0.33478290810E+03  0.25500000920E-02 0.  1.
    10030    2    1    2    0    0  0.00000000000E+00  0.00000000000E+00  0.19295194381E+04  0.25990852543E+04  0.17413210207E+04 0.  0.
        4    1    3    3  502    0  0.21180915607E+03  0.83949356743E+03  0.82767210910E+03  0.11977709720E+04  0.12699999809E+01 0.  1.
       -4    1    3    3    0  502 -0.21180915607E+03 -0.83949356743E+03  0.11018473290E+04  0.14013142823E+04  0.12699999809E+01 0. -1.
</event>
<event>
 5   0  0.1330125E-04  0.1821131E+04  0.7818609E-02  0.8695142E-01
       -4   -1    0    0    0  501  0.00000000000E+00  0.00000000000E+00  0.11108080531E+04  0.11108087791E+04  0.12699999809E+01 0. -1.
        4   -1    0    0  501    0  0.00000000000E+00  0.00000000000E+00 -0.74641867469E+03  0.74641975511E+03  0.12699999809E+01 0.  1.
    10030    2    1    2    0    0  0.00000000000E+00  0.00000000000E+00  0.36438937841E+03  0.18572285342E+04  0.18211310247E+04 0.  0.
        2    1    3    3  502    0 -0.35524120174E+03 -0.28666007398E+03 -0.62130507158E+03  0.77096712084E+03  0.25500000920E-02 0.  1.
       -2    1    3    3    0  502  0.35524120174E+03  0.28666007398E+03  0.98569444999E+03  0.10862614134E+04  0.25500000920E-02 0. -1.
</event>
<event>
 5   0  0.1818778E-04  0.1658504E+04  0.7818609E-02  0.8785391E-01
       -1   -1    0    0    0  501  0.00000000000E+00  0.00000000000E+00  0.62779927331E+03  0.62779927333E+03  0.50400001928E-02 0. -1.
        1   -1    0    0  501    0  0.00000000000E+00  0.00000000000E+00 -0.10953484236E+04  0.10953484236E+04  0.50400001928E-02 0.  1.
    10030    2    1    2    0    0  0.00000000000E+00  0.00000000000E+00 -0.46754915032E+03  0.17231476970E+04  0.16585040783E+04 0.  0.
        3    1    3    3  502    0  0.45248329810E+03 -0.44249990432E+03  0.32293841539E+03  0.71051849429E+03  0.10100000352E+00 0. -1.
       -3    1    3    3    0  502 -0.45248329810E+03  0.44249990432E+03 -0.79048756571E+03  0.10126292027E+04  0.10100000352E+00 0.  1.
</event>
<event>
 5   0  0.1883959E-04  0.1812698E+04  0.7818609E-02  0.8699576E-01
       -1   -1    0    0    0  501  0.00000000000E+00  0.00000000000E+00  0.57400063388E+03  0.57400063390E+03  0.50400001928E-02 0.  1.
        1   -1    0    0  501    0  0.00000000000E+00  0.00000000000E+00 -0.14311277421E+04  0.14311277421E+04  0.50400001928E-02 0. -1.
    10030    2    1    2    0    0  0.00000000000E+00  0.00000000000E+00 -0.85712710822E+03  0.20051283760E+04  0.18126976926E+04 0.  0.
        5    1    3    3  502    0  0.74652222306E+03  0.10794648957E+03 -0.98439869734E+03  0.12401656177E+04  0.46999998093E+01 0. -1.
       -5    1    3    3    0  502 -0.74652222306E+03 -0.10794648957E+03  0.12727158911E+03  0.76496275826E+03  0.46999998093E+01 0.  1.
</event>
<event>
 5   0  0.3628581E-04  0.1875286E+04  0.7818609E-02  0.8667257E-01
       -2   -1    0    0    0  501  0.00000000000E+00  0.00000000000E+00  0.84919129143E+03  0.84919129144E+03  0.25500000920E-02 0. -1.
        2   -1    0    0  501    0  0.00000000000E+00  0.00000000000E+00 -0.10353074587E+04  0.10353074587E+04  0.25500000920E-02 0.  1.
    10030    2    1    2    0    0  0.00000000000E+00  0.00000000000E+00 -0.18611616725E+03  0.18844987501E+04  0.18752856613E+04 0.  0.
        2    1    3    3  502    0 -0.66873730865E+03  0.45268453242E+03 -0.57188743208E+03  0.98953934174E+03  0.25500000920E-02 0.  1.
       -2    1    3    3    0  502  0.66873730865E+03 -0.45268453242E+03  0.38577126483E+03  0.89495940838E+03  0.25500000920E-02 0. -1.
</event>
<event>
 5   0  0.3531266E-04  0.1792732E+04  0.7818609E-02  0.8710174E-01
       -2   -1    0    0    0  501  0.00000000000E+00  0.00000000000E+00  0.46160301788E+03  0.46160301789E+03  0.25500000920E-02 0. -1.
        2   -1    0    0  501    0  0.00000000000E+00  0.00000000000E+00 -0.17406124145E+04  0.17406124145E+04  0.25500000920E-02 0.  1.
    10030    2    1    2    0    0  0.00000000000E+00  0.00000000000E+00 -0.12790093966E+04  0.22022154324E+04  0.17927319303E+04 0.  0.
        3    1    3    3  502    0  0.74244195272E+02  0.46789473197E+03  0.29524767276E+03  0.55821938269E+03  0.10100000352E+00 0. -1.
       -3    1    3    3    0  502 -0.74244195272E+02 -0.46789473197E+03 -0.15742570694E+04  0.16439960497E+04  0.10100000352E+00 0.  1.
</event>
<event>
 5   0  0.3568870E-04  0.1817863E+04  0.7818609E-02  0.8696857E-01
       -2   -1    0    0    0  501  0.00000000000E+00  0.00000000000E+00  0.52551846374E+03  0.52551846375E+03  0.25500000920E-02 0.  1.
        2   -1    0    0  501    0  0.00000000000E+00  0.00000000000E+00 -0.15720788820E+04  0.15720788820E+04  0.25500000920E-02 0. -1.
    10030    2    1    2    0    0  0.00000000000E+00  0.00000000000E+00 -0.10465604182E+04  0.20975973457E+04  0.18178630080E+04 0.  0.
        1    1    3    3  502    0 -0.13332625299E+03  0.16151786331E+03 -0.15438567352E+04  0.15579979232E+04  0.50400001928E-02 0. -1.
       -1    1    3    3    0  502  0.13332625299E+03 -0.16151786331E+03  0.49729631695E+03  0.53959942252E+03  0.50400001928E-02 0.  1.
</event>
<event>
 5   0  0.3628581E-04  0.1771188E+04  0.7818609E-02  0.8721773E-01
       -2   -1    0    0    0  501  0.00000000000E+00  0.00000000000E+00  0.46298198648E+03  0.46298198649E+03  0.25500000920E-02 0.  1.
        2   -1    0    0  501    0  0.00000000000E+00  0.00000000000E+00 -0.16939681422E+04  0.16939681422E+04  0.25500000920E-02 0. -1.
    10030    2    1    2    0    0  0.00000000000E+00  0.00000000000E+00 -0.12309861557E+04  0.21569501287E+04  0.17711880030E+04 0.  0.
        2    1    3    3  502    0  0.57448795674E+03  0.60408504456E+03 -0.25153308725E+03  0.87076061434E+03  0.25500000920E-02 0.  1.
       -2    1    3    3    0  502 -0.57448795674E+03 -0.60408504456E+03 -0.97945306848E+03  0.12861895144E+04  0.25500000920E-02 0. -1.
</event>
<event>
 5   0  0.3531266E-04  0.1800973E+04  0.7818609E-02  0.8705782E-01
        2   -1    0    0  501    0  0.00000000000E+00  0.00000000000E+00  0.97388387431E+03  0.97388387431E+03  0.25500000920E-02 0.  1.
       -2   -1    0    0    0  501  0.00000000000E+00  0.00000000000E+00 -0.83262089150E+03  0.83262089151E+03  0.25500000920E-02 0. -1.
    10030    2    1    2    0    0  0.00000000000E+00  0.00000000000E+00  0.14126298281E+03  0.18065047658E+04  0.18009731366E+04 0.  0.
        3    1    3    3  502    0 -0.15024300183E+03 -0.73333613654E+03  0.57268975417E+03  0.94251175774E+03  0.10100000352E+00 0.  1.
       -3    1    3    3    0  502  0.15024300183E+03  0.73333613654E+03 -0.43142677136E+03  0.86399300808E+03  0.10100000352E+00 0. -1.
</event>
<event>
 5   0  0.1818778E-04  0.1779185E+04  0.7818609E-02  0.8717448E-01
       -1   -1    0    0    0  501  0.00000000000E+00  0.00000000000E+00  0.58504925178E+03  0.58504925181E+03  0.50400001928E-02 0. -1.
        1   -1    0    0  501    0  0.00000000000E+00  0.00000000000E+00 -0.13526635712E+04  0.13526635712E+04  0.50400001928E-02 0.  1.
    10030    2    1    2    0    0  0.00000000000E+00  0.00000000000E+00 -0.76761431938E+03  0.19377128230E+04  0.17791849935E+04 0.  0.
        3    1    3    3  502    0 -0.65118373918E+03  0.94313196589E+02  0.26823589517E+03  0.71055312742E+03  0.10100000352E+00 0. -1.
       -3    1    3    3    0  502  0.65118373918E+03 -0.94313196589E+02 -0.10358502145E+04  0.12271596956E+04  0.10100000352E+00 0.  1.
</event>
<event>
 5   0  0.3575091E-04  0.1793044E+04  0.7818609E-02  0.8710007E-01
        2   -1    0    0  501    0  0.00000000000E+00  0.00000000000E+00  0.11715486244E+04  0.11715486244E+04  0.25500000920E-02 0.  1.
       -2   -1    0    0    0  501  0.00000000000E+00  0.00000000000E+00 -0.68605910109E+03  0.68605910109E+03  0.25500000920E-02 0. -1.
    10030    2    1    2    0    0  0.00000000000E+00  0.00000000000E+00  0.48548952334E+03  0.18576077255E+04  0.17930438881E+04 0.  0.
        5    1    3    3  502    0  0.78318725139E+03 -0.27575099530E+03 -0.10752495189E+03  0.83726016710E+03  0.46999998093E+01 0.  1.
       -5    1    3    3    0  502 -0.78318725139E+03  0.27575099530E+03  0.59301447522E+03  0.10203475584E+04  0.46999998093E+01 0. -1.
</event>
<event>
 5   0  0.1883959E-04  0.1803842E+04  0.7818609E-02  0.8704259E-01
        1   -1    0    0  501    0  0.00000000000E+00  0.00000000000E+00  0.26000440499E+04  0.26000440499E+04  0.50400001928E-02 0. -1.
       -1   -1    0    0    0  501  0.00000000000E+00  0.00000000000E+00 -0.31286453422E+03  0.31286453426E+03  0.50400001928E-02 0.  1.
    10030    2    1    2    0    0  0.00000000000E+00  0.00000000000E+00  0.22871795156E+04  0.29129085841E+04  0.18038420892E+04 0.  0.
        5    1    3    3  502    0  0.41587668825E+03  0.71766816973E+02  0.24307420356E+04  0.24671102183E+04  0.46999998093E+01 0. -1.
       -5    1    3    3    0  502 -0.41587668825E+03 -0.71766816973E+02 -0.14356251991E+03  0.44579836582E+03  0.46999998093E+01 0.  1.
</event>
<event>
 5   0  0.1818778E-04  0.1815538E+04  0.7818609E-02  0.8698080E-01
        1   -1    0    0  501    0  0.00000000000E+00  0.00000000000E+00  0.12326822394E+04  0.12326822394E+04  0.50400001928E-02 0. -1.
       -1   -1    0    0    0  501  0.00000000000E+00  0.00000000000E+00 -0.66849711646E+03  0.66849711647E+03  0.50400001928E-02 0.  1.
    10030    2    1    2    0    0  0.00000000000E+00  0.00000000000E+00  0.56418512296E+03  0.19011793559E+04  0.18155379617E+04 0.  0.
        3    1    3    3  502    0  0.21933282310E+03 -0.41760003049E+03  0.10942735912E+04  0.11916087342E+04  0.10100000352E+00 0. -1.
       -3    1    3    3    0  502 -0.21933282310E+03  0.41760003049E+03 -0.53008846829E+03  0.70957062169E+03  0.10100000352E+00 0.  1.
</event>
<event>
 5   0  0.3531266E-04  0.1788432E+04  0.7818609E-02  0.8712475E-01
        2   -1    0    0  501    0  0.00000000000E+00  0.00000000000E+00  0.61675053644E+03  0.61675053644E+03  0.25500000920E-02 0. -1.
       -2   -1    0    0    0  501  0.00000000000E+00  0.00000000000E+00 -0.12965084416E+04  0.12965084416E+04  0.25500000920E-02 0.  1.
    10030    2    1    2    0    0  0.00000000000E+00  0.00000000000E+00 -0.67975790515E+03  0.19132589780E+04  0.17884320248E+04 0.  0.
        3    1    3    3  502    0  0.86351086173E+03  0.22028334845E+03 -0.26092747465E+03  0.92857897842E+03  0.10100000352E+00 0.  1.
       -3    1    3    3    0  502 -0.86351086173E+03 -0.22028334845E+03 -0.41883043050E+03  0.98467999961E+03  0.10100000352E+00 0. -1.
</event>
<event>
 5   0  0.1837313E-04  0.1806183E+04  0.7818609E-02  0.8703018E-01
       -1   -1    0    0    0  501  0.00000000000E+00  0.00000000000E+00  0.81475076838E+03  0.81475076839E+03  0.50400001928E-02 0. -1.
        1   -1    0    0  501    0  0.00000000000E+00  0.00000000000E+00 -0.10010105562E+04  0.10010105562E+04  0.50400001928E-02 0.  1.
    10030    2    1    2    0    0  0.00000000000E+00  0.00000000000E+00 -0.18625978782E+03  0.18157613246E+04  0.18061828477E+04 0.  0.
        1    1    3    3  502    0  0.44823697666E+03 -0.65110847002E+03  0.34589589808E+03  0.86284564049E+03  0.50400001928E-02 0. -1.
       -1    1    3    3    0  502 -0.44823697666E+03  0.65110847002E+03 -0.53215568590E+03  0.95291568412E+03  0.50400001928E-02 0.  1.
</event>
<event>
 5   0  0.1818778E-04  0.2050087E+04  0.7818609E-02  0.8583555E-01
       -1   -1    0    0    0  501  0.00000000000E+00  0.00000000000E+00  0.62689558805E+03  0.62689558807E+03  0.50400001928E-02 0.  1.
        1   -1    0    0  501    0  0.00000000000E+00  0.00000000000E+00 -0.16760586576E+04  0.16760586576E+04  0.50400001928E-02 0. -1.
    10030    2    1    2    0    0  0.00000000000E+00  0.00000000000E+00 -0.10491630696E+04  0.23029542457E+04  0.20500866107E+04 0.  0.
        3    1    3    3  502    0 -0.71458472757E+03  0.52528180095E+03 -0.11019430501E+04  0.14145072637E+04  0.10100000352E+00 0.  1.
       -3    1    3    3    0  502  0.71458472757E+03 -0.52528180095E+03  0.52779980482E+02  0.88844698200E+03  0.10100000352E+00 0. -1.
</event>
<event>
 5   0  0.1835421E-04  0.1815413E+04  0.7818609E-02  0.8698146E-01
       -1   -1    0    0    0  501  0.00000000000E+00  0.00000000000E+00  0.39801651581E+03  0.39801651584E+03  0.50400001928E-02 0.  1.
        1   -1    0    0  501    0  0.00000000000E+00  0.00000000000E+00 -0.20700927150E+04  0.20700927150E+04  0.50400001928E-02 0. -1.
    10030    2    1    2    0    0  0.00000000000E+00  0.00000000000E+00 -0.16720761992E+04  0.24681092309E+04  0.18154129997E+04 0.  0.
        2    1    3    3  502    0 -0.84103462087E+03  0.30819319227E+03 -0.10358882074E+04  0.13694475731E+04  0.25500000920E-02 0.  1.
       -2    1    3    3    0  502  0.84103462087E+03 -0.30819319227E+03 -0.63618799175E+03  0.10986616577E+04  0.25500000920E-02 0. -1.
</event>
<event>
 5   0  0.1883959E-04  0.1798529E+04  0.7818609E-02  0.8707082E-01
        1   -1    0    0  501    0  0.00000000000E+00  0.00000000000E+00  0.12648271777E+04  0.12648271777E+04  0.50400001928E-02 0. -1.
       -1   -1    0    0    0  501  0.00000000000E+00  0.00000000000E+00 -0.63935745879E+03  0.63935745881E+03  0.50400001928E-02 0.  1.
    10030    2    1    2    0    0  0.00000000000E+00  0.00000000000E+00  0.62546971893E+03  0.19041846365E+04  0.17985290547E+04 0.  0.
        5    1    3    3  502    0  0.27953319361E+03  0.46887610442E+03 -0.44385792204E+03  0.70357341663E+03  0.46999998093E+01 0.  1.
       -5    1    3    3    0  502 -0.27953319361E+03 -0.46887610442E+03  0.10693276410E+04  0.12006112199E+04  0.46999998093E+01 0. -1.
</event>
<event>
 5   0  0.3582186E-04  0.1808641E+04  0.7818609E-02  0.8701717E-01
        2   -1    0    0  501    0  0.00000000000E+00  0.00000000000E+00  0.16133291153E+04  0.16133291153E+04  0.25500000920E-02 0.  1.
       -2   -1    0    0    0  501  0.00000000000E+00  0.00000000000E+00 -0.50689966669E+03  0.50689966670E+03  0.25500000920E-02 0. -1.
    10030    2    1    2    0    0  0.00000000000E+00  0.00000000000E+00  0.11064294486E+04  0.21202287820E+04  0.18086414690E+04 0.  0.
        4    1    3    3  502    0 -0.28833132049E+03 -0.22861737188E+03 -0.41516946490E+03  0.55476855587E+03  0.12699999809E+01 0. -1.
       -4    1    3    3    0  502  0.28833132049E+03  0.22861737188E+03  0.15215989135E+04  0.15654602262E+04  0.12699999809E+01 0.  1.
</event>
<event>
 5   0  0.3568870E-04  0.1780422E+04  0.7818609E-02  0.8716781E-01
        2   -1    0    0  501    0  0.00000000000E+00  0.00000000000E+00  0.80434878342E+03  0.80434878342E+03  0.25500000920E-02 0. -1.
       -2   -1    0    0    0  501  0.00000000000E+00  0.00000000000E+00 -0.98523848149E+03  0.98523848150E+03  0.25500000920E-02 0.  1.
    10030    2    1    2    0    0  0.00000000000E+00  0.00000000000E+00 -0.18088969808E+03  0.17895872649E+04  0.17804217185E+04 0.  0.
        1    1    3    3  502    0 -0.25009888835E+03 -0.40003554516E+03 -0.84924667353E+03  0.97149256501E+03  0.50400001928E-02 0.  1.
       -1    1    3    3    0  502  0.25009888835E+03  0.40003554516E+03  0.66835697546E+03  0.81809469990E+03  0.50400001928E-02 0. -1.
</event>
<event>
 5   0  0.1825253E-04  0.1793036E+04  0.7818609E-02  0.8710012E-01
       -1   -1    0    0    0  501  0.00000000000E+00  0.00000000000E+00  0.47218718310E+03  0.47218718312E+03  0.50400001928E-02 0.  1.
        1   -1    0    0  501    0  0.00000000000E+00  0.00000000000E+00 -0.17021726462E+04  0.17021726462E+04  0.50400001928E-02 0. -1.
    10030    2    1    2    0    0  0.00000000000E+00  0.00000000000E+00 -0.12299854631E+04  0.21743598294E+04  0.17930355345E+04 0.  0.
        4    1    3    3  502    0 -0.27410175276E+03  0.83924748956E+03 -0.80392952639E+03  0.11940571242E+04  0.12699999809E+01 0. -1.
       -4    1    3    3    0  502  0.27410175276E+03 -0.83924748956E+03 -0.42605593676E+03  0.98030270516E+03  0.12699999809E+01 0.  1.
</event>
<event>
 5   0  0.3628581E-04  0.1825570E+04  0.7818609E-02  0.8692818E-01
       -2   -1    0    0    0  501  0.00000000000E+00  0.00000000000E+00  0.65506647401E+03  0.65506647402E+03  0.25500000920E-02 0.  1.
        2   -1    0    0  501    0  0.00000000000E+00  0.00000000000E+00 -0.12718966389E+04  0.12718966389E+04  0.25500000920E-02 0. -1.
    10030    2    1    2    0    0  0.00000000000E+00  0.00000000000E+00 -0.61683016487E+03  0.19269631129E+04  0.18255704276E+04 0.  0.
        2    1    3    3  502    0  0.53730088195E+03  0.21810589575E+03 -0.10524881963E+04  0.12016629406E+04  0.25500000920E-02 0. -1.
       -2    1    3    3    0  502 -0.53730088195E+03 -0.21810589575E+03  0.43565803145E+03  0.72530017226E+03  0.25500000920E-02 0.  1.
</event>
<event>
 5   0  0.1883959E-04  0.1811148E+04  0.7818609E-02  0.8700394E-01
       -1   -1    0    0    0  501  0.00000000000E+00  0.00000000000E+00  0.14008260750E+04  0.14008260751E+04  0.50400001928E-02 0. -1.
        1   -1    0    0  501    0  0.00000000000E+00  0.00000000000E+00 -0.58541457797E+03  0.58541457800E+03  0.50400001928E-02 0.  1.
    10030    2    1    2    0    0  0.00000000000E+00  0.00000000000E+00  0.81541149707E+03  0.19862406531E+04  0.18111477086E+04 0.  0.
        5    1    3    3  502    0 -0.59624101095E+03 -0.61185794343E+03  0.73701599841E+03  0.11283120836E+04  0.46999998093E+01 0. -1.
       -5    1    3    3    0  502  0.59624101095E+03  0.61185794343E+03  0.78395498658E+02  0.85792856945E+03  0.46999998093E+01 0.  1.
</event>
<event>
 5   0  0.3628581E-04  0.1684901E+04  0.7818609E-02  0.8770023E-01
        2   -1    0    0  501    0  0.00000000000E+00  0.00000000000E+00  0.11203566898E+04  0.11203566898E+04  0.25500000920E-02 0.  1.
       -2   -1    0    0    0  501  0.00000000000E+00  0.00000000000E+00 -0.63347923259E+03  0.63347923260E+03  0.25500000920E-02 0. -1.
    10030    2    1    2    0    0  0.00000000000E+00  0.00000000000E+00  0.48687745716E+03  0.17538359224E+04  0.16849008233E+04 0.  0.
        2    1    3    3  502    0  0.41761445807E+03 -0.28258336882E+03  0.94593385443E+03  0.10719356571E+04  0.25500000920E-02 0.  1.
       -2    1    3    3    0  502 -0.41761445807E+03  0.28258336882E+03 -0.45905639727E+03  0.68190026529E+03  0.25500000920E-02 0. -1.
</event>
<event>
 5   0  0.1835421E-04  0.1803917E+04  0.7818609E-02  0.8704219E-01
        1   -1    0    0  501    0  0.00000000000E+00  0.00000000000E+00  0.13623919848E+04  0.13623919848E+04  0.50400001928E-02 0.  1.
       -1   -1    0    0    0  501  0.00000000000E+00  0.00000000000E+00 -0.59713283323E+03  0.59713283325E+03  0.50400001928E-02 0. -1.
    10030    2    1    2    0    0  0.00000000000E+00  0.00000000000E+00  0.76525915156E+03  0.19595248180E+04  0.18039168339E+04 0.  0.
        2    1    3    3  502    0 -0.51399749012E+02 -0.78458131783E+03 -0.97442818775E+02  0.79227828534E+03  0.25500000920E-02 0. -1.
       -2    1    3    3    0  502  0.51399749012E+02  0.78458131783E+03  0.86270197033E+03  0.11672465327E+04  0.25500000920E-02 0.  1.
</event>
<event>
 5   0  0.1835421E-04  0.1788495E+04  0.7818609E-02  0.8712442E-01
       -1   -1    0    0    0  501  0.00000000000E+00  0.00000000000E+00  0.12466532719E+04  0.12466532719E+04  0.50400001928E-02 0.  1.
        1   -1    0    0  501    0  0.00000000000E+00  0.00000000000E+00 -0.64146018951E+03  0.64146018953E+03  0.50400001928E-02 0. -1.
    10030    2    1    2    0    0  0.00000000000E+00  0.00000000000E+00  0.60519308237E+03  0.18881134614E+04  0.17884948354E+04 0.  0.
        2    1    3    3  502    0  0.72318422354E+03 -0.26597403359E+02 -0.25199819353E+03  0.76629363340E+03  0.25500000920E-02 0. -1.
       -2    1    3    3    0  502 -0.72318422354E+03  0.26597403359E+02  0.85719127590E+03  0.11218198280E+04  0.25500000920E-02 0.  1.
</event>
<event>
 5   0  0.1835421E-04  0.1766843E+04  0.7818609E-02  0.8724133E-01
        1   -1    0    0  501    0  0.00000000000E+00  0.00000000000E+00  0.83322084523E+03  0.83322084524E+03  0.50400001928E-02 0.  1.
       -1   -1    0    0    0  501  0.00000000000E+00  0.00000000000E+00 -0.93664678261E+03  0.93664678263E+03  0.50400001928E-02 0. -1.
    10030    2    1    2    0    0  0.00000000000E+00  0.00000000000E+00 -0.10342593739E+03  0.17698676279E+04  0.17668430874E+04 0.  0.
        2    1    3    3  502    0 -0.15446119773E+03 -0.34522788636E+03 -0.85144864855E+03  0.93166805047E+03  0.25500000920E-02 0. -1.
       -2    1    3    3    0  502  0.15446119773E+03  0.34522788636E+03  0.74802271117E+03  0.83819957740E+03  0.25500000920E-02 0.  1.
</event>
<event>
 5   0  0.3628581E-04  0.1530975E+04  0.7818609E-02  0.8864112E-01
        2   -1    0    0  501    0  0.00000000000E+00  0.00000000000E+00  0.10692759622E+04  0.10692759622E+04  0.25500000920E-02 0.  1.
       -2   -1    0    0    0  501  0.00000000000E+00  0.00000000000E+00 -0.54800768383E+03  0.54800768384E+03  0.25500000920E-02 0. -1.
    10030    2    1    2    0    0  0.00000000000E+00  0.00000000000E+00  0.52126827838E+03  0.16172836461E+04  0.15309754321E+04 0.  0.
        2    1    3    3  502    0  0.17073062727E+03 -0.49272752207E+03  0.85262077113E+03  0.99944561506E+03  0.25500000920E-02 0.  1.
       -2    1    3    3    0  502 -0.17073062727E+03  0.49272752207E+03 -0.33135249274E+03  0.61783803100E+03  0.25500000920E-02 0. -1.
</event>
<event>
 5   0  0.1883959E-04  0.1803296E+04  0.7818609E-02  0.8704548E-01
       -1   -1    0    0    0  501  0.00000000000E+00  0.00000000000E+00  0.76473053880E+03  0.76473053881E+03  0.50400001928E-02 0. -1.
        1   -1    0    0  501    0  0.00000000000E+00  0.00000000000E+00 -0.10630797092E+04  0.10630797093E+04  0.50400001928E-02 0.  1.
    10030    2    1    2    0    0  0.00000000000E+00  0.00000000000E+00 -0.29834917045E+03  0.18278102481E+04  0.18032964469E+04 0.  0.
        5    1    3    3  502    0 -0.67083840500E+03  0.42417960605E+03  0.28441965436E+03  0.84313055549E+03  0.46999998093E+01 0. -1.
       -5    1    3    3    0  502  0.67083840500E+03 -0.42417960605E+03 -0.58276882481E+03  0.98467969258E+03  0.46999998093E+01 0.  1.
</event>
<event>
 5   0  0.3575091E-04  0.1798690E+04  0.7818609E-02  0.8706996E-01
        2   -1    0    0  501    0  0.00000000000E+00  0.00000000000E+00  0.79482183777E+03  0.79482183777E+03  0.25500000920E-02 0. -1.
       -2   -1    0    0    0  501  0.00000000000E+00  0.00000000000E+00 -0.10176138664E+04  0.10176138664E+04  0.25500000920E-02 0.  1.
    10030    2    1    2    0    0  0.00000000000E+00  0.00000000000E+00 -0.22279202860E+03  0.18124357041E+04  0.17986903273E+04 0.  0.
        5    1    3    3  502    0  0.64516404891E+03 -0.62473788939E+03 -0.15935757648E+03  0.91211348396E+03  0.46999998093E+01 0. -1.
       -5    1    3    3    0  502 -0.64516404891E+03  0.62473788939E+03 -0.63434452124E+02  0.90032222018E+03  0.46999998093E+01 0.  1.
</event>
<event>
 5   0  0.3575091E-04  0.1794507E+04  0.7818609E-02  0.8709226E-01
       -2   -1    0    0    0  501  0.00000000000E+00  0.00000000000E+00  0.60461059180E+03  0.60461059181E+03  0.25500000920E-02 0. -1.
        2   -1    0    0  501    0  0.00000000000E+00  0.00000000000E+00 -0.13315411352E+04  0.13315411352E+04  0.25500000920E-02 0.  1.
    10030    2    1    2    0    0  0.00000000000E+00  0.00000000000E+00 -0.72693054337E+03  0.19361517270E+04  0.17945070340E+04 0.  0.
        5    1    3    3  502    0 -0.25067474936E+02  0.51478167487E+03  0.42895398529E+03  0.67056108042E+03  0.46999998093E+01 0. -1.
       -5    1    3    3    0  502  0.25067474936E+02 -0.51478167487E+03 -0.11558845287E+04  0.12655906466E+04  0.46999998093E+01 0.  1.
</event>
<event>
 5   0  0.3582186E-04  0.1779059E+04  0.7818609E-02  0.8717516E-01
        2   -1    0    0  501    0  0.00000000000E+00  0.00000000000E+00  0.74001795749E+03  0.74001795749E+03  0.25500000920E-02 0.  1.
       -2   -1    0    0    0  501  0.00000000000E+00  0.00000000000E+00 -0.10692475085E+04  0.10692475086E+04  0.25500000920E-02 0. -1.
    10030    2    1    2    0    0  0.00000000000E+00  0.00000000000E+00 -0.32922955106E+03  0.18092654660E+04  0.17790585795E+04 0.  0.
        4    1    3    3  502    0  0.56865970946E+03  0.38052607071E+02 -0.85917421259E+03  0.10310207595E+04  0.12699999809E+01 0. -1.
       -4    1    3    3    0  502 -0.56865970946E+03 -0.38052607071E+02  0.52994466153E+03  0.77824470653E+03  0.12699999809E+01 0.  1.
</event>
<event>
 5   0  0.1825253E-04  0.1793156E+04  0.7818609E-02  0.8709947E-01
        1   -1    0    0  501    0  0.00000000000E+00  0.00000000000E+00  0.14666671049E+04  0.14666671049E+04  0.50400001928E-02 0. -1.
       -1   -1    0    0    0  501  0.00000000000E+00  0.00000000000E+00 -0.54808092317E+03  0.54808092320E+03  0.50400001928E-02 0.  1.
    10030    2    1    2    0    0  0.00000000000E+00  0.00000000000E+00  0.91858618175E+03  0.20147480281E+04  0.17931561682E+04 0.  0.
        4    1    3    3  502    0  0.40077802071E+03 -0.66663968692E+03 -0.41699998830E+02  0.77895570918E+03  0.12699999809E+01 0. -1.
       -4    1    3    3    0  502 -0.40077802071E+03  0.66663968692E+03  0.96028618058E+03  0.12357923189E+04  0.12699999809E+01 0.  1.
</event>
<event>
 5   0  0.1835421E-04  0.1796804E+04  0.7818609E-02  0.8708001E-01
        1   -1    0    0  501    0  0.00000000000E+00  0.00000000000E+00  0.19438167052E+04  0.19438167052E+04  0.50400001928E-02 0.  1.
       -1   -1    0    0    0  501  0.00000000000E+00  0.00000000000E+00 -0.41522765534E+03  0.41522765537E+03  0.50400001928E-02 0. -1.
    10030    2    1    2    0    0  0.00000000000E+00  0.00000000000E+00  0.15285890498E+04  0.23590443605E+04  0.17968043332E+04 0.  0.
        2    1    3    3  502    0  0.52443591943E+03  0.31203674309E+03 -0.10135754903E+03  0.61860594515E+03  0.25500000920E-02 0. -1.
       -2    1    3    3    0  502 -0.52443591943E+03 -0.31203674309E+03  0.16299465989E+04  0.17404384154E+04  0.25500000920E-02 0.  1.
</event>
<event>
 5   0  0.3628581E-04  0.1798230E+04  0.7818609E-02  0.8707242E-01
        2   -1    0    0  501    0  0.00000000000E+00  0.00000000000E+00  0.48708774941E+03  0.48708774941E+03  0.25500000920E-02 0.  1.
       -2   -1    0    0    0  501  0.00000000000E+00  0.00000000000E+00 -0.16596751542E+04  0.16596751542E+04  0.25500000920E-02 0. -1.
    10030    2    1    2    0    0  0.00000000000E+00  0.00000000000E+00 -0.11725874048E+04  0.21467629036E+04  0.17982296134E+04 0.  0.
        2    1    3    3  502    0 -0.13493874610E+03  0.58610473057E+03  0.21158577580E+03  0.63757020078E+03  0.25500000920E-02 0.  1.
       -2    1    3    3    0  502  0.13493874610E+03 -0.58610473057E+03 -0.13841731806E+04  0.15091927028E+04  0.25500000920E-02 0. -1.
</event>
<event>
 5   0  0.1835421E-04  0.1705895E+04  0.7818609E-02  0.8758009E-01
       -1   -1    0    0    0  501  0.00000000000E+00  0.00000000000E+00  0.13322589853E+04  0.13322589853E+04  0.50400001928E-02 0. -1.
        1   -1    0    0  501    0  0.00000000000E+00  0.00000000000E+00 -0.54607976885E+03  0.54607976888E+03  0.50400001928E-02 0.  1.
    10030    2    1    2    0    0  0.00000000000E+00  0.00000000000E+00  0.78617921648E+03  0.18783387542E+04  0.17058952826E+04 0.  0.
        2    1    3    3  502    0 -0.40456849243E+02 -0.76884040340E+03 -0.11126768797E+02  0.76998449825E+03  0.25500000920E-02 0. -1.
       -2    1    3    3    0  502  0.40456849243E+02  0.76884040340E+03  0.79730598527E+03  0.11083542560E+04  0.25500000920E-02 0.  1.
</event>
<event>
 5   0  0.3531266E-04  0.1775240E+04  0.7818609E-02  0.8719579E-01
       -2   -1    0    0    0  501  0.00000000000E+00  0.00000000000E+00  0.51931045980E+03  0.51931045980E+03  0.25500000920E-02 0.  1.
        2   -1    0    0  501    0  0.00000000000E+00  0.00000000000E+00 -0.15171445418E+04  0.15171445418E+04  0.25500000920E-02 0. -1.
    10030    2    1    2    0    0  0.00000000000E+00  0.00000000000E+00 -0.99783408202E+03  0.20364550016E+04  0.17752397355E+04 0.  0.
        3    1    3    3  502    0 -0.61307752205E+03 -0.54299141291E+03 -0.10625645845E+03  0.82582938171E+03  0.10100000352E+00 0.  1.
       -3    1    3    3    0  502  0.61307752205E+03  0.54299141291E+03 -0.89157762357E+03  0.12106256199E+04  0.10100000352E+00 0. -1.
</event>
<event>
 5   0  0.3575091E-04  0.1823571E+04  0.7818609E-02  0.8693864E-01
       -2   -1    0    0    0  501  0.00000000000E+00  0.00000000000E+00  0.46605579002E+03  0.46605579002E+03  0.25500000920E-02 0.  1.
        2   -1    0    0  501    0  0.00000000000E+00  0.00000000000E+00 -0.17838061633E+04  0.17838061633E+04  0.25500000920E-02 0. -1.
    10030    2    1    2    0    0  0.00000000000E+00  0.00000000000E+00 -0.13177503733E+04  0.22498619534E+04  0.18235714307E+04 0.  0.
        5    1    3    3  502    0  0.82196707319E+03 -0.23922102538E+03 -0.10460392644E+04  0.13516940486E+04  0.46999998093E+01 0. -1.
       -5    1    3    3    0  502 -0.82196707319E+03  0.23922102538E+03 -0.27171110888E+03  0.89816790472E+03  0.46999998093E+01 0.  1.
</event>
<event>
 5   0  0.1883959E-04  0.1439519E+04  0.7818609E-02  0.8925699E-01
        1   -1    0    0  501    0  0.00000000000E+00  0.00000000000E+00  0.14631565711E+04  0.14631565711E+04  0.50400001928E-02 0. -1.
       -1   -1    0    0    0  501  0.00000000000E+00  0.00000000000E+00 -0.35406583457E+03  0.35406583461E+03  0.50400001928E-02 0.  1.
    10030    2    1    2    0    0  0.00000000000E+00  0.00000000000E+00  0.11090907365E+04  0.18172224057E+04  0.14395190203E+04 0.  0.
        5    1    3    3  502    0  0.48561079714E+02  0.13330354977E+03 -0.33622001096E+03  0.36495753261E+03  0.46999998093E+01 0.  1.
       -5    1    3    3    0  502 -0.48561079714E+02 -0.13330354977E+03  0.14453107475E+04  0.14522648731E+04  0.46999998093E+01 0. -1.
</event>
<event>
 5   0  0.1818778E-04  0.1675140E+04  0.7818609E-02  0.8775671E-01
        1   -1    0    0  501    0  0.00000000000E+00  0.00000000000E+00  0.15204413525E+04  0.15204413526E+04  0.50400001928E-02 0. -1.
       -1   -1    0    0    0  501  0.00000000000E+00  0.00000000000E+00 -0.46139467069E+03  0.46139467072E+03  0.50400001928E-02 0.  1.
    10030    2    1    2    0    0  0.00000000000E+00  0.00000000000E+00  0.10590466819E+04  0.19818360233E+04  0.16751400386E+04 0.  0.
        3    1    3    3  502    0  0.29571126591E+03 -0.71146075578E+03  0.91814882888E+03  0.11985903562E+04  0.10100000352E+00 0. -1.
       -3    1    3    3    0  502 -0.29571126591E+03  0.71146075578E+03  0.14089785298E+03  0.78324566707E+03  0.10100000352E+00 0.  1.
</event>
<event>
 5   0  0.3531266E-04  0.1802184E+04  0.7818609E-02  0.8705139E-01
       -2   -1    0    0    0  501  0.00000000000E+00  0.00000000000E+00  0.69906411670E+03  0.69906411671E+03  0.25500000920E-02 0. -1.
        2   -1    0    0  501    0  0.00000000000E+00  0.00000000000E+00 -0.11615051914E+04  0.11615051914E+04  0.25500000920E-02 0.  1.
    10030    2    1    2    0    0  0.00000000000E+00  0.00000000000E+00 -0.46244107468E+03  0.18605693081E+04  0.18021837872E+04 0.  0.
        3    1    3    3  502    0 -0.84478908759E+03  0.31280346325E+03 -0.25316914723E+03  0.93573994061E+03  0.10100000352E+00 0.  1.
       -3    1    3    3    0  502  0.84478908759E+03 -0.31280346325E+03 -0.20927192745E+03  0.92482936748E+03  0.10100000352E+00 0. -1.
</event>
<event>
 5   0  0.3568870E-04  0.1799226E+04  0.7818609E-02  0.8706711E-01
        2   -1    0    0  501    0  0.00000000000E+00  0.00000000000E+00  0.21523262957E+04  0.21523262957E+04  0.25500000920E-02 0.  1.
       -2   -1    0    0    0  501  0.00000000000E+00  0.00000000000E+00 -0.37601333102E+03  0.37601333103E+03  0.25500000920E-02 0. -1.
    10030    2    1    2    0    0  0.00000000000E+00  0.00000000000E+00  0.17763129647E+04  0.25283396267E+04  0.17992258112E+04 0.  0.
        1    1    3    3  502    0  0.57352935629E+03  0.63785354159E+03  0.50715743834E+03  0.99649472169E+03  0.50400001928E-02 0. -1.
       -1    1    3    3    0  502 -0.57352935629E+03 -0.63785354159E+03  0.12691555263E+04  0.15318449050E+04  0.50400001928E-02 0.  1.
</event>
<event>
 5   0  0.3568870E-04  0.1797822E+04  0.7818609E-02  0.8707459E-01
       -2   -1    0    0    0  501  0.00000000000E+00  0.00000000000E+00  0.71276890182E+03  0.71276890183E+03  0.25500000920E-02 0. -1.
        2   -1    0    0  501    0  0.00000000000E+00  0.00000000000E+00 -0.11336641973E+04  0.11336641973E+04  0.25500000920E-02 0.  1.
    10030    2    1    2    0    0  0.00000000000E+00  0.00000000000E+00 -0.42089529550E+03  0.18464330992E+04  0.17978215540E+04 0.  0.
        1    1    3    3  502    0  0.34279987372E+03 -0.68011045206E+03  0.27993380890E+03  0.81143386533E+03  0.50400001928E-02 0. -1.
       -1    1    3    3    0  502 -0.34279987372E+03  0.68011045206E+03 -0.70082910440E+03  0.10349992338E+04  0.50400001928E-02 0.  1.
</event>
<event>
 5   0  0.3628581E-04  0.1846241E+04  0.7818609E-02  0.8682088E-01
       -2   -1    0    0    0  501  0.00000000000E+00  0.00000000000E+00  0.73221137239E+03  0.73221137239E+03  0.25500000920E-02 0. -1.
        2   -1    0    0  501    0  0.00000000000E+00  0.00000000000E+00 -0.11638056966E+04  0.11638056967E+04  0.25500000920E-02 0.  1.
    10030    2    1    2    0    0  0.00000000000E+00  0.00000000000E+00 -0.43159432426E+03  0.18960170690E+04  0.18462413345E+04 0.  0.
        2    1    3    3  502    0  0.82506424603E+03 -0.38029106633E+03 -0.38391616424E+03  0.98627781400E+03  0.25500000920E-02 0.  1.
       -2    1    3    3    0  502 -0.82506424603E+03  0.38029106633E+03 -0.47678160020E+02  0.90973925504E+03  0.25500000920E-02 0. -1.
</event>
<event>
 5   0  0.1837313E-04  0.1836578E+04  0.7818609E-02  0.8687086E-01
        1   -1    0    0  501    0  0.00000000000E+00  0.00000000000E+00  0.23060102231E+04  0.23060102231E+04  0.50400001928E-02 0. -1.
       -1   -1    0    0    0  501  0.00000000000E+00  0.00000000000E+00 -0.36567676999E+03  0.36567677003E+03  0.50400001928E-02 0.  1.
    10030    2    1    2    0    0  0.00000000000E+00  0.00000000000E+00  0.19403334531E+04  0.26716869931E+04  0.18365776542E+04 0.  0.
        1    1    3    3  502    0  0.84412577605E+03  0.82940493997E+02  0.14820651750E+04  0.17076137251E+04  0.50400001928E-02 0. -1.
       -1    1    3    3    0  502 -0.84412577605E+03 -0.82940493997E+02  0.45826827815E+03  0.96407326802E+03  0.50400001928E-02 0.  1.
</event>
<event>
 5   0  0.3568870E-04  0.1764183E+04  0.7818609E-02  0.8725582E-01
        2   -1    0    0  501    0  0.00000000000E+00  0.00000000000E+00  0.13183977814E+04  0.13183977814E+04  0.25500000920E-02 0.  1.
       -2   -1    0    0    0  501  0.00000000000E+00  0.00000000000E+00 -0.59017471237E+03  0.59017471238E+03  0.25500000920E-02 0. -1.
    10030    2    1    2    0    0  0.00000000000E+00  0.00000000000E+00  0.72822306904E+03  0.19085724938E+04  0.17641825659E+04 0.  0.
        1    1    3    3  502    0 -0.25668863969E+03 -0.39287718622E+03  0.11721300624E+04  0.12625887788E+04  0.50400001928E-02 0.  1.
       -1    1    3    3    0  502  0.25668863969E+03  0.39287718622E+03 -0.44390699337E+03  0.64598371496E+03  0.50400001928E-02 0. -1.
</event>
<event>
 5   0  0.3582186E-04  0.1805755E+04  0.7818609E-02  0.8703245E-01
        2   -1    0    0  501    0  0.00000000000E+00  0.00000000000E+00  0.10891279198E+04  0.10891279198E+04  0.25500000920E-02 0.  1.
       -2   -1    0    0    0  501  0.00000000000E+00  0.00000000000E+00 -0.74847775226E+03  0.74847775227E+03  0.25500000920E-02 0. -1.
    10030    2    1    2    0    0  0.00000000000E+00  0.00000000000E+00  0.34065016751E+03  0.18376056720E+04  0.18057552628E+04 0.  0.
        4    1    3    3  502    0 -0.67365832929E+03 -0.40871241002E+03  0.61892356645E+03  0.10019627602E+04  0.12699999809E+01 0.  1.
       -4    1    3    3    0  502  0.67365832929E+03  0.40871241002E+03 -0.27827339894E+03  0.83564291189E+03  0.12699999809E+01 0. -1.
</event>
<event>
 5   0  0.3531266E-04  0.1864828E+04  0.7818609E-02  0.8672564E-01
       -2   -1    0    0    0  501  0.00000000000E+00  0.00000000000E+00  0.43775539223E+03  0.43775539224E+03  0.25500000920E-02 0. -1.
        2   -1    0    0  501    0  0.00000000000E+00  0.00000000000E+00 -0.19860316654E+04  0.19860316654E+04  0.25500000920E-02 0.  1.
    10030    2    1    2    0    0  0.00000000000E+00  0.00000000000E+00 -0.15482762732E+04  0.24237870576E+04  0.18648282180E+04 0.  0.
        3    1    3    3  502    0 -0.17025375129E+03 -0.83668745650E+03 -0.12610868477E+04  0.15229485505E+04  0.10100000352E+00 0.  1.
       -3    1    3    3    0  502  0.17025375129E+03  0.83668745650E+03 -0.28718942544E+03  0.90083850716E+03  0.10100000352E+00 0. -1.
</event>
<event>
 5   0  0.1818778E-04  0.1805238E+04  0.7818609E-02  0.8703519E-01
       -1   -1    0    0    0  501  0.00000000000E+00  0.00000000000E+00  0.81462718969E+03  0.81462718971E+03  0.50400001928E-02 0.  1.
        1   -1    0    0  501    0  0.00000000000E+00  0.00000000000E+00 -0.10001146991E+04  0.10001146991E+04  0.50400001928E-02 0. -1.
    10030    2    1    2    0    0  0.00000000000E+00  0.00000000000E+00 -0.18548750942E+03  0.18147418888E+04  0.18052375209E+04 0.  0.
        3    1    3    3  502    0 -0.54996529009E+03 -0.27600377768E+03 -0.75658457014E+03  0.97522311681E+03  0.10100000352E+00 0. -1.
       -3    1    3    3    0  502  0.54996529009E+03  0.27600377768E+03  0.57109706072E+03  0.83951877201E+03  0.10100000352E+00 0.  1.
</event>
<event>
 5   0  0.1330125E-04  0.1644358E+04  0.7818609E-02  0.8793751E-01
       -4   -1    0    0    0  501  0.00000000000E+00  0.00000000000E+00  0.19845670734E+04  0.19845674797E+04  0.12699999809E+01 0.  1.
        4   -1    0    0  501    0  0.00000000000E+00  0.00000000000E+00 -0.34061592800E+03  0.34061829561E+03  0.12699999809E+01 0. -1.
    10030    2    1    2    0    0  0.00000000000E+00  0.00000000000E+00  0.16439511454E+04  0.23251857753E+04  0.16443580880E+04 0.  0.
        4    1    3    3  502    0 -0.74420386788E+03 -0.34004490821E+03  0.93603889547E+03  0.12432378547E+04  0.12699999809E+01 0. -1.
       -4    1    3    3    0  502  0.74420386788E+03  0.34004490821E+03  0.70791224989E+03  0.10819479207E+04  0.12699999809E+01 0.  1.
</event>
<event>
 5   0  0.3568870E-04  0.1813784E+04  0.7818609E-02  0.8699003E-01
       -2   -1    0    0    0  501  0.00000000000E+00  0.00000000000E+00  0.48326188883E+03  0.48326188883E+03  0.25500000920E-02 0.  1.
        2   -1    0    0  501    0  0.00000000000E+00  0.00000000000E+00 -0.17018788802E+04  0.17018788802E+04  0.25500000920E-02 0. -1.
    10030    2    1    2    0    0  0.00000000000E+00  0.00000000000E+00 -0.12186169914E+04  0.21851407690E+04  0.18137841131E+04 0.  0.
        1    1    3    3  502    0 -0.15261091582E+03 -0.25716017539E+03 -0.16407752168E+04  0.16678023742E+04  0.50400001928E-02 0. -1.
       -1    1    3    3    0  502  0.15261091582E+03  0.25716017539E+03  0.42215822541E+03  0.51733839481E+03  0.50400001928E-02 0.  1.
</event>
<event>
 5   0  0.3582186E-04  0.1809602E+04  0.7818609E-02  0.8701210E-01
       -2   -1    0    0    0  501  0.00000000000E+00  0.00000000000E+00  0.41114934793E+03  0.41114934794E+03  0.25500000920E-02 0.  1.
        2   -1    0    0  501    0  0.00000000000E+00  0.00000000000E+00 -0.19911616833E+04  0.19911616833E+04  0.25500000920E-02 0. -1.
    10030    2    1    2    0    0  0.00000000000E+00  0.00000000000E+00 -0.15800123353E+04  0.24023110312E+04  0.18096019758E+04 0.  0.
        4    1    3    3  502    0  0.22112412756E+03 -0.72442366599E+03 -0.14470728390E+04  0.16333116487E+04  0.12699999809E+01 0.  1.
       -4    1    3    3    0  502 -0.22112412756E+03  0.72442366599E+03 -0.13293949633E+03  0.76899938246E+03  0.12699999809E+01 0. -1.
</event>
<event>
 5   0  0.3531266E-04  0.1780256E+04  0.7818609E-02  0.8716870E-01
       -2   -1    0    0    0  501  0.00000000000E+00  0.00000000000E+00  0.48996257407E+03  0.48996257407E+03  0.25500000920E-02 0.  1.
        2   -1    0    0  501    0  0.00000000000E+00  0.00000000000E+00 -0.16171198221E+04  0.16171198221E+04  0.25500000920E-02 0. -1.
    10030    2    1    2    0    0  0.00000000000E+00  0.00000000000E+00 -0.11271572480E+04  0.21070823962E+04  0.17802563755E+04 0.  0.
        3    1    3    3  502    0 -0.82359688488E+03  0.31219001595E+03 -0.71586011033E+03  0.11350022655E+04  0.10100000352E+00 0.  1.
       -3    1    3    3    0  502  0.82359688488E+03 -0.31219001595E+03 -0.41129713771E+03  0.97208013071E+03  0.10100000352E+00 0. -1.
</event>
<event>
 5   0  0.1837313E-04  0.1792453E+04  0.7818609E-02  0.8710323E-01
       -1   -1    0    0    0  501  0.00000000000E+00  0.00000000000E+00  0.66356804727E+03  0.66356804729E+03  0.50400001928E-02 0. -1.
        1   -1    0    0  501    0  0.00000000000E+00  0.00000000000E+00 -0.12104589897E+04  0.12104589897E+04  0.50400001928E-02 0.  1.
    10030    2    1    2    0    0  0.00000000000E+00  0.00000000000E+00 -0.54689094242E+03  0.18740270370E+04  0.17924529652E+04 0.  0.
        1    1    3    3  502    0 -0.75832412322E+03 -0.36290588290E+03 -0.59816967594E+03  0.10317766798E+04  0.50400001928E-02 0.  1.
       -1    1    3    3    0  502  0.75832412322E+03  0.36290588290E+03  0.51278733517E+02  0.84225035722E+03  0.50400001928E-02 0. -1.
</event>
<event>
 5   0  0.3628581E-04  0.1785829E+04  0.7818609E-02  0.8713872E-01
       -2   -1    0    0    0  501  0.00000000000E+00  0.00000000000E+00  0.62954005980E+03  0.62954005980E+03  0.25500000920E-02 0. -1.
        2   -1    0    0  501    0  0.00000000000E+00  0.00000000000E+00 -0.12664738766E+04  0.12664738766E+04  0.25500000920E-02 0.  1.
    10030    2    1    2    0    0  0.00000000000E+00  0.00000000000E+00 -0.63693381682E+03  0.18960139364E+04  0.17858287040E+04 0.  0.
        2    1    3    3  502    0  0.21724604389E+03  0.86599150690E+03 -0.30508332455E+03  0.94351097955E+03  0.25500000920E-02 0. -1.
       -2    1    3    3    0  502 -0.21724604389E+03 -0.86599150690E+03 -0.33185049228E+03  0.95250295687E+03  0.25500000920E-02 0.  1.
</event>
<event>
 5   0  0.1825253E-04  0.1807014E+04  0.7818609E-02  0.8702578E-01
        1   -1    0    0  501    0  0.00000000000E+00  0.00000000000E+00  0.22191884462E+04  0.22191884462E+04  0.50400001928E-02 0. -1.
       -1   -1    0    0    0  501  0.00000000000E+00  0.00000000000E+00 -0.36784853647E+03  0.36784853650E+03  0.50400001928E-02 0.  1.
    10030    2    1    2    0    0  0.00000000000E+00  0.00000000000E+00  0.18513399097E+04  0.25870369827E+04  0.18070143576E+04 0.  0.
        4    1    3    3  502    0  0.89790131372E+03  0.31828187545E+02  0.78921950499E+03  0.11958715828E+04  0.12699999809E+01 0.  1.
       -4    1    3    3    0  502 -0.89790131372E+03 -0.31828187545E+02  0.10621204047E+04  0.13911653999E+04  0.12699999809E+01 0. -1.
</event>
<event>
 5   0  0.1835421E-04  0.1850939E+04  0.7818609E-02  0.8679670E-01
        1   -1    0    0  501    0  0.00000000000E+00  0.00000000000E+00  0.10041326184E+04  0.10041326184E+04  0.50400001928E-02 0. -1.
       -1   -1    0    0    0  501  0.00000000000E+00  0.00000000000E+00 -0.85296835432E+03  0.85296835433E+03  0.50400001928E-02 0.  1.
    10030    2    1    2    0    0  0.00000000000E+00  0.00000000000E+00  0.15116426412E+03  0.18571009728E+04  0.18509385156E+04 0.  0.
        2    1    3    3  502    0 -0.15302047703E+03 -0.25018132158E+03 -0.80511441115E+03  0.85686356855E+03  0.25500000920E-02 0.  1.
       -2    1    3    3    0  502  0.15302047703E+03  0.25018132158E+03  0.95627867527E+03  0.10002374042E+04  0.25500000920E-02 0. -1.
</event>
<event>
 5   0  0.3575091E-04  0.1795495E+04  0.7818609E-02  0.8708699E-01
       -2   -1    0    0    0  501  0.00000000000E+00  0.00000000000E+00  0.40568393363E+03  0.40568393364E+03  0.25500000920E-02 0. -1.
        2   -1    0    0  501    0  0.00000000000E+00  0.00000000000E+00 -0.19866468029E+04  0.19866468029E+04  0.25500000920E-02 0.  1.
    10030    2    1    2    0    0  0.00000000000E+00  0.00000000000E+00 -0.15809628692E+04  0.23923307365E+04  0.17954951292E+04 0.  0.
        5    1    3    3  502    0 -0.18901691820E+03 -0.64522315762E+03  0.21477874603E+01  0.67235929493E+03  0.46999998093E+01 0. -1.
       -5    1    3    3    0  502  0.18901691820E+03  0.64522315762E+03 -0.15831106567E+04  0.17199714416E+04  0.46999998093E+01 0.  1.
</event>
<event>
 5   0  0.1837313E-04  0.1628284E+04  0.7818609E-02  0.8803358E-01
        1   -1    0    0  501    0  0.00000000000E+00  0.00000000000E+00  0.67638635540E+03  0.67638635542E+03  0.50400001928E-02 0. -1.
       -1   -1    0    0    0  501  0.00000000000E+00  0.00000000000E+00 -0.97995401298E+03  0.97995401299E+03  0.50400001928E-02 0.  1.
    10030    2    1    2    0    0  0.00000000000E+00  0.00000000000E+00 -0.30356765757E+03  0.16563403684E+04  0.16282844018E+04 0.  0.
        1    1    3    3  502    0 -0.65957435760E+03 -0.16134724386E+03  0.30512845104E+03  0.74442906846E+03  0.50400001928E-02 0. -1.
       -1    1    3    3    0  502  0.65957435760E+03  0.16134724386E+03 -0.60869610861E+03  0.91191129995E+03  0.50400001928E-02 0.  1.
</event>
<event>
 5   0  0.3582186E-04  0.1636741E+04  0.7818609E-02  0.8798289E-01
        2   -1    0    0  501    0  0.00000000000E+00  0.00000000000E+00  0.10443012948E+04  0.10443012948E+04  0.25500000920E-02 0. -1.
       -2   -1    0    0    0  501  0.00000000000E+00  0.00000000000E+00 -0.64131890270E+03  0.64131890270E+03  0.25500000920E-02 0.  1.
    10030    2    1    2    0    0  0.00000000000E+00  0.00000000000E+00  0.40298239214E+03  0.16856201975E+04  0.16367408597E+04 0.  0.
        4    1    3    3  502    0  0.17401710840E+03  0.65535566069E+03  0.67338413992E+03  0.95562587282E+03  0.12699999809E+01 0. -1.
       -4    1    3    3    0  502 -0.17401710840E+03 -0.65535566069E+03 -0.27040174778E+03  0.72999432471E+03  0.12699999809E+01 0.  1.
</event>
<event>
 5   0  0.1883959E-04  0.1788403E+04  0.7818609E-02  0.8712491E-01
        1   -1    0    0  501    0  0.00000000000E+00  0.00000000000E+00  0.21033229101E+04  0.21033229101E+04  0.50400001928E-02 0.  1.
       -1   -1    0    0    0  501  0.00000000000E+00  0.00000000000E+00 -0.38015861890E+03  0.38015861893E+03  0.50400001928E-02 0. -1.
    10030    2    1    2    0    0  0.00000000000E+00  0.00000000000E+00  0.17231642912E+04  0.24834815290E+04  0.17884030112E+04 0.  0.
        5    1    3    3  502    0  0.86045639744E+02 -0.89003857660E+03  0.86340477734E+03  0.12430053980E+04  0.46999998093E+01 0.  1.
       -5    1    3    3    0  502 -0.86045639744E+02  0.89003857660E+03  0.85975951385E+03  0.12404761310E+04  0.46999998093E+01 0. -1.
</event>
<event>
 5   0  0.3531266E-04  0.1776162E+04  0.7818609E-02  0.8719080E-01
        2   -1    0    0  501    0  0.00000000000E+00  0.00000000000E+00  0.14355846784E+04  0.14355846784E+04  0.25500000920E-02 0. -1.
       -2   -1    0    0    0  501  0.00000000000E+00  0.00000000000E+00 -0.54938458632E+03  0.54938458633E+03  0.25500000920E-02 0.  1.
    10030    2    1    2    0    0  0.00000000000E+00  0.00000000000E+00  0.88620009209E+03  0.19849692647E+04  0.17761622614E+04 0.  0.
        3    1    3    3  502    0 -0.34830171932E+03 -0.23115945592E+03  0.13187567292E+04  0.13834262187E+04  0.10100000352E+00 0. -1.
       -3    1    3    3    0  502  0.34830171932E+03  0.23115945592E+03 -0.43255663707E+03  0.60154304602E+03  0.10100000352E+00 0.  1.
</event>
<event>
 5   0  0.3531266E-04  0.1824234E+04  0.7818609E-02  0.8693517E-01
       -2   -1    0    0    0  501  0.00000000000E+00  0.00000000000E+00  0.12346751935E+04  0.12346751935E+04  0.25500000920E-02 0. -1.
        2   -1    0    0  501    0  0.00000000000E+00  0.00000000000E+00 -0.67382728320E+03  0.67382728320E+03  0.25500000920E-02 0.  1.
    10030    2    1    2    0    0  0.00000000000E+00  0.00000000000E+00  0.56084791034E+03  0.19085024767E+04  0.18242344491E+04 0.  0.
        3    1    3    3  502    0 -0.51552507172E+03  0.94333463049E+02 -0.50058108704E+03  0.72473880586E+03  0.10100000352E+00 0.  1.
       -3    1    3    3    0  502  0.51552507172E+03 -0.94333463049E+02  0.10614289974E+04  0.11837636709E+04  0.10100000352E+00 0. -1.
</event>
<event>
 5   0  0.1818778E-04  0.1811717E+04  0.7818609E-02  0.8700093E-01
       -1   -1    0    0    0  501  0.00000000000E+00  0.00000000000E+00  0.67293803499E+03  0.67293803501E+03  0.50400001928E-02 0.  1.
        1   -1    0    0  501    0  0.00000000000E+00  0.00000000000E+00 -0.12193982772E+04  0.12193982772E+04  0.50400001928E-02 0. -1.
    10030    2    1    2    0    0  0.00000000000E+00  0.00000000000E+00 -0.54646024219E+03  0.18923363122E+04  0.18117168438E+04 0.  0.
        3    1    3    3  502    0 -0.75676934895E+03 -0.41635843633E+01 -0.79324195591E+03  0.10963348000E+04  0.10100000352E+00 0. -1.
       -3    1    3    3    0  502  0.75676934895E+03  0.41635843633E+01  0.24678171371E+03  0.79600151217E+03  0.10100000352E+00 0.  1.
</event>
<event>
 5   0  0.3628581E-04  0.1808526E+04  0.7818609E-02  0.8701779E-01
        2   -1    0    0  501    0  0.00000000000E+00  0.00000000000E+00  0.65225135307E+03  0.65225135307E+03  0.25500000920E-02 0.  1.
       -2   -1    0    0    0  501  0.00000000000E+00  0.00000000000E+00 -0.12536449997E+04  0.12536449997E+04  0.25500000920E-02 0. -1.
    10030    2    1    2    0    0  0.00000000000E+00  0.00000000000E+00 -0.60139364659E+03  0.19058963527E+04  0.18085260820E+04 0.  0.
        2    1    3    3  502    0  0.69976818403E+03 -0.55976267940E+03 -0.42838930217E+03  0.99324073761E+03  0.25500000920E-02 0. -1.
       -2    1    3    3    0  502 -0.69976818403E+03  0.55976267940E+03 -0.17300434442E+03  0.91265561513E+03  0.25500000920E-02 0.  1.
</event>
<event>
 5   0  0.3582186E-04  0.1818728E+04  0.7818609E-02  0.8696403E-01
        2   -1    0    0  501    0  0.00000000000E+00  0.00000000000E+00  0.14395868672E+04  0.14395868672E+04  0.25500000920E-02 0.  1.
       -2   -1    0    0    0  501  0.00000000000E+00  0.00000000000E+00 -0.57443040088E+03  0.57443040089E+03  0.25500000920E-02 0. -1.
    10030    2    1    2    0    0  0.00000000000E+00  0.00000000000E+00  0.86515646634E+03  0.20140172681E+04  0.18187275346E+04 0.  0.
        4    1    3    3  502    0 -0.70842323434E+03 -0.26201562386E+03  0.99333675783E+03  0.12478923004E+04  0.12699999809E+01 0.  1.
       -4    1    3    3    0  502  0.70842323434E+03  0.26201562386E+03 -0.12818029149E+03  0.76612496769E+03  0.12699999809E+01 0. -1.
</event>
<event>
 5   0  0.3582186E-04  0.1861060E+04  0.7818609E-02  0.8674486E-01
       -2   -1    0    0    0  501  0.00000000000E+00  0.00000000000E+00  0.11897271673E+04  0.11897271673E+04  0.25500000920E-02 0.  1.
        2   -1    0    0  501    0  0.00000000000E+00  0.00000000000E+00 -0.72780224966E+03  0.72780224966E+03  0.25500000920E-02 0. -1.
    10030    2    1    2    0    0  0.00000000000E+00  0.00000000000E+00  0.46192491761E+03  0.19175294169E+04  0.18610600300E+04 0.  0.
        4    1    3    3  502    0  0.33199753109E+03 -0.37880857725E+03 -0.57518840883E+03  0.76456629366E+03  0.12699999809E+01 0. -1.
       -4    1    3    3    0  502 -0.33199753109E+03  0.37880857725E+03  0.10371133264E+04  0.11529631233E+04  0.12699999809E+01 0.  1.
</event>
<event>
 5   0  0.1825253E-04  0.1743517E+04  0.7818609E-02  0.8736927E-01
       -1   -1    0    0    0  501  0.00000000000E+00  0.00000000000E+00  0.64747735626E+03  0.64747735628E+03  0.50400001928E-02 0. -1.
        1   -1    0    0  501    0  0.00000000000E+00  0.00000000000E+00 -0.11737283810E+04  0.11737283811E+04  0.50400001928E-02 0.  1.
    10030    2    1    2    0    0  0.00000000000E+00  0.00000000000E+00 -0.52625102479E+03  0.18212057373E+04  0.17435166178E+04 0.  0.
        4    1    3    3  502    0 -0.30886766911E+03 -0.38416534874E+03 -0.10141761810E+04  0.11276245790E+04  0.12699999809E+01 0.  1.
       -4    1    3    3    0  502  0.30886766911E+03  0.38416534874E+03  0.48792515622E+03  0.69358115831E+03  0.12699999809E+01 0. -1.
</event>
<event>
 5   0  0.1818778E-04  0.1809826E+04  0.7818609E-02  0.8701092E-01
        1   -1    0    0  501    0  0.00000000000E+00  0.00000000000E+00  0.20294126868E+04  0.20294126869E+04  0.50400001928E-02 0.  1.
       -1   -1    0    0    0  501  0.00000000000E+00  0.00000000000E+00 -0.40349963389E+03  0.40349963392E+03  0.50400001928E-02 0. -1.
    10030    2    1    2    0    0  0.00000000000E+00  0.00000000000E+00  0.16259130530E+04  0.24329123208E+04  0.18098257112E+04 0.  0.
        3    1    3    3  502    0 -0.48297250479E+03  0.66486951966E+03  0.13222831358E+04  0.15568386621E+04  0.10100000352E+00 0.  1.
       -3    1    3    3    0  502  0.48297250479E+03 -0.66486951966E+03  0.30362991718E+03  0.87607365864E+03  0.10100000352E+00 0. -1.
</event>
<event>
 5   0  0.1837313E-04  0.1794827E+04  0.7818609E-02  0.8709055E-01
       -1   -1    0    0    0  501  0.00000000000E+00  0.00000000000E+00  0.11703945406E+04  0.11703945406E+04  0.50400001928E-02 0.  1.
        1   -1    0    0  501    0  0.00000000000E+00  0.00000000000E+00 -0.68810205217E+03  0.68810205219E+03  0.50400001928E-02 0. -1.
    10030    2    1    2    0    0  0.00000000000E+00  0.00000000000E+00  0.48229248840E+03  0.18584965928E+04  0.17948268833E+04 0.  0.
        1    1    3    3  502    0  0.59376554684E+03  0.59144823606E+03 -0.91146295524E+02  0.84301612545E+03  0.50400001928E-02 0. -1.
       -1    1    3    3    0  502 -0.59376554684E+03 -0.59144823606E+03  0.57343878393E+03  0.10154804673E+04  0.50400001928E-02 0.  1.
</event>
<event>
 5   0  0.1835421E-04  0.1791163E+04  0.7818609E-02  0.8711013E-01
       -1   -1    0    0    0  501  0.00000000000E+00  0.00000000000E+00  0.92177226515E+03  0.92177226516E+03  0.50400001928E-02 0.  1.
        1   -1    0    0  501    0  0.00000000000E+00  0.00000000000E+00 -0.87013449852E+03  0.87013449854E+03  0.50400001928E-02 0. -1.
    10030    2    1    2    0    0  0.00000000000E+00  0.00000000000E+00  0.51637766628E+02  0.17919067637E+04  0.17911625808E+04 0.  0.
        2    1    3    3  502    0 -0.65376653971E+03 -0.55452077764E+03  0.28508262191E+03  0.90342464135E+03  0.25500000920E-02 0. -1.
       -2    1    3    3    0  502  0.65376653971E+03  0.55452077764E+03 -0.23344485529E+03  0.88848212235E+03  0.25500000920E-02 0.  1.
</event>
<event>
 5   0  0.1837313E-04  0.1774577E+04  0.7818609E-02  0.8719937E-01
       -1   -1    0    0    0  501  0.00000000000E+00  0.00000000000E+00  0.44993122981E+03  0.44993122984E+03  0.50400001928E-02 0. -1.
        1   -1    0    0  501    0  0.00000000000E+00  0.00000000000E+00 -0.17497795567E+04  0.17497795567E+04  0.50400001928E-02 0.  1.
    10030    2    1    2    0    0  0.00000000000E+00  0.00000000000E+00 -0.12998483269E+04  0.21997107866E+04  0.17745765330E+04 0.  0.
        1    1    3    3  502    0  0.33495378101E+03 -0.68939652968E+03 -0.95822969620E+02  0.77242711765E+03  0.50400001928E-02 0. -1.
       -1    1    3    3    0  502 -0.33495378101E+03  0.68939652968E+03 -0.12040253573E+04  0.14272836689E+04  0.50400001928E-02 0.  1.
</event>
<event>
 5   0  0.3628581E-04  0.1843225E+04  0.7818609E-02  0.8683645E-01
       -2   -1    0    0    0  501  0.00000000000E+00  0.00000000000E+00  0.11563247852E+04  0.11563247852E+04  0.25500000920E-02 0.  1.
        2   -1    0    0  501    0  0.00000000000E+00  0.00000000000E+00 -0.73454218412E+03  0.73454218412E+03  0.25500000920E-02 0. -1.
    10030    2    1    2    0    0  0.00000000000E+00  0.00000000000E+00  0.42178260106E+03  0.18908669693E+04  0.18432247104E+04 0.  0.
        2    1    3    3  502    0  0.75027792079E+02  0.74863861300E+03  0.75688916980E+03  0.10672254484E+04  0.25500000920E-02 0.  1.
       -2    1    3    3    0  502 -0.75027792079E+02 -0.74863861300E+03 -0.33510656874E+03  0.82364152085E+03  0.25500000920E-02 0. -1.
</event>
<event>
 5   0  0.1825253E-04  0.1890319E+04  0.7818609E-02  0.8659690E-01
        1   -1    0    0  501    0  0.00000000000E+00  0.00000000000E+00  0.72327118596E+03  0.72327118597E+03  0.50400001928E-02 0.  1.
       -1   -1    0    0    0  501  0.00000000000E+00  0.00000000000E+00 -0.12351203348E+04  0.12351203349E+04  0.50400001928E-02 0. -1.
    10030    2    1    2    0    0  0.00000000000E+00  0.00000000000E+00 -0.51184914889E+03  0.19583915208E+04  0.18903194962E+04 0.  0.
        4    1    3    3  502    0 -0.97028852845E+02  0.18817753609E+03 -0.12102362075E+04  0.12286165693E+04  0.12699999809E+01 0. -1.
       -4    1    3    3    0  502  0.97028852845E+02 -0.18817753609E+03  0.69838705863E+03  0.72977495157E+03  0.12699999809E+01 0.  1.
</event>
<event>
 5   0  0.3628581E-04  0.1809759E+04  0.7818609E-02  0.8701127E-01
        2   -1    0    0  501    0  0.00000000000E+00  0.00000000000E+00  0.23359375471E+04  0.23359375471E+04  0.25500000920E-02 0. -1.
       -2   -1    0    0    0  501  0.00000000000E+00  0.00000000000E+00 -0.35052614580E+03  0.35052614581E+03  0.25500000920E-02 0.  1.
    10030    2    1    2    0    0  0.00000000000E+00  0.00000000000E+00  0.19854114013E+04  0.26864636930E+04  0.18097593047E+04 0.  0.
        2    1    3    3  502    0 -0.61288459473E+03 -0.44921580990E+03  0.26339072682E+03  0.80423693356E+03  0.25500000920E-02 0.  1.
       -2    1    3    3    0  502  0.61288459473E+03  0.44921580990E+03  0.17220206745E+04  0.18822267594E+04  0.25500000920E-02 0. -1.
</event>
<event>
 5   0  0.1837313E-04  0.1823444E+04  0.7818609E-02  0.8693931E-01
       -1   -1    0    0    0  501  0.00000000000E+00  0.00000000000E+00  0.51889525898E+03  0.51889525901E+03  0.50400001928E-02 0. -1.
        1   -1    0    0  501    0  0.00000000000E+00  0.00000000000E+00 -0.16019364335E+04  0.16019364335E+04  0.50400001928E-02 0.  1.
    10030    2    1    2    0    0  0.00000000000E+00  0.00000000000E+00 -0.10830411746E+04  0.21208316925E+04  0.18234442361E+04 0.  0.
        1    1    3    3  502    0 -0.86563945286E+03 -0.27518211924E+03 -0.63295729619E+03  0.11071096603E+04  0.50400001928E-02 0.  1.
       -1    1    3    3    0  502  0.86563945286E+03  0.27518211924E+03 -0.45008387836E+03  0.10137220323E+04  0.50400001928E-02 0. -1.
</event>
<event>
 5   0  0.1818778E-04  0.1766817E+04  0.7818609E-02  0.8724148E-01
       -1   -1    0    0    0  501  0.00000000000E+00  0.00000000000E+00  0.57520987733E+03  0.57520987735E+03  0.50400001928E-02 0.  1.
        1   -1    0    0  501    0  0.00000000000E+00  0.00000000000E+00 -0.13567403197E+04  0.13567403197E+04  0.50400001928E-02 0. -1.
    10030    2    1    2    0    0  0.00000000000E+00  0.00000000000E+00 -0.78153044238E+03  0.19319501971E+04  0.17668168359E+04 0.  0.
        3    1    3    3  502    0 -0.10809930832E+03  0.84269520382E+03 -0.12608880757E+03  0.85890573673E+03  0.10100000352E+00 0.  1.
       -3    1    3    3    0  502  0.10809930832E+03 -0.84269520382E+03 -0.65544163481E+03  0.10730444603E+04  0.10100000352E+00 0. -1.
</event>
<event>
 5   0  0.3628581E-04  0.1665503E+04  0.7818609E-02  0.8781288E-01
        2   -1    0    0  501    0  0.00000000000E+00  0.00000000000E+00  0.48949639436E+03  0.48949639436E+03  0.25500000920E-02 0. -1.
       -2   -1    0    0    0  501  0.00000000000E+00  0.00000000000E+00 -0.14167112493E+04  0.14167112493E+04  0.25500000920E-02 0.  1.
    10030    2    1    2    0    0  0.00000000000E+00  0.00000000000E+00 -0.92721485496E+03  0.19062076437E+04  0.16655029852E+04 0.  0.
        2    1    3    3  502    0 -0.31075554690E+03 -0.68005973070E+03 -0.43979395145E+02  0.74898894148E+03  0.25500000920E-02 0. -1.
       -2    1    3    3    0  502  0.31075554690E+03  0.68005973070E+03 -0.88323545982E+03  0.11572187022E+04  0.25500000920E-02 0.  1.
</event>
<event>
 5   0  0.3568870E-04  0.1795309E+04  0.7818609E-02  0.8708798E-01
       -2   -1    0    0    0  501  0.00000000000E+00  0.00000000000E+00  0.10729486780E+04  0.10729486780E+04  0.25500000920E-02 0. -1.
        2   -1    0    0  501    0  0.00000000000E+00  0.00000000000E+00 -0.75099881834E+03  0.75099881835E+03  0.25500000920E-02 0.  1.
    10030    2    1    2    0    0  0.00000000000E+00  0.00000000000E+00  0.32194985965E+03  0.18239474963E+04  0.17953085410E+04 0.  0.
        1    1    3    3  502    0  0.17820582629E+03  0.85489193686E+03  0.37210153347E+03  0.94924027067E+03  0.50400001928E-02 0. -1.
       -1    1    3    3    0  502 -0.17820582629E+03 -0.85489193686E+03 -0.50151673817E+02  0.87470722567E+03  0.50400001928E-02 0.  1.
</event>
<event>
 5   0  0.3575091E-04  0.1837526E+04  0.7818609E-02  0.8686594E-01
       -2   -1    0    0    0  501  0.00000000000E+00  0.00000000000E+00  0.57948661312E+03  0.57948661313E+03  0.25500000920E-02 0. -1.
        2   -1    0    0  501    0  0.00000000000E+00  0.00000000000E+00 -0.14566775731E+04  0.14566775731E+04  0.25500000920E-02 0.  1.
    10030    2    1    2    0    0  0.00000000000E+00  0.00000000000E+00 -0.87719095995E+03  0.20361641862E+04  0.18375256768E+04 0.  0.
        5    1    3    3  502    0 -0.82394658044E+03  0.15519334109E+03 -0.22311941432E+02  0.83874480819E+03  0.46999998093E+01 0. -1.
       -5    1    3    3    0  502  0.82394658044E+03 -0.15519334109E+03 -0.85487901851E+03  0.11974193780E+04  0.46999998093E+01 0.  1.
</event>
<event>
 5   0  0.1825253E-04  0.1755504E+04  0.7818609E-02  0.8730327E-01
       -1   -1    0    0    0  501  0.00000000000E+00  0.00000000000E+00  0.66969628105E+03  0.66969628107E+03  0.50400001928E-02 0. -1.
        1   -1    0    0  501    0  0.00000000000E+00  0.00000000000E+00 -0.11504446881E+04  0.11504446881E+04  0.50400001928E-02 0.  1.
    10030    2    1    2    0    0  0.00000000000E+00  0.00000000000E+00 -0.48074840701E+03  0.18201409691E+04  0.17555039495E+04 0.  0.
        4    1    3    3  502    0 -0.17017451581E+03  0.51459948883E+03 -0.95621156876E+03  0.10991424734E+04  0.12699999809E+01 0.  1.
       -4    1    3    3    0  502  0.17017451581E+03 -0.51459948883E+03  0.47546316175E+03  0.72099849571E+03  0.12699999809E+01 0. -1.
</event>
<event>
 5   0  0.1837313E-04  0.1744371E+04  0.7818609E-02  0.8736455E-01
       -1   -1    0    0    0  501  0.00000000000E+00  0.00000000000E+00  0.12410607953E+04  0.12410607953E+04  0.50400001928E-02 0.  1.
        1   -1    0    0  501    0  0.00000000000E+00  0.00000000000E+00 -0.61294958658E+03  0.61294958660E+03  0.50400001928E-02 0. -1.
    10030    2    1    2    0    0  0.00000000000E+00  0.00000000000E+00  0.62811120868E+03  0.18540103819E+04  0.17443711777E+04 0.  0.
        1    1    3    3  502    0 -0.79372045075E+03  0.85746414146E+02  0.68736240052E+03  0.10534759946E+04  0.50400001928E-02 0.  1.
       -1    1    3    3    0  502  0.79372045075E+03 -0.85746414146E+02 -0.59251191839E+02  0.80053438729E+03  0.50400001928E-02 0. -1.
</event>
<event>
 5   0  0.1818778E-04  0.1675646E+04  0.7818609E-02  0.8775377E-01
        1   -1    0    0  501    0  0.00000000000E+00  0.00000000000E+00  0.14277925650E+04  0.14277925650E+04  0.50400001928E-02 0.  1.
       -1   -1    0    0    0  501  0.00000000000E+00  0.00000000000E+00 -0.49163121839E+03  0.49163121842E+03  0.50400001928E-02 0. -1.
    10030    2    1    2    0    0  0.00000000000E+00  0.00000000000E+00  0.93616134661E+03  0.19194237834E+04  0.16756460227E+04 0.  0.
        3    1    3    3  502    0  0.31633946995E+03  0.46967236304E+03  0.11753962522E+04  0.13046912082E+04  0.10100000352E+00 0.  1.
       -3    1    3    3    0  502 -0.31633946995E+03 -0.46967236304E+03 -0.23923490556E+03  0.61473257526E+03  0.10100000352E+00 0. -1.
</event>
<event>
 5   0  0.3531266E-04  0.1753145E+04  0.7818609E-02  0.8731621E-01
        2   -1    0    0  501    0  0.00000000000E+00  0.00000000000E+00  0.16500661349E+04  0.16500661349E+04  0.25500000920E-02 0.  1.
       -2   -1    0    0    0  501  0.00000000000E+00  0.00000000000E+00 -0.46566570327E+03  0.46566570327E+03  0.25500000920E-02 0. -1.
    10030    2    1    2    0    0  0.00000000000E+00  0.00000000000E+00  0.11844004317E+04  0.21157318382E+04  0.17531448396E+04 0.  0.
        3    1    3    3  502    0  0.26578612276E+03  0.83529479209E+03  0.59753543181E+03  0.10608526077E+04  0.10100000352E+00 0.  1.
       -3    1    3    3    0  502 -0.26578612276E+03 -0.83529479209E+03  0.58686499985E+03  0.10548792305E+04  0.10100000352E+00 0. -1.
</event>
<event>
 5   0  0.3628581E-04  0.1883596E+04  0.7818609E-02  0.8663065E-01
        2   -1    0    0  501    0  0.00000000000E+00  0.00000000000E+00  0.16022663350E+04  0.16022663350E+04  0.25500000920E-02 0. -1.
       -2   -1    0    0    0  501  0.00000000000E+00  0.00000000000E+00 -0.55358076828E+03  0.55358076828E+03  0.25500000920E-02 0.  1.
    10030    2    1    2    0    0  0.00000000000E+00  0.00000000000E+00  0.10486855667E+04  0.21558471032E+04  0.18835963779E+04 0.  0.
        2    1    3    3  502    0 -0.10243409805E+02  0.71134750605E+03 -0.18199893798E+03  0.73433222403E+03  0.25500000920E-02 0.  1.
       -2    1    3    3    0  502  0.10243409805E+02 -0.71134750605E+03  0.12306845047E+04  0.14215148792E+04  0.25500000920E-02 0. -1.
</event>
<event>
 5   0  0.1330125E-04  0.1800198E+04  0.7818609E-02  0.8706194E-01
       -4   -1    0    0    0  501  0.00000000000E+00  0.00000000000E+00  0.54157428098E+03  0.54157577006E+03  0.12699999809E+01 0. -1.
        4   -1    0    0  501    0  0.00000000000E+00  0.00000000000E+00 -0.14959646735E+04  0.14959652125E+04  0.12699999809E+01 0.  1.
    10030    2    1    2    0    0  0.00000000000E+00  0.00000000000E+00 -0.95439039248E+03  0.20375409826E+04  0.18001978320E+04 0.  0.
        4    1    3    3  502    0 -0.62357589166E+03 -0.63820153739E+03 -0.61125217460E+03  0.10815631876E+04  0.12699999809E+01 0. -1.
       -4    1    3    3    0  502  0.62357589166E+03  0.63820153739E+03 -0.34313821788E+03  0.95597779497E+03  0.12699999809E+01 0.  1.
</event>
<event>
 5   0  0.1835421E-04  0.1820455E+04  0.7818609E-02  0.8695497E-01
       -1   -1    0    0    0  501  0.00000000000E+00  0.00000000000E+00  0.45990263542E+03  0.45990263545E+03  0.50400001928E-02 0. -1.
        1   -1    0    0  501    0  0.00000000000E+00  0.00000000000E+00 -0.18014993174E+04  0.18014993174E+04  0.50400001928E-02 0.  1.
    10030    2    1    2    0    0  0.00000000000E+00  0.00000000000E+00 -0.13415966819E+04  0.22614019528E+04  0.18204552000E+04 0.  0.
        2    1    3    3  502    0  0.22146014853E+03 -0.81010513960E+03 -0.23478279519E+03  0.87203090285E+03  0.25500000920E-02 0. -1.
       -2    1    3    3    0  502 -0.22146014853E+03  0.81010513960E+03 -0.11068138868E+04  0.13893710500E+04  0.25500000920E-02 0.  1.
</event>
<event>
 5   0  0.3582186E-04  0.1713239E+04  0.7818609E-02  0.8753849E-01
        2   -1    0    0  501    0  0.00000000000E+00  0.00000000000E+00  0.57006915617E+03  0.57006915618E+03  0.25500000920E-02 0.  1.
       -2   -1    0    0    0  501  0.00000000000E+00  0.00000000000E+00 -0.12872073514E+04  0.12872073514E+04  0.25500000920E-02 0. -1.
    10030    2    1    2    0    0  0.00000000000E+00  0.00000000000E+00 -0.71713819527E+03  0.18572765076E+04  0.17132392812E+04 0.  0.
        4    1    3    3  502    0 -0.39904115190E+03  0.72713847777E+03 -0.12648784928E+03  0.83902621870E+03  0.12699999809E+01 0.  1.
       -4    1    3    3    0  502  0.39904115190E+03 -0.72713847777E+03 -0.59065034599E+03  0.10182502889E+04  0.12699999809E+01 0. -1.
</event>
<event>
 5   0  0.1818778E-04  0.1573649E+04  0.7818609E-02  0.8836902E-01
        1   -1    0    0  501    0  0.00000000000E+00  0.00000000000E+00  0.86088892077E+03  0.86088892078E+03  0.50400001928E-02 0. -1.
       -1   -1    0    0    0  501  0.00000000000E+00  0.00000000000E+00 -0.71913183826E+03  0.71913183828E+03  0.50400001928E-02 0.  1.
    10030    2    1    2    0    0  0.00000000000E+00  0.00000000000E+00  0.14175708250E+03  0.15800207591E+04  0.15736487946E+04 0.  0.
        3    1    3    3  502    0 -0.57560962335E+03 -0.36606068037E+03  0.46459611631E+03  0.82533412731E+03  0.10100000352E+00 0.  1.
       -3    1    3    3    0  502  0.57560962335E+03  0.36606068037E+03 -0.32283903380E+03  0.75468663176E+03  0.10100000352E+00 0. -1.
</event>
<event>
 5   0  0.3568870E-04  0.1835478E+04  0.7818609E-02  0.8687657E-01
        2   -1    0    0  501    0  0.00000000000E+00  0.00000000000E+00  0.63420482769E+03  0.63420482769E+03  0.25500000920E-02 0.  1.
       -2   -1    0    0    0  501  0.00000000000E+00  0.00000000000E+00 -0.13280326596E+04  0.13280326596E+04  0.25500000920E-02 0. -1.
    10030    2    1    2    0    0  0.00000000000E+00  0.00000000000E+00 -0.69382783188E+03  0.19622374873E+04  0.18354778386E+04 0.  0.
        1    1    3    3  502    0  0.39078666739E+02 -0.60359588195E+03  0.39096237479E+03  0.72021296117E+03  0.50400001928E-02 0.  1.
       -1    1    3    3    0  502 -0.39078666739E+02  0.60359588195E+03 -0.10847902067E+04  0.12420245261E+04  0.50400001928E-02 0. -1.
</event>
<event>
 5   0  0.1330125E-04  0.1770029E+04  0.7818609E-02  0.8722402E-01
        4   -1    0    0  501    0  0.00000000000E+00  0.00000000000E+00  0.85108069954E+03  0.85108164710E+03  0.12699999809E+01 0.  1.
       -4   -1    0    0    0  501  0.00000000000E+00  0.00000000000E+00 -0.92029974941E+03  0.92030062570E+03  0.12699999809E+01 0. -1.
    10030    2    1    2    0    0  0.00000000000E+00  0.00000000000E+00 -0.69219049861E+02  0.17713822728E+04  0.17700293443E+04 0.  0.
        3    1    3    3  502    0 -0.13848381531E+03  0.15262746395E+03 -0.89595203262E+03  0.91934920722E+03  0.10100000352E+00 0. -1.
       -3    1    3    3    0  502  0.13848381531E+03 -0.15262746395E+03  0.82673298276E+03  0.85203306558E+03  0.10100000352E+00 0.  1.
</event>
<event>
 5   0  0.1825253E-04  0.1360801E+04  0.7818609E-02  0.8982692E-01
       -1   -1    0    0    0  501  0.00000000000E+00  0.00000000000E+00  0.36574501459E+03  0.36574501463E+03  0.50400001928E-02 0. -1.
        1   -1    0    0  501    0  0.00000000000E+00  0.00000000000E+00 -0.12657581182E+04  0.12657581182E+04  0.50400001928E-02 0.  1.
    10030    2    1    2    0    0  0.00000000000E+00  0.00000000000E+00 -0.90001310356E+03  0.16315031328E+04  0.13608008252E+04 0.  0.
        4    1    3    3  502    0  0.40168908352E+03  0.51614921609E+03 -0.67487832347E+03  0.93980130744E+03  0.12699999809E+01 0.  1.
       -4    1    3    3    0  502 -0.40168908352E+03 -0.51614921609E+03 -0.22513478009E+03  0.69170182535E+03  0.12699999809E+01 0. -1.
</event>
<event>
 5   0  0.3582186E-04  0.1673628E+04  0.7818609E-02  0.8776550E-01
       -2   -1    0    0    0  501  0.00000000000E+00  0.00000000000E+00  0.97473231074E+03  0.97473231074E+03  0.25500000920E-02 0.  1.
        2   -1    0    0  501    0  0.00000000000E+00  0.00000000000E+00 -0.71841039164E+03  0.71841039164E+03  0.25500000920E-02 0. -1.
    10030    2    1    2    0    0  0.00000000000E+00  0.00000000000E+00  0.25632191910E+03  0.16931427024E+04  0.16736281799E+04 0.  0.
        4    1    3    3  502    0  0.24568859826E+03 -0.71486857888E+03 -0.23499008997E+03  0.79159454752E+03  0.12699999809E+01 0. -1.
       -4    1    3    3    0  502 -0.24568859826E+03  0.71486857888E+03  0.49131200907E+03  0.90154815486E+03  0.12699999809E+01 0.  1.
</event>
<event>
 5   0  0.3628581E-04  0.1844710E+04  0.7818609E-02  0.8682878E-01
       -2   -1    0    0    0  501  0.00000000000E+00  0.00000000000E+00  0.36197300369E+03  0.36197300369E+03  0.25500000920E-02 0.  1.
        2   -1    0    0  501    0  0.00000000000E+00  0.00000000000E+00 -0.23502822520E+04  0.23502822520E+04  0.25500000920E-02 0. -1.
    10030    2    1    2    0    0  0.00000000000E+00  0.00000000000E+00 -0.19883092483E+04  0.27122552557E+04  0.18447099786E+04 0.  0.
        2    1    3    3  502    0  0.96315441423E+02 -0.90198365902E+01  0.35449376028E+03  0.36745591272E+03  0.25500000920E-02 0.  1.
       -2    1    3    3    0  502 -0.96315441423E+02  0.90198365902E+01 -0.23428030086E+04  0.23447993430E+04  0.25500000920E-02 0. -1.
</event>
<event>
 5   0  0.1883959E-04  0.1623190E+04  0.7818609E-02  0.8806427E-01
       -1   -1    0    0    0  501  0.00000000000E+00  0.00000000000E+00  0.11135928196E+04  0.11135928196E+04  0.50400001928E-02 0.  1.
        1   -1    0    0  501    0  0.00000000000E+00  0.00000000000E+00 -0.59149639456E+03  0.59149639458E+03  0.50400001928E-02 0. -1.
    10030    2    1    2    0    0  0.00000000000E+00  0.00000000000E+00  0.52209642501E+03  0.17050892142E+04  0.16231896227E+04 0.  0.
        5    1    3    3  502    0  0.60302703044E+03  0.52901052959E+03  0.39043056647E+03  0.89216134028E+03  0.46999998093E+01 0. -1.
       -5    1    3    3    0  502 -0.60302703044E+03 -0.52901052959E+03  0.13166585854E+03  0.81292787389E+03  0.46999998093E+01 0.  1.
</event>
<event>
 5   0  0.3575091E-04  0.1782328E+04  0.7818609E-02  0.8715754E-01
        2   -1    0    0  501    0  0.00000000000E+00  0.00000000000E+00  0.15061590152E+04  0.15061590152E+04  0.25500000920E-02 0. -1.
       -2   -1    0    0    0  501  0.00000000000E+00  0.00000000000E+00 -0.52728358421E+03  0.52728358421E+03  0.25500000920E-02 0.  1.
    10030    2    1    2    0    0  0.00000000000E+00  0.00000000000E+00  0.97887543097E+03  0.20334425994E+04  0.17823276062E+04 0.  0.
        5    1    3    3  502    0 -0.41097359417E+03  0.14549264528E+03 -0.39729523092E+03  0.58985845374E+03  0.46999998093E+01 0.  1.
       -5    1    3    3    0  502  0.41097359417E+03 -0.14549264528E+03  0.13761706619E+04  0.14435841457E+04  0.46999998093E+01 0. -1.
</event>
<event>
 5   0  0.3628581E-04  0.1802620E+04  0.7818609E-02  0.8704907E-01
        2   -1    0    0  501    0  0.00000000000E+00  0.00000000000E+00  0.25491414452E+04  0.25491414452E+04  0.25500000920E-02 0.  1.
       -2   -1    0    0    0  501  0.00000000000E+00  0.00000000000E+00 -0.31867983674E+03  0.31867983675E+03  0.25500000920E-02 0. -1.
    10030    2    1    2    0    0  0.00000000000E+00  0.00000000000E+00  0.22304616084E+04  0.28678212819E+04  0.18026202923E+04 0.  0.
        2    1    3    3  502    0  0.68276638147E+03  0.25117614427E+03  0.19617137578E+04  0.20922667743E+04  0.25500000920E-02 0.  1.
       -2    1    3    3    0  502 -0.68276638147E+03 -0.25117614427E+03  0.26874785061E+03  0.77555450764E+03  0.25500000920E-02 0. -1.
</event>
<event>
 5   0  0.3575091E-04  0.1862527E+04  0.7818609E-02  0.8673737E-01
       -2   -1    0    0    0  501  0.00000000000E+00  0.00000000000E+00  0.13678068886E+04  0.13678068886E+04  0.25500000920E-02 0.  1.
        2   -1    0    0  501    0  0.00000000000E+00  0.00000000000E+00 -0.63404527202E+03  0.63404527202E+03  0.25500000920E-02 0. -1.
    10030    2    1    2    0    0  0.00000000000E+00  0.00000000000E+00  0.73376161655E+03  0.20018521606E+04  0.18625267684E+04 0.  0.
        5    1    3    3  502    0 -0.71577819619E+03  0.59136555847E+03  0.28954154115E+03  0.97257804002E+03  0.46999998093E+01 0. -1.
       -5    1    3    3    0  502  0.71577819619E+03 -0.59136555847E+03  0.44422007540E+03  0.10292741206E+04  0.46999998093E+01 0.  1.
</event>
<event>
 5   0  0.1818778E-04  0.1794314E+04  0.7818609E-02  0.8709329E-01
        1   -1    0    0  501    0  0.00000000000E+00  0.00000000000E+00  0.18439568177E+04  0.18439568177E+04  0.50400001928E-02 0. -1.
       -1   -1    0    0    0  501  0.00000000000E+00  0.00000000000E+00 -0.43650188162E+03  0.43650188165E+03  0.50400001928E-02 0.  1.
    10030    2    1    2    0    0  0.00000000000E+00  0.00000000000E+00  0.14074549361E+04  0.22804586994E+04  0.17943139308E+04 0.  0.
        3    1    3    3  502    0  0.13021449672E+03 -0.27167216911E+03 -0.37029193075E+03  0.47736538082E+03  0.10100000352E+00 0.  1.
       -3    1    3    3    0  502 -0.13021449672E+03  0.27167216911E+03  0.17777468668E+04  0.18030933186E+04  0.10100000352E+00 0. -1.
</event>
<event>
 5   0  0.3568870E-04  0.1713173E+04  0.7818609E-02  0.8753887E-01
        2   -1    0    0  501    0  0.00000000000E+00  0.00000000000E+00  0.87495547971E+03  0.87495547972E+03  0.25500000920E-02 0. -1.
       -2   -1    0    0    0  501  0.00000000000E+00  0.00000000000E+00 -0.83860340540E+03  0.83860340540E+03  0.25500000920E-02 0.  1.
    10030    2    1    2    0    0  0.00000000000E+00  0.00000000000E+00  0.36352074318E+02  0.17135588851E+04  0.17131732485E+04 0.  0.
        1    1    3    3  502    0  0.25444413880E+03  0.34173341903E+03  0.76145642324E+03  0.87254766860E+03  0.50400001928E-02 0. -1.
       -1    1    3    3    0  502 -0.25444413880E+03 -0.34173341903E+03 -0.72510434892E+03  0.84101121652E+03  0.50400001928E-02 0.  1.
</event>
<event>
 5   0  0.1818778E-04  0.1794159E+04  0.7818609E-02  0.8709412E-01
       -1   -1    0    0    0  501  0.00000000000E+00  0.00000000000E+00  0.58155308693E+03  0.58155308695E+03  0.50400001928E-02 0.  1.
        1   -1    0    0  501    0  0.00000000000E+00  0.00000000000E+00 -0.13837981098E+04  0.13837981098E+04  0.50400001928E-02 0. -1.
    10030    2    1    2    0    0  0.00000000000E+00  0.00000000000E+00 -0.80224502284E+03  0.19653511967E+04  0.17941594828E+04 0.  0.
        3    1    3    3  502    0 -0.35487891107E+03 -0.51970809604E+03  0.29918730014E+03  0.69681317250E+03  0.10100000352E+00 0.  1.
       -3    1    3    3    0  502  0.35487891107E+03  0.51970809604E+03 -0.11014323230E+04  0.12685380242E+04  0.10100000352E+00 0. -1.
</event>
<event>
 5   0  0.3628581E-04  0.1798204E+04  0.7818609E-02  0.8707255E-01
       -2   -1    0    0    0  501  0.00000000000E+00  0.00000000000E+00  0.38710225986E+03  0.38710225987E+03  0.25500000920E-02 0.  1.
        2   -1    0    0  501    0  0.00000000000E+00  0.00000000000E+00 -0.20882976683E+04  0.20882976683E+04  0.25500000920E-02 0. -1.
    10030    2    1    2    0    0  0.00000000000E+00  0.00000000000E+00 -0.17011954084E+04  0.24753999281E+04  0.17982043784E+04 0.  0.
        2    1    3    3  502    0 -0.26546918363E+03  0.56045045213E+03 -0.17467667736E+04  0.18535837607E+04  0.25500000920E-02 0. -1.
       -2    1    3    3    0  502  0.26546918363E+03 -0.56045045213E+03  0.45571365154E+02  0.62181616743E+03  0.25500000920E-02 0.  1.
</event>
<event>
 5   0  0.3531266E-04  0.1802260E+04  0.7818609E-02  0.8705099E-01
       -2   -1    0    0    0  501  0.00000000000E+00  0.00000000000E+00  0.47055044784E+03  0.47055044785E+03  0.25500000920E-02 0.  1.
        2   -1    0    0  501    0  0.00000000000E+00  0.00000000000E+00 -0.17257136213E+04  0.17257136213E+04  0.25500000920E-02 0. -1.
    10030    2    1    2    0    0  0.00000000000E+00  0.00000000000E+00 -0.12551631735E+04  0.21962640692E+04  0.18022600449E+04 0.  0.
        3    1    3    3  502    0 -0.45083389673E+03 -0.69111893591E+03 -0.18628296209E+03  0.84593022063E+03  0.10100000352E+00 0.  1.
       -3    1    3    3    0  502  0.45083389673E+03  0.69111893591E+03 -0.10688802114E+04  0.13503338485E+04  0.10100000352E+00 0. -1.
</event>
<event>
 5   0  0.3568870E-04  0.1801421E+04  0.7818609E-02  0.8705544E-01
       -2   -1    0    0    0  501  0.00000000000E+00  0.00000000000E+00  0.28523112609E+03  0.28523112611E+03  0.25500000920E-02 0.  1.
        2   -1    0    0  501    0  0.00000000000E+00  0.00000000000E+00 -0.28442878870E+04  0.28442878870E+04  0.25500000920E-02 0. -1.
    10030    2    1    2    0    0  0.00000000000E+00  0.00000000000E+00 -0.25590567609E+04  0.31295190131E+04  0.18014210357E+04 0.  0.
        1    1    3    3  502    0  0.70504789419E+03  0.44661364162E+03 -0.69110772005E+03  0.10835987074E+04  0.50400001928E-02 0.  1.
       -1    1    3    3    0  502 -0.70504789419E+03 -0.44661364162E+03 -0.18679490409E+04  0.20459203057E+04  0.50400001928E-02 0. -1.
</event>
<event>
 5   0  0.3575091E-04  0.1363075E+04  0.7818609E-02  0.8980989E-01
       -2   -1    0    0    0  501  0.00000000000E+00  0.00000000000E+00  0.24353337956E+03  0.24353337958E+03  0.25500000920E-02 0.  1.
        2   -1    0    0  501    0  0.00000000000E+00  0.00000000000E+00 -0.19073082535E+04  0.19073082535E+04  0.25500000920E-02 0. -1.
    10030    2    1    2    0    0  0.00000000000E+00  0.00000000000E+00 -0.16637748739E+04  0.21508416331E+04  0.13630747960E+04 0.  0.
        5    1    3    3  502    0 -0.50556424971E+03  0.14727315490E+02 -0.15526750912E+04  0.16329832005E+04  0.46999998093E+01 0. -1.
       -5    1    3    3    0  502  0.50556424971E+03 -0.14727315490E+02 -0.11109978271E+03  0.51785843252E+03  0.46999998093E+01 0.  1.
</event>
<event>
 5   0  0.1825253E-04  0.1613189E+04  0.7818609E-02  0.8812486E-01
        1   -1    0    0  501    0  0.00000000000E+00  0.00000000000E+00  0.78778428600E+03  0.78778428601E+03  0.50400001928E-02 0. -1.
       -1   -1    0    0    0  501  0.00000000000E+00  0.00000000000E+00 -0.82585434309E+03  0.82585434310E+03  0.50400001928E-02 0.  1.
    10030    2    1    2    0    0  0.00000000000E+00  0.00000000000E+00 -0.38070057093E+02  0.16136386291E+04  0.16131894793E+04 0.  0.
        4    1    3    3  502    0  0.61913935434E+02 -0.66683986942E+03  0.43062846809E+03  0.79621054833E+03  0.12699999809E+01 0. -1.
       -4    1    3    3    0  502 -0.61913935434E+02  0.66683986942E+03 -0.46869852518E+03  0.81742808078E+03  0.12699999809E+01 0.  1.
</event>
<event>
 5   0  0.1883959E-04  0.1802448E+04  0.7818609E-02  0.8704999E-01
       -1   -1    0    0    0  501  0.00000000000E+00  0.00000000000E+00  0.94517693186E+03  0.94517693188E+03  0.50400001928E-02 0.  1.
        1   -1    0    0  501    0  0.00000000000E+00  0.00000000000E+00 -0.85931504363E+03  0.85931504365E+03  0.50400001928E-02 0. -1.
    10030    2    1    2    0    0  0.00000000000E+00  0.00000000000E+00  0.85861888228E+02  0.18044919755E+04  0.18024480647E+04 0.  0.
        5    1    3    3  502    0 -0.37821732086E+03 -0.50453541048E+03 -0.60167677458E+03  0.87157406644E+03  0.46999998093E+01 0.  1.
       -5    1    3    3    0  502  0.37821732086E+03  0.50453541048E+03  0.68753866281E+03  0.93291790908E+03  0.46999998093E+01 0. -1.
</event>
<event>
 5   0  0.3582186E-04  0.1802446E+04  0.7818609E-02  0.8705000E-01
        2   -1    0    0  501    0  0.00000000000E+00  0.00000000000E+00  0.13019862639E+04  0.13019862639E+04  0.25500000920E-02 0. -1.
       -2   -1    0    0    0  501  0.00000000000E+00  0.00000000000E+00 -0.62381811974E+03  0.62381811974E+03  0.25500000920E-02 0.  1.
    10030    2    1    2    0    0  0.00000000000E+00  0.00000000000E+00  0.67816814419E+03  0.19258043837E+04  0.18024456975E+04 0.  0.
        4    1    3    3  502    0  0.43562802586E+03  0.58924049892E+03  0.89960756187E+03  0.11602894125E+04  0.12699999809E+01 0. -1.
       -4    1    3    3    0  502 -0.43562802586E+03 -0.58924049892E+03 -0.22143941768E+03  0.76551497117E+03  0.12699999809E+01 0.  1.
</event>
<event>
 5   0  0.1825253E-04  0.1787504E+04  0.7818609E-02  0.8712973E-01
       -1   -1    0    0    0  501  0.00000000000E+00  0.00000000000E+00  0.50959019662E+03  0.50959019665E+03  0.50400001928E-02 0.  1.
        1   -1    0    0  501    0  0.00000000000E+00  0.00000000000E+00 -0.15675189764E+04  0.15675189764E+04  0.50400001928E-02 0. -1.
    10030    2    1    2    0    0  0.00000000000E+00  0.00000000000E+00 -0.10579287798E+04  0.20771091731E+04  0.17875036262E+04 0.  0.
        4    1    3    3  502    0  0.28844992365E+03  0.35891336520E+03  0.36114995129E+03  0.58519489266E+03  0.12699999809E+01 0.  1.
       -4    1    3    3    0  502 -0.28844992365E+03 -0.35891336520E+03 -0.14190787311E+04  0.14919142804E+04  0.12699999809E+01 0. -1.
</event>
<event>
 5   0  0.1837313E-04  0.1832009E+04  0.7818609E-02  0.8689460E-01
       -1   -1    0    0    0  501  0.00000000000E+00  0.00000000000E+00  0.70452100982E+03  0.70452100984E+03  0.50400001928E-02 0.  1.
        1   -1    0    0  501    0  0.00000000000E+00  0.00000000000E+00 -0.11909713198E+04  0.11909713199E+04  0.50400001928E-02 0. -1.
    10030    2    1    2    0    0  0.00000000000E+00  0.00000000000E+00 -0.48645031002E+03  0.18954923297E+04  0.18320090796E+04 0.  0.
        1    1    3    3  502    0  0.57170161798E+02 -0.80019702696E+03 -0.70067791236E+03  0.10651447067E+04  0.50400001928E-02 0. -1.
       -1    1    3    3    0  502 -0.57170161798E+02  0.80019702696E+03  0.21422760234E+03  0.83034762298E+03  0.50400001928E-02 0.  1.
</event>
<event>
 5   0  0.3568870E-04  0.1795531E+04  0.7818609E-02  0.8708680E-01
        2   -1    0    0  501    0  0.00000000000E+00  0.00000000000E+00  0.11972570086E+04  0.11972570086E+04  0.25500000920E-02 0.  1.
       -2   -1    0    0    0  501  0.00000000000E+00  0.00000000000E+00 -0.67319127899E+03  0.67319127899E+03  0.25500000920E-02 0. -1.
    10030    2    1    2    0    0  0.00000000000E+00  0.00000000000E+00  0.52406572963E+03  0.18704482876E+04  0.17955310935E+04 0.  0.
        1    1    3    3  502    0 -0.29146314145E+03 -0.42505979349E+03  0.10277932928E+04  0.11497763451E+04  0.50400001928E-02 0.  1.
       -1    1    3    3    0  502  0.29146314145E+03  0.42505979349E+03 -0.50372756318E+03  0.72067194256E+03  0.50400001928E-02 0. -1.
</event>
<event>
 5   0  0.1883959E-04  0.1848159E+04  0.7818609E-02  0.8681100E-01
        1   -1    0    0  501    0  0.00000000000E+00  0.00000000000E+00  0.69463978252E+03  0.69463978254E+03  0.50400001928E-02 0.  1.
       -1   -1    0    0    0  501  0.00000000000E+00  0.00000000000E+00 -0.12293037114E+04  0.12293037114E+04  0.50400001928E-02 0. -1.
    10030    2    1    2    0    0  0.00000000000E+00  0.00000000000E+00 -0.53466392890E+03  0.19239434940E+04  0.18481593684E+04 0.  0.
        5    1    3    3  502    0  0.25561322480E+03 -0.42535575948E+03  0.54414178390E+03  0.73646317885E+03  0.46999998093E+01 0.  1.
       -5    1    3    3    0  502 -0.25561322480E+03  0.42535575948E+03 -0.10788057128E+04  0.11874803151E+04  0.46999998093E+01 0. -1.
</event>
<event>
 5   0  0.3582186E-04  0.1778096E+04  0.7818609E-02  0.8718035E-01
        2   -1    0    0  501    0  0.00000000000E+00  0.00000000000E+00  0.13945128067E+04  0.13945128067E+04  0.25500000920E-02 0.  1.
       -2   -1    0    0    0  501  0.00000000000E+00  0.00000000000E+00 -0.56679749229E+03  0.56679749230E+03  0.25500000920E-02 0. -1.
    10030    2    1    2    0    0  0.00000000000E+00  0.00000000000E+00  0.82771531444E+03  0.19613102990E+04  0.17780960175E+04 0.  0.
        4    1    3    3  502    0  0.99172620080E+02 -0.84404073450E+03  0.12587183030E+03  0.85911890948E+03  0.12699999809E+01 0. -1.
       -4    1    3    3    0  502 -0.99172620080E+02  0.84404073450E+03  0.70184348414E+03  0.11021913896E+04  0.12699999809E+01 0.  1.
</event>
<event>
 5   0  0.3568870E-04  0.1780615E+04  0.7818609E-02  0.8716677E-01
        2   -1    0    0  501    0  0.00000000000E+00  0.00000000000E+00  0.10161461201E+04  0.10161461201E+04  0.25500000920E-02 0.  1.
       -2   -1    0    0    0  501  0.00000000000E+00  0.00000000000E+00 -0.78005249729E+03  0.78005249729E+03  0.25500000920E-02 0. -1.
    10030    2    1    2    0    0  0.00000000000E+00  0.00000000000E+00  0.23609362284E+03  0.17961986174E+04  0.17806148585E+04 0.  0.
        1    1    3    3  502    0 -0.59338956105E+03  0.24680481224E+03  0.73957513915E+03  0.97979343383E+03  0.50400001928E-02 0.  1.
       -1    1    3    3    0  502  0.59338956105E+03 -0.24680481224E+03 -0.50348151631E+03  0.81640518359E+03  0.50400001928E-02 0. -1.
</event>
<event>
 5   0  0.3531266E-04  0.1528803E+04  0.7818609E-02  0.8865522E-01
       -2   -1    0    0    0  501  0.00000000000E+00  0.00000000000E+00  0.45012746420E+03  0.45012746420E+03  0.25500000920E-02 0. -1.
        2   -1    0    0  501    0  0.00000000000E+00  0.00000000000E+00 -0.12980977528E+04  0.12980977528E+04  0.25500000920E-02 0.  1.
    10030    2    1    2    0    0  0.00000000000E+00  0.00000000000E+00 -0.84797028857E+03  0.17482252170E+04  0.15288027338E+04 0.  0.
        3    1    3    3  502    0 -0.66085607163E+03  0.33793034258E+03 -0.21505521994E+03  0.77277190792E+03  0.10100000352E+00 0. -1.
       -3    1    3    3    0  502  0.66085607163E+03 -0.33793034258E+03 -0.63291506863E+03  0.97545330905E+03  0.10100000352E+00 0.  1.
</event>
<event>
 5   0  0.3628581E-04  0.1841916E+04  0.7818609E-02  0.8684321E-01
       -2   -1    0    0    0  501  0.00000000000E+00  0.00000000000E+00  0.36137900634E+03  0.36137900635E+03  0.25500000920E-02 0.  1.
        2   -1    0    0  501    0  0.00000000000E+00  0.00000000000E+00 -0.23470208752E+04  0.23470208752E+04  0.25500000920E-02 0. -1.
    10030    2    1    2    0    0  0.00000000000E+00  0.00000000000E+00 -0.19856418688E+04  0.27083998815E+04  0.18419164712E+04 0.  0.
        2    1    3    3  502    0 -0.40831526621E+03  0.92211317841E+02 -0.21990532467E+04  0.22385395832E+04  0.25500000920E-02 0. -1.
       -2    1    3    3    0  502  0.40831526621E+03 -0.92211317841E+02  0.21341137784E+03  0.46986029834E+03  0.25500000920E-02 0.  1.
</event>
<event>
 5   0  0.3568870E-04  0.1838880E+04  0.7818609E-02  0.8685892E-01
       -2   -1    0    0    0  501  0.00000000000E+00  0.00000000000E+00  0.33146727081E+03  0.33146727082E+03  0.25500000920E-02 0. -1.
        2   -1    0    0  501    0  0.00000000000E+00  0.00000000000E+00 -0.25503884024E+04  0.25503884024E+04  0.25500000920E-02 0.  1.
    10030    2    1    2    0    0  0.00000000000E+00  0.00000000000E+00 -0.22189211316E+04  0.28818556732E+04  0.18388804021E+04 0.  0.
        1    1    3    3  502    0  0.77758169816E+03  0.46492431384E+03 -0.13551749628E+04  0.16301187364E+04  0.50400001928E-02 0.  1.
       -1    1    3    3    0  502 -0.77758169816E+03 -0.46492431384E+03 -0.86374616875E+03  0.12517369368E+04  0.50400001928E-02 0. -1.
</event>
<event>
 5   0  0.3531266E-04  0.1829120E+04  0.7818609E-02  0.8690965E-01
       -2   -1    0    0    0  501  0.00000000000E+00  0.00000000000E+00  0.65204258583E+03  0.65204258584E+03  0.25500000920E-02 0.  1.
        2   -1    0    0  501    0  0.00000000000E+00  0.00000000000E+00 -0.12827695280E+04  0.12827695280E+04  0.25500000920E-02 0. -1.
    10030    2    1    2    0    0  0.00000000000E+00  0.00000000000E+00 -0.63072694218E+03  0.19348121139E+04  0.18291204007E+04 0.  0.
        3    1    3    3  502    0 -0.26575188304E+03 -0.40360313110E+03 -0.11366967765E+04  0.12351514574E+04  0.10100000352E+00 0. -1.
       -3    1    3    3    0  502  0.26575188304E+03  0.40360313110E+03  0.50596983432E+03  0.69966065647E+03  0.10100000352E+00 0.  1.
</event>
<event>
 5   0  0.3628581E-04  0.1801051E+04  0.7818609E-02  0.8705741E-01
        2   -1    0    0  501    0  0.00000000000E+00  0.00000000000E+00  0.11207599734E+04  0.11207599734E+04  0.25500000920E-02 0.  1.
       -2   -1    0    0    0  501  0.00000000000E+00  0.00000000000E+00 -0.72356815025E+03  0.72356815025E+03  0.25500000920E-02 0. -1.
    10030    2    1    2    0    0  0.00000000000E+00  0.00000000000E+00  0.39719182313E+03  0.18443281236E+04  0.18010510496E+04 0.  0.
        2    1    3    3  502    0  0.12303019118E+03  0.67413864991E+03 -0.39969186595E+03  0.79331767594E+03  0.25500000920E-02 0. -1.
       -2    1    3    3    0  502 -0.12303019118E+03 -0.67413864991E+03  0.79688368908E+03  0.10510104477E+04  0.25500000920E-02 0.  1.
</event>
<event>
 5   0  0.1818778E-04  0.1807164E+04  0.7818609E-02  0.8702499E-01
        1   -1    0    0  501    0  0.00000000000E+00  0.00000000000E+00  0.79856980568E+03  0.79856980570E+03  0.50400001928E-02 0.  1.
       -1   -1    0    0    0  501  0.00000000000E+00  0.00000000000E+00 -0.10224034321E+04  0.10224034321E+04  0.50400001928E-02 0. -1.
    10030    2    1    2    0    0  0.00000000000E+00  0.00000000000E+00 -0.22383362641E+03  0.18209732378E+04  0.18071640879E+04 0.  0.
        3    1    3    3  502    0  0.29067040022E+03  0.17472934274E+03  0.73200363602E+03  0.80675210451E+03  0.10100000352E+00 0.  1.
       -3    1    3    3    0  502 -0.29067040022E+03 -0.17472934274E+03 -0.95583726243E+03  0.10142211333E+04  0.10100000352E+00 0. -1.
</event>
<event>
 5   0  0.1837313E-04  0.1624751E+04  0.7818609E-02  0.8805485E-01
       -1   -1    0    0    0  501  0.00000000000E+00  0.00000000000E+00  0.13257132637E+04  0.13257132638E+04  0.50400001928E-02 0. -1.
        1   -1    0    0  501    0  0.00000000000E+00  0.00000000000E+00 -0.49781073254E+03  0.49781073257E+03  0.50400001928E-02 0.  1.
    10030    2    1    2    0    0  0.00000000000E+00  0.00000000000E+00  0.82790253121E+03  0.18235239963E+04  0.16247514161E+04 0.  0.
        1    1    3    3  502    0 -0.79505021318E+03 -0.97829339119E+02  0.56569096851E+03  0.98065370695E+03  0.50400001928E-02 0. -1.
       -1    1    3    3    0  502  0.79505021318E+03  0.97829339119E+02  0.26221156269E+03  0.84287028937E+03  0.50400001928E-02 0.  1.
</event>
<event>
 5   0  0.3628581E-04  0.1590796E+04  0.7818609E-02  0.8826223E-01
       -2   -1    0    0    0  501  0.00000000000E+00  0.00000000000E+00  0.38904453108E+03  0.38904453109E+03  0.25500000920E-02 0.  1.
        2   -1    0    0  501    0  0.00000000000E+00  0.00000000000E+00 -0.16261836196E+04  0.16261836196E+04  0.25500000920E-02 0. -1.
    10030    2    1    2    0    0  0.00000000000E+00  0.00000000000E+00 -0.12371390886E+04  0.20152281507E+04  0.15907958307E+04 0.  0.
        2    1    3    3  502    0  0.35858334684E+03  0.49752555934E+03  0.23069570138E+02  0.61371483924E+03  0.25500000920E-02 0.  1.
       -2    1    3    3    0  502 -0.35858334684E+03 -0.49752555934E+03 -0.12602086587E+04  0.14015133115E+04  0.25500000920E-02 0. -1.
</event>
<event>
 5   0  0.3575091E-04  0.1703642E+04  0.7818609E-02  0.8759290E-01
       -2   -1    0    0    0  501  0.00000000000E+00  0.00000000000E+00  0.42851815224E+03  0.42851815224E+03  0.25500000920E-02 0.  1.
        2   -1    0    0  501    0  0.00000000000E+00  0.00000000000E+00 -0.16932744337E+04  0.16932744337E+04  0.25500000920E-02 0. -1.
    10030    2    1    2    0    0  0.00000000000E+00  0.00000000000E+00 -0.12647562814E+04  0.21217925859E+04  0.17036417834E+04 0.  0.
        5    1    3    3  502    0  0.45370331654E+02  0.80298924805E+02  0.42226499267E+03  0.43224553017E+03  0.46999998093E+01 0.  1.
       -5    1    3    3    0  502 -0.45370331654E+02 -0.80298924805E+02 -0.16870212741E+04  0.16895470557E+04  0.46999998093E+01 0. -1.
</event>
<event>
 5   0  0.3575091E-04  0.1807383E+04  0.7818609E-02  0.8702383E-01
        2   -1    0    0  501    0  0.00000000000E+00  0.00000000000E+00  0.11411931890E+04  0.11411931890E+04  0.25500000920E-02 0. -1.
       -2   -1    0    0    0  501  0.00000000000E+00  0.00000000000E+00 -0.71561788032E+03  0.71561788033E+03  0.25500000920E-02 0.  1.
    10030    2    1    2    0    0  0.00000000000E+00  0.00000000000E+00  0.42557530867E+03  0.18568110693E+04  0.18073829157E+04 0.  0.
        5    1    3    3  502    0  0.54388787008E+03  0.43159784812E+03 -0.38142938769E+03  0.79221284104E+03  0.46999998093E+01 0.  1.
       -5    1    3    3    0  502 -0.54388787008E+03 -0.43159784812E+03  0.80700469636E+03  0.10645982283E+04  0.46999998093E+01 0. -1.
</event>
<event>
 5   0  0.1825253E-04  0.1796723E+04  0.7818609E-02  0.8708044E-01
       -1   -1    0    0    0  501  0.00000000000E+00  0.00000000000E+00  0.70453842819E+03  0.70453842821E+03  0.50400001928E-02 0. -1.
        1   -1    0    0  501    0  0.00000000000E+00  0.00000000000E+00 -0.11455067603E+04  0.11455067603E+04  0.50400001928E-02 0.  1.
    10030    2    1    2    0    0  0.00000000000E+00  0.00000000000E+00 -0.44096833206E+03  0.18500451885E+04  0.17967231644E+04 0.  0.
        4    1    3    3  502    0 -0.36604899689E+02  0.44834198157E+03  0.58021924940E+03  0.73417058058E+03  0.12699999809E+01 0. -1.
       -4    1    3    3    0  502  0.36604899689E+02 -0.44834198157E+03 -0.10211875815E+04  0.11158746079E+04  0.12699999809E+01 0.  1.
</event>
<event>
 5   0  0.1883959E-04  0.1810343E+04  0.7818609E-02  0.8700818E-01
        1   -1    0    0  501    0  0.00000000000E+00  0.00000000000E+00  0.13022795194E+04  0.13022795195E+04  0.50400001928E-02 0. -1.
       -1   -1    0    0    0  501  0.00000000000E+00  0.00000000000E+00 -0.62915500062E+03  0.62915500064E+03  0.50400001928E-02 0.  1.
    10030    2    1    2    0    0  0.00000000000E+00  0.00000000000E+00  0.67312451882E+03  0.19314345201E+04  0.18103432513E+04 0.  0.
        5    1    3    3  502    0 -0.13477524149E+03 -0.35710127341E+03 -0.53908480065E+03  0.66054537882E+03  0.46999998093E+01 0.  1.
       -5    1    3    3    0  502  0.13477524149E+03  0.35710127341E+03  0.12122093195E+04  0.12708891413E+04  0.46999998093E+01 0. -1.
</event>
<event>
 5   0  0.3568870E-04  0.1822014E+04  0.7818609E-02  0.8694679E-01
        2   -1    0    0  501    0  0.00000000000E+00  0.00000000000E+00  0.74229452896E+03  0.74229452896E+03  0.25500000920E-02 0.  1.
       -2   -1    0    0    0  501  0.00000000000E+00  0.00000000000E+00 -0.11180658377E+04  0.11180658377E+04  0.25500000920E-02 0. -1.
    10030    2    1    2    0    0  0.00000000000E+00  0.00000000000E+00 -0.37577130873E+03  0.18603603667E+04  0.18220144394E+04 0.  0.
        1    1    3    3  502    0 -0.22547405050E+03 -0.50037243177E+03 -0.93032226724E+03  0.10801438047E+04  0.50400001928E-02 0. -1.
       -1    1    3    3    0  502  0.22547405050E+03  0.50037243177E+03  0.55455095850E+03  0.78021656194E+03  0.50400001928E-02 0.  1.
</event>
<event>
 5   0  0.3582186E-04  0.1803333E+04  0.7818609E-02  0.8704529E-01
       -2   -1    0    0    0  501  0.00000000000E+00  0.00000000000E+00  0.10030785997E+04  0.10030785997E+04  0.25500000920E-02 0. -1.
        2   -1    0    0  501    0  0.00000000000E+00  0.00000000000E+00 -0.81050759832E+03  0.81050759832E+03  0.25500000920E-02 0.  1.
    10030    2    1    2    0    0  0.00000000000E+00  0.00000000000E+00  0.19257100141E+03  0.18135861981E+04  0.18033333877E+04 0.  0.
        4    1    3    3  502    0  0.15166283252E+03 -0.22898573995E+03 -0.76741339973E+03  0.81508344533E+03  0.12699999809E+01 0.  1.
       -4    1    3    3    0  502 -0.15166283252E+03  0.22898573995E+03  0.95998440114E+03  0.99850275272E+03  0.12699999809E+01 0. -1.
</event>
<event>
 5   0  0.3628581E-04  0.1774218E+04  0.7818609E-02  0.8720131E-01
        2   -1    0    0  501    0  0.00000000000E+00  0.00000000000E+00  0.22606657384E+04  0.22606657384E+04  0.25500000920E-02 0. -1.
       -2   -1    0    0    0  501  0.00000000000E+00  0.00000000000E+00 -0.34811092835E+03  0.34811092836E+03  0.25500000920E-02 0.  1.
    10030    2    1    2    0    0  0.00000000000E+00  0.00000000000E+00  0.19125548101E+04  0.26087766668E+04  0.17742180801E+04 0.  0.
        2    1    3    3  502    0 -0.91985083498E+02 -0.86843783830E+03  0.72698792301E+03  0.11362908848E+04  0.25500000920E-02 0. -1.
       -2    1    3    3    0  502  0.91985083498E+02  0.86843783830E+03  0.11855668871E+04  0.14724857820E+04  0.25500000920E-02 0.  1.
</event>
<event>
 5   0  0.3628581E-04  0.1981481E+04  0.7818609E-02  0.8615328E-01
       -2   -1    0    0    0  501  0.00000000000E+00  0.00000000000E+00  0.81026699428E+03  0.81026699429E+03  0.25500000920E-02 0. -1.
        2   -1    0    0  501    0  0.00000000000E+00  0.00000000000E+00 -0.12114113495E+04  0.12114113495E+04  0.25500000920E-02 0.  1.
    10030    2    1    2    0    0  0.00000000000E+00  0.00000000000E+00 -0.40114435525E+03  0.20216783438E+04  0.19814808937E+04 0.  0.
        2    1    3    3  502    0 -0.41926007057E+03 -0.43707410364E+03 -0.10005405187E+04  0.11695700528E+04  0.25500000920E-02 0.  1.
       -2    1    3    3    0  502  0.41926007057E+03  0.43707410364E+03  0.59939616346E+03  0.85210829102E+03  0.25500000920E-02 0. -1.
</event>
<event>
 5   0  0.1330125E-04  0.1790751E+04  0.7818609E-02  0.8711234E-01
       -4   -1    0    0    0  501  0.00000000000E+00  0.00000000000E+00  0.85053894217E+03  0.85053989033E+03  0.12699999809E+01 0. -1.
        4   -1    0    0  501    0  0.00000000000E+00  0.00000000000E+00 -0.94257332167E+03  0.94257417725E+03  0.12699999809E+01 0.  1.
    10030    2    1    2    0    0  0.00000000000E+00  0.00000000000E+00 -0.92034379499E+02  0.17931140676E+04  0.17907506058E+04 0.  0.
        4    1    3    3  502    0  0.69432586409E+03 -0.54370334950E+03  0.10908586764E+03  0.88859612717E+03  0.12699999809E+01 0. -1.
       -4    1    3    3    0  502 -0.69432586409E+03  0.54370334950E+03 -0.20112024714E+03  0.90451794041E+03  0.12699999809E+01 0.  1.
</event>
<event>
 5   0  0.1837313E-04  0.1812676E+04  0.7818609E-02  0.8699587E-01
        1   -1    0    0  501    0  0.00000000000E+00  0.00000000000E+00  0.20058520450E+04  0.20058520450E+04  0.50400001928E-02 0. -1.
       -1   -1    0    0    0  501  0.00000000000E+00  0.00000000000E+00 -0.40952616441E+03  0.40952616444E+03  0.50400001928E-02 0.  1.
    10030    2    1    2    0    0  0.00000000000E+00  0.00000000000E+00  0.15963258805E+04  0.24153782094E+04  0.18126763576E+04 0.  0.
        1    1    3    3  502    0 -0.50934824815E+03  0.31224858532E+03  0.17063270058E+04  0.18078956463E+04  0.50400001928E-02 0. -1.
       -1    1    3    3    0  502  0.50934824815E+03 -0.31224858532E+03 -0.11000112529E+03  0.60748256314E+03  0.50400001928E-02 0.  1.
</event>
<event>
 5   0  0.3575091E-04  0.1819831E+04  0.7818609E-02  0.8695824E-01
        2   -1    0    0  501    0  0.00000000000E+00  0.00000000000E+00  0.76534973782E+03  0.76534973782E+03  0.25500000920E-02 0. -1.
       -2   -1    0    0    0  501  0.00000000000E+00  0.00000000000E+00 -0.10817885166E+04  0.10817885166E+04  0.25500000920E-02 0.  1.
    10030    2    1    2    0    0  0.00000000000E+00  0.00000000000E+00 -0.31643877879E+03  0.18471382544E+04  0.18198313741E+04 0.  0.
        5    1    3    3  502    0  0.35243733035E+02 -0.85518688335E+03  0.15518183163E+03  0.86987942672E+03  0.46999998093E+01 0.  1.
       -5    1    3    3    0  502 -0.35243733035E+02  0.85518688335E+03 -0.47162061042E+03  0.97725882771E+03  0.46999998093E+01 0. -1.
</event>
<event>
 5   0  0.3568870E-04  0.1796722E+04  0.7818609E-02  0.8708044E-01
       -2   -1    0    0    0  501  0.00000000000E+00  0.00000000000E+00  0.47644345270E+03  0.47644345271E+03  0.25500000920E-02 0. -1.
        2   -1    0    0  501    0  0.00000000000E+00  0.00000000000E+00 -0.16939109079E+04  0.16939109079E+04  0.25500000920E-02 0.  1.
    10030    2    1    2    0    0  0.00000000000E+00  0.00000000000E+00 -0.12174674552E+04  0.21703543607E+04  0.17967223064E+04 0.  0.
        1    1    3    3  502    0  0.61272394757E+01  0.51470438959E+03  0.28064601469E+03  0.58627667300E+03  0.50400001928E-02 0. -1.
       -1    1    3    3    0  502 -0.61272394757E+01 -0.51470438959E+03 -0.14981134699E+04  0.15840776876E+04  0.50400001928E-02 0.  1.
</event>
<event>
 5   0  0.1825253E-04  0.2024122E+04  0.7818609E-02  0.8595425E-01
       -1   -1    0    0    0  501  0.00000000000E+00  0.00000000000E+00  0.23920680002E+04  0.23920680002E+04  0.50400001928E-02 0.  1.
        1   -1    0    0  501    0  0.00000000000E+00  0.00000000000E+00 -0.42819310270E+03  0.42819310273E+03  0.50400001928E-02 0. -1.
    10030    2    1    2    0    0  0.00000000000E+00  0.00000000000E+00  0.19638748975E+04  0.28202611029E+04  0.20241215566E+04 0.  0.
        4    1    3    3  502    0  0.68020847457E+02 -0.92648434161E+03  0.42240762597E+03  0.10205047214E+04  0.12699999809E+01 0. -1.
       -4    1    3    3    0  502 -0.68020847457E+02  0.92648434161E+03  0.15414672715E+04  0.17997563816E+04  0.12699999809E+01 0.  1.
</event>
<event>
 5   0  0.1818778E-04  0.1798711E+04  0.7818609E-02  0.8706985E-01
       -1   -1    0    0    0  501  0.00000000000E+00  0.00000000000E+00  0.81346435717E+03  0.81346435719E+03  0.50400001928E-02 0.  1.
        1   -1    0    0  501    0  0.00000000000E+00  0.00000000000E+00 -0.99431510362E+03  0.99431510364E+03  0.50400001928E-02 0. -1.
    10030    2    1    2    0    0  0.00000000000E+00  0.00000000000E+00 -0.18085074645E+03  0.18077794608E+04  0.17987105344E+04 0.  0.
        3    1    3    3  502    0  0.43862998299E+03  0.75450411122E+03 -0.30870041613E+03  0.92572602477E+03  0.10100000352E+00 0. -1.
       -3    1    3    3    0  502 -0.43862998299E+03 -0.75450411122E+03  0.12784966968E+03  0.88205343606E+03  0.10100000352E+00 0.  1.
</event>
<event>
 5   0  0.3575091E-04  0.1771521E+04  0.7818609E-02  0.8721592E-01
        2   -1    0    0  501    0  0.00000000000E+00  0.00000000000E+00  0.91821888400E+03  0.91821888401E+03  0.25500000920E-02 0.  1.
       -2   -1    0    0    0  501  0.00000000000E+00  0.00000000000E+00 -0.85444972427E+03  0.85444972427E+03  0.25500000920E-02 0. -1.
    10030    2    1    2    0    0  0.00000000000E+00  0.00000000000E+00  0.63769159735E+02  0.17726686083E+04  0.17715212358E+04 0.  0.
        5    1    3    3  502    0 -0.47677628562E+03  0.73870487903E+03 -0.75652495794E+02  0.88246581517E+03  0.46999998093E+01 0. -1.
       -5    1    3    3    0  502  0.47677628562E+03 -0.73870487903E+03  0.13942165553E+03  0.89020279311E+03  0.46999998093E+01 0.  1.
</event>
<event>
 5   0  0.3575091E-04  0.1784409E+04  0.7818609E-02  0.8714635E-01
        2   -1    0    0  501    0  0.00000000000E+00  0.00000000000E+00  0.13370937003E+04  0.13370937003E+04  0.25500000920E-02 0. -1.
       -2   -1    0    0    0  501  0.00000000000E+00  0.00000000000E+00 -0.59534272198E+03  0.59534272198E+03  0.25500000920E-02 0.  1.
    10030    2    1    2    0    0  0.00000000000E+00  0.00000000000E+00  0.74175097827E+03  0.19324364222E+04  0.17844091493E+04 0.  0.
        5    1    3    3  502    0  0.18883474915E+03 -0.51816449798E+03 -0.38862635778E+03  0.67468922136E+03  0.46999998093E+01 0.  1.
       -5    1    3    3    0  502 -0.18883474915E+03  0.51816449798E+03  0.11303773361E+04  0.12577472009E+04  0.46999998093E+01 0. -1.
</event>
<event>
 5   0  0.3628581E-04  0.1795470E+04  0.7818609E-02  0.8708712E-01
       -2   -1    0    0    0  501  0.00000000000E+00  0.00000000000E+00  0.69671853770E+03  0.69671853771E+03  0.25500000920E-02 0.  1.
        2   -1    0    0  501    0  0.00000000000E+00  0.00000000000E+00 -0.11567485236E+04  0.11567485236E+04  0.25500000920E-02 0. -1.
    10030    2    1    2    0    0  0.00000000000E+00  0.00000000000E+00 -0.46002998591E+03  0.18534670613E+04  0.17954700107E+04 0.  0.
        2    1    3    3  502    0 -0.85751386389E+03 -0.24762044389E+03 -0.13055856601E+03  0.90204847440E+03  0.25500000920E-02 0.  1.
       -2    1    3    3    0  502  0.85751386389E+03  0.24762044389E+03 -0.32947141990E+03  0.95141858692E+03  0.25500000920E-02 0. -1.
</event>
<event>
 5   0  0.3582186E-04  0.1390834E+04  0.7818609E-02  0.8960480E-01
        2   -1    0    0  501    0  0.00000000000E+00  0.00000000000E+00  0.38361870416E+03  0.38361870417E+03  0.25500000920E-02 0. -1.
       -2   -1    0    0    0  501  0.00000000000E+00  0.00000000000E+00 -0.12606398764E+04  0.12606398764E+04  0.25500000920E-02 0.  1.
    10030    2    1    2    0    0  0.00000000000E+00  0.00000000000E+00 -0.87702117225E+03  0.16442585806E+04  0.13908343335E+04 0.  0.
        4    1    3    3  502    0 -0.33335727094E+03 -0.40366101296E+03  0.10264495576E+03  0.53348559804E+03  0.12699999809E+01 0. -1.
       -4    1    3    3    0  502  0.33335727094E+03  0.40366101296E+03 -0.97966612801E+03  0.11107729825E+04  0.12699999809E+01 0.  1.
</event>
<event>
 5   0  0.1837313E-04  0.1802450E+04  0.7818609E-02  0.8704998E-01
       -1   -1    0    0    0  501  0.00000000000E+00  0.00000000000E+00  0.13321291307E+04  0.13321291307E+04  0.50400001928E-02 0.  1.
        1   -1    0    0  501    0  0.00000000000E+00  0.00000000000E+00 -0.60970575724E+03  0.60970575726E+03  0.50400001928E-02 0. -1.
    10030    2    1    2    0    0  0.00000000000E+00  0.00000000000E+00  0.72242337349E+03  0.19418348880E+04  0.18024503326E+04 0.  0.
        1    1    3    3  502    0  0.40120432102E+03  0.77544036655E+03  0.12047197189E+03  0.88135473297E+03  0.50400001928E-02 0.  1.
       -1    1    3    3    0  502 -0.40120432102E+03 -0.77544036655E+03  0.60195140160E+03  0.10604801550E+04  0.50400001928E-02 0. -1.
</event>
<event>
 5   0  0.1837313E-04  0.1803895E+04  0.7818609E-02  0.8704231E-01
       -1   -1    0    0    0  501  0.00000000000E+00  0.00000000000E+00  0.11743158840E+04  0.11743158840E+04  0.50400001928E-02 0.  1.
        1   -1    0    0  501    0  0.00000000000E+00  0.00000000000E+00 -0.69275185356E+03  0.69275185358E+03  0.50400001928E-02 0. -1.
    10030    2    1    2    0    0  0.00000000000E+00  0.00000000000E+00  0.48156403040E+03  0.18670677375E+04  0.18038952356E+04 0.  0.
        1    1    3    3  502    0  0.35733022101E+03  0.30330393817E+03 -0.55680912277E+03  0.72781492495E+03  0.50400001928E-02 0. -1.
       -1    1    3    3    0  502 -0.35733022101E+03 -0.30330393817E+03  0.10383731532E+04  0.11392528126E+04  0.50400001928E-02 0.  1.
</event>
<event>
 5   0  0.1818778E-04  0.1807265E+04  0.7818609E-02  0.8702446E-01
       -1   -1    0    0    0  501  0.00000000000E+00  0.00000000000E+00  0.78435116247E+03  0.78435116248E+03  0.50400001928E-02 0. -1.
        1   -1    0    0  501    0  0.00000000000E+00  0.00000000000E+00 -0.10410533280E+04  0.10410533281E+04  0.50400001928E-02 0.  1.
    10030    2    1    2    0    0  0.00000000000E+00  0.00000000000E+00 -0.25670216558E+03  0.18254044905E+04  0.18072646603E+04 0.  0.
        3    1    3    3  502    0  0.37682054838E+03  0.56537765402E+03  0.47336813525E+03  0.82808394443E+03  0.10100000352E+00 0. -1.
       -3    1    3    3    0  502 -0.37682054838E+03 -0.56537765402E+03 -0.73007030084E+03  0.99732054612E+03  0.10100000352E+00 0.  1.
</event>
<event>
 5   0  0.3568870E-04  0.1817558E+04  0.7818609E-02  0.8697018E-01
        2   -1    0    0  501    0  0.00000000000E+00  0.00000000000E+00  0.10932598433E+04  0.10932598433E+04  0.25500000920E-02 0. -1.
       -2   -1    0    0    0  501  0.00000000000E+00  0.00000000000E+00 -0.75542811251E+03  0.75542811252E+03  0.25500000920E-02 0.  1.
    10030    2    1    2    0    0  0.00000000000E+00  0.00000000000E+00  0.33783173077E+03  0.18486879558E+04  0.18175579440E+04 0.  0.
        1    1    3    3  502    0 -0.32498448404E+03  0.73396414663E+03 -0.26448178624E+03  0.84514430643E+03  0.50400001928E-02 0.  1.
       -1    1    3    3    0  502  0.32498448404E+03 -0.73396414663E+03  0.60231351701E+03  0.10035436494E+04  0.50400001928E-02 0. -1.
</event>
<event>
 5   0  0.1330125E-04  0.1742682E+04  0.7818609E-02  0.8737389E-01
        3   -1    0    0  501    0  0.00000000000E+00  0.00000000000E+00  0.20211455191E+04  0.20211455217E+04  0.10100000352E+00 0. -1.
       -3   -1    0    0    0  501  0.00000000000E+00  0.00000000000E+00 -0.37564596284E+03  0.37564597642E+03  0.10100000352E+00 0.  1.
    10030    2    1    2    0    0  0.00000000000E+00  0.00000000000E+00  0.16454995563E+04  0.23967914981E+04  0.17426820408E+04 0.  0.
        1    1    3    3  502    0 -0.43535845690E+03 -0.97116294059E+02 -0.20671020975E+03  0.49162757389E+03  0.50400001928E-02 0.  1.
       -1    1    3    3    0  502  0.43535845690E+03  0.97116294059E+02  0.18522097660E+04  0.19051639242E+04  0.50400001928E-02 0. -1.
</event>
<event>
 5   0  0.3582186E-04  0.1786926E+04  0.7818609E-02  0.8713283E-01
       -2   -1    0    0    0  501  0.00000000000E+00  0.00000000000E+00  0.44592913918E+03  0.44592913918E+03  0.25500000920E-02 0.  1.
        2   -1    0    0  501    0  0.00000000000E+00  0.00000000000E+00 -0.17901420397E+04  0.17901420397E+04  0.25500000920E-02 0. -1.
    10030    2    1    2    0    0  0.00000000000E+00  0.00000000000E+00 -0.13442129005E+04  0.22360711789E+04  0.17869264101E+04 0.  0.
        4    1    3    3  502    0  0.45714658255E+03  0.41705216659E+03 -0.14785815571E+04  0.16028476351E+04  0.12699999809E+01 0. -1.
       -4    1    3    3    0  502 -0.45714658255E+03 -0.41705216659E+03  0.13436865657E+03  0.63322354375E+03  0.12699999809E+01 0.  1.
</event>
<event>
 5   0  0.1825253E-04  0.1961238E+04  0.7818609E-02  0.8624961E-01
       -1   -1    0    0    0  501  0.00000000000E+00  0.00000000000E+00  0.34708919894E+03  0.34708919898E+03  0.50400001928E-02 0.  1.
        1   -1    0    0  501    0  0.00000000000E+00  0.00000000000E+00 -0.27705079557E+04  0.27705079557E+04  0.50400001928E-02 0. -1.
    10030    2    1    2    0    0  0.00000000000E+00  0.00000000000E+00 -0.24234187567E+04  0.31175971546E+04  0.19612377592E+04 0.  0.
        4    1    3    3  502    0  0.68333009769E+03  0.70084698553E+03 -0.13055534851E+04  0.16317469273E+04  0.12699999809E+01 0.  1.
       -4    1    3    3    0  502 -0.68333009769E+03 -0.70084698553E+03 -0.11178652716E+04  0.14858502273E+04  0.12699999809E+01 0. -1.
</event>
<event>
 5   0  0.1883959E-04  0.1815105E+04  0.7818609E-02  0.8698308E-01
        1   -1    0    0  501    0  0.00000000000E+00  0.00000000000E+00  0.30986525769E+03  0.30986525773E+03  0.50400001928E-02 0. -1.
       -1   -1    0    0    0  501  0.00000000000E+00  0.00000000000E+00 -0.26580948982E+04  0.26580948982E+04  0.50400001928E-02 0.  1.
    10030    2    1    2    0    0  0.00000000000E+00  0.00000000000E+00 -0.23482296405E+04  0.29679601559E+04  0.18151046919E+04 0.  0.
        5    1    3    3  502    0 -0.42255306207E+03 -0.17005445955E+03  0.10940619239E+03  0.46846709000E+03  0.46999998093E+01 0. -1.
       -5    1    3    3    0  502  0.42255306207E+03  0.17005445955E+03 -0.24576358329E+04  0.24994930659E+04  0.46999998093E+01 0.  1.
</event>
<event>
 5   0  0.3568870E-04  0.1803094E+04  0.7818609E-02  0.8704656E-01
       -2   -1    0    0    0  501  0.00000000000E+00  0.00000000000E+00  0.95714955017E+03  0.95714955017E+03  0.25500000920E-02 0. -1.
        2   -1    0    0  501    0  0.00000000000E+00  0.00000000000E+00 -0.84917434697E+03  0.84917434698E+03  0.25500000920E-02 0.  1.
    10030    2    1    2    0    0  0.00000000000E+00  0.00000000000E+00  0.10797520319E+03  0.18063238971E+04  0.18030938347E+04 0.  0.
        1    1    3    3  502    0 -0.60514105007E+02  0.10912221557E+03 -0.84048210594E+03  0.84969393623E+03  0.50400001928E-02 0.  1.
       -1    1    3    3    0  502  0.60514105007E+02 -0.10912221557E+03  0.94845730914E+03  0.95662996091E+03  0.50400001928E-02 0. -1.
</event>
<event>
 5   0  0.1818778E-04  0.1792767E+04  0.7818609E-02  0.8710155E-01
       -1   -1    0    0    0  501  0.00000000000E+00  0.00000000000E+00  0.45390417592E+03  0.45390417595E+03  0.50400001928E-02 0. -1.
        1   -1    0    0  501    0  0.00000000000E+00  0.00000000000E+00 -0.17702051147E+04  0.17702051147E+04  0.50400001928E-02 0.  1.
    10030    2    1    2    0    0  0.00000000000E+00  0.00000000000E+00 -0.13163009388E+04  0.22241092907E+04  0.17927671280E+04 0.  0.
        3    1    3    3  502    0 -0.22323962074E+03  0.53879324932E+03  0.18634225886E+03  0.61225610770E+03  0.10100000352E+00 0. -1.
       -3    1    3    3    0  502  0.22323962074E+03 -0.53879324932E+03 -0.15026431977E+04  0.16118531830E+04  0.10100000352E+00 0.  1.
</event>
<event>
 5   0  0.3628581E-04  0.1912034E+04  0.7818609E-02  0.8648889E-01
       -2   -1    0    0    0  501  0.00000000000E+00  0.00000000000E+00  0.62789547617E+03  0.62789547618E+03  0.25500000920E-02 0.  1.
        2   -1    0    0  501    0  0.00000000000E+00  0.00000000000E+00 -0.14556060358E+04  0.14556060358E+04  0.25500000920E-02 0. -1.
    10030    2    1    2    0    0  0.00000000000E+00  0.00000000000E+00 -0.82771055962E+03  0.20835015120E+04  0.19120339380E+04 0.  0.
        2    1    3    3  502    0 -0.84404936079E+03  0.32756078362E+03 -0.79316906960E+02  0.90884903155E+03  0.25500000920E-02 0.  1.
       -2    1    3    3    0  502  0.84404936079E+03 -0.32756078362E+03 -0.74839365266E+03  0.11746524804E+04  0.25500000920E-02 0. -1.
</event>
<event>
 5   0  0.3628581E-04  0.1838823E+04  0.7818609E-02  0.8685922E-01
       -2   -1    0    0    0  501  0.00000000000E+00  0.00000000000E+00  0.11388012818E+04  0.11388012818E+04  0.25500000920E-02 0.  1.
        2   -1    0    0  501    0  0.00000000000E+00  0.00000000000E+00 -0.74228691593E+03  0.74228691593E+03  0.25500000920E-02 0. -1.
    10030    2    1    2    0    0  0.00000000000E+00  0.00000000000E+00  0.39651436584E+03  0.18810881977E+04  0.18388227661E+04 0.  0.
        2    1    3    3  502    0 -0.58811841177E+03 -0.64337458193E+03 -0.10087311308E+03  0.87749045800E+03  0.25500000920E-02 0. -1.
       -2    1    3    3    0  502  0.58811841177E+03  0.64337458193E+03  0.49738747892E+03  0.10035977397E+04  0.25500000920E-02 0.  1.
</event>
<event>
 5   0  0.3582186E-04  0.1815915E+04  0.7818609E-02  0.8697881E-01
        2   -1    0    0  501    0  0.00000000000E+00  0.00000000000E+00  0.55156069140E+03  0.55156069141E+03  0.25500000920E-02 0.  1.
       -2   -1    0    0    0  501  0.00000000000E+00  0.00000000000E+00 -0.14946446147E+04  0.14946446147E+04  0.25500000920E-02 0. -1.
    10030    2    1    2    0    0  0.00000000000E+00  0.00000000000E+00 -0.94308392326E+03  0.20462053061E+04  0.18159154353E+04 0.  0.
        4    1    3    3  502    0 -0.33784862773E+03  0.36427153141E+03  0.38480239633E+03  0.62841860331E+03  0.12699999809E+01 0.  1.
       -4    1    3    3    0  502  0.33784862773E+03 -0.36427153141E+03 -0.13278863196E+04  0.14177867028E+04  0.12699999809E+01 0. -1.
</event>
<event>
 5   0  0.3531266E-04  0.1797586E+04  0.7818609E-02  0.8707584E-01
       -2   -1    0    0    0  501  0.00000000000E+00  0.00000000000E+00  0.71766005341E+03  0.71766005341E+03  0.25500000920E-02 0. -1.
        2   -1    0    0  501    0  0.00000000000E+00  0.00000000000E+00 -0.11256425400E+04  0.11256425400E+04  0.25500000920E-02 0.  1.
    10030    2    1    2    0    0  0.00000000000E+00  0.00000000000E+00 -0.40798248656E+03  0.18433025934E+04  0.17975858092E+04 0.  0.
        3    1    3    3  502    0 -0.74956400386E+03 -0.35157008487E+03  0.15473563777E+03  0.84225343469E+03  0.10100000352E+00 0. -1.
       -3    1    3    3    0  502  0.74956400386E+03  0.35157008487E+03 -0.56271812433E+03  0.10010491587E+04  0.10100000352E+00 0.  1.
</event>
<event>
 5   0  0.3568870E-04  0.1842308E+04  0.7818609E-02  0.8684119E-01
       -2   -1    0    0    0  501  0.00000000000E+00  0.00000000000E+00  0.56256552508E+03  0.56256552509E+03  0.25500000920E-02 0.  1.
        2   -1    0    0  501    0  0.00000000000E+00  0.00000000000E+00 -0.15083128725E+04  0.15083128725E+04  0.25500000920E-02 0. -1.
    10030    2    1    2    0    0  0.00000000000E+00  0.00000000000E+00 -0.94574734739E+03  0.20708783976E+04  0.18423081426E+04 0.  0.
        1    1    3    3  502    0  0.72725796515E+03 -0.20025198583E+03 -0.10671639550E+04  0.13068450224E+04  0.50400001928E-02 0. -1.
       -1    1    3    3    0  502 -0.72725796515E+03  0.20025198583E+03  0.12141660763E+03  0.76403337514E+03  0.50400001928E-02 0.  1.
</event>
<event>
 5   0  0.3575091E-04  0.1839518E+04  0.7818609E-02  0.8685562E-01
       -2   -1    0    0    0  501  0.00000000000E+00  0.00000000000E+00  0.41741253041E+03  0.41741253041E+03  0.25500000920E-02 0. -1.
        2   -1    0    0  501    0  0.00000000000E+00  0.00000000000E+00 -0.20266673631E+04  0.20266673631E+04  0.25500000920E-02 0.  1.
    10030    2    1    2    0    0  0.00000000000E+00  0.00000000000E+00 -0.16092548327E+04  0.24440798935E+04  0.18395177111E+04 0.  0.
        5    1    3    3  502    0 -0.23035477327E+03  0.72283996740E+03 -0.14954926582E+04  0.16769261525E+04  0.46999998093E+01 0. -1.
       -5    1    3    3    0  502  0.23035477327E+03 -0.72283996740E+03 -0.11376217445E+03  0.76715374102E+03  0.46999998093E+01 0.  1.
</event>
<event>
 5   0  0.1825253E-04  0.1836683E+04  0.7818609E-02  0.8687031E-01
       -1   -1    0    0    0  501  0.00000000000E+00  0.00000000000E+00  0.81498176420E+03  0.81498176422E+03  0.50400001928E-02 0. -1.
        1   -1    0    0  501    0  0.00000000000E+00  0.00000000000E+00 -0.10348101792E+04  0.10348101792E+04  0.50400001928E-02 0.  1.
    10030    2    1    2    0    0  0.00000000000E+00  0.00000000000E+00 -0.21982841495E+03  0.18497919434E+04  0.18366833428E+04 0.  0.
        4    1    3    3  502    0 -0.57008460295E+03 -0.60538016310E+03  0.28256986947E+03  0.87825334638E+03  0.12699999809E+01 0. -1.
       -4    1    3    3    0  502  0.57008460295E+03  0.60538016310E+03 -0.50239828442E+03  0.97153859701E+03  0.12699999809E+01 0.  1.
</event>
<event>
 5   0  0.1883959E-04  0.1845607E+04  0.7818609E-02  0.8682415E-01
       -1   -1    0    0    0  501  0.00000000000E+00  0.00000000000E+00  0.10559586806E+04  0.10559586806E+04  0.50400001928E-02 0. -1.
        1   -1    0    0  501    0  0.00000000000E+00  0.00000000000E+00 -0.80643863016E+03  0.80643863018E+03  0.50400001928E-02 0.  1.
    10030    2    1    2    0    0  0.00000000000E+00  0.00000000000E+00  0.24952005043E+03  0.18623973108E+04  0.18456065365E+04 0.  0.
        5    1    3    3  502    0 -0.57213826718E+03  0.10613716031E+03 -0.59795155456E+03  0.83437128736E+03  0.46999998093E+01 0.  1.
       -5    1    3    3    0  502  0.57213826718E+03 -0.10613716031E+03  0.84747160500E+03  0.10280260234E+04  0.46999998093E+01 0. -1.
</event>
<event>
 5   0  0.3582186E-04  0.1784872E+04  0.7818609E-02  0.8714386E-01
       -2   -1    0    0    0  501  0.00000000000E+00  0.00000000000E+00  0.61478523784E+03  0.61478523785E+03  0.25500000920E-02 0. -1.
        2   -1    0    0  501    0  0.00000000000E+00  0.00000000000E+00 -0.12954799490E+04  0.12954799490E+04  0.25500000920E-02 0.  1.
    10030    2    1    2    0    0  0.00000000000E+00  0.00000000000E+00 -0.68069471119E+03  0.19102651869E+04  0.17848719266E+04 0.  0.
        4    1    3    3  502    0  0.29678490936E+03 -0.51776877963E+01  0.56040438169E+03  0.63416305064E+03  0.12699999809E+01 0. -1.
       -4    1    3    3    0  502 -0.29678490936E+03  0.51776877963E+01 -0.12410990929E+04  0.12761021362E+04  0.12699999809E+01 0.  1.
</event>
<event>
 5   0  0.3628581E-04  0.1795365E+04  0.7818609E-02  0.8708768E-01
       -2   -1    0    0    0  501  0.00000000000E+00  0.00000000000E+00  0.66702829153E+03  0.66702829153E+03  0.25500000920E-02 0.  1.
        2   -1    0    0  501    0  0.00000000000E+00  0.00000000000E+00 -0.12080955047E+04  0.12080955047E+04  0.25500000920E-02 0. -1.
    10030    2    1    2    0    0  0.00000000000E+00  0.00000000000E+00 -0.54106721318E+03  0.18751237962E+04  0.17953650108E+04 0.  0.
        2    1    3    3  502    0  0.57663928531E+03 -0.54951047838E+03 -0.70287912704E+03  0.10623152538E+04  0.25500000920E-02 0. -1.
       -2    1    3    3    0  502 -0.57663928531E+03  0.54951047838E+03  0.16181191385E+03  0.81280854245E+03  0.25500000920E-02 0.  1.
</event>
<event>
 5   0  0.1883959E-04  0.1838381E+04  0.7818609E-02  0.8686151E-01
        1   -1    0    0  501    0  0.00000000000E+00  0.00000000000E+00  0.73148891714E+03  0.73148891716E+03  0.50400001928E-02 0.  1.
       -1   -1    0    0    0  501  0.00000000000E+00  0.00000000000E+00 -0.11550570903E+04  0.11550570903E+04  0.50400001928E-02 0. -1.
    10030    2    1    2    0    0  0.00000000000E+00  0.00000000000E+00 -0.42356817312E+03  0.18865460074E+04  0.18383813100E+04 0.  0.
        5    1    3    3  502    0  0.57579916883E+03 -0.61465668892E+03 -0.58958977859E+03  0.10280981106E+04  0.46999998093E+01 0. -1.
       -5    1    3    3    0  502 -0.57579916883E+03  0.61465668892E+03  0.16602160547E+03  0.85844789681E+03  0.46999998093E+01 0.  1.
</event>
<event>
 5   0  0.1835421E-04  0.2233130E+04  0.7818609E-02  0.8504764E-01
        1   -1    0    0  501    0  0.00000000000E+00  0.00000000000E+00  0.29651548763E+04  0.29651548763E+04  0.50400001928E-02 0.  1.
       -1   -1    0    0    0  501  0.00000000000E+00  0.00000000000E+00 -0.42045592880E+03  0.42045592883E+03  0.50400001928E-02 0. -1.
    10030    2    1    2    0    0  0.00000000000E+00  0.00000000000E+00  0.25446989475E+04  0.33856108052E+04  0.22331295955E+04 0.  0.
        2    1    3    3  502    0 -0.68624788516E+03 -0.58670590355E+03  0.22683101070E+04  0.24413911441E+04  0.25500000920E-02 0.  1.
       -2    1    3    3    0  502  0.68624788516E+03  0.58670590355E+03  0.27638884058E+03  0.94421966107E+03  0.25500000920E-02 0. -1.
</event>
<event>
 5   0  0.3575091E-04  0.1805982E+04  0.7818609E-02  0.8703125E-01
       -2   -1    0    0    0  501  0.00000000000E+00  0.00000000000E+00  0.36222845402E+03  0.36222845403E+03  0.25500000920E-02 0. -1.
        2   -1    0    0  501    0  0.00000000000E+00  0.00000000000E+00 -0.22510446558E+04  0.22510446558E+04  0.25500000920E-02 0.  1.
    10030    2    1    2    0    0  0.00000000000E+00  0.00000000000E+00 -0.18888162017E+04  0.26132731098E+04  0.18059816451E+04 0.  0.
        5    1    3    3  502    0 -0.71933231909E+03 -0.35295566434E+03 -0.34193458316E+03  0.87118197607E+03  0.46999998093E+01 0. -1.
       -5    1    3    3    0  502  0.71933231909E+03  0.35295566434E+03 -0.15468816186E+04  0.17420911337E+04  0.46999998093E+01 0.  1.
</event>
<event>
 5   0  0.1835421E-04  0.1358712E+04  0.7818609E-02  0.8984260E-01
       -1   -1    0    0    0  501  0.00000000000E+00  0.00000000000E+00  0.22741231126E+03  0.22741231131E+03  0.50400001928E-02 0. -1.
        1   -1    0    0  501    0  0.00000000000E+00  0.00000000000E+00 -0.20294606118E+04  0.20294606118E+04  0.50400001928E-02 0.  1.
    10030    2    1    2    0    0  0.00000000000E+00  0.00000000000E+00 -0.18020483006E+04  0.22568729231E+04  0.13587116374E+04 0.  0.
        2    1    3    3  502    0  0.51893421476E+02  0.38661800499E+02  0.22228118557E+03  0.23150936801E+03  0.25500000920E-02 0. -1.
       -2    1    3    3    0  502 -0.51893421476E+02 -0.38661800499E+02 -0.20243294861E+04  0.20253635551E+04  0.25500000920E-02 0.  1.
</event>
<event>
 5   0  0.1818778E-04  0.1777204E+04  0.7818609E-02  0.8718517E-01
       -1   -1    0    0    0  501  0.00000000000E+00  0.00000000000E+00  0.84351247871E+03  0.84351247872E+03  0.50400001928E-02 0.  1.
        1   -1    0    0  501    0  0.00000000000E+00  0.00000000000E+00 -0.93610141980E+03  0.93610141981E+03  0.50400001928E-02 0. -1.
    10030    2    1    2    0    0  0.00000000000E+00  0.00000000000E+00 -0.92588941090E+02  0.17796138985E+04  0.17772036788E+04 0.  0.
        3    1    3    3  502    0  0.87726534538E+03  0.12071844886E+03 -0.12019013814E+03  0.89365155939E+03  0.10100000352E+00 0.  1.
       -3    1    3    3    0  502 -0.87726534538E+03 -0.12071844886E+03  0.27601197047E+02  0.88596233914E+03  0.10100000352E+00 0. -1.
</event>
<event>
 5   0  0.1837313E-04  0.1796224E+04  0.7818609E-02  0.8708310E-01
        1   -1    0    0  501    0  0.00000000000E+00  0.00000000000E+00  0.12562729975E+04  0.12562729975E+04  0.50400001928E-02 0. -1.
       -1   -1    0    0    0  501  0.00000000000E+00  0.00000000000E+00 -0.64206225743E+03  0.64206225745E+03  0.50400001928E-02 0.  1.
    10030    2    1    2    0    0  0.00000000000E+00  0.00000000000E+00  0.61421074006E+03  0.18983352550E+04  0.17962243476E+04 0.  0.
        1    1    3    3  502    0  0.20716839179E+03 -0.16678274087E+03 -0.59948887443E+03  0.65583697349E+03  0.50400001928E-02 0.  1.
       -1    1    3    3    0  502 -0.20716839179E+03  0.16678274087E+03  0.12136996145E+04  0.12424982815E+04  0.50400001928E-02 0. -1.
</event>
<event>
 5   0  0.3568870E-04  0.1815388E+04  0.7818609E-02  0.8698159E-01
        2   -1    0    0  501    0  0.00000000000E+00  0.00000000000E+00  0.10173683611E+04  0.10173683611E+04  0.25500000920E-02 0.  1.
       -2   -1    0    0    0  501  0.00000000000E+00  0.00000000000E+00 -0.80984286767E+03  0.80984286768E+03  0.25500000920E-02 0. -1.
    10030    2    1    2    0    0  0.00000000000E+00  0.00000000000E+00  0.20752549345E+03  0.18272112288E+04  0.18153881250E+04 0.  0.
        1    1    3    3  502    0  0.72474039351E+03 -0.54460846406E+03  0.58063368208E+02  0.90841530803E+03  0.50400001928E-02 0.  1.
       -1    1    3    3    0  502 -0.72474039351E+03  0.54460846406E+03  0.14946212524E+03  0.91879592077E+03  0.50400001928E-02 0. -1.
</event>
<event>
 5   0  0.1330125E-04  0.1800789E+04  0.7818609E-02  0.8705880E-01
       -3   -1    0    0    0  501  0.00000000000E+00  0.00000000000E+00  0.11314584595E+04  0.11314584640E+04  0.10100000352E+00 0.  1.
        3   -1    0    0  501    0  0.00000000000E+00  0.00000000000E+00 -0.71651819905E+03  0.71651820617E+03  0.10100000352E+00 0. -1.
    10030    2    1    2    0    0  0.00000000000E+00  0.00000000000E+00  0.41494026046E+03  0.18479766702E+04  0.18007893696E+04 0.  0.
        3    1    3    3  502    0 -0.66842039129E+03  0.60121018623E+03  0.15645768357E+03  0.91253412236E+03  0.10100000352E+00 0. -1.
       -3    1    3    3    0  502  0.66842039129E+03 -0.60121018623E+03  0.25848257689E+03  0.93544254782E+03  0.10100000352E+00 0.  1.
</event>
<event>
 5   0  0.3531266E-04  0.1796303E+04  0.7818609E-02  0.8708268E-01
       -2   -1    0    0    0  501  0.00000000000E+00  0.00000000000E+00  0.80208446752E+03  0.80208446752E+03  0.25500000920E-02 0.  1.
        2   -1    0    0  501    0  0.00000000000E+00  0.00000000000E+00 -0.10057247962E+04  0.10057247962E+04  0.25500000920E-02 0. -1.
    10030    2    1    2    0    0  0.00000000000E+00  0.00000000000E+00 -0.20364032865E+03  0.18078092637E+04  0.17963031343E+04 0.  0.
        3    1    3    3  502    0  0.44834583006E+03  0.77340403112E+03 -0.14613818407E+02  0.89408128970E+03  0.10100000352E+00 0.  1.
       -3    1    3    3    0  502 -0.44834583006E+03 -0.77340403112E+03 -0.18902651024E+03  0.91372797400E+03  0.10100000352E+00 0. -1.
</event>
<event>
 5   0  0.3575091E-04  0.2030463E+04  0.7818609E-02  0.8592509E-01
        2   -1    0    0  501    0  0.00000000000E+00  0.00000000000E+00  0.75565747616E+03  0.75565747617E+03  0.25500000920E-02 0.  1.
       -2   -1    0    0    0  501  0.00000000000E+00  0.00000000000E+00 -0.13639711629E+04  0.13639711629E+04  0.25500000920E-02 0. -1.
    10030    2    1    2    0    0  0.00000000000E+00  0.00000000000E+00 -0.60831368676E+03  0.21196286391E+04  0.20304630078E+04 0.  0.
        5    1    3    3  502    0 -0.28379378261E+03 -0.67206267267E+03  0.43286840719E+03  0.84829493396E+03  0.46999998093E+01 0.  1.
       -5    1    3    3    0  502  0.28379378261E+03  0.67206267267E+03 -0.10411820940E+04  0.12713337051E+04  0.46999998093E+01 0. -1.
</event>
<event>
 5   0  0.3582186E-04  0.1796603E+04  0.7818609E-02  0.8708108E-01
       -2   -1    0    0    0  501  0.00000000000E+00  0.00000000000E+00  0.64741338373E+03  0.64741338374E+03  0.25500000920E-02 0. -1.
        2   -1    0    0  501    0  0.00000000000E+00  0.00000000000E+00 -0.12464153322E+04  0.12464153322E+04  0.25500000920E-02 0.  1.
    10030    2    1    2    0    0  0.00000000000E+00  0.00000000000E+00 -0.59900194851E+03  0.18938287160E+04  0.17966034262E+04 0.  0.
        4    1    3    3  502    0  0.78149618039E+03 -0.86360854431E+01 -0.76633699148E+03  0.10945706278E+04  0.12699999809E+01 0.  1.
       -4    1    3    3    0  502 -0.78149618039E+03  0.86360854431E+01  0.16733504297E+03  0.79925808813E+03  0.12699999809E+01 0. -1.
</event>
<event>
 5   0  0.3568870E-04  0.1860804E+04  0.7818609E-02  0.8674616E-01
       -2   -1    0    0    0  501  0.00000000000E+00  0.00000000000E+00  0.97945774271E+03  0.97945774271E+03  0.25500000920E-02 0.  1.
        2   -1    0    0  501    0  0.00000000000E+00  0.00000000000E+00 -0.88380358089E+03  0.88380358090E+03  0.25500000920E-02 0. -1.
    10030    2    1    2    0    0  0.00000000000E+00  0.00000000000E+00  0.95654161812E+02  0.18632613236E+04  0.18608044071E+04 0.  0.
        1    1    3    3  502    0 -0.25522862129E+03  0.81426215926E+03  0.41910465995E+03  0.95069092199E+03  0.50400001928E-02 0.  1.
       -1    1    3    3    0  502  0.25522862129E+03 -0.81426215926E+03 -0.32345049814E+03  0.91257040162E+03  0.50400001928E-02 0. -1.
</event>
<event>
 5   0  0.1835421E-04  0.1811591E+04  0.7818609E-02  0.8700160E-01
        1   -1    0    0  501    0  0.00000000000E+00  0.00000000000E+00  0.21512069034E+04  0.21512069034E+04  0.50400001928E-02 0.  1.
       -1   -1    0    0    0  501  0.00000000000E+00  0.00000000000E+00 -0.38139759374E+03  0.38139759377E+03  0.50400001928E-02 0. -1.
    10030    2    1    2    0    0  0.00000000000E+00  0.00000000000E+00  0.17698093097E+04  0.25326044972E+04  0.18115906123E+04 0.  0.
        2    1    3    3  502    0  0.58570552519E+03  0.67455854510E+03  0.67574143695E+03  0.11201369035E+04  0.25500000920E-02 0.  1.
       -2    1    3    3    0  502 -0.58570552519E+03 -0.67455854510E+03  0.10940678727E+04  0.14124675936E+04  0.25500000920E-02 0. -1.
</event>
<event>
 5   0  0.1818778E-04  0.1833154E+04  0.7818609E-02  0.8688865E-01
       -1   -1    0    0    0  501  0.00000000000E+00  0.00000000000E+00  0.55299062948E+03  0.55299062950E+03  0.50400001928E-02 0.  1.
        1   -1    0    0  501    0  0.00000000000E+00  0.00000000000E+00 -0.15192173456E+04  0.15192173456E+04  0.50400001928E-02 0. -1.
    10030    2    1    2    0    0  0.00000000000E+00  0.00000000000E+00 -0.96622671609E+03  0.20722079751E+04  0.18331535192E+04 0.  0.
        3    1    3    3  502    0 -0.31142303124E+02 -0.66054226451E+03 -0.12005669274E+04  0.13706374005E+04  0.10100000352E+00 0. -1.
       -3    1    3    3    0  502  0.31142303124E+02  0.66054226451E+03  0.23434021134E+03  0.70157057457E+03  0.10100000352E+00 0.  1.
</event>
<event>
 5   0  0.3531266E-04  0.1798147E+04  0.7818609E-02  0.8707285E-01
       -2   -1    0    0    0  501  0.00000000000E+00  0.00000000000E+00  0.88828128668E+03  0.88828128668E+03  0.25500000920E-02 0.  1.
        2   -1    0    0  501    0  0.00000000000E+00  0.00000000000E+00 -0.90999710447E+03  0.90999710448E+03  0.25500000920E-02 0. -1.
    10030    2    1    2    0    0  0.00000000000E+00  0.00000000000E+00 -0.21715817791E+02  0.17982783912E+04  0.17981472674E+04 0.  0.
        3    1    3    3  502    0  0.28336627126E+03 -0.35456302400E+03 -0.78700857385E+03  0.90851190812E+03  0.10100000352E+00 0. -1.
       -3    1    3    3    0  502 -0.28336627126E+03  0.35456302400E+03  0.76529275606E+03  0.88976648304E+03  0.10100000352E+00 0.  1.
</event>
<event>
 5   0  0.3531266E-04  0.2206966E+04  0.7818609E-02  0.8515534E-01
        2   -1    0    0  501    0  0.00000000000E+00  0.00000000000E+00  0.85896641857E+03  0.85896641857E+03  0.25500000920E-02 0. -1.
       -2   -1    0    0    0  501  0.00000000000E+00  0.00000000000E+00 -0.14176043160E+04  0.14176043160E+04  0.25500000920E-02 0.  1.
    10030    2    1    2    0    0  0.00000000000E+00  0.00000000000E+00 -0.55863789743E+03  0.22765707346E+04  0.22069657924E+04 0.  0.
        3    1    3    3  502    0  0.13155540036E+03  0.27098661991E+03  0.81573312658E+03  0.86957525007E+03  0.10100000352E+00 0. -1.
       -3    1    3    3    0  502 -0.13155540036E+03 -0.27098661991E+03 -0.13743710240E+04  0.14069954845E+04  0.10100000352E+00 0.  1.
</event>
<event>
 5   0  0.1835421E-04  0.1637818E+04  0.7818609E-02  0.8797646E-01
        1   -1    0    0  501    0  0.00000000000E+00  0.00000000000E+00  0.96887588181E+03  0.96887588183E+03  0.50400001928E-02 0.  1.
       -1   -1    0    0    0  501  0.00000000000E+00  0.00000000000E+00 -0.69215505790E+03  0.69215505791E+03  0.50400001928E-02 0. -1.
    10030    2    1    2    0    0  0.00000000000E+00  0.00000000000E+00  0.27672082392E+03  0.16610309397E+04  0.16378184785E+04 0.  0.
        2    1    3    3  502    0  0.44599287814E+03 -0.66910779205E+03 -0.18746238584E+02  0.80434215742E+03  0.25500000920E-02 0. -1.
       -2    1    3    3    0  502 -0.44599287814E+03  0.66910779205E+03  0.29546706250E+03  0.85668878232E+03  0.25500000920E-02 0.  1.
</event>
<event>
 5   0  0.1837313E-04  0.1784143E+04  0.7818609E-02  0.8714778E-01
       -1   -1    0    0    0  501  0.00000000000E+00  0.00000000000E+00  0.41557655683E+03  0.41557655686E+03  0.50400001928E-02 0. -1.
        1   -1    0    0  501    0  0.00000000000E+00  0.00000000000E+00 -0.19149101417E+04  0.19149101418E+04  0.50400001928E-02 0.  1.
    10030    2    1    2    0    0  0.00000000000E+00  0.00000000000E+00 -0.14993335849E+04  0.23304866986E+04  0.17841432267E+04 0.  0.
        1    1    3    3  502    0  0.21965102374E+03  0.13717539488E+03  0.36539689177E+03  0.44785996665E+03  0.50400001928E-02 0. -1.
       -1    1    3    3    0  502 -0.21965102374E+03 -0.13717539488E+03 -0.18647304767E+04  0.18826267320E+04  0.50400001928E-02 0.  1.
</event>
<event>
 5   0  0.3575091E-04  0.1577429E+04  0.7818609E-02  0.8834535E-01
       -2   -1    0    0    0  501  0.00000000000E+00  0.00000000000E+00  0.61399547075E+03  0.61399547075E+03  0.25500000920E-02 0. -1.
        2   -1    0    0  501    0  0.00000000000E+00  0.00000000000E+00 -0.10131518079E+04  0.10131518079E+04  0.25500000920E-02 0.  1.
    10030    2    1    2    0    0  0.00000000000E+00  0.00000000000E+00 -0.39915633718E+03  0.16271472787E+04  0.15774290745E+04 0.  0.
        5    1    3    3  502    0  0.25512903281E+03  0.38730430313E+03  0.45845713673E+03  0.65215065960E+03  0.46999998093E+01 0. -1.
       -5    1    3    3    0  502 -0.25512903281E+03 -0.38730430313E+03 -0.85761347391E+03  0.97499661909E+03  0.46999998093E+01 0.  1.
</event>
<event>
 5   0  0.1825253E-04  0.1785014E+04  0.7818609E-02  0.8714310E-01
        1   -1    0    0  501    0  0.00000000000E+00  0.00000000000E+00  0.14609256668E+04  0.14609256668E+04  0.50400001928E-02 0. -1.
       -1   -1    0    0    0  501  0.00000000000E+00  0.00000000000E+00 -0.54524913103E+03  0.54524913106E+03  0.50400001928E-02 0.  1.
    10030    2    1    2    0    0  0.00000000000E+00  0.00000000000E+00  0.91567653572E+03  0.20061747978E+04  0.17850136698E+04 0.  0.
        4    1    3    3  502    0 -0.57268290589E+03 -0.26235728237E+02  0.12266317506E+04  0.13539871080E+04  0.12699999809E+01 0. -1.
       -4    1    3    3    0  502  0.57268290589E+03  0.26235728237E+02 -0.31095521492E+03  0.65218768979E+03  0.12699999809E+01 0.  1.
</event>
<event>
 5   0  0.1837313E-04  0.1801506E+04  0.7818609E-02  0.8705499E-01
       -1   -1    0    0    0  501  0.00000000000E+00  0.00000000000E+00  0.53407213502E+03  0.53407213504E+03  0.50400001928E-02 0. -1.
        1   -1    0    0  501    0  0.00000000000E+00  0.00000000000E+00 -0.15191884778E+04  0.15191884778E+04  0.50400001928E-02 0.  1.
    10030    2    1    2    0    0  0.00000000000E+00  0.00000000000E+00 -0.98511634274E+03  0.20532606128E+04  0.18015062962E+04 0.  0.
        1    1    3    3  502    0 -0.27722689435E+03  0.40583146686E+01 -0.14693449245E+04  0.14952744658E+04  0.50400001928E-02 0.  1.
       -1    1    3    3    0  502  0.27722689435E+03 -0.40583146686E+01  0.48422858175E+03  0.55798614703E+03  0.50400001928E-02 0. -1.
</event>
<event>
 5   0  0.3582186E-04  0.1912138E+04  0.7818609E-02  0.8648838E-01
        2   -1    0    0  501    0  0.00000000000E+00  0.00000000000E+00  0.97855467265E+03  0.97855467266E+03  0.25500000920E-02 0.  1.
       -2   -1    0    0    0  501  0.00000000000E+00  0.00000000000E+00 -0.93409981085E+03  0.93409981085E+03  0.25500000920E-02 0. -1.
    10030    2    1    2    0    0  0.00000000000E+00  0.00000000000E+00  0.44454861809E+02  0.19126544835E+04  0.19121377928E+04 0.  0.
        4    1    3    3  502    0  0.88820487903E+03 -0.54351635180E+02 -0.32744408118E+03  0.94820000347E+03  0.12699999809E+01 0. -1.
       -4    1    3    3    0  502 -0.88820487903E+03  0.54351635180E+02  0.37189894298E+03  0.96445448004E+03  0.12699999809E+01 0.  1.
</event>
<event>
 5   0  0.1837313E-04  0.1743328E+04  0.7818609E-02  0.8737031E-01
       -1   -1    0    0    0  501  0.00000000000E+00  0.00000000000E+00  0.11638951477E+04  0.11638951477E+04  0.50400001928E-02 0. -1.
        1   -1    0    0  501    0  0.00000000000E+00  0.00000000000E+00 -0.65280657622E+03  0.65280657624E+03  0.50400001928E-02 0.  1.
    10030    2    1    2    0    0  0.00000000000E+00  0.00000000000E+00  0.51108857144E+03  0.18167017239E+04  0.17433283184E+04 0.  0.
        1    1    3    3  502    0  0.17671143682E+03  0.86110093455E+02  0.11404952616E+04  0.11573121109E+04  0.50400001928E-02 0. -1.
       -1    1    3    3    0  502 -0.17671143682E+03 -0.86110093455E+02 -0.62940669020E+03  0.65938961304E+03  0.50400001928E-02 0.  1.
</event>
<event>
 5   0  0.1837313E-04  0.1728691E+04  0.7818609E-02  0.8745168E-01
       -1   -1    0    0    0  501  0.00000000000E+00  0.00000000000E+00  0.65305177769E+03  0.65305177771E+03  0.50400001928E-02 0. -1.
        1   -1    0    0  501    0  0.00000000000E+00  0.00000000000E+00 -0.11440030604E+04  0.11440030604E+04  0.50400001928E-02 0.  1.
    10030    2    1    2    0    0  0.00000000000E+00  0.00000000000E+00 -0.49095128267E+03  0.17970548381E+04  0.17286911029E+04 0.  0.
        1    1    3    3  502    0 -0.34183302848E+03  0.96503184113E+02 -0.10646294344E+04  0.11223183668E+04  0.50400001928E-02 0.  1.
       -1    1    3    3    0  502  0.34183302848E+03 -0.96503184113E+02  0.57367815171E+03  0.67473647128E+03  0.50400001928E-02 0. -1.
</event>
<event>
 5   0  0.1837313E-04  0.1704669E+04  0.7818609E-02  0.8758706E-01
        1   -1    0    0  501    0  0.00000000000E+00  0.00000000000E+00  0.14214643378E+04  0.14214643378E+04  0.50400001928E-02 0.  1.
       -1   -1    0    0    0  501  0.00000000000E+00  0.00000000000E+00 -0.51107430707E+03  0.51107430710E+03  0.50400001928E-02 0. -1.
    10030    2    1    2    0    0  0.00000000000E+00  0.00000000000E+00  0.91039003073E+03  0.19325386449E+04  0.17046687672E+04 0.  0.
        1    1    3    3  502    0 -0.80502822044E+03 -0.27960018043E+03  0.43810678803E+03  0.95821931432E+03  0.50400001928E-02 0. -1.
       -1    1    3    3    0  502  0.80502822044E+03  0.27960018043E+03  0.47228324269E+03  0.97431933059E+03  0.50400001928E-02 0.  1.
</event>
<event>
 5   0  0.1883959E-04  0.1712223E+04  0.7818609E-02  0.8754424E-01
       -1   -1    0    0    0  501  0.00000000000E+00  0.00000000000E+00  0.45096782231E+03  0.45096782234E+03  0.50400001928E-02 0.  1.
        1   -1    0    0  501    0  0.00000000000E+00  0.00000000000E+00 -0.16252306347E+04  0.16252306347E+04  0.50400001928E-02 0. -1.
    10030    2    1    2    0    0  0.00000000000E+00  0.00000000000E+00 -0.11742628123E+04  0.20761984570E+04  0.17122227894E+04 0.  0.
        5    1    3    3  502    0 -0.25847179814E+03  0.66960276466E+03 -0.11529364658E+04  0.13581090225E+04  0.46999998093E+01 0. -1.
       -5    1    3    3    0  502  0.25847179814E+03 -0.66960276466E+03 -0.21326346543E+02  0.71808943449E+03  0.46999998093E+01 0.  1.
</event>
<event>
 5   0  0.1883959E-04  0.1769622E+04  0.7818609E-02  0.8722623E-01
        1   -1    0    0  501    0  0.00000000000E+00  0.00000000000E+00  0.16178831525E+04  0.16178831525E+04  0.50400001928E-02 0.  1.
       -1   -1    0    0    0  501  0.00000000000E+00  0.00000000000E+00 -0.48389830497E+03  0.48389830500E+03  0.50400001928E-02 0. -1.
    10030    2    1    2    0    0  0.00000000000E+00  0.00000000000E+00  0.11339848475E+04  0.21017814575E+04  0.17696224627E+04 0.  0.
        5    1    3    3  502    0 -0.11269348704E+03  0.85922090791E+03  0.35483429181E+03  0.93642397196E+03  0.46999998093E+01 0.  1.
       -5    1    3    3    0  502  0.11269348704E+03 -0.85922090791E+03  0.77915055568E+03  0.11653574855E+04  0.46999998093E+01 0. -1.
</event>
<event>
 5   0  0.1835421E-04  0.1795321E+04  0.7818609E-02  0.8708792E-01
        1   -1    0    0  501    0  0.00000000000E+00  0.00000000000E+00  0.14501511626E+04  0.14501511626E+04  0.50400001928E-02 0. -1.
       -1   -1    0    0    0  501  0.00000000000E+00  0.00000000000E+00 -0.55566231702E+03  0.55566231704E+03  0.50400001928E-02 0.  1.
    10030    2    1    2    0    0  0.00000000000E+00  0.00000000000E+00  0.89448884557E+03  0.20058134796E+04  0.17953209797E+04 0.  0.
        2    1    3    3  502    0 -0.20893438819E+03 -0.79064898655E+03  0.86079861557E+03  0.11873304742E+04  0.25500000920E-02 0. -1.
       -2    1    3    3    0  502  0.20893438819E+03  0.79064898655E+03  0.33690230007E+02  0.81848300539E+03  0.25500000920E-02 0.  1.
</event>
<event>
 5   0  0.1835421E-04  0.1867854E+04  0.7818609E-02  0.8671025E-01
       -1   -1    0    0    0  501  0.00000000000E+00  0.00000000000E+00  0.45023724370E+03  0.45023724373E+03  0.50400001928E-02 0. -1.
        1   -1    0    0  501    0  0.00000000000E+00  0.00000000000E+00 -0.19372447547E+04  0.19372447547E+04  0.50400001928E-02 0.  1.
    10030    2    1    2    0    0  0.00000000000E+00  0.00000000000E+00 -0.14870075110E+04  0.23874819984E+04  0.18678541043E+04 0.  0.
        2    1    3    3  502    0 -0.74339206621E+03  0.11610078141E+03 -0.36315713809E+02  0.75327948773E+03  0.25500000920E-02 0. -1.
       -2    1    3    3    0  502  0.74339206621E+03 -0.11610078141E+03 -0.14506917972E+04  0.16342025107E+04  0.25500000920E-02 0.  1.
</event>
<event>
 5   0  0.1835421E-04  0.1698977E+04  0.7818609E-02  0.8761948E-01
       -1   -1    0    0    0  501  0.00000000000E+00  0.00000000000E+00  0.12425374171E+04  0.12425374171E+04  0.50400001928E-02 0.  1.
        1   -1    0    0  501    0  0.00000000000E+00  0.00000000000E+00 -0.58077211662E+03  0.58077211665E+03  0.50400001928E-02 0. -1.
    10030    2    1    2    0    0  0.00000000000E+00  0.00000000000E+00  0.66176530044E+03  0.18233095337E+04  0.16989774404E+04 0.  0.
        2    1    3    3  502    0 -0.13081227181E+03  0.74208983121E+03 -0.90020233570E+02  0.75888919514E+03  0.25500000920E-02 0. -1.
       -2    1    3    3    0  502  0.13081227181E+03 -0.74208983121E+03  0.75178553401E+03  0.10644203386E+04  0.25500000920E-02 0.  1.
</event>
<event>
 5   0  0.3531266E-04  0.1769939E+04  0.7818609E-02  0.8722451E-01
        2   -1    0    0  501    0  0.00000000000E+00  0.00000000000E+00  0.14824925961E+04  0.14824925961E+04  0.25500000920E-02 0. -1.
       -2   -1    0    0    0  501  0.00000000000E+00  0.00000000000E+00 -0.52828007999E+03  0.52828008000E+03  0.25500000920E-02 0.  1.
    10030    2    1    2    0    0  0.00000000000E+00  0.00000000000E+00  0.95421251608E+03  0.20107726761E+04  0.17699393292E+04 0.  0.
        3    1    3    3  502    0  0.26200024724E+03  0.21892190293E+03 -0.45044382772E+03  0.56521728678E+03  0.10100000352E+00 0.  1.
       -3    1    3    3    0  502 -0.26200024724E+03 -0.21892190293E+03  0.14046563438E+04  0.14455553893E+04  0.10100000352E+00 0. -1.
</event>
<event>
 5   0  0.1837313E-04  0.1756941E+04  0.7818609E-02  0.8729539E-01
       -1   -1    0    0    0  501  0.00000000000E+00  0.00000000000E+00  0.57868058892E+03  0.57868058894E+03  0.50400001928E-02 0.  1.
        1   -1    0    0  501    0  0.00000000000E+00  0.00000000000E+00 -0.13335694502E+04  0.13335694502E+04  0.50400001928E-02 0. -1.
    10030    2    1    2    0    0  0.00000000000E+00  0.00000000000E+00 -0.75488886130E+03  0.19122500392E+04  0.17569413819E+04 0.  0.
        1    1    3    3  502    0  0.42688445794E+03 -0.49001094504E+03 -0.10207688216E+04  0.12100867960E+04  0.50400001928E-02 0. -1.
       -1    1    3    3    0  502 -0.42688445794E+03  0.49001094504E+03  0.26587996032E+03  0.70216324314E+03  0.50400001928E-02 0.  1.
</event>
<event>
 5   0  0.1330125E-04  0.1801443E+04  0.7818609E-02  0.8705532E-01
       -3   -1    0    0    0  501  0.00000000000E+00  0.00000000000E+00  0.12008777720E+04  0.12008777763E+04  0.10100000352E+00 0. -1.
        3   -1    0    0  501    0  0.00000000000E+00  0.00000000000E+00 -0.67558849909E+03  0.67558850664E+03  0.10100000352E+00 0.  1.
    10030    2    1    2    0    0  0.00000000000E+00  0.00000000000E+00  0.52528927295E+03  0.18764662829E+04  0.18014430023E+04 0.  0.
        2    1    3    3  502    0 -0.15436685886E+03  0.41097898967E+03  0.10818888649E+04  0.11675685732E+04  0.25500000920E-02 0. -1.
       -2    1    3    3    0  502  0.15436685886E+03 -0.41097898967E+03 -0.55659959197E+03  0.70889770972E+03  0.25500000920E-02 0.  1.
</event>
<event>
 5   0  0.3531266E-04  0.1828008E+04  0.7818609E-02  0.8691545E-01
       -2   -1    0    0    0  501  0.00000000000E+00  0.00000000000E+00  0.86399495352E+03  0.86399495353E+03  0.25500000920E-02 0. -1.
        2   -1    0    0  501    0  0.00000000000E+00  0.00000000000E+00 -0.96690796855E+03  0.96690796855E+03  0.25500000920E-02 0.  1.
    10030    2    1    2    0    0  0.00000000000E+00  0.00000000000E+00 -0.10291301502E+03  0.18309029221E+04  0.18280083209E+04 0.  0.
        3    1    3    3  502    0 -0.40498632957E+03  0.72198011809E+03  0.33662881930E+03  0.89363761685E+03  0.10100000352E+00 0. -1.
       -3    1    3    3    0  502  0.40498632957E+03 -0.72198011809E+03 -0.43954183433E+03  0.93726530523E+03  0.10100000352E+00 0.  1.
</event>
<event>
 5   0  0.1825253E-04  0.1789639E+04  0.7818609E-02  0.8711829E-01
        1   -1    0    0  501    0  0.00000000000E+00  0.00000000000E+00  0.17062760451E+04  0.17062760451E+04  0.50400001928E-02 0.  1.
       -1   -1    0    0    0  501  0.00000000000E+00  0.00000000000E+00 -0.46926863152E+03  0.46926863155E+03  0.50400001928E-02 0. -1.
    10030    2    1    2    0    0  0.00000000000E+00  0.00000000000E+00  0.12370074135E+04  0.21755446766E+04  0.17896388739E+04 0.  0.
        4    1    3    3  502    0 -0.58929960402E+03 -0.45188054531E+03  0.12253838122E+04  0.14328423328E+04  0.12699999809E+01 0.  1.
       -4    1    3    3    0  502  0.58929960402E+03  0.45188054531E+03  0.11623601339E+02  0.74270234383E+03  0.12699999809E+01 0. -1.
</event>
<event>
 5   0  0.3582186E-04  0.1819442E+04  0.7818609E-02  0.8696028E-01
        2   -1    0    0  501    0  0.00000000000E+00  0.00000000000E+00  0.77308348230E+03  0.77308348230E+03  0.25500000920E-02 0. -1.
       -2   -1    0    0    0  501  0.00000000000E+00  0.00000000000E+00 -0.10705081041E+04  0.10705081041E+04  0.25500000920E-02 0.  1.
    10030    2    1    2    0    0  0.00000000000E+00  0.00000000000E+00 -0.29742462183E+03  0.18435915864E+04  0.18194418188E+04 0.  0.
        4    1    3    3  502    0 -0.90729558695E+02  0.71440770458E+03 -0.71195030026E+03  0.10126623643E+04  0.12699999809E+01 0.  1.
       -4    1    3    3    0  502  0.90729558695E+02 -0.71440770458E+03  0.41452567843E+03  0.83092922211E+03  0.12699999809E+01 0. -1.
</event>
<event>
 5   0  0.3568870E-04  0.1786598E+04  0.7818609E-02  0.8713459E-01
       -2   -1    0    0    0  501  0.00000000000E+00  0.00000000000E+00  0.70938344751E+03  0.70938344751E+03  0.25500000920E-02 0. -1.
        2   -1    0    0  501    0  0.00000000000E+00  0.00000000000E+00 -0.11248970396E+04  0.11248970396E+04  0.25500000920E-02 0.  1.
    10030    2    1    2    0    0  0.00000000000E+00  0.00000000000E+00 -0.41551359208E+03  0.18342804871E+04  0.17865982649E+04 0.  0.
        1    1    3    3  502    0 -0.63350148466E+03 -0.58439261272E+03 -0.44885272299E+03  0.97175491963E+03  0.50400001928E-02 0.  1.
       -1    1    3    3    0  502  0.63350148466E+03  0.58439261272E+03  0.33339130908E+02  0.86252556747E+03  0.50400001928E-02 0. -1.
</event>
<event>
 5   0  0.1818778E-04  0.1757858E+04  0.7818609E-02  0.8729037E-01
       -1   -1    0    0    0  501  0.00000000000E+00  0.00000000000E+00  0.92771215808E+03  0.92771215810E+03  0.50400001928E-02 0.  1.
        1   -1    0    0  501    0  0.00000000000E+00  0.00000000000E+00 -0.83271094953E+03  0.83271094955E+03  0.50400001928E-02 0. -1.
    10030    2    1    2    0    0  0.00000000000E+00  0.00000000000E+00  0.95001208552E+02  0.17604231076E+04  0.17578578692E+04 0.  0.
        3    1    3    3  502    0  0.50288530096E+03  0.65305097322E+03 -0.25814448198E+03  0.86371742099E+03  0.10100000352E+00 0. -1.
       -3    1    3    3    0  502 -0.50288530096E+03 -0.65305097322E+03  0.35314569053E+03  0.89670568666E+03  0.10100000352E+00 0.  1.
</event>
<event>
 5   0  0.3531266E-04  0.1796801E+04  0.7818609E-02  0.8708003E-01
        2   -1    0    0  501    0  0.00000000000E+00  0.00000000000E+00  0.11314839654E+04  0.11314839654E+04  0.25500000920E-02 0.  1.
       -2   -1    0    0    0  501  0.00000000000E+00  0.00000000000E+00 -0.71333145105E+03  0.71333145105E+03  0.25500000920E-02 0. -1.
    10030    2    1    2    0    0  0.00000000000E+00  0.00000000000E+00  0.41815251437E+03  0.18448154165E+04  0.17968005998E+04 0.  0.
        3    1    3    3  502    0 -0.13145295297E+03 -0.57413918926E+03  0.90559023237E+03  0.10802820774E+04  0.10100000352E+00 0.  1.
       -3    1    3    3    0  502  0.13145295297E+03  0.57413918926E+03 -0.48743771800E+03  0.76453333911E+03  0.10100000352E+00 0. -1.
</event>
<event>
 5   0  0.1825253E-04  0.1749278E+04  0.7818609E-02  0.8733748E-01
       -1   -1    0    0    0  501  0.00000000000E+00  0.00000000000E+00  0.84291744486E+03  0.84291744488E+03  0.50400001928E-02 0. -1.
        1   -1    0    0  501    0  0.00000000000E+00  0.00000000000E+00 -0.90755447694E+03  0.90755447695E+03  0.50400001928E-02 0.  1.
    10030    2    1    2    0    0  0.00000000000E+00  0.00000000000E+00 -0.64637032072E+02  0.17504719218E+04  0.17492781377E+04 0.  0.
        4    1    3    3  502    0  0.10906246795E+03 -0.73619473282E+03  0.42746711593E+03  0.85825815152E+03  0.12699999809E+01 0. -1.
       -4    1    3    3    0  502 -0.10906246795E+03  0.73619473282E+03 -0.49210414800E+03  0.89221377031E+03  0.12699999809E+01 0.  1.
</event>
<event>
 5   0  0.3628581E-04  0.1663079E+04  0.7818609E-02  0.8782707E-01
        2   -1    0    0  501    0  0.00000000000E+00  0.00000000000E+00  0.19542208430E+04  0.19542208430E+04  0.25500000920E-02 0. -1.
       -2   -1    0    0    0  501  0.00000000000E+00  0.00000000000E+00 -0.35382791946E+03  0.35382791947E+03  0.25500000920E-02 0.  1.
    10030    2    1    2    0    0  0.00000000000E+00  0.00000000000E+00  0.16003929236E+04  0.23080487625E+04  0.16630789459E+04 0.  0.
        2    1    3    3  502    0 -0.53694100073E+01 -0.77866724039E+03  0.39532869016E+03  0.87329048723E+03  0.25500000920E-02 0.  1.
       -2    1    3    3    0  502  0.53694100073E+01  0.77866724039E+03  0.12050642334E+04  0.14347582753E+04  0.25500000920E-02 0. -1.
</event>
<event>
 5   0  0.1825253E-04  0.1889283E+04  0.7818609E-02  0.8660209E-01
       -1   -1    0    0    0  501  0.00000000000E+00  0.00000000000E+00  0.67336256315E+03  0.67336256317E+03  0.50400001928E-02 0.  1.
        1   -1    0    0  501    0  0.00000000000E+00  0.00000000000E+00 -0.13252114060E+04  0.13252114060E+04  0.50400001928E-02 0. -1.
    10030    2    1    2    0    0  0.00000000000E+00  0.00000000000E+00 -0.65184884283E+03  0.19985739692E+04  0.18892831964E+04 0.  0.
        4    1    3    3  502    0  0.23269711047E+03 -0.59453865135E+03 -0.10624189465E+04  0.12394998120E+04  0.12699999809E+01 0. -1.
       -4    1    3    3    0  502 -0.23269711047E+03  0.59453865135E+03  0.41057010366E+03  0.75907415717E+03  0.12699999809E+01 0.  1.
</event>
<event>
 5   0  0.1825253E-04  0.1787922E+04  0.7818609E-02  0.8712749E-01
        1   -1    0    0  501    0  0.00000000000E+00  0.00000000000E+00  0.21701125903E+04  0.21701125903E+04  0.50400001928E-02 0.  1.
       -1   -1    0    0    0  501  0.00000000000E+00  0.00000000000E+00 -0.36826013445E+03  0.36826013448E+03  0.50400001928E-02 0. -1.
    10030    2    1    2    0    0  0.00000000000E+00  0.00000000000E+00  0.18018524559E+04  0.25383727248E+04  0.17879216474E+04 0.  0.
        4    1    3    3  502    0 -0.89371347721E+03 -0.95565770117E+01  0.92745793063E+03  0.12880197722E+04  0.12699999809E+01 0. -1.
       -4    1    3    3    0  502  0.89371347721E+03  0.95565770117E+01  0.87439452525E+03  0.12503529527E+04  0.12699999809E+01 0.  1.
</event>
<event>
 5   0  0.1835421E-04  0.1793368E+04  0.7818609E-02  0.8709834E-01
       -1   -1    0    0    0  501  0.00000000000E+00  0.00000000000E+00  0.68351810663E+03  0.68351810665E+03  0.50400001928E-02 0.  1.
        1   -1    0    0  501    0  0.00000000000E+00  0.00000000000E+00 -0.11763284977E+04  0.11763284978E+04  0.50400001928E-02 0. -1.
    10030    2    1    2    0    0  0.00000000000E+00  0.00000000000E+00 -0.49281039111E+03  0.18598466044E+04  0.17933675893E+04 0.  0.
        2    1    3    3  502    0  0.13540294396E+03 -0.68124149265E+03  0.34173100925E+03  0.77408269017E+03  0.25500000920E-02 0.  1.
       -2    1    3    3    0  502 -0.13540294396E+03  0.68124149265E+03 -0.83454140036E+03  0.10857639142E+04  0.25500000920E-02 0. -1.
</event>
<event>
 5   0  0.3628581E-04  0.1700013E+04  0.7818609E-02  0.8761357E-01
       -2   -1    0    0    0  501  0.00000000000E+00  0.00000000000E+00  0.71079145640E+03  0.71079145641E+03  0.25500000920E-02 0. -1.
        2   -1    0    0  501    0  0.00000000000E+00  0.00000000000E+00 -0.10164885353E+04  0.10164885353E+04  0.25500000920E-02 0.  1.
    10030    2    1    2    0    0  0.00000000000E+00  0.00000000000E+00 -0.30569707891E+03  0.17272799917E+04  0.17000133722E+04 0.  0.
        2    1    3    3  502    0 -0.61529202140E+03  0.94469846099E+02  0.43522881590E+03  0.75956102166E+03  0.25500000920E-02 0. -1.
       -2    1    3    3    0  502  0.61529202140E+03 -0.94469846099E+02 -0.74092589481E+03  0.96771897007E+03  0.25500000920E-02 0.  1.
</event>
<event>
 5   0  0.3568870E-04  0.1809451E+04  0.7818609E-02  0.8701290E-01
       -2   -1    0    0    0  501  0.00000000000E+00  0.00000000000E+00  0.77517783141E+03  0.77517783141E+03  0.25500000920E-02 0.  1.
        2   -1    0    0  501    0  0.00000000000E+00  0.00000000000E+00 -0.10559230052E+04  0.10559230052E+04  0.25500000920E-02 0. -1.
    10030    2    1    2    0    0  0.00000000000E+00  0.00000000000E+00 -0.28074517380E+03  0.18311008366E+04  0.18094508618E+04 0.  0.
        1    1    3    3  502    0  0.42270804694E+03 -0.14235828452E+03 -0.93692472642E+03  0.10376781375E+04  0.50400001928E-02 0. -1.
       -1    1    3    3    0  502 -0.42270804694E+03  0.14235828452E+03  0.65617955262E+03  0.79342269909E+03  0.50400001928E-02 0.  1.
</event>
<event>
 5   0  0.3575091E-04  0.1817329E+04  0.7818609E-02  0.8697138E-01
        2   -1    0    0  501    0  0.00000000000E+00  0.00000000000E+00  0.19146846983E+04  0.19146846983E+04  0.25500000920E-02 0. -1.
       -2   -1    0    0    0  501  0.00000000000E+00  0.00000000000E+00 -0.43123095741E+03  0.43123095742E+03  0.25500000920E-02 0.  1.
    10030    2    1    2    0    0  0.00000000000E+00  0.00000000000E+00  0.14834537409E+04  0.23459156558E+04  0.18173291563E+04 0.  0.
        5    1    3    3  502    0  0.82327118945E+03 -0.23356900842E+00  0.24533541407E+03  0.85906173313E+03  0.46999998093E+01 0.  1.
       -5    1    3    3    0  502 -0.82327118945E+03  0.23356900842E+00  0.12381183268E+04  0.14868539226E+04  0.46999998093E+01 0. -1.
</event>
<event>
 5   0  0.3568870E-04  0.1806509E+04  0.7818609E-02  0.8702846E-01
       -2   -1    0    0    0  501  0.00000000000E+00  0.00000000000E+00  0.55896984528E+03  0.55896984528E+03  0.25500000920E-02 0. -1.
        2   -1    0    0  501    0  0.00000000000E+00  0.00000000000E+00 -0.14595938061E+04  0.14595938061E+04  0.25500000920E-02 0.  1.
    10030    2    1    2    0    0  0.00000000000E+00  0.00000000000E+00 -0.90062396085E+03  0.20185636514E+04  0.18065092571E+04 0.  0.
        1    1    3    3  502    0 -0.26974740334E+03 -0.84219576285E+03 -0.65577556358E+03  0.11009536568E+04  0.50400001928E-02 0.  1.
       -1    1    3    3    0  502  0.26974740334E+03  0.84219576285E+03 -0.24484839727E+03  0.91760999463E+03  0.50400001928E-02 0. -1.
</event>
<event>
 5   0  0.1837313E-04  0.1787750E+04  0.7818609E-02  0.8712841E-01
        1   -1    0    0  501    0  0.00000000000E+00  0.00000000000E+00  0.73797413064E+03  0.73797413065E+03  0.50400001928E-02 0. -1.
       -1   -1    0    0    0  501  0.00000000000E+00  0.00000000000E+00 -0.10827101693E+04  0.10827101693E+04  0.50400001928E-02 0.  1.
    10030    2    1    2    0    0  0.00000000000E+00  0.00000000000E+00 -0.34473603870E+03  0.18206843000E+04  0.17877495305E+04 0.  0.
        1    1    3    3  502    0 -0.27772888901E+03 -0.32665759441E+03  0.62641129749E+03  0.75909790767E+03  0.50400001928E-02 0. -1.
       -1    1    3    3    0  502  0.27772888901E+03  0.32665759441E+03 -0.97114733619E+03  0.10615863923E+04  0.50400001928E-02 0.  1.
</event>
<event>
 5   0  0.3575091E-04  0.1926602E+04  0.7818609E-02  0.8641727E-01
        2   -1    0    0  501    0  0.00000000000E+00  0.00000000000E+00  0.22264620985E+04  0.22264620985E+04  0.25500000920E-02 0.  1.
       -2   -1    0    0    0  501  0.00000000000E+00  0.00000000000E+00 -0.41678157256E+03  0.41678157257E+03  0.25500000920E-02 0. -1.
    10030    2    1    2    0    0  0.00000000000E+00  0.00000000000E+00  0.18096805260E+04  0.26432436711E+04  0.19266015413E+04 0.  0.
        5    1    3    3  502    0 -0.69001525331E+03  0.48354945723E+03  0.15453987052E+04  0.17601762342E+04  0.46999998093E+01 0.  1.
       -5    1    3    3    0  502  0.69001525331E+03 -0.48354945723E+03  0.26428182082E+03  0.88306743695E+03  0.46999998093E+01 0. -1.
</event>
<event>
 5   0  0.1330125E-04  0.1791735E+04  0.7818609E-02  0.8710707E-01
        3   -1    0    0  501    0  0.00000000000E+00  0.00000000000E+00  0.12737583427E+04  0.12737583467E+04  0.10100000352E+00 0.  1.
       -3   -1    0    0    0  501  0.00000000000E+00  0.00000000000E+00 -0.63008681732E+03  0.63008682541E+03  0.10100000352E+00 0. -1.
    10030    2    1    2    0    0  0.00000000000E+00  0.00000000000E+00  0.64367152540E+03  0.19038451721E+04  0.17917347479E+04 0.  0.
        4    1    3    3  502    0 -0.44328777900E+03  0.60409651117E+03  0.84362199916E+03  0.11283334348E+04  0.12699999809E+01 0.  1.
       -4    1    3    3    0  502  0.44328777900E+03 -0.60409651117E+03 -0.19995047376E+03  0.77551173729E+03  0.12699999809E+01 0. -1.
</event>
<event>
 5   0  0.3582186E-04  0.1779348E+04  0.7818609E-02  0.8717360E-01
        2   -1    0    0  501    0  0.00000000000E+00  0.00000000000E+00  0.11077865217E+04  0.11077865217E+04  0.25500000920E-02 0.  1.
       -2   -1    0    0    0  501  0.00000000000E+00  0.00000000000E+00 -0.71450598453E+03  0.71450598454E+03  0.25500000920E-02 0. -1.
    10030    2    1    2    0    0  0.00000000000E+00  0.00000000000E+00  0.39328053717E+03  0.18222925062E+04  0.17793483069E+04 0.  0.
        4    1    3    3  502    0  0.54541441410E+03 -0.48570764586E+03 -0.32368641299E+03  0.79885124223E+03  0.12699999809E+01 0. -1.
       -4    1    3    3    0  502 -0.54541441410E+03  0.48570764586E+03  0.71696695016E+03  0.10234412640E+04  0.12699999809E+01 0.  1.
</event>
<event>
 5   0  0.3582186E-04  0.1812407E+04  0.7818609E-02  0.8699729E-01
       -2   -1    0    0    0  501  0.00000000000E+00  0.00000000000E+00  0.76649281967E+03  0.76649281967E+03  0.25500000920E-02 0.  1.
        2   -1    0    0  501    0  0.00000000000E+00  0.00000000000E+00 -0.10713796366E+04  0.10713796366E+04  0.25500000920E-02 0. -1.
    10030    2    1    2    0    0  0.00000000000E+00  0.00000000000E+00 -0.30488681690E+03  0.18378724562E+04  0.18124070167E+04 0.  0.
        4    1    3    3  502    0  0.59103231628E+03 -0.24468413451E+01  0.54414220246E+03  0.80337882429E+03  0.12699999809E+01 0.  1.
       -4    1    3    3    0  502 -0.59103231628E+03  0.24468413451E+01 -0.84902901936E+03  0.10344936319E+04  0.12699999809E+01 0. -1.
</event>
<event>
 5   0  0.1835421E-04  0.1782284E+04  0.7818609E-02  0.8715778E-01
        1   -1    0    0  501    0  0.00000000000E+00  0.00000000000E+00  0.10565501721E+04  0.10565501721E+04  0.50400001928E-02 0.  1.
       -1   -1    0    0    0  501  0.00000000000E+00  0.00000000000E+00 -0.75162963491E+03  0.75162963492E+03  0.50400001928E-02 0. -1.
    10030    2    1    2    0    0  0.00000000000E+00  0.00000000000E+00  0.30492053717E+03  0.18081798070E+04  0.17822843994E+04 0.  0.
        2    1    3    3  502    0 -0.37305176590E+03  0.36605274610E+03  0.88473134158E+03  0.10275756808E+04  0.25500000920E-02 0.  1.
       -2    1    3    3    0  502  0.37305176590E+03 -0.36605274610E+03 -0.57981080441E+03  0.78060412623E+03  0.25500000920E-02 0. -1.
</event>
<event>
 5   0  0.1837313E-04  0.1833892E+04  0.7818609E-02  0.8688481E-01
        1   -1    0    0  501    0  0.00000000000E+00  0.00000000000E+00  0.64002429470E+03  0.64002429472E+03  0.50400001928E-02 0.  1.
       -1   -1    0    0    0  501  0.00000000000E+00  0.00000000000E+00 -0.13136841129E+04  0.13136841129E+04  0.50400001928E-02 0. -1.
    10030    2    1    2    0    0  0.00000000000E+00  0.00000000000E+00 -0.67365981818E+03  0.19537084076E+04  0.18338917611E+04 0.  0.
        1    1    3    3  502    0  0.85186166569E+02  0.16280717122E+03 -0.12938698189E+04  0.13068519297E+04  0.50400001928E-02 0. -1.
       -1    1    3    3    0  502 -0.85186166569E+02 -0.16280717122E+03  0.62021000071E+03  0.64685647788E+03  0.50400001928E-02 0.  1.
</event>
<event>
 5   0  0.1883959E-04  0.1800135E+04  0.7818609E-02  0.8706228E-01
       -1   -1    0    0    0  501  0.00000000000E+00  0.00000000000E+00  0.31436959283E+03  0.31436959287E+03  0.50400001928E-02 0.  1.
        1   -1    0    0  501    0  0.00000000000E+00  0.00000000000E+00 -0.25769716213E+04  0.25769716213E+04  0.50400001928E-02 0. -1.
    10030    2    1    2    0    0  0.00000000000E+00  0.00000000000E+00 -0.22626020285E+04  0.28913412142E+04  0.18001350165E+04 0.  0.
        5    1    3    3  502    0  0.59957104227E+03 -0.70822225456E+02 -0.22034767739E+04  0.22846954295E+04  0.46999998093E+01 0. -1.
       -5    1    3    3    0  502 -0.59957104227E+03  0.70822225456E+02 -0.59125254556E+02  0.60664578468E+03  0.46999998093E+01 0.  1.
</event>
<event>
 5   0  0.3582186E-04  0.1825862E+04  0.7818609E-02  0.8692666E-01
       -2   -1    0    0    0  501  0.00000000000E+00  0.00000000000E+00  0.92370706343E+03  0.92370706343E+03  0.25500000920E-02 0. -1.
        2   -1    0    0  501    0  0.00000000000E+00  0.00000000000E+00 -0.90228085955E+03  0.90228085955E+03  0.25500000920E-02 0.  1.
    10030    2    1    2    0    0  0.00000000000E+00  0.00000000000E+00  0.21426203877E+02  0.18259879230E+04  0.18258622108E+04 0.  0.
        4    1    3    3  502    0 -0.85884966927E+03 -0.53771653601E+02 -0.29414791859E+03  0.90941671200E+03  0.12699999809E+01 0.  1.
       -4    1    3    3    0  502  0.85884966927E+03  0.53771653601E+02  0.31557412247E+03  0.91657121099E+03  0.12699999809E+01 0. -1.
</event>
<event>
 5   0  0.3575091E-04  0.1789828E+04  0.7818609E-02  0.8711728E-01
        2   -1    0    0  501    0  0.00000000000E+00  0.00000000000E+00  0.20783424488E+04  0.20783424488E+04  0.25500000920E-02 0.  1.
       -2   -1    0    0    0  501  0.00000000000E+00  0.00000000000E+00 -0.38534116344E+03  0.38534116345E+03  0.25500000920E-02 0. -1.
    10030    2    1    2    0    0  0.00000000000E+00  0.00000000000E+00  0.16930012854E+04  0.24636836123E+04  0.17898278099E+04 0.  0.
        5    1    3    3  502    0  0.40687066837E+03 -0.79421230127E+03  0.93916510707E+03  0.12955192429E+04  0.46999998093E+01 0. -1.
       -5    1    3    3    0  502 -0.40687066837E+03  0.79421230127E+03  0.75383617833E+03  0.11681643694E+04  0.46999998093E+01 0.  1.
</event>
<event>
 5   0  0.3568870E-04  0.1789952E+04  0.7818609E-02  0.8711661E-01
       -2   -1    0    0    0  501  0.00000000000E+00  0.00000000000E+00  0.97484353728E+03  0.97484353728E+03  0.25500000920E-02 0. -1.
        2   -1    0    0  501    0  0.00000000000E+00  0.00000000000E+00 -0.82165193822E+03  0.82165193822E+03  0.25500000920E-02 0.  1.
    10030    2    1    2    0    0  0.00000000000E+00  0.00000000000E+00  0.15319159906E+03  0.17964954755E+04  0.17899520461E+04 0.  0.
        1    1    3    3  502    0 -0.24372536313E+01 -0.34195674704E+03  0.90668741716E+03  0.96903169685E+03  0.50400001928E-02 0. -1.
       -1    1    3    3    0  502  0.24372536313E+01  0.34195674704E+03 -0.75349581810E+03  0.82746377865E+03  0.50400001928E-02 0.  1.
</event>
<event>
 5   0  0.3568870E-04  0.1806357E+04  0.7818609E-02  0.8702926E-01
        2   -1    0    0  501    0  0.00000000000E+00  0.00000000000E+00  0.13776786284E+04  0.13776786284E+04  0.25500000920E-02 0.  1.
       -2   -1    0    0    0  501  0.00000000000E+00  0.00000000000E+00 -0.59210540523E+03  0.59210540523E+03  0.25500000920E-02 0. -1.
    10030    2    1    2    0    0  0.00000000000E+00  0.00000000000E+00  0.78557322317E+03  0.19697840336E+04  0.18063565125E+04 0.  0.
        1    1    3    3  502    0 -0.99338927810E+02  0.33864311421E+03  0.12993785444E+04  0.13464516267E+04  0.50400001928E-02 0.  1.
       -1    1    3    3    0  502  0.99338927810E+02 -0.33864311421E+03 -0.51380532123E+03  0.62333240693E+03  0.50400001928E-02 0. -1.
</event>
<event>
 5   0  0.1883959E-04  0.1804695E+04  0.7818609E-02  0.8703806E-01
        1   -1    0    0  501    0  0.00000000000E+00  0.00000000000E+00  0.11975531996E+04  0.11975531996E+04  0.50400001928E-02 0. -1.
       -1   -1    0    0    0  501  0.00000000000E+00  0.00000000000E+00 -0.67991254257E+03  0.67991254259E+03  0.50400001928E-02 0.  1.
    10030    2    1    2    0    0  0.00000000000E+00  0.00000000000E+00  0.51764065704E+03  0.18774657422E+04  0.18046954766E+04 0.  0.
        5    1    3    3  502    0  0.81133712197E+03  0.37581643188E+03  0.38496749294E+03  0.97351321336E+03  0.46999998093E+01 0.  1.
       -5    1    3    3    0  502 -0.81133712197E+03 -0.37581643188E+03  0.13267316411E+03  0.90395252886E+03  0.46999998093E+01 0. -1.
</event>
<event>
 5   0  0.1883959E-04  0.1458165E+04  0.7818609E-02  0.8912759E-01
       -1   -1    0    0    0  501  0.00000000000E+00  0.00000000000E+00  0.32258741883E+03  0.32258741887E+03  0.50400001928E-02 0.  1.
        1   -1    0    0  501    0  0.00000000000E+00  0.00000000000E+00 -0.16478065230E+04  0.16478065230E+04  0.50400001928E-02 0. -1.
    10030    2    1    2    0    0  0.00000000000E+00  0.00000000000E+00 -0.13252191042E+04  0.19703939419E+04  0.14581654954E+04 0.  0.
        5    1    3    3  502    0  0.56286663529E+03  0.41058869561E+02 -0.12863036114E+04  0.14046721149E+04  0.46999998093E+01 0. -1.
       -5    1    3    3    0  502 -0.56286663529E+03 -0.41058869561E+02 -0.38915492819E+02  0.56572182694E+03  0.46999998093E+01 0.  1.
</event>
<event>
 5   0  0.3582186E-04  0.1779542E+04  0.7818609E-02  0.8717255E-01
        2   -1    0    0  501    0  0.00000000000E+00  0.00000000000E+00  0.91265211531E+03  0.91265211532E+03  0.25500000920E-02 0.  1.
       -2   -1    0    0    0  501  0.00000000000E+00  0.00000000000E+00 -0.86746354580E+03  0.86746354580E+03  0.25500000920E-02 0. -1.
    10030    2    1    2    0    0  0.00000000000E+00  0.00000000000E+00  0.45188569515E+02  0.17801156611E+04  0.17795420085E+04 0.  0.
        4    1    3    3  502    0  0.24311338419E+03  0.19414290307E+03  0.85646677343E+03  0.91122583989E+03  0.12699999809E+01 0.  1.
       -4    1    3    3    0  502 -0.24311338419E+03 -0.19414290307E+03 -0.81127820392E+03  0.86888982123E+03  0.12699999809E+01 0. -1.
</event>
<event>
 5   0  0.1825253E-04  0.1819821E+04  0.7818609E-02  0.8695829E-01
        1   -1    0    0  501    0  0.00000000000E+00  0.00000000000E+00  0.96214017649E+03  0.96214017650E+03  0.50400001928E-02 0.  1.
       -1   -1    0    0    0  501  0.00000000000E+00  0.00000000000E+00 -0.86051655934E+03  0.86051655935E+03  0.50400001928E-02 0. -1.
    10030    2    1    2    0    0  0.00000000000E+00  0.00000000000E+00  0.10162361715E+03  0.18226567359E+04  0.18198214795E+04 0.  0.
        4    1    3    3  502    0 -0.75166709881E+03 -0.37411696997E+03 -0.30040389894E+03  0.89174606815E+03  0.12699999809E+01 0. -1.
       -4    1    3    3    0  502  0.75166709881E+03  0.37411696997E+03  0.40202751609E+03  0.93091066771E+03  0.12699999809E+01 0.  1.
</event>
<event>
 5   0  0.3582186E-04  0.1897281E+04  0.7818609E-02  0.8656211E-01
        2   -1    0    0  501    0  0.00000000000E+00  0.00000000000E+00  0.95510543631E+03  0.95510543632E+03  0.25500000920E-02 0.  1.
       -2   -1    0    0    0  501  0.00000000000E+00  0.00000000000E+00 -0.94221945427E+03  0.94221945427E+03  0.25500000920E-02 0. -1.
    10030    2    1    2    0    0  0.00000000000E+00  0.00000000000E+00  0.12885982049E+02  0.18973248906E+04  0.18972811315E+04 0.  0.
        4    1    3    3  502    0 -0.91786196839E+03  0.44755288721E+02 -0.22902725921E+03  0.94706321185E+03  0.12699999809E+01 0.  1.
       -4    1    3    3    0  502  0.91786196839E+03 -0.44755288721E+02  0.24191324126E+03  0.95026167874E+03  0.12699999809E+01 0. -1.
</event>
<event>
 5   0  0.1818778E-04  0.1753619E+04  0.7818609E-02  0.8731361E-01
       -1   -1    0    0    0  501  0.00000000000E+00  0.00000000000E+00  0.40835498558E+03  0.40835498562E+03  0.50400001928E-02 0.  1.
        1   -1    0    0  501    0  0.00000000000E+00  0.00000000000E+00 -0.18826631244E+04  0.18826631244E+04  0.50400001928E-02 0. -1.
    10030    2    1    2    0    0  0.00000000000E+00  0.00000000000E+00 -0.14743081388E+04  0.22910181100E+04  0.17536189701E+04 0.  0.
        3    1    3    3  502    0  0.44130212339E+02 -0.75228690719E+03 -0.15156089525E+03  0.76867013832E+03  0.10100000352E+00 0.  1.
       -3    1    3    3    0  502 -0.44130212339E+02  0.75228690719E+03 -0.13227472435E+04  0.15223479717E+04  0.10100000352E+00 0. -1.
</event>
<event>
 5   0  0.1825253E-04  0.1801676E+04  0.7818609E-02  0.8705409E-01
       -1   -1    0    0    0  501  0.00000000000E+00  0.00000000000E+00  0.54573598926E+03  0.54573598929E+03  0.50400001928E-02 0.  1.
        1   -1    0    0  501    0  0.00000000000E+00  0.00000000000E+00 -0.14869991255E+04  0.14869991255E+04  0.50400001928E-02 0. -1.
    10030    2    1    2    0    0  0.00000000000E+00  0.00000000000E+00 -0.94126313622E+03  0.20327351148E+04  0.18016758186E+04 0.  0.
        4    1    3    3  502    0  0.74049476785E+03 -0.20644716385E+03 -0.10004926188E+04  0.12617210571E+04  0.12699999809E+01 0. -1.
       -4    1    3    3    0  502 -0.74049476785E+03  0.20644716385E+03  0.59229482585E+02  0.77101405771E+03  0.12699999809E+01 0.  1.
</event>
<event>
 5   0  0.1835421E-04  0.1807281E+04  0.7818609E-02  0.8702437E-01
        1   -1    0    0  501    0  0.00000000000E+00  0.00000000000E+00  0.18520086180E+04  0.18520086181E+04  0.50400001928E-02 0.  1.
       -1   -1    0    0    0  501  0.00000000000E+00  0.00000000000E+00 -0.44090858578E+03  0.44090858581E+03  0.50400001928E-02 0. -1.
    10030    2    1    2    0    0  0.00000000000E+00  0.00000000000E+00  0.14111000323E+04  0.22929172039E+04  0.18072813845E+04 0.  0.
        2    1    3    3  502    0 -0.55705335842E+03 -0.66965159985E+03  0.40046587356E+03  0.95870466005E+03  0.25500000920E-02 0. -1.
       -2    1    3    3    0  502  0.55705335842E+03  0.66965159985E+03  0.10106341587E+04  0.13342125438E+04  0.25500000920E-02 0.  1.
</event>
<event>
 5   0  0.3568870E-04  0.1814768E+04  0.7818609E-02  0.8698485E-01
        2   -1    0    0  501    0  0.00000000000E+00  0.00000000000E+00  0.86496288799E+03  0.86496288800E+03  0.25500000920E-02 0.  1.
       -2   -1    0    0    0  501  0.00000000000E+00  0.00000000000E+00 -0.95188564695E+03  0.95188564695E+03  0.25500000920E-02 0. -1.
    10030    2    1    2    0    0  0.00000000000E+00  0.00000000000E+00 -0.86922758956E+02  0.18168485349E+04  0.18147680383E+04 0.  0.
        1    1    3    3  502    0  0.77391856555E+03  0.38559181973E+03 -0.31893998636E+03  0.92160388046E+03  0.50400001928E-02 0. -1.
       -1    1    3    3    0  502 -0.77391856555E+03 -0.38559181973E+03  0.23201722740E+03  0.89524465449E+03  0.50400001928E-02 0.  1.
</event>
<event>
 5   0  0.1837313E-04  0.1795933E+04  0.7818609E-02  0.8708465E-01
       -1   -1    0    0    0  501  0.00000000000E+00  0.00000000000E+00  0.10300979034E+04  0.10300979034E+04  0.50400001928E-02 0.  1.
        1   -1    0    0  501    0  0.00000000000E+00  0.00000000000E+00 -0.78278387481E+03  0.78278387483E+03  0.50400001928E-02 0. -1.
    10030    2    1    2    0    0  0.00000000000E+00  0.00000000000E+00  0.24731402856E+03  0.18128817782E+04  0.17959332151E+04 0.  0.
        1    1    3    3  502    0  0.30269227197E+03  0.26058403543E+03 -0.68818241578E+03  0.79568944221E+03  0.50400001928E-02 0. -1.
       -1    1    3    3    0  502 -0.30269227197E+03 -0.26058403543E+03  0.93549644434E+03  0.10171923360E+04  0.50400001928E-02 0.  1.
</event>
<event>
 5   0  0.3568870E-04  0.1798692E+04  0.7818609E-02  0.8706995E-01
       -2   -1    0    0    0  501  0.00000000000E+00  0.00000000000E+00  0.15824194141E+04  0.15824194141E+04  0.25500000920E-02 0. -1.
        2   -1    0    0  501    0  0.00000000000E+00  0.00000000000E+00 -0.51113083080E+03  0.51113083080E+03  0.25500000920E-02 0.  1.
    10030    2    1    2    0    0  0.00000000000E+00  0.00000000000E+00  0.10712885833E+04  0.20935502449E+04  0.17986921358E+04 0.  0.
        1    1    3    3  502    0 -0.27786083051E+03 -0.25512207541E+03 -0.41460207839E+03  0.56052546590E+03  0.50400001928E-02 0.  1.
       -1    1    3    3    0  502  0.27786083051E+03  0.25512207541E+03  0.14858906617E+04  0.15330247790E+04  0.50400001928E-02 0. -1.
</event>
<event>
 5   0  0.3628581E-04  0.1838211E+04  0.7818609E-02  0.8686239E-01
        2   -1    0    0  501    0  0.00000000000E+00  0.00000000000E+00  0.11970436469E+04  0.11970436469E+04  0.25500000920E-02 0. -1.
       -2   -1    0    0    0  501  0.00000000000E+00  0.00000000000E+00 -0.70570093236E+03  0.70570093237E+03  0.25500000920E-02 0.  1.
    10030    2    1    2    0    0  0.00000000000E+00  0.00000000000E+00  0.49134271456E+03  0.19027445793E+04  0.18382108886E+04 0.  0.
        2    1    3    3  502    0 -0.27896521931E+03  0.49698913380E+03 -0.50070813174E+03  0.75863589811E+03  0.25500000920E-02 0.  1.
       -2    1    3    3    0  502  0.27896521931E+03 -0.49698913380E+03  0.99205084629E+03  0.11441086812E+04  0.25500000920E-02 0. -1.
</event>
<event>
 5   0  0.3582186E-04  0.1757832E+04  0.7818609E-02  0.8729051E-01
        2   -1    0    0  501    0  0.00000000000E+00  0.00000000000E+00  0.10321532985E+04  0.10321532985E+04  0.25500000920E-02 0.  1.
       -2   -1    0    0    0  501  0.00000000000E+00  0.00000000000E+00 -0.74842880440E+03  0.74842880440E+03  0.25500000920E-02 0. -1.
    10030    2    1    2    0    0  0.00000000000E+00  0.00000000000E+00  0.28372449408E+03  0.17805821029E+04  0.17578319136E+04 0.  0.
        4    1    3    3  502    0 -0.55930867513E+03 -0.22211521602E+03  0.79072290685E+03  0.99368289287E+03  0.12699999809E+01 0.  1.
       -4    1    3    3    0  502  0.55930867513E+03  0.22211521602E+03 -0.50699841277E+03  0.78689921001E+03  0.12699999809E+01 0. -1.
</event>
<event>
 5   0  0.1835421E-04  0.1809037E+04  0.7818609E-02  0.8701508E-01
        1   -1    0    0  501    0  0.00000000000E+00  0.00000000000E+00  0.65161778629E+03  0.65161778631E+03  0.50400001928E-02 0. -1.
       -1   -1    0    0    0  501  0.00000000000E+00  0.00000000000E+00 -0.12555729897E+04  0.12555729897E+04  0.50400001928E-02 0.  1.
    10030    2    1    2    0    0  0.00000000000E+00  0.00000000000E+00 -0.60395520345E+03  0.19071907761E+04  0.18090369727E+04 0.  0.
        2    1    3    3  502    0  0.29261877212E+02 -0.33619248547E+02  0.65045939801E+03  0.65198461623E+03  0.25500000920E-02 0. -1.
       -2    1    3    3    0  502 -0.29261877212E+02  0.33619248547E+02 -0.12544146015E+04  0.12552061598E+04  0.25500000920E-02 0.  1.
</event>
<event>
 5   0  0.1837313E-04  0.1788703E+04  0.7818609E-02  0.8712330E-01
       -1   -1    0    0    0  501  0.00000000000E+00  0.00000000000E+00  0.41538072302E+03  0.41538072305E+03  0.50400001928E-02 0. -1.
        1   -1    0    0  501    0  0.00000000000E+00  0.00000000000E+00 -0.19256185219E+04  0.19256185219E+04  0.50400001928E-02 0.  1.
    10030    2    1    2    0    0  0.00000000000E+00  0.00000000000E+00 -0.15102377988E+04  0.23409992449E+04  0.17887032330E+04 0.  0.
        1    1    3    3  502    0 -0.99896505378E+02  0.29042484358E+03  0.34419942511E+03  0.46130157796E+03  0.50400001928E-02 0. -1.
       -1    1    3    3    0  502  0.99896505378E+02 -0.29042484358E+03 -0.18544372240E+04  0.18796976670E+04  0.50400001928E-02 0.  1.
</event>
<event>
 5   0  0.3582186E-04  0.1824695E+04  0.7818609E-02  0.8693276E-01
        2   -1    0    0  501    0  0.00000000000E+00  0.00000000000E+00  0.17517274953E+04  0.17517274953E+04  0.25500000920E-02 0.  1.
       -2   -1    0    0    0  501  0.00000000000E+00  0.00000000000E+00 -0.47517531263E+03  0.47517531264E+03  0.25500000920E-02 0. -1.
    10030    2    1    2    0    0  0.00000000000E+00  0.00000000000E+00  0.12765521826E+04  0.22269028079E+04  0.18246946706E+04 0.  0.
        4    1    3    3  502    0  0.72167066255E+03 -0.51823453798E+03  0.89135015531E+03  0.12585238551E+04  0.12699999809E+01 0. -1.
       -4    1    3    3    0  502 -0.72167066255E+03  0.51823453798E+03  0.38520202734E+03  0.96837895284E+03  0.12699999809E+01 0.  1.
</event>
<event>
 5   0  0.3531266E-04  0.1802371E+04  0.7818609E-02  0.8705039E-01
       -2   -1    0    0    0  501  0.00000000000E+00  0.00000000000E+00  0.40998185863E+03  0.40998185864E+03  0.25500000920E-02 0.  1.
        2   -1    0    0  501    0  0.00000000000E+00  0.00000000000E+00 -0.19809062861E+04  0.19809062861E+04  0.25500000920E-02 0. -1.
    10030    2    1    2    0    0  0.00000000000E+00  0.00000000000E+00 -0.15709244275E+04  0.23908881448E+04  0.18023713724E+04 0.  0.
        3    1    3    3  502    0 -0.64573143792E+03 -0.55761872653E+03 -0.40047796981E+03  0.94249156420E+03  0.10100000352E+00 0.  1.
       -3    1    3    3    0  502  0.64573143792E+03  0.55761872653E+03 -0.11704464577E+04  0.14483965806E+04  0.10100000352E+00 0. -1.
</event>
<event>
 5   0  0.1835421E-04  0.1812500E+04  0.7818609E-02  0.8699680E-01
       -1   -1    0    0    0  501  0.00000000000E+00  0.00000000000E+00  0.13257612758E+04  0.13257612758E+04  0.50400001928E-02 0.  1.
        1   -1    0    0  501    0  0.00000000000E+00  0.00000000000E+00 -0.61948475967E+03  0.61948475970E+03  0.50400001928E-02 0. -1.
    10030    2    1    2    0    0  0.00000000000E+00  0.00000000000E+00  0.70627651615E+03  0.19452460355E+04  0.18124998266E+04 0.  0.
        2    1    3    3  502    0 -0.45770191993E+03 -0.56484610760E+02  0.11904075448E+04  0.12766172808E+04  0.25500000920E-02 0.  1.
       -2    1    3    3    0  502  0.45770191993E+03  0.56484610760E+02 -0.48413102868E+03  0.66862875476E+03  0.25500000920E-02 0. -1.
</event>
<event>
 5   0  0.1330125E-04  0.1792891E+04  0.7818609E-02  0.8710089E-01
        3   -1    0    0  501    0  0.00000000000E+00  0.00000000000E+00  0.40832284406E+03  0.40832285655E+03  0.10100000352E+00 0. -1.
       -3   -1    0    0    0  501  0.00000000000E+00  0.00000000000E+00 -0.19680853498E+04  0.19680853524E+04  0.10100000352E+00 0.  1.
    10030    2    1    2    0    0  0.00000000000E+00  0.00000000000E+00 -0.15597625058E+04  0.23764082090E+04  0.17928906551E+04 0.  0.
        3    1    3    3  502    0 -0.88896715279E+03 -0.11353986231E+03 -0.75144349929E+03  0.11695389014E+04  0.10100000352E+00 0. -1.
       -3    1    3    3    0  502  0.88896715279E+03  0.11353986231E+03 -0.80831900647E+03  0.12068693076E+04  0.10100000352E+00 0.  1.
</event>
<event>
 5   0  0.1818778E-04  0.1862372E+04  0.7818609E-02  0.8673816E-01
        1   -1    0    0  501    0  0.00000000000E+00  0.00000000000E+00  0.21802954751E+04  0.21802954751E+04  0.50400001928E-02 0.  1.
       -1   -1    0    0    0  501  0.00000000000E+00  0.00000000000E+00 -0.39770193638E+03  0.39770193641E+03  0.50400001928E-02 0. -1.
    10030    2    1    2    0    0  0.00000000000E+00  0.00000000000E+00  0.17825935387E+04  0.25779974115E+04  0.18623723928E+04 0.  0.
        3    1    3    3  502    0 -0.77619019618E+03 -0.51170269230E+03  0.81809003680E+03  0.12383788534E+04  0.10100000352E+00 0.  1.
       -3    1    3    3    0  502  0.77619019618E+03  0.51170269230E+03  0.96450350193E+03  0.13396185582E+04  0.10100000352E+00 0. -1.
</event>
<event>
 5   0  0.3628581E-04  0.1691039E+04  0.7818609E-02  0.8766492E-01
        2   -1    0    0  501    0  0.00000000000E+00  0.00000000000E+00  0.68992360439E+03  0.68992360439E+03  0.25500000920E-02 0.  1.
       -2   -1    0    0    0  501  0.00000000000E+00  0.00000000000E+00 -0.10362057964E+04  0.10362057964E+04  0.25500000920E-02 0. -1.
    10030    2    1    2    0    0  0.00000000000E+00  0.00000000000E+00 -0.34628219203E+03  0.17261294008E+04  0.16910385424E+04 0.  0.
        2    1    3    3  502    0 -0.43035467972E+03  0.66404733439E+03 -0.47721327150E+03  0.92406521370E+03  0.25500000920E-02 0. -1.
       -2    1    3    3    0  502  0.43035467972E+03 -0.66404733439E+03  0.13093107947E+03  0.80206418711E+03  0.25500000920E-02 0.  1.
</event>
<event>
 5   0  0.3582186E-04  0.1811407E+04  0.7818609E-02  0.8700257E-01
        2   -1    0    0  501    0  0.00000000000E+00  0.00000000000E+00  0.10172041995E+04  0.10172041995E+04  0.25500000920E-02 0. -1.
       -2   -1    0    0    0  501  0.00000000000E+00  0.00000000000E+00 -0.80642500978E+03  0.80642500979E+03  0.25500000920E-02 0.  1.
    10030    2    1    2    0    0  0.00000000000E+00  0.00000000000E+00  0.21077918970E+03  0.18236292093E+04  0.18114070846E+04 0.  0.
        4    1    3    3  502    0  0.77722713518E+03  0.33346295214E+02  0.57231124626E+03  0.96578246545E+03  0.12699999809E+01 0. -1.
       -4    1    3    3    0  502 -0.77722713518E+03 -0.33346295214E+02 -0.36153205656E+03  0.85784674382E+03  0.12699999809E+01 0.  1.
</event>
<event>
 5   0  0.1837313E-04  0.1786870E+04  0.7818609E-02  0.8713313E-01
       -1   -1    0    0    0  501  0.00000000000E+00  0.00000000000E+00  0.59111177455E+03  0.59111177457E+03  0.50400001928E-02 0. -1.
        1   -1    0    0  501    0  0.00000000000E+00  0.00000000000E+00 -0.13503817135E+04  0.13503817135E+04  0.50400001928E-02 0.  1.
    10030    2    1    2    0    0  0.00000000000E+00  0.00000000000E+00 -0.75926993896E+03  0.19414934881E+04  0.17868704833E+04 0.  0.
        1    1    3    3  502    0  0.18507785047E+03 -0.26383355511E+03  0.52575700686E+03  0.61667040291E+03  0.50400001928E-02 0. -1.
       -1    1    3    3    0  502 -0.18507785047E+03  0.26383355511E+03 -0.12850269458E+04  0.13248230852E+04  0.50400001928E-02 0.  1.
</event>
<event>
 5   0  0.1837313E-04  0.1526933E+04  0.7818609E-02  0.8866738E-01
        1   -1    0    0  501    0  0.00000000000E+00  0.00000000000E+00  0.11959966810E+04  0.11959966810E+04  0.50400001928E-02 0.  1.
       -1   -1    0    0    0  501  0.00000000000E+00  0.00000000000E+00 -0.48735983843E+03  0.48735983846E+03  0.50400001928E-02 0. -1.
    10030    2    1    2    0    0  0.00000000000E+00  0.00000000000E+00  0.70863684252E+03  0.16833565194E+04  0.15269325450E+04 0.  0.
        1    1    3    3  502    0 -0.42642490163E+03  0.61618086968E+03  0.51545508597E+03  0.90951141090E+03  0.50400001928E-02 0.  1.
       -1    1    3    3    0  502  0.42642490163E+03 -0.61618086968E+03  0.19318175655E+03  0.77384510852E+03  0.50400001928E-02 0. -1.
</event>
<event>
 5   0  0.3531266E-04  0.1796965E+04  0.7818609E-02  0.8707915E-01
       -2   -1    0    0    0  501  0.00000000000E+00  0.00000000000E+00  0.53274422249E+03  0.53274422249E+03  0.25500000920E-02 0.  1.
        2   -1    0    0  501    0  0.00000000000E+00  0.00000000000E+00 -0.15153069392E+04  0.15153069392E+04  0.25500000920E-02 0. -1.
    10030    2    1    2    0    0  0.00000000000E+00  0.00000000000E+00 -0.98256271668E+03  0.20480511617E+04  0.17969652386E+04 0.  0.
        3    1    3    3  502    0  0.24608244880E+03 -0.67837515043E+03 -0.11013515451E+04  0.13167097829E+04  0.10100000352E+00 0. -1.
       -3    1    3    3    0  502 -0.24608244880E+03  0.67837515043E+03  0.11878882840E+03  0.73134137876E+03  0.10100000352E+00 0.  1.
</event>
<event>
 5   0  0.1825253E-04  0.1789976E+04  0.7818609E-02  0.8711649E-01
        1   -1    0    0  501    0  0.00000000000E+00  0.00000000000E+00  0.63621546903E+03  0.63621546905E+03  0.50400001928E-02 0.  1.
       -1   -1    0    0    0  501  0.00000000000E+00  0.00000000000E+00 -0.12590125081E+04  0.12590125082E+04  0.50400001928E-02 0. -1.
    10030    2    1    2    0    0  0.00000000000E+00  0.00000000000E+00 -0.62279703911E+03  0.18952279772E+04  0.17899756796E+04 0.  0.
        4    1    3    3  502    0 -0.50889262407E+03  0.42591901098E+02  0.46681359761E+03  0.69188316983E+03  0.12699999809E+01 0.  1.
       -4    1    3    3    0  502  0.50889262407E+03 -0.42591901098E+02 -0.10896106367E+04  0.12033448074E+04  0.12699999809E+01 0. -1.
</event>
<event>
 5   0  0.1837313E-04  0.1730455E+04  0.7818609E-02  0.8744183E-01
        1   -1    0    0  501    0  0.00000000000E+00  0.00000000000E+00  0.15683729021E+04  0.15683729021E+04  0.50400001928E-02 0.  1.
       -1   -1    0    0    0  501  0.00000000000E+00  0.00000000000E+00 -0.47732166217E+03  0.47732166220E+03  0.50400001928E-02 0. -1.
    10030    2    1    2    0    0  0.00000000000E+00  0.00000000000E+00  0.10910512400E+04  0.20456945643E+04  0.17304546924E+04 0.  0.
        1    1    3    3  502    0 -0.33962852436E+03  0.48503885428E+03 -0.20028151389E+03  0.62507832273E+03  0.50400001928E-02 0. -1.
       -1    1    3    3    0  502  0.33962852436E+03 -0.48503885428E+03  0.12913327538E+04  0.14206162416E+04  0.50400001928E-02 0.  1.
</event>
<event>
 5   0  0.1837313E-04  0.1789056E+04  0.7818609E-02  0.8712141E-01
        1   -1    0    0  501    0  0.00000000000E+00  0.00000000000E+00  0.94153718740E+03  0.94153718741E+03  0.50400001928E-02 0.  1.
       -1   -1    0    0    0  501  0.00000000000E+00  0.00000000000E+00 -0.84986549315E+03  0.84986549316E+03  0.50400001928E-02 0. -1.
    10030    2    1    2    0    0  0.00000000000E+00  0.00000000000E+00  0.91671694251E+02  0.17914026806E+04  0.17890555789E+04 0.  0.
        1    1    3    3  502    0 -0.51476789597E+03  0.16069263705E+03 -0.66880339397E+03  0.85913100871E+03  0.50400001928E-02 0. -1.
       -1    1    3    3    0  502  0.51476789597E+03 -0.16069263705E+03  0.76047508822E+03  0.93227167186E+03  0.50400001928E-02 0.  1.
</event>
<event>
 5   0  0.1818778E-04  0.1808632E+04  0.7818609E-02  0.8701722E-01
       -1   -1    0    0    0  501  0.00000000000E+00  0.00000000000E+00  0.10901932148E+04  0.10901932148E+04  0.50400001928E-02 0.  1.
        1   -1    0    0  501    0  0.00000000000E+00  0.00000000000E+00 -0.75013086208E+03  0.75013086209E+03  0.50400001928E-02 0. -1.
    10030    2    1    2    0    0  0.00000000000E+00  0.00000000000E+00  0.34006235275E+03  0.18403240769E+04  0.18086321639E+04 0.  0.
        3    1    3    3  502    0 -0.79856688905E+03  0.24593061824E+03  0.52191841098E+03  0.98518515173E+03  0.10100000352E+00 0.  1.
       -3    1    3    3    0  502  0.79856688905E+03 -0.24593061824E+03 -0.18185605824E+03  0.85513892520E+03  0.10100000352E+00 0. -1.
</event>
<event>
 5   0  0.3575091E-04  0.1816377E+04  0.7818609E-02  0.8697639E-01
       -2   -1    0    0    0  501  0.00000000000E+00  0.00000000000E+00  0.59590220218E+03  0.59590220219E+03  0.25500000920E-02 0.  1.
        2   -1    0    0  501    0  0.00000000000E+00  0.00000000000E+00 -0.13841304952E+04  0.13841304952E+04  0.25500000920E-02 0. -1.
    10030    2    1    2    0    0  0.00000000000E+00  0.00000000000E+00 -0.78822829297E+03  0.19800326973E+04  0.18163770646E+04 0.  0.
        5    1    3    3  502    0 -0.37914661383E+03 -0.11122355429E+03 -0.12855077377E+04  0.13448699072E+04  0.46999998093E+01 0. -1.
       -5    1    3    3    0  502  0.37914661383E+03  0.11122355429E+03  0.49727944470E+03  0.63516279010E+03  0.46999998093E+01 0.  1.
</event>
<event>
 5   0  0.1825253E-04  0.1808288E+04  0.7818609E-02  0.8701905E-01
        1   -1    0    0  501    0  0.00000000000E+00  0.00000000000E+00  0.57658729131E+03  0.57658729133E+03  0.50400001928E-02 0. -1.
       -1   -1    0    0    0  501  0.00000000000E+00  0.00000000000E+00 -0.14177836856E+04  0.14177836856E+04  0.50400001928E-02 0.  1.
    10030    2    1    2    0    0  0.00000000000E+00  0.00000000000E+00 -0.84119639426E+03  0.19943709769E+04  0.18082876485E+04 0.  0.
        4    1    3    3  502    0  0.22838720506E+03 -0.58050578992E+03  0.30121701558E+03  0.69273443031E+03  0.12699999809E+01 0. -1.
       -4    1    3    3    0  502 -0.22838720506E+03  0.58050578992E+03 -0.11424134098E+04  0.13016365466E+04  0.12699999809E+01 0.  1.
</event>
<event>
 5   0  0.1837313E-04  0.1758095E+04  0.7818609E-02  0.8728907E-01
        1   -1    0    0  501    0  0.00000000000E+00  0.00000000000E+00  0.21132542706E+04  0.21132542706E+04  0.50400001928E-02 0. -1.
       -1   -1    0    0    0  501  0.00000000000E+00  0.00000000000E+00 -0.36565633627E+03  0.36565633630E+03  0.50400001928E-02 0.  1.
    10030    2    1    2    0    0  0.00000000000E+00  0.00000000000E+00  0.17475979343E+04  0.24789106069E+04  0.17580953492E+04 0.  0.
        1    1    3    3  502    0  0.76356957228E+03 -0.25740355306E+01  0.14878844973E+04  0.16723771688E+04  0.50400001928E-02 0. -1.
       -1    1    3    3    0  502 -0.76356957228E+03  0.25740355306E+01  0.25971343702E+03  0.80653343810E+03  0.50400001928E-02 0.  1.
</event>
<event>
 5   0  0.1837313E-04  0.1778602E+04  0.7818609E-02  0.8717762E-01
       -1   -1    0    0    0  501  0.00000000000E+00  0.00000000000E+00  0.95515265282E+03  0.95515265283E+03  0.50400001928E-02 0.  1.
        1   -1    0    0  501    0  0.00000000000E+00  0.00000000000E+00 -0.82798900725E+03  0.82798900726E+03  0.50400001928E-02 0. -1.
    10030    2    1    2    0    0  0.00000000000E+00  0.00000000000E+00  0.12716364557E+03  0.17831416601E+04  0.17786015819E+04 0.  0.
        1    1    3    3  502    0 -0.76056203532E+03  0.23194931076E+03  0.46284555794E+03  0.92004407659E+03  0.50400001928E-02 0.  1.
       -1    1    3    3    0  502  0.76056203532E+03 -0.23194931076E+03 -0.33568191237E+03  0.86309758351E+03  0.50400001928E-02 0. -1.
</event>
<event>
 5   0  0.3575091E-04  0.1825713E+04  0.7818609E-02  0.8692744E-01
        2   -1    0    0  501    0  0.00000000000E+00  0.00000000000E+00  0.65798696533E+03  0.65798696534E+03  0.25500000920E-02 0.  1.
       -2   -1    0    0    0  501  0.00000000000E+00  0.00000000000E+00 -0.12664488097E+04  0.12664488097E+04  0.25500000920E-02 0. -1.
    10030    2    1    2    0    0  0.00000000000E+00  0.00000000000E+00 -0.60846184441E+03  0.19244357751E+04  0.18257128023E+04 0.  0.
        5    1    3    3  502    0 -0.33047380730E+01 -0.59445521757E+03  0.42597421549E+03  0.73134400199E+03  0.46999998093E+01 0.  1.
       -5    1    3    3    0  502  0.33047380730E+01  0.59445521757E+03 -0.10344360599E+04  0.11930917731E+04  0.46999998093E+01 0. -1.
</event>
<event>
 5   0  0.3582186E-04  0.1807206E+04  0.7818609E-02  0.8702477E-01
       -2   -1    0    0    0  501  0.00000000000E+00  0.00000000000E+00  0.63735435855E+03  0.63735435855E+03  0.25500000920E-02 0.  1.
        2   -1    0    0  501    0  0.00000000000E+00  0.00000000000E+00 -0.12810746476E+04  0.12810746476E+04  0.25500000920E-02 0. -1.
    10030    2    1    2    0    0  0.00000000000E+00  0.00000000000E+00 -0.64372028909E+03  0.19184290062E+04  0.18072061424E+04 0.  0.
        4    1    3    3  502    0  0.37538960155E+03  0.61205748271E+03  0.26050606272E+03  0.76380412195E+03  0.12699999809E+01 0.  1.
       -4    1    3    3    0  502 -0.37538960155E+03 -0.61205748271E+03 -0.90422635181E+03  0.11546248842E+04  0.12699999809E+01 0. -1.
</event>
<event>
 5   0  0.1883959E-04  0.1787766E+04  0.7818609E-02  0.8712832E-01
       -1   -1    0    0    0  501  0.00000000000E+00  0.00000000000E+00  0.69278428840E+03  0.69278428842E+03  0.50400001928E-02 0.  1.
        1   -1    0    0  501    0  0.00000000000E+00  0.00000000000E+00 -0.11533562153E+04  0.11533562153E+04  0.50400001928E-02 0. -1.
    10030    2    1    2    0    0  0.00000000000E+00  0.00000000000E+00 -0.46057192686E+03  0.18461405037E+04  0.17877662765E+04 0.  0.
        5    1    3    3  502    0 -0.52088281335E+03  0.38672654150E+03  0.40471415025E+03  0.76465152622E+03  0.46999998093E+01 0.  1.
       -5    1    3    3    0  502  0.52088281335E+03 -0.38672654150E+03 -0.86528607711E+03  0.10814889775E+04  0.46999998093E+01 0. -1.
</event>
<event>
 5   0  0.3582186E-04  0.1813702E+04  0.7818609E-02  0.8699047E-01
       -2   -1    0    0    0  501  0.00000000000E+00  0.00000000000E+00  0.39186821253E+03  0.39186821254E+03  0.25500000920E-02 0.  1.
        2   -1    0    0  501    0  0.00000000000E+00  0.00000000000E+00 -0.20986098114E+04  0.20986098114E+04  0.25500000920E-02 0. -1.
    10030    2    1    2    0    0  0.00000000000E+00  0.00000000000E+00 -0.17067415989E+04  0.24904780239E+04  0.18137017126E+04 0.  0.
        4    1    3    3  502    0  0.71426818678E+03  0.33281402439E+03 -0.23708554210E+03  0.82289451612E+03  0.12699999809E+01 0.  1.
       -4    1    3    3    0  502 -0.71426818678E+03 -0.33281402439E+03 -0.14696560568E+04  0.16675835078E+04  0.12699999809E+01 0. -1.
</event>
<event>
 5   0  0.1818778E-04  0.1821454E+04  0.7818609E-02  0.8694973E-01
       -1   -1    0    0    0  501  0.00000000000E+00  0.00000000000E+00  0.65034372823E+03  0.65034372825E+03  0.50400001928E-02 0.  1.
        1   -1    0    0  501    0  0.00000000000E+00  0.00000000000E+00 -0.12753618432E+04  0.12753618432E+04  0.50400001928E-02 0. -1.
    10030    2    1    2    0    0  0.00000000000E+00  0.00000000000E+00 -0.62501811497E+03  0.19257055714E+04  0.18214538984E+04 0.  0.
        3    1    3    3  502    0  0.30917364480E+02 -0.40629927503E+03 -0.11736132413E+04  0.12423377297E+04  0.10100000352E+00 0. -1.
       -3    1    3    3    0  502 -0.30917364480E+02  0.40629927503E+03  0.54859512632E+03  0.68336784175E+03  0.10100000352E+00 0.  1.
</event>
<event>
 5   0  0.3628581E-04  0.1507545E+04  0.7818609E-02  0.8879451E-01
        2   -1    0    0  501    0  0.00000000000E+00  0.00000000000E+00  0.25105139591E+04  0.25105139591E+04  0.25500000920E-02 0. -1.
       -2   -1    0    0    0  501  0.00000000000E+00  0.00000000000E+00 -0.22631739433E+03  0.22631739434E+03  0.25500000920E-02 0.  1.
    10030    2    1    2    0    0  0.00000000000E+00  0.00000000000E+00  0.22841965647E+04  0.27368313534E+04  0.15075449946E+04 0.  0.
        2    1    3    3  502    0  0.38884947421E+03 -0.24278796670E+03  0.55839607014E+02  0.46180945430E+03  0.25500000920E-02 0.  1.
       -2    1    3    3    0  502 -0.38884947421E+03  0.24278796670E+03  0.22283569577E+04  0.22750218991E+04  0.25500000920E-02 0. -1.
</event>
<event>
 5   0  0.3568870E-04  0.1782488E+04  0.7818609E-02  0.8715668E-01
       -2   -1    0    0    0  501  0.00000000000E+00  0.00000000000E+00  0.41864706588E+03  0.41864706588E+03  0.25500000920E-02 0. -1.
        2   -1    0    0  501    0  0.00000000000E+00  0.00000000000E+00 -0.18973392151E+04  0.18973392151E+04  0.25500000920E-02 0.  1.
    10030    2    1    2    0    0  0.00000000000E+00  0.00000000000E+00 -0.14786921492E+04  0.23159862809E+04  0.17824875824E+04 0.  0.
        1    1    3    3  502    0  0.40376460571E+02 -0.98993725267E+02  0.41028524902E+03  0.42398585094E+03  0.50400001928E-02 0. -1.
       -1    1    3    3    0  502 -0.40376460571E+02  0.98993725267E+02 -0.18889773982E+04  0.18920004300E+04  0.50400001928E-02 0.  1.
</event>
<event>
 5   0  0.1825253E-04  0.1808902E+04  0.7818609E-02  0.8701580E-01
        1   -1    0    0  501    0  0.00000000000E+00  0.00000000000E+00  0.78656074035E+03  0.78656074036E+03  0.50400001928E-02 0.  1.
       -1   -1    0    0    0  501  0.00000000000E+00  0.00000000000E+00 -0.10400104148E+04  0.10400104149E+04  0.50400001928E-02 0. -1.
    10030    2    1    2    0    0  0.00000000000E+00  0.00000000000E+00 -0.25344967450E+03  0.18265711552E+04  0.18089017241E+04 0.  0.
        4    1    3    3  502    0 -0.19231645691E+02 -0.78620152327E+03  0.32434551877E+03  0.85069637347E+03  0.12699999809E+01 0.  1.
       -4    1    3    3    0  502  0.19231645691E+02  0.78620152327E+03 -0.57779519327E+03  0.97587478175E+03  0.12699999809E+01 0. -1.
</event>
<event>
 5   0  0.3568870E-04  0.1796862E+04  0.7818609E-02  0.8707970E-01
        2   -1    0    0  501    0  0.00000000000E+00  0.00000000000E+00  0.12583865255E+04  0.12583865255E+04  0.25500000920E-02 0. -1.
       -2   -1    0    0    0  501  0.00000000000E+00  0.00000000000E+00 -0.64143906383E+03  0.64143906384E+03  0.25500000920E-02 0.  1.
    10030    2    1    2    0    0  0.00000000000E+00  0.00000000000E+00  0.61694746163E+03  0.18998255893E+04  0.17968620146E+04 0.  0.
        1    1    3    3  502    0  0.20677050348E+03  0.72394338987E+03 -0.20985249194E+03  0.78159205551E+03  0.50400001928E-02 0.  1.
       -1    1    3    3    0  502 -0.20677050348E+03 -0.72394338987E+03  0.82679995357E+03  0.11182335338E+04  0.50400001928E-02 0. -1.
</event>
<event>
 5   0  0.1330125E-04  0.1799540E+04  0.7818609E-02  0.8706544E-01
        4   -1    0    0  501    0  0.00000000000E+00  0.00000000000E+00  0.12882390231E+04  0.12882396491E+04  0.12699999809E+01 0. -1.
       -4   -1    0    0    0  501  0.00000000000E+00  0.00000000000E+00 -0.62844233690E+03  0.62844362015E+03  0.12699999809E+01 0.  1.
    10030    2    1    2    0    0  0.00000000000E+00  0.00000000000E+00  0.65979668618E+03  0.19166832692E+04  0.17995396877E+04 0.  0.
        1    1    3    3  502    0  0.23150068501E+03 -0.23609289790E+03 -0.56138649724E+03  0.65152683974E+03  0.50400001928E-02 0.  1.
       -1    1    3    3    0  502 -0.23150068501E+03  0.23609289790E+03  0.12211831834E+04  0.12651564295E+04  0.50400001928E-02 0. -1.
</event>
<event>
 5   0  0.3582186E-04  0.1808065E+04  0.7818609E-02  0.8702022E-01
       -2   -1    0    0    0  501  0.00000000000E+00  0.00000000000E+00  0.64338499972E+03  0.64338499972E+03  0.25500000920E-02 0.  1.
        2   -1    0    0  501    0  0.00000000000E+00  0.00000000000E+00 -0.12702735411E+04  0.12702735411E+04  0.25500000920E-02 0. -1.
    10030    2    1    2    0    0  0.00000000000E+00  0.00000000000E+00 -0.62688854137E+03  0.19136585408E+04  0.18080652000E+04 0.  0.
        4    1    3    3  502    0 -0.56896008442E+03  0.33076490973E+03 -0.96944163449E+03  0.11717250952E+04  0.12699999809E+01 0. -1.
       -4    1    3    3    0  502  0.56896008442E+03 -0.33076490973E+03  0.34255309313E+03  0.74193344559E+03  0.12699999809E+01 0.  1.
</event>
<event>
 5   0  0.3531266E-04  0.1793007E+04  0.7818609E-02  0.8710027E-01
        2   -1    0    0  501    0  0.00000000000E+00  0.00000000000E+00  0.23619323486E+04  0.23619323486E+04  0.25500000920E-02 0.  1.
       -2   -1    0    0    0  501  0.00000000000E+00  0.00000000000E+00 -0.34028024948E+03  0.34028024949E+03  0.25500000920E-02 0. -1.
    10030    2    1    2    0    0  0.00000000000E+00  0.00000000000E+00  0.20216520991E+04  0.27022125981E+04  0.17930074499E+04 0.  0.
        3    1    3    3  502    0  0.19033539573E+03  0.36603107318E+03  0.22103669263E+04  0.22485391410E+04  0.10100000352E+00 0.  1.
       -3    1    3    3    0  502 -0.19033539573E+03 -0.36603107318E+03 -0.18871482726E+03  0.45367345704E+03  0.10100000352E+00 0. -1.
</event>
<event>
 5   0  0.1835421E-04  0.1816399E+04  0.7818609E-02  0.8697627E-01
        1   -1    0    0  501    0  0.00000000000E+00  0.00000000000E+00  0.49128945283E+03  0.49128945286E+03  0.50400001928E-02 0. -1.
       -1   -1    0    0    0  501  0.00000000000E+00  0.00000000000E+00 -0.16789018599E+04  0.16789018599E+04  0.50400001928E-02 0.  1.
    10030    2    1    2    0    0  0.00000000000E+00  0.00000000000E+00 -0.11876124070E+04  0.21701913127E+04  0.18163994892E+04 0.  0.
        2    1    3    3  502    0 -0.34188287654E+03 -0.26778991177E+03  0.35919667426E+03  0.56357571711E+03  0.25500000920E-02 0. -1.
       -2    1    3    3    0  502  0.34188287654E+03  0.26778991177E+03 -0.15468090813E+04  0.16066155956E+04  0.25500000920E-02 0.  1.
</event>
<event>
 5   0  0.1825253E-04  0.1793164E+04  0.7818609E-02  0.8709943E-01
       -1   -1    0    0    0  501  0.00000000000E+00  0.00000000000E+00  0.60546978898E+03  0.60546978900E+03  0.50400001928E-02 0. -1.
        1   -1    0    0  501    0  0.00000000000E+00  0.00000000000E+00 -0.13276619448E+04  0.13276619449E+04  0.50400001928E-02 0.  1.
    10030    2    1    2    0    0  0.00000000000E+00  0.00000000000E+00 -0.72219215587E+03  0.19331317339E+04  0.17931639051E+04 0.  0.
        4    1    3    3  502    0  0.58653957096E+03 -0.67288869319E+03 -0.45161252275E+03  0.10003815999E+04  0.12699999809E+01 0.  1.
       -4    1    3    3    0  502 -0.58653957096E+03  0.67288869319E+03 -0.27057963312E+03  0.93275013400E+03  0.12699999809E+01 0. -1.
</event>
<event>
 5   0  0.1818778E-04  0.1821161E+04  0.7818609E-02  0.8695127E-01
       -1   -1    0    0    0  501  0.00000000000E+00  0.00000000000E+00  0.86165225162E+03  0.86165225163E+03  0.50400001928E-02 0. -1.
        1   -1    0    0  501    0  0.00000000000E+00  0.00000000000E+00 -0.96228661282E+03  0.96228661283E+03  0.50400001928E-02 0.  1.
    10030    2    1    2    0    0  0.00000000000E+00  0.00000000000E+00 -0.10063436120E+03  0.18239388645E+04  0.18211605384E+04 0.  0.
        3    1    3    3  502    0  0.15651219246E+03  0.65862867180E+03 -0.66023608128E+03  0.94562121747E+03  0.10100000352E+00 0.  1.
       -3    1    3    3    0  502 -0.15651219246E+03 -0.65862867180E+03  0.55960172008E+03  0.87831764699E+03  0.10100000352E+00 0. -1.
</event>
<event>
 5   0  0.1818778E-04  0.1806644E+04  0.7818609E-02  0.8702774E-01
       -1   -1    0    0    0  501  0.00000000000E+00  0.00000000000E+00  0.12677843249E+04  0.12677843249E+04  0.50400001928E-02 0. -1.
        1   -1    0    0  501    0  0.00000000000E+00  0.00000000000E+00 -0.64363543755E+03  0.64363543757E+03  0.50400001928E-02 0.  1.
    10030    2    1    2    0    0  0.00000000000E+00  0.00000000000E+00  0.62414888738E+03  0.19114197625E+04  0.18066443133E+04 0.  0.
        3    1    3    3  502    0  0.85004428412E+03  0.12875377512E+03  0.18801707551E+02  0.85994554129E+03  0.10100000352E+00 0.  1.
       -3    1    3    3    0  502 -0.85004428412E+03 -0.12875377512E+03  0.60534717982E+03  0.10514742212E+04  0.10100000352E+00 0. -1.
</event>
<event>
 5   0  0.3568870E-04  0.1806126E+04  0.7818609E-02  0.8703049E-01
       -2   -1    0    0    0  501  0.00000000000E+00  0.00000000000E+00  0.50455969287E+03  0.50455969287E+03  0.25500000920E-02 0. -1.
        2   -1    0    0  501    0  0.00000000000E+00  0.00000000000E+00 -0.16163053187E+04  0.16163053187E+04  0.25500000920E-02 0.  1.
    10030    2    1    2    0    0  0.00000000000E+00  0.00000000000E+00 -0.11117456258E+04  0.21208650116E+04  0.18061257046E+04 0.  0.
        1    1    3    3  502    0  0.75142719185E+02 -0.61116796160E+03 -0.13315525550E+04  0.14670395060E+04  0.50400001928E-02 0.  1.
       -1    1    3    3    0  502 -0.75142719185E+02  0.61116796160E+03  0.21980692918E+03  0.65382550552E+03  0.50400001928E-02 0. -1.
</event>
<event>
 5   0  0.3531266E-04  0.1852354E+04  0.7818609E-02  0.8678943E-01
       -2   -1    0    0    0  501  0.00000000000E+00  0.00000000000E+00  0.41486016933E+03  0.41486016934E+03  0.25500000920E-02 0.  1.
        2   -1    0    0  501    0  0.00000000000E+00  0.00000000000E+00 -0.20676940176E+04  0.20676940176E+04  0.25500000920E-02 0. -1.
    10030    2    1    2    0    0  0.00000000000E+00  0.00000000000E+00 -0.16528338483E+04  0.24825541870E+04  0.18523540593E+04 0.  0.
        3    1    3    3  502    0  0.38978181121E+03  0.66607369579E+03 -0.15127066840E+04  0.16981947917E+04  0.10100000352E+00 0. -1.
       -3    1    3    3    0  502 -0.38978181121E+03 -0.66607369579E+03 -0.14012716431E+03  0.78435939527E+03  0.10100000352E+00 0.  1.
</event>
<event>
 5   0  0.3628581E-04  0.1795495E+04  0.7818609E-02  0.8708699E-01
        2   -1    0    0  501    0  0.00000000000E+00  0.00000000000E+00  0.16433974188E+04  0.16433974188E+04  0.25500000920E-02 0.  1.
       -2   -1    0    0    0  501  0.00000000000E+00  0.00000000000E+00 -0.49041733952E+03  0.49041733953E+03  0.25500000920E-02 0. -1.
    10030    2    1    2    0    0  0.00000000000E+00  0.00000000000E+00  0.11529800793E+04  0.21338147583E+04  0.17954950180E+04 0.  0.
        2    1    3    3  502    0 -0.67047847433E+03  0.57712080070E+03  0.75805425434E+03  0.11650133285E+04  0.25500000920E-02 0. -1.
       -2    1    3    3    0  502  0.67047847433E+03 -0.57712080070E+03  0.39492582492E+03  0.96880142978E+03  0.25500000920E-02 0.  1.
</event>
<event>
 5   0  0.1837313E-04  0.1530369E+04  0.7818609E-02  0.8864505E-01
        1   -1    0    0  501    0  0.00000000000E+00  0.00000000000E+00  0.86690547351E+03  0.86690547352E+03  0.50400001928E-02 0. -1.
       -1   -1    0    0    0  501  0.00000000000E+00  0.00000000000E+00 -0.67539964288E+03  0.67539964290E+03  0.50400001928E-02 0.  1.
    10030    2    1    2    0    0  0.00000000000E+00  0.00000000000E+00  0.19150583063E+03  0.15423051164E+04  0.15303694289E+04 0.  0.
        1    1    3    3  502    0  0.52650558797E+03  0.28114090874E+03  0.57829756112E+03  0.83106943991E+03  0.50400001928E-02 0. -1.
       -1    1    3    3    0  502 -0.52650558797E+03 -0.28114090874E+03 -0.38679173050E+03  0.71123567651E+03  0.50400001928E-02 0.  1.
</event>
<event>
 5   0  0.3628581E-04  0.1820216E+04  0.7818609E-02  0.8695622E-01
       -2   -1    0    0    0  501  0.00000000000E+00  0.00000000000E+00  0.80712684612E+03  0.80712684612E+03  0.25500000920E-02 0.  1.
        2   -1    0    0  501    0  0.00000000000E+00  0.00000000000E+00 -0.10262282150E+04  0.10262282150E+04  0.25500000920E-02 0. -1.
    10030    2    1    2    0    0  0.00000000000E+00  0.00000000000E+00 -0.21910136889E+03  0.18333550611E+04  0.18202157483E+04 0.  0.
        2    1    3    3  502    0  0.99333418311E+02 -0.20546459070E+03 -0.99694024403E+03  0.10227280558E+04  0.25500000920E-02 0. -1.
       -2    1    3    3    0  502 -0.99333418311E+02  0.20546459070E+03  0.77783887514E+03  0.81062700530E+03  0.25500000920E-02 0.  1.
</event>
<event>
 5   0  0.1837313E-04  0.1872239E+04  0.7818609E-02  0.8668799E-01
       -1   -1    0    0    0  501  0.00000000000E+00  0.00000000000E+00  0.53101475448E+03  0.53101475450E+03  0.50400001928E-02 0. -1.
        1   -1    0    0  501    0  0.00000000000E+00  0.00000000000E+00 -0.16502745746E+04  0.16502745746E+04  0.50400001928E-02 0.  1.
    10030    2    1    2    0    0  0.00000000000E+00  0.00000000000E+00 -0.11192598201E+04  0.21812893291E+04  0.18722394591E+04 0.  0.
        1    1    3    3  502    0 -0.21236758134E+03  0.87153495274E+03 -0.24777625454E+03  0.93062679726E+03  0.50400001928E-02 0.  1.
       -1    1    3    3    0  502  0.21236758134E+03 -0.87153495274E+03 -0.87148356558E+03  0.12506625318E+04  0.50400001928E-02 0. -1.
</event>
<event>
 5   0  0.1883959E-04  0.1801093E+04  0.7818609E-02  0.8705719E-01
       -1   -1    0    0    0  501  0.00000000000E+00  0.00000000000E+00  0.80893895144E+03  0.80893895145E+03  0.50400001928E-02 0.  1.
        1   -1    0    0  501    0  0.00000000000E+00  0.00000000000E+00 -0.10025278757E+04  0.10025278757E+04  0.50400001928E-02 0. -1.
    10030    2    1    2    0    0  0.00000000000E+00  0.00000000000E+00 -0.19358892423E+03  0.18114668271E+04  0.18010928333E+04 0.  0.
        5    1    3    3  502    0  0.43403629647E+03 -0.30163690549E+03 -0.83009576280E+03  0.98410029713E+03  0.46999998093E+01 0. -1.
       -5    1    3    3    0  502 -0.43403629647E+03  0.30163690549E+03  0.63650683857E+03  0.82736652999E+03  0.46999998093E+01 0.  1.
</event>
<event>
 5   0  0.3582186E-04  0.1811516E+04  0.7818609E-02  0.8700199E-01
        2   -1    0    0  501    0  0.00000000000E+00  0.00000000000E+00  0.12677414010E+04  0.12677414010E+04  0.25500000920E-02 0. -1.
       -2   -1    0    0    0  501  0.00000000000E+00  0.00000000000E+00 -0.64713304124E+03  0.64713304124E+03  0.25500000920E-02 0.  1.
    10030    2    1    2    0    0  0.00000000000E+00  0.00000000000E+00  0.62060835973E+03  0.19148744422E+04  0.18115157723E+04 0.  0.
        4    1    3    3  502    0  0.37778416603E+03  0.81055000397E+03  0.46232767995E+03  0.10067078432E+04  0.12699999809E+01 0. -1.
       -4    1    3    3    0  502 -0.37778416603E+03 -0.81055000397E+03  0.15828067978E+03  0.90816659900E+03  0.12699999809E+01 0.  1.
</event>
<event>
 5   0  0.1837313E-04  0.1802903E+04  0.7818609E-02  0.8704757E-01
       -1   -1    0    0    0  501  0.00000000000E+00  0.00000000000E+00  0.17009136474E+04  0.17009136474E+04  0.50400001928E-02 0. -1.
        1   -1    0    0  501    0  0.00000000000E+00  0.00000000000E+00 -0.47775196743E+03  0.47775196746E+03  0.50400001928E-02 0.  1.
    10030    2    1    2    0    0  0.00000000000E+00  0.00000000000E+00  0.12231616800E+04  0.21786656149E+04  0.18029030385E+04 0.  0.
        1    1    3    3  502    0  0.28997222754E+03  0.22271323977E+03  0.16072857114E+04  0.16483483971E+04  0.50400001928E-02 0. -1.
       -1    1    3    3    0  502 -0.28997222754E+03 -0.22271323977E+03 -0.38412403147E+03  0.53031721779E+03  0.50400001928E-02 0.  1.
</event>
<event>
 5   0  0.1330125E-04  0.1797230E+04  0.7818609E-02  0.8707774E-01
       -3   -1    0    0    0  501  0.00000000000E+00  0.00000000000E+00  0.92657623750E+03  0.92657624301E+03  0.10100000352E+00 0. -1.
        3   -1    0    0  501    0  0.00000000000E+00  0.00000000000E+00 -0.87149761138E+03  0.87149761723E+03  0.10100000352E+00 0.  1.
    10030    2    1    2    0    0  0.00000000000E+00  0.00000000000E+00  0.55078626122E+02  0.17980738602E+04  0.17972300776E+04 0.  0.
        2    1    3    3  502    0 -0.53202780578E+03 -0.11505509937E+03 -0.68779128356E+03  0.87712491229E+03  0.25500000920E-02 0.  1.
       -2    1    3    3    0  502  0.53202780578E+03  0.11505509937E+03  0.74286990969E+03  0.92094894795E+03  0.25500000920E-02 0. -1.
</event>
<event>
 5   0  0.1837313E-04  0.1862587E+04  0.7818609E-02  0.8673707E-01
        1   -1    0    0  501    0  0.00000000000E+00  0.00000000000E+00  0.66939956077E+03  0.66939956079E+03  0.50400001928E-02 0. -1.
       -1   -1    0    0    0  501  0.00000000000E+00  0.00000000000E+00 -0.12956496039E+04  0.12956496039E+04  0.50400001928E-02 0.  1.
    10030    2    1    2    0    0  0.00000000000E+00  0.00000000000E+00 -0.62625004315E+03  0.19650491647E+04  0.18625866700E+04 0.  0.
        1    1    3    3  502    0  0.18601085329E+03  0.91205711550E+03 -0.28220300960E+03  0.97266991222E+03  0.50400001928E-02 0.  1.
       -1    1    3    3    0  502 -0.18601085329E+03 -0.91205711550E+03 -0.34404703354E+03  0.99237925250E+03  0.50400001928E-02 0. -1.
</event>
<event>
 5   0  0.1835421E-04  0.1815537E+04  0.7818609E-02  0.8698081E-01
        1   -1    0    0  501    0  0.00000000000E+00  0.00000000000E+00  0.14047877852E+04  0.14047877852E+04  0.50400001928E-02 0. -1.
       -1   -1    0    0    0  501  0.00000000000E+00  0.00000000000E+00 -0.58659625098E+03  0.58659625100E+03  0.50400001928E-02 0.  1.
    10030    2    1    2    0    0  0.00000000000E+00  0.00000000000E+00  0.81819153423E+03  0.19913840362E+04  0.18155365579E+04 0.  0.
        2    1    3    3  502    0 -0.90576430915E+03 -0.58357627830E+02  0.39250993259E+03  0.98887746645E+03  0.25500000920E-02 0. -1.
       -2    1    3    3    0  502  0.90576430915E+03  0.58357627830E+02  0.42568160163E+03  0.10025065698E+04  0.25500000920E-02 0.  1.
</event>
<event>
 5   0  0.1835421E-04  0.1795818E+04  0.7818609E-02  0.8708526E-01
       -1   -1    0    0    0  501  0.00000000000E+00  0.00000000000E+00  0.72578057556E+03  0.72578057558E+03  0.50400001928E-02 0.  1.
        1   -1    0    0  501    0  0.00000000000E+00  0.00000000000E+00 -0.11108603574E+04  0.11108603574E+04  0.50400001928E-02 0. -1.
    10030    2    1    2    0    0  0.00000000000E+00  0.00000000000E+00 -0.38507978184E+03  0.18366409330E+04  0.17958183311E+04 0.  0.
        2    1    3    3  502    0  0.90526907567E+02 -0.35143181270E+03  0.64743474682E+03  0.74220697341E+03  0.25500000920E-02 0.  1.
       -2    1    3    3    0  502 -0.90526907567E+02  0.35143181270E+03 -0.10325145287E+04  0.10944339596E+04  0.25500000920E-02 0. -1.
</event>
<event>
 5   0  0.1883959E-04  0.1806032E+04  0.7818609E-02  0.8703098E-01
       -1   -1    0    0    0  501  0.00000000000E+00  0.00000000000E+00  0.14182707642E+04  0.14182707642E+04  0.50400001928E-02 0.  1.
        1   -1    0    0  501    0  0.00000000000E+00  0.00000000000E+00 -0.57495220676E+03  0.57495220678E+03  0.50400001928E-02 0. -1.
    10030    2    1    2    0    0  0.00000000000E+00  0.00000000000E+00  0.84331855739E+03  0.19932229709E+04  0.18060320104E+04 0.  0.
        5    1    3    3  502    0  0.57242817100E+03  0.20481035370E+03  0.11585410353E+04  0.13083809508E+04  0.46999998093E+01 0.  1.
       -5    1    3    3    0  502 -0.57242817100E+03 -0.20481035370E+03 -0.31522247794E+03  0.68484202013E+03  0.46999998093E+01 0. -1.
</event>
<event>
 5   0  0.3568870E-04  0.1792534E+04  0.7818609E-02  0.8710280E-01
       -2   -1    0    0    0  501  0.00000000000E+00  0.00000000000E+00  0.51639638475E+03  0.51639638476E+03  0.25500000920E-02 0. -1.
        2   -1    0    0  501    0  0.00000000000E+00  0.00000000000E+00 -0.15555776934E+04  0.15555776934E+04  0.25500000920E-02 0.  1.
    10030    2    1    2    0    0  0.00000000000E+00  0.00000000000E+00 -0.10391813086E+04  0.20719740781E+04  0.17925341805E+04 0.  0.
        1    1    3    3  502    0 -0.57923432654E+03  0.67728116374E+03 -0.40949231369E+03  0.98076813508E+03  0.50400001928E-02 0.  1.
       -1    1    3    3    0  502  0.57923432654E+03 -0.67728116374E+03 -0.62968899495E+03  0.10912059431E+04  0.50400001928E-02 0. -1.
</event>
<event>
 5   0  0.1835421E-04  0.1800041E+04  0.7818609E-02  0.8706278E-01
        1   -1    0    0  501    0  0.00000000000E+00  0.00000000000E+00  0.14560807058E+04  0.14560807058E+04  0.50400001928E-02 0. -1.
       -1   -1    0    0    0  501  0.00000000000E+00  0.00000000000E+00 -0.55631313180E+03  0.55631313182E+03  0.50400001928E-02 0.  1.
    10030    2    1    2    0    0  0.00000000000E+00  0.00000000000E+00  0.89976757396E+03  0.20123938376E+04  0.18000409080E+04 0.  0.
        2    1    3    3  502    0  0.43074563604E+03  0.47154324017E+03  0.11588414704E+04  0.13231811606E+04  0.25500000920E-02 0. -1.
       -2    1    3    3    0  502 -0.43074563604E+03 -0.47154324017E+03 -0.25907389641E+03  0.68921267699E+03  0.25500000920E-02 0.  1.
</event>
<event>
 5   0  0.3531266E-04  0.1771575E+04  0.7818609E-02  0.8721563E-01
        2   -1    0    0  501    0  0.00000000000E+00  0.00000000000E+00  0.60072427220E+03  0.60072427220E+03  0.25500000920E-02 0.  1.
       -2   -1    0    0    0  501  0.00000000000E+00  0.00000000000E+00 -0.13061232355E+04  0.13061232355E+04  0.25500000920E-02 0. -1.
    10030    2    1    2    0    0  0.00000000000E+00  0.00000000000E+00 -0.70539896329E+03  0.19068475077E+04  0.17715754910E+04 0.  0.
        3    1    3    3  502    0  0.56520499308E+03  0.33461312308E+03 -0.99238273858E+03  0.11900614003E+04  0.10100000352E+00 0. -1.
       -3    1    3    3    0  502 -0.56520499308E+03 -0.33461312308E+03  0.28698377529E+03  0.71678610744E+03  0.10100000352E+00 0.  1.
</event>
<event>
 5   0  0.1825253E-04  0.1829482E+04  0.7818609E-02  0.8690777E-01
       -1   -1    0    0    0  501  0.00000000000E+00  0.00000000000E+00  0.72962859145E+03  0.72962859147E+03  0.50400001928E-02 0. -1.
        1   -1    0    0  501    0  0.00000000000E+00  0.00000000000E+00 -0.11468173416E+04  0.11468173417E+04  0.50400001928E-02 0.  1.
    10030    2    1    2    0    0  0.00000000000E+00  0.00000000000E+00 -0.41718875019E+03  0.18764459331E+04  0.18294815896E+04 0.  0.
        4    1    3    3  502    0  0.22029550227E+03 -0.71862930889E+03  0.32612445901E+03  0.81933934824E+03  0.12699999809E+01 0. -1.
       -4    1    3    3    0  502 -0.22029550227E+03  0.71862930889E+03 -0.74331320920E+03  0.10571065849E+04  0.12699999809E+01 0.  1.
</event>
<event>
 5   0  0.3568870E-04  0.1811434E+04  0.7818609E-02  0.8700243E-01
        2   -1    0    0  501    0  0.00000000000E+00  0.00000000000E+00  0.47668579770E+03  0.47668579771E+03  0.25500000920E-02 0. -1.
       -2   -1    0    0    0  501  0.00000000000E+00  0.00000000000E+00 -0.17208886291E+04  0.17208886291E+04  0.25500000920E-02 0.  1.
    10030    2    1    2    0    0  0.00000000000E+00  0.00000000000E+00 -0.12442028314E+04  0.21975744268E+04  0.18114338729E+04 0.  0.
        1    1    3    3  502    0  0.80896036894E+03 -0.33207463990E+03 -0.90824648734E+03  0.12607942444E+04  0.50400001928E-02 0.  1.
       -1    1    3    3    0  502 -0.80896036894E+03  0.33207463990E+03 -0.33595634408E+03  0.93678018240E+03  0.50400001928E-02 0. -1.
</event>
<event>
 5   0  0.1818778E-04  0.1917597E+04  0.7818609E-02  0.8646146E-01
       -1   -1    0    0    0  501  0.00000000000E+00  0.00000000000E+00  0.77941257381E+03  0.77941257383E+03  0.50400001928E-02 0.  1.
        1   -1    0    0  501    0  0.00000000000E+00  0.00000000000E+00 -0.11794710983E+04  0.11794710983E+04  0.50400001928E-02 0. -1.
    10030    2    1    2    0    0  0.00000000000E+00  0.00000000000E+00 -0.40005852446E+03  0.19588836721E+04  0.19175970426E+04 0.  0.
        3    1    3    3  502    0 -0.81057273687E+03 -0.51154339501E+03 -0.22483768138E+03  0.98450840519E+03  0.10100000352E+00 0. -1.
       -3    1    3    3    0  502  0.81057273687E+03  0.51154339501E+03 -0.17522084307E+03  0.97437526691E+03  0.10100000352E+00 0.  1.
</event>
<event>
 5   0  0.3582186E-04  0.1785746E+04  0.7818609E-02  0.8713917E-01
       -2   -1    0    0    0  501  0.00000000000E+00  0.00000000000E+00  0.62539946189E+03  0.62539946190E+03  0.25500000920E-02 0.  1.
        2   -1    0    0  501    0  0.00000000000E+00  0.00000000000E+00 -0.12747404938E+04  0.12747404938E+04  0.25500000920E-02 0. -1.
    10030    2    1    2    0    0  0.00000000000E+00  0.00000000000E+00 -0.64934103192E+03  0.19001399557E+04  0.17857458037E+04 0.  0.
        4    1    3    3  502    0 -0.11804407145E+03 -0.76423703961E+03  0.15027180219E+03  0.78776638856E+03  0.12699999809E+01 0.  1.
       -4    1    3    3    0  502  0.11804407145E+03  0.76423703961E+03 -0.79961283411E+03  0.11123735671E+04  0.12699999809E+01 0. -1.
</event>
<event>
 5   0  0.1330125E-04  0.1782044E+04  0.7818609E-02  0.8715907E-01
       -3   -1    0    0    0  501  0.00000000000E+00  0.00000000000E+00  0.17263412501E+04  0.17263412531E+04  0.10100000352E+00 0.  1.
        3   -1    0    0  501    0  0.00000000000E+00  0.00000000000E+00 -0.45988600358E+03  0.45988601467E+03  0.10100000352E+00 0. -1.
    10030    2    1    2    0    0  0.00000000000E+00  0.00000000000E+00  0.12664552466E+04  0.21862272678E+04  0.17820439879E+04 0.  0.
        3    1    3    3  502    0 -0.40104301506E+03 -0.24499221315E+03  0.15619336426E+04  0.16311018971E+04  0.10100000352E+00 0.  1.
       -3    1    3    3    0  502  0.40104301506E+03  0.24499221315E+03 -0.29547839608E+03  0.55512537069E+03  0.10100000352E+00 0. -1.
</event>
<event>
 5   0  0.3582186E-04  0.1790488E+04  0.7818609E-02  0.8711374E-01
       -2   -1    0    0    0  501  0.00000000000E+00  0.00000000000E+00  0.39274481443E+03  0.39274481444E+03  0.25500000920E-02 0.  1.
        2   -1    0    0  501    0  0.00000000000E+00  0.00000000000E+00 -0.20406671252E+04  0.20406671252E+04  0.25500000920E-02 0. -1.
    10030    2    1    2    0    0  0.00000000000E+00  0.00000000000E+00 -0.16479223108E+04  0.24334119397E+04  0.17904875665E+04 0.  0.
        4    1    3    3  502    0 -0.11811377164E+03  0.55475859538E+03 -0.17653144719E+04  0.18541965267E+04  0.12699999809E+01 0. -1.
       -4    1    3    3    0  502  0.11811377164E+03 -0.55475859538E+03  0.11739216109E+03  0.57921541294E+03  0.12699999809E+01 0.  1.
</event>
<event>
 5   0  0.3575091E-04  0.1794918E+04  0.7818609E-02  0.8709007E-01
       -2   -1    0    0    0  501  0.00000000000E+00  0.00000000000E+00  0.88962509631E+03  0.88962509631E+03  0.25500000920E-02 0. -1.
        2   -1    0    0  501    0  0.00000000000E+00  0.00000000000E+00 -0.90536172992E+03  0.90536172993E+03  0.25500000920E-02 0.  1.
    10030    2    1    2    0    0  0.00000000000E+00  0.00000000000E+00 -0.15736633616E+02  0.17949868262E+04  0.17949178434E+04 0.  0.
        5    1    3    3  502    0 -0.50270701583E+03 -0.43391834448E+03 -0.61155611987E+03  0.90278593874E+03  0.46999998093E+01 0.  1.
       -5    1    3    3    0  502  0.50270701583E+03  0.43391834448E+03  0.59581948626E+03  0.89220088749E+03  0.46999998093E+01 0. -1.
</event>
<event>
 5   0  0.3628581E-04  0.1776870E+04  0.7818609E-02  0.8718697E-01
       -2   -1    0    0    0  501  0.00000000000E+00  0.00000000000E+00  0.34576639204E+03  0.34576639205E+03  0.25500000920E-02 0.  1.
        2   -1    0    0  501    0  0.00000000000E+00  0.00000000000E+00 -0.22828029702E+04  0.22828029703E+04  0.25500000920E-02 0. -1.
    10030    2    1    2    0    0  0.00000000000E+00  0.00000000000E+00 -0.19370365782E+04  0.26285693623E+04  0.17768697721E+04 0.  0.
        2    1    3    3  502    0 -0.30628517102E+03 -0.70682426731E+03 -0.31375089955E+03  0.83177567759E+03  0.25500000920E-02 0.  1.
       -2    1    3    3    0  502  0.30628517102E+03  0.70682426731E+03 -0.16232856787E+04  0.17967936847E+04  0.25500000920E-02 0. -1.
</event>
<event>
 5   0  0.3531266E-04  0.1769700E+04  0.7818609E-02  0.8722581E-01
        2   -1    0    0  501    0  0.00000000000E+00  0.00000000000E+00  0.10115086073E+04  0.10115086073E+04  0.25500000920E-02 0. -1.
       -2   -1    0    0    0  501  0.00000000000E+00  0.00000000000E+00 -0.77405149225E+03  0.77405149225E+03  0.25500000920E-02 0.  1.
    10030    2    1    2    0    0  0.00000000000E+00  0.00000000000E+00  0.23745711502E+03  0.17855600995E+04  0.17697002536E+04 0.  0.
        3    1    3    3  502    0  0.50296275482E+03  0.44009679753E+03  0.70384208434E+03  0.97059281567E+03  0.10100000352E+00 0. -1.
       -3    1    3    3    0  502 -0.50296275482E+03 -0.44009679753E+03 -0.46638496933E+03  0.81496728385E+03  0.10100000352E+00 0.  1.
</event>
<event>
 5   0  0.3531266E-04  0.1743323E+04  0.7818609E-02  0.8737034E-01
       -2   -1    0    0    0  501  0.00000000000E+00  0.00000000000E+00  0.12886953627E+04  0.12886953627E+04  0.25500000920E-02 0. -1.
        2   -1    0    0  501    0  0.00000000000E+00  0.00000000000E+00 -0.58958382905E+03  0.58958382905E+03  0.25500000920E-02 0.  1.
    10030    2    1    2    0    0  0.00000000000E+00  0.00000000000E+00  0.69911153365E+03  0.18782791917E+04  0.17433232017E+04 0.  0.
        3    1    3    3  502    0 -0.58137581177E+03  0.56020382236E+03  0.70357700862E+03  0.10709093213E+04  0.10100000352E+00 0.  1.
       -3    1    3    3    0  502  0.58137581177E+03 -0.56020382236E+03 -0.44654749734E+01  0.80736987049E+03  0.10100000352E+00 0. -1.
</event>
<event>
 5   0  0.3628581E-04  0.1803374E+04  0.7818609E-02  0.8704507E-01
        2   -1    0    0  501    0  0.00000000000E+00  0.00000000000E+00  0.65539131381E+03  0.65539131382E+03  0.25500000920E-02 0.  1.
       -2   -1    0    0    0  501  0.00000000000E+00  0.00000000000E+00 -0.12405400536E+04  0.12405400536E+04  0.25500000920E-02 0. -1.
    10030    2    1    2    0    0  0.00000000000E+00  0.00000000000E+00 -0.58514873982E+03  0.18959313675E+04  0.18033737001E+04 0.  0.
        2    1    3    3  502    0  0.16163670922E+02  0.22089176220E+03 -0.12114975826E+04  0.12315765618E+04  0.25500000920E-02 0. -1.
       -2    1    3    3    0  502 -0.16163670922E+02 -0.22089176220E+03  0.62634884282E+03  0.66435480564E+03  0.25500000920E-02 0.  1.
</event>
<event>
 5   0  0.1330125E-04  0.1814403E+04  0.7818609E-02  0.8698677E-01
        3   -1    0    0  501    0  0.00000000000E+00  0.00000000000E+00  0.14311342250E+04  0.14311342285E+04  0.10100000352E+00 0.  1.
       -3   -1    0    0    0  501  0.00000000000E+00  0.00000000000E+00 -0.57507879445E+03  0.57507880332E+03  0.10100000352E+00 0. -1.
    10030    2    1    2    0    0  0.00000000000E+00  0.00000000000E+00  0.85605543052E+03  0.20062130319E+04  0.18144034361E+04 0.  0.
        4    1    3    3  502    0  0.80443788609E+03  0.38508070122E+03  0.24431296473E+03  0.92471503538E+03  0.12699999809E+01 0.  1.
       -4    1    3    3    0  502 -0.80443788609E+03 -0.38508070122E+03  0.61174246579E+03  0.10814979965E+04  0.12699999809E+01 0. -1.
</event>
<event>
 5   0  0.3575091E-04  0.1799280E+04  0.7818609E-02  0.8706683E-01
        2   -1    0    0  501    0  0.00000000000E+00  0.00000000000E+00  0.98065363037E+03  0.98065363037E+03  0.25500000920E-02 0. -1.
       -2   -1    0    0    0  501  0.00000000000E+00  0.00000000000E+00 -0.82531889393E+03  0.82531889394E+03  0.25500000920E-02 0.  1.
    10030    2    1    2    0    0  0.00000000000E+00  0.00000000000E+00  0.15533473644E+03  0.18059725243E+04  0.17992798221E+04 0.  0.
        5    1    3    3  502    0 -0.51308327959E+03  0.73860130252E+03  0.10106811176E+03  0.90499899949E+03  0.46999998093E+01 0. -1.
       -5    1    3    3    0  502  0.51308327959E+03 -0.73860130252E+03  0.54266624677E+02  0.90097352482E+03  0.46999998093E+01 0.  1.
</event>
<event>
 5   0  0.3531266E-04  0.1778548E+04  0.7818609E-02  0.8717791E-01
       -2   -1    0    0    0  501  0.00000000000E+00  0.00000000000E+00  0.43700110863E+03  0.43700110864E+03  0.25500000920E-02 0.  1.
        2   -1    0    0  501    0  0.00000000000E+00  0.00000000000E+00 -0.18096254888E+04  0.18096254888E+04  0.25500000920E-02 0. -1.
    10030    2    1    2    0    0  0.00000000000E+00  0.00000000000E+00 -0.13726243802E+04  0.22466265975E+04  0.17785481099E+04 0.  0.
        3    1    3    3  502    0  0.65919552198E+03  0.28705525749E+03 -0.13473657064E+04  0.15271980271E+04  0.10100000352E+00 0. -1.
       -3    1    3    3    0  502 -0.65919552198E+03 -0.28705525749E+03 -0.25258673810E+02  0.71942857036E+03  0.10100000352E+00 0.  1.
</event>
<event>
 5   0  0.1825253E-04  0.1825689E+04  0.7818609E-02  0.8692757E-01
        1   -1    0    0  501    0  0.00000000000E+00  0.00000000000E+00  0.18345334002E+04  0.18345334002E+04  0.50400001928E-02 0. -1.
       -1   -1    0    0    0  501  0.00000000000E+00  0.00000000000E+00 -0.45422171680E+03  0.45422171683E+03  0.50400001928E-02 0.  1.
    10030    2    1    2    0    0  0.00000000000E+00  0.00000000000E+00  0.13803116834E+04  0.22887551171E+04  0.18256888132E+04 0.  0.
        4    1    3    3  502    0  0.67165921666E+03  0.20915803396E+03  0.14194357337E+04  0.15841946224E+04  0.12699999809E+01 0. -1.
       -4    1    3    3    0  502 -0.67165921666E+03 -0.20915803396E+03 -0.39124050284E+02  0.70456049470E+03  0.12699999809E+01 0.  1.
</event>
<event>
 5   0  0.3568870E-04  0.1804568E+04  0.7818609E-02  0.8703874E-01
       -2   -1    0    0    0  501  0.00000000000E+00  0.00000000000E+00  0.29933302427E+03  0.29933302428E+03  0.25500000920E-02 0.  1.
        2   -1    0    0  501    0  0.00000000000E+00  0.00000000000E+00 -0.27197678523E+04  0.27197678523E+04  0.25500000920E-02 0. -1.
    10030    2    1    2    0    0  0.00000000000E+00  0.00000000000E+00 -0.24204348280E+04  0.30191008765E+04  0.18045679112E+04 0.  0.
        1    1    3    3  502    0  0.62659468100E+03 -0.49787775783E+03 -0.19073184696E+04  0.20684213547E+04  0.50400001928E-02 0. -1.
       -1    1    3    3    0  502 -0.62659468100E+03  0.49787775783E+03 -0.51311635837E+03  0.95067952184E+03  0.50400001928E-02 0.  1.
</event>
<event>
 5   0  0.3628581E-04  0.1790517E+04  0.7818609E-02  0.8711359E-01
       -2   -1    0    0    0  501  0.00000000000E+00  0.00000000000E+00  0.36098181541E+03  0.36098181542E+03  0.25500000920E-02 0. -1.
        2   -1    0    0  501    0  0.00000000000E+00  0.00000000000E+00 -0.22202984630E+04  0.22202984630E+04  0.25500000920E-02 0.  1.
    10030    2    1    2    0    0  0.00000000000E+00  0.00000000000E+00 -0.18593166476E+04  0.25812802784E+04  0.17905165399E+04 0.  0.
        2    1    3    3  502    0 -0.21086898986E+03 -0.46291284450E+03 -0.19917208259E+04  0.20556521790E+04  0.25500000920E-02 0.  1.
       -2    1    3    3    0  502  0.21086898986E+03  0.46291284450E+03  0.13240417833E+03  0.52562809945E+03  0.25500000920E-02 0. -1.
</event>
<event>
 5   0  0.1835421E-04  0.1794642E+04  0.7818609E-02  0.8709154E-01
        1   -1    0    0  501    0  0.00000000000E+00  0.00000000000E+00  0.70891219599E+03  0.70891219600E+03  0.50400001928E-02 0.  1.
       -1   -1    0    0    0  501  0.00000000000E+00  0.00000000000E+00 -0.11358036004E+04  0.11358036004E+04  0.50400001928E-02 0. -1.
    10030    2    1    2    0    0  0.00000000000E+00  0.00000000000E+00 -0.42689140443E+03  0.18447157964E+04  0.17946420530E+04 0.  0.
        2    1    3    3  502    0 -0.60516331331E+03  0.63747783212E+03 -0.39899380009E+03  0.96529615908E+03  0.25500000920E-02 0.  1.
       -2    1    3    3    0  502  0.60516331331E+03 -0.63747783212E+03 -0.27897604340E+02  0.87941963735E+03  0.25500000920E-02 0. -1.
</event>
<event>
 5   0  0.3575091E-04  0.1795195E+04  0.7818609E-02  0.8708859E-01
        2   -1    0    0  501    0  0.00000000000E+00  0.00000000000E+00  0.96571992109E+03  0.96571992110E+03  0.25500000920E-02 0.  1.
       -2   -1    0    0    0  501  0.00000000000E+00  0.00000000000E+00 -0.83428035270E+03  0.83428035270E+03  0.25500000920E-02 0. -1.
    10030    2    1    2    0    0  0.00000000000E+00  0.00000000000E+00  0.13143956840E+03  0.18000002738E+04  0.17951948712E+04 0.  0.
        5    1    3    3  502    0  0.50009443703E+03  0.53297149597E+03 -0.45673738385E+03  0.86184928455E+03  0.46999998093E+01 0. -1.
       -5    1    3    3    0  502 -0.50009443703E+03 -0.53297149597E+03  0.58817695225E+03  0.93815098925E+03  0.46999998093E+01 0.  1.
</event>
<event>
 5   0  0.1818778E-04  0.1792221E+04  0.7818609E-02  0.8710447E-01
        1   -1    0    0  501    0  0.00000000000E+00  0.00000000000E+00  0.19190690484E+04  0.19190690484E+04  0.50400001928E-02 0.  1.
       -1   -1    0    0    0  501  0.00000000000E+00  0.00000000000E+00 -0.41843946322E+03  0.41843946325E+03  0.50400001928E-02 0. -1.
    10030    2    1    2    0    0  0.00000000000E+00  0.00000000000E+00  0.15006295851E+04  0.23375085116E+04  0.17922212168E+04 0.  0.
        3    1    3    3  502    0  0.19941208130E+03  0.56988863863E+03  0.16139582497E+04  0.17231945568E+04  0.10100000352E+00 0.  1.
       -3    1    3    3    0  502 -0.19941208130E+03 -0.56988863863E+03 -0.11332866460E+03  0.61431395478E+03  0.10100000352E+00 0. -1.
</event>
<event>
 5   0  0.1818778E-04  0.1670730E+04  0.7818609E-02  0.8778236E-01
       -1   -1    0    0    0  501  0.00000000000E+00  0.00000000000E+00  0.46350852703E+03  0.46350852705E+03  0.50400001928E-02 0.  1.
        1   -1    0    0  501    0  0.00000000000E+00  0.00000000000E+00 -0.15055491521E+04  0.15055491521E+04  0.50400001928E-02 0. -1.
    10030    2    1    2    0    0  0.00000000000E+00  0.00000000000E+00 -0.10420406250E+04  0.19690576791E+04  0.16707302234E+04 0.  0.
        3    1    3    3  502    0 -0.46324835192E+03 -0.49671305232E+03  0.52143377067E+02  0.68120616107E+03  0.10100000352E+00 0.  1.
       -3    1    3    3    0  502  0.46324835192E+03  0.49671305232E+03 -0.10941840021E+04  0.12878515181E+04  0.10100000352E+00 0. -1.
</event>
<event>
 5   0  0.1825253E-04  0.1388685E+04  0.7818609E-02  0.8962050E-01
       -1   -1    0    0    0  501  0.00000000000E+00  0.00000000000E+00  0.21969032631E+03  0.21969032637E+03  0.50400001928E-02 0.  1.
        1   -1    0    0  501    0  0.00000000000E+00  0.00000000000E+00 -0.21945059146E+04  0.21945059146E+04  0.50400001928E-02 0. -1.
    10030    2    1    2    0    0  0.00000000000E+00  0.00000000000E+00 -0.19748155883E+04  0.24141962410E+04  0.13886853071E+04 0.  0.
        4    1    3    3  502    0 -0.47629362529E+02  0.58721041172E+03 -0.16262249927E+04  0.17296513995E+04  0.12699999809E+01 0. -1.
       -4    1    3    3    0  502  0.47629362529E+02 -0.58721041172E+03 -0.34859059555E+03  0.68454484149E+03  0.12699999809E+01 0.  1.
</event>
<event>
 5   0  0.3582186E-04  0.1815934E+04  0.7818609E-02  0.8697872E-01
       -2   -1    0    0    0  501  0.00000000000E+00  0.00000000000E+00  0.45565547882E+03  0.45565547882E+03  0.25500000920E-02 0.  1.
        2   -1    0    0  501    0  0.00000000000E+00  0.00000000000E+00 -0.18092697584E+04  0.18092697584E+04  0.25500000920E-02 0. -1.
    10030    2    1    2    0    0  0.00000000000E+00  0.00000000000E+00 -0.13536142796E+04  0.22649252372E+04  0.18159335649E+04 0.  0.
        4    1    3    3  502    0  0.23502786016E+03  0.75000928126E+03 -0.10982200806E+03  0.79360853283E+03  0.12699999809E+01 0.  1.
       -4    1    3    3    0  502 -0.23502786016E+03 -0.75000928126E+03 -0.12437922715E+04  0.14713167044E+04  0.12699999809E+01 0. -1.
</event>
<event>
 5   0  0.3628581E-04  0.1887556E+04  0.7818609E-02  0.8661075E-01
       -2   -1    0    0    0  501  0.00000000000E+00  0.00000000000E+00  0.83075345902E+03  0.83075345903E+03  0.25500000920E-02 0. -1.
        2   -1    0    0  501    0  0.00000000000E+00  0.00000000000E+00 -0.10721800306E+04  0.10721800306E+04  0.25500000920E-02 0.  1.
    10030    2    1    2    0    0  0.00000000000E+00  0.00000000000E+00 -0.24142657158E+03  0.19029334896E+04  0.18875563770E+04 0.  0.
        2    1    3    3  502    0  0.33034886224E+03 -0.17515564583E+03 -0.99432182201E+03  0.10623021024E+04  0.25500000920E-02 0.  1.
       -2    1    3    3    0  502 -0.33034886224E+03  0.17515564583E+03  0.75289525043E+03  0.84063138722E+03  0.25500000920E-02 0. -1.
</event>
<event>
 5   0  0.3582186E-04  0.1791309E+04  0.7818609E-02  0.8710935E-01
       -2   -1    0    0    0  501  0.00000000000E+00  0.00000000000E+00  0.18377745326E+04  0.18377745326E+04  0.25500000920E-02 0. -1.
        2   -1    0    0  501    0  0.00000000000E+00  0.00000000000E+00 -0.43650468245E+03  0.43650468246E+03  0.25500000920E-02 0.  1.
    10030    2    1    2    0    0  0.00000000000E+00  0.00000000000E+00  0.14012698502E+04  0.22742792151E+04  0.17913092294E+04 0.  0.
        4    1    3    3  502    0  0.28392784077E+03 -0.14894326592E+03 -0.36114603648E+03  0.48293600797E+03  0.12699999809E+01 0.  1.
       -4    1    3    3    0  502 -0.28392784077E+03  0.14894326592E+03  0.17624158867E+04  0.17913432071E+04  0.12699999809E+01 0. -1.
</event>
<event>
 5   0  0.3568870E-04  0.1815030E+04  0.7818609E-02  0.8698347E-01
        2   -1    0    0  501    0  0.00000000000E+00  0.00000000000E+00  0.46513113310E+03  0.46513113311E+03  0.25500000920E-02 0. -1.
       -2   -1    0    0    0  501  0.00000000000E+00  0.00000000000E+00 -0.17706474659E+04  0.17706474659E+04  0.25500000920E-02 0.  1.
    10030    2    1    2    0    0  0.00000000000E+00  0.00000000000E+00 -0.13055163328E+04  0.22357785990E+04  0.18150297652E+04 0.  0.
        1    1    3    3  502    0  0.33065531230E+03 -0.41948245091E+03 -0.15565139746E+04  0.16456105904E+04  0.50400001928E-02 0.  1.
       -1    1    3    3    0  502 -0.33065531230E+03  0.41948245091E+03  0.25099764179E+03  0.59016800860E+03  0.50400001928E-02 0. -1.
</event>
<event>
 5   0  0.3531266E-04  0.1757177E+04  0.7818609E-02  0.8729410E-01
        2   -1    0    0  501    0  0.00000000000E+00  0.00000000000E+00  0.12663223630E+04  0.12663223631E+04  0.25500000920E-02 0.  1.
       -2   -1    0    0    0  501  0.00000000000E+00  0.00000000000E+00 -0.60957425643E+03  0.60957425644E+03  0.25500000920E-02 0. -1.
    10030    2    1    2    0    0  0.00000000000E+00  0.00000000000E+00  0.65674810662E+03  0.18758966195E+04  0.17571767274E+04 0.  0.
        3    1    3    3  502    0 -0.35507604994E+03 -0.25284204817E+03 -0.48599478004E+03  0.65283921374E+03  0.10100000352E+00 0. -1.
       -3    1    3    3    0  502  0.35507604994E+03  0.25284204817E+03  0.11427428867E+04  0.12230574058E+04  0.10100000352E+00 0.  1.
</event>
<event>
 5   0  0.1837313E-04  0.1762163E+04  0.7818609E-02  0.8726683E-01
        1   -1    0    0  501    0  0.00000000000E+00  0.00000000000E+00  0.13225298130E+04  0.13225298130E+04  0.50400001928E-02 0.  1.
       -1   -1    0    0    0  501  0.00000000000E+00  0.00000000000E+00 -0.58698479547E+03  0.58698479549E+03  0.50400001928E-02 0. -1.
    10030    2    1    2    0    0  0.00000000000E+00  0.00000000000E+00  0.73554501750E+03  0.19095146085E+04  0.17621633202E+04 0.  0.
        1    1    3    3  502    0  0.76037342096E+03 -0.19101679025E+03  0.80344920535E+03  0.11225799656E+04  0.50400001928E-02 0.  1.
       -1    1    3    3    0  502 -0.76037342096E+03  0.19101679025E+03 -0.67904187848E+02  0.78693464291E+03  0.50400001928E-02 0. -1.
</event>
<event>
 5   0  0.3628581E-04  0.1804644E+04  0.7818609E-02  0.8703834E-01
        2   -1    0    0  501    0  0.00000000000E+00  0.00000000000E+00  0.11015249113E+04  0.11015249113E+04  0.25500000920E-02 0. -1.
       -2   -1    0    0    0  501  0.00000000000E+00  0.00000000000E+00 -0.73914321932E+03  0.73914321932E+03  0.25500000920E-02 0.  1.
    10030    2    1    2    0    0  0.00000000000E+00  0.00000000000E+00  0.36238169197E+03  0.18406681306E+04  0.18046436425E+04 0.  0.
        2    1    3    3  502    0  0.26717883693E+03 -0.61879563923E+03 -0.43069469509E+03  0.79986904830E+03  0.25500000920E-02 0.  1.
       -2    1    3    3    0  502 -0.26717883693E+03  0.61879563923E+03  0.79307638706E+03  0.10407990823E+04  0.25500000920E-02 0. -1.
</event>
<event>
 5   0  0.1835421E-04  0.2014607E+04  0.7818609E-02  0.8599822E-01
       -1   -1    0    0    0  501  0.00000000000E+00  0.00000000000E+00  0.70312757668E+03  0.70312757670E+03  0.50400001928E-02 0. -1.
        1   -1    0    0  501    0  0.00000000000E+00  0.00000000000E+00 -0.14430666157E+04  0.14430666157E+04  0.50400001928E-02 0.  1.
    10030    2    1    2    0    0  0.00000000000E+00  0.00000000000E+00 -0.73993903902E+03  0.21461941924E+04  0.20146065944E+04 0.  0.
        2    1    3    3  502    0  0.55035846861E+03 -0.81788295908E+03 -0.14949024231E+03  0.99708290091E+03  0.25500000920E-02 0.  1.
       -2    1    3    3    0  502 -0.55035846861E+03  0.81788295908E+03 -0.59044879671E+03  0.11491112915E+04  0.25500000920E-02 0. -1.
</event>
<event>
 5   0  0.3628581E-04  0.1812262E+04  0.7818609E-02  0.8699806E-01
       -2   -1    0    0    0  501  0.00000000000E+00  0.00000000000E+00  0.54386190030E+03  0.54386190030E+03  0.25500000920E-02 0. -1.
        2   -1    0    0  501    0  0.00000000000E+00  0.00000000000E+00 -0.15097095154E+04  0.15097095154E+04  0.25500000920E-02 0.  1.
    10030    2    1    2    0    0  0.00000000000E+00  0.00000000000E+00 -0.96584761512E+03  0.20535714157E+04  0.18122621068E+04 0.  0.
        2    1    3    3  502    0  0.38850139903E+03  0.30149153639E+03 -0.13453445609E+04  0.14324044370E+04  0.25500000920E-02 0.  1.
       -2    1    3    3    0  502 -0.38850139903E+03 -0.30149153639E+03  0.37949694580E+03  0.62116697871E+03  0.25500000920E-02 0. -1.
</event>
<event>
 5   0  0.3582186E-04  0.1808453E+04  0.7818609E-02  0.8701817E-01
       -2   -1    0    0    0  501  0.00000000000E+00  0.00000000000E+00  0.11863899722E+04  0.11863899722E+04  0.25500000920E-02 0. -1.
        2   -1    0    0  501    0  0.00000000000E+00  0.00000000000E+00 -0.68917133129E+03  0.68917133130E+03  0.25500000920E-02 0.  1.
    10030    2    1    2    0    0  0.00000000000E+00  0.00000000000E+00  0.49721864093E+03  0.18755613035E+04  0.18084534350E+04 0.  0.
        4    1    3    3  502    0  0.69033981083E+03 -0.58221024497E+03  0.29598279094E+03  0.95033954417E+03  0.12699999809E+01 0. -1.
       -4    1    3    3    0  502 -0.69033981083E+03  0.58221024497E+03  0.20123584999E+03  0.92522175936E+03  0.12699999809E+01 0.  1.
</event>
<event>
 5   0  0.1837313E-04  0.1809175E+04  0.7818609E-02  0.8701436E-01
        1   -1    0    0  501    0  0.00000000000E+00  0.00000000000E+00  0.10596173896E+04  0.10596173896E+04  0.50400001928E-02 0. -1.
       -1   -1    0    0    0  501  0.00000000000E+00  0.00000000000E+00 -0.77223929904E+03  0.77223929906E+03  0.50400001928E-02 0.  1.
    10030    2    1    2    0    0  0.00000000000E+00  0.00000000000E+00  0.28737809057E+03  0.18318566887E+04  0.18091746076E+04 0.  0.
        1    1    3    3  502    0  0.22777744690E+03 -0.36955159536E+03  0.94725537677E+03  0.10419902571E+04  0.50400001928E-02 0. -1.
       -1    1    3    3    0  502 -0.22777744690E+03  0.36955159536E+03 -0.65987728620E+03  0.78986643163E+03  0.50400001928E-02 0.  1.
</event>
<event>
 5   0  0.1818778E-04  0.1514801E+04  0.7818609E-02  0.8874670E-01
        1   -1    0    0  501    0  0.00000000000E+00  0.00000000000E+00  0.11615870857E+04  0.11615870857E+04  0.50400001928E-02 0. -1.
       -1   -1    0    0    0  501  0.00000000000E+00  0.00000000000E+00 -0.49385495216E+03  0.49385495218E+03  0.50400001928E-02 0.  1.
    10030    2    1    2    0    0  0.00000000000E+00  0.00000000000E+00  0.66773213353E+03  0.16554420379E+04  0.15148010228E+04 0.  0.
        3    1    3    3  502    0  0.68686923696E+03 -0.24633506281E+02  0.68162315587E+03  0.96799085488E+03  0.10100000352E+00 0.  1.
       -3    1    3    3    0  502 -0.68686923696E+03  0.24633506281E+02 -0.13891022333E+02  0.68745118301E+03  0.10100000352E+00 0. -1.
</event>
<event>
 5   0  0.3531266E-04  0.1744421E+04  0.7818609E-02  0.8736427E-01
        2   -1    0    0  501    0  0.00000000000E+00  0.00000000000E+00  0.12181899395E+04  0.12181899395E+04  0.25500000920E-02 0.  1.
       -2   -1    0    0    0  501  0.00000000000E+00  0.00000000000E+00 -0.62449306946E+03  0.62449306947E+03  0.25500000920E-02 0. -1.
    10030    2    1    2    0    0  0.00000000000E+00  0.00000000000E+00  0.59369687005E+03  0.18426830090E+04  0.17444210209E+04 0.  0.
        3    1    3    3  502    0 -0.65949414181E+03 -0.51917712724E+03  0.46265059483E+02  0.84060566169E+03  0.10100000352E+00 0. -1.
       -3    1    3    3    0  502  0.65949414181E+03  0.51917712724E+03  0.54743181056E+03  0.10020773473E+04  0.10100000352E+00 0.  1.
</event>
<event>
 5   0  0.1883959E-04  0.1807003E+04  0.7818609E-02  0.8702584E-01
       -1   -1    0    0    0  501  0.00000000000E+00  0.00000000000E+00  0.12167659622E+04  0.12167659622E+04  0.50400001928E-02 0.  1.
        1   -1    0    0  501    0  0.00000000000E+00  0.00000000000E+00 -0.67088930534E+03  0.67088930536E+03  0.50400001928E-02 0. -1.
    10030    2    1    2    0    0  0.00000000000E+00  0.00000000000E+00  0.54587665683E+03  0.18876552675E+04  0.18070033438E+04 0.  0.
        5    1    3    3  502    0  0.12457575162E+03 -0.16305273425E+03 -0.64621276696E+03  0.67802532564E+03  0.46999998093E+01 0. -1.
       -5    1    3    3    0  502 -0.12457575162E+03  0.16305273425E+03  0.11920894238E+04  0.12096299419E+04  0.46999998093E+01 0.  1.
</event>
<event>
 5   0  0.1825253E-04  0.1826557E+04  0.7818609E-02  0.8692303E-01
        1   -1    0    0  501    0  0.00000000000E+00  0.00000000000E+00  0.75426705678E+03  0.75426705679E+03  0.50400001928E-02 0.  1.
       -1   -1    0    0    0  501  0.00000000000E+00  0.00000000000E+00 -0.11058125755E+04  0.11058125755E+04  0.50400001928E-02 0. -1.
    10030    2    1    2    0    0  0.00000000000E+00  0.00000000000E+00 -0.35154551873E+03  0.18600796323E+04  0.18265574140E+04 0.  0.
        4    1    3    3  502    0  0.66642412596E+03 -0.62251812998E+03 -0.22593576182E+03  0.93952036656E+03  0.12699999809E+01 0.  1.
       -4    1    3    3    0  502 -0.66642412596E+03  0.62251812998E+03 -0.12560975690E+03  0.92055926575E+03  0.12699999809E+01 0. -1.
</event>
<event>
 5   0  0.3582186E-04  0.1835135E+04  0.7818609E-02  0.8687835E-01
        2   -1    0    0  501    0  0.00000000000E+00  0.00000000000E+00  0.69940245787E+03  0.69940245788E+03  0.25500000920E-02 0.  1.
       -2   -1    0    0    0  501  0.00000000000E+00  0.00000000000E+00 -0.12037847307E+04  0.12037847307E+04  0.25500000920E-02 0. -1.
    10030    2    1    2    0    0  0.00000000000E+00  0.00000000000E+00 -0.50438227287E+03  0.19031871886E+04  0.18351348718E+04 0.  0.
        4    1    3    3  502    0  0.61870893772E+02 -0.82177587907E+03  0.16623655756E+03  0.84070197388E+03  0.12699999809E+01 0.  1.
       -4    1    3    3    0  502 -0.61870893772E+02  0.82177587907E+03 -0.67061883043E+03  0.10624852147E+04  0.12699999809E+01 0. -1.
</event>
<event>
 5   0  0.3568870E-04  0.1790725E+04  0.7818609E-02  0.8711247E-01
       -2   -1    0    0    0  501  0.00000000000E+00  0.00000000000E+00  0.68981540572E+03  0.68981540573E+03  0.25500000920E-02 0.  1.
        2   -1    0    0  501    0  0.00000000000E+00  0.00000000000E+00 -0.11621577037E+04  0.11621577037E+04  0.25500000920E-02 0. -1.
    10030    2    1    2    0    0  0.00000000000E+00  0.00000000000E+00 -0.47234229797E+03  0.18519731094E+04  0.17907253144E+04 0.  0.
        1    1    3    3  502    0 -0.41104984515E+03 -0.61862937450E+03 -0.75328289401E+03  0.10578749438E+04  0.50400001928E-02 0.  1.
       -1    1    3    3    0  502  0.41104984515E+03  0.61862937450E+03  0.28094059604E+03  0.79409816567E+03  0.50400001928E-02 0. -1.
</event>
<event>
 5   0  0.1835421E-04  0.1798326E+04  0.7818609E-02  0.8707190E-01
        1   -1    0    0  501    0  0.00000000000E+00  0.00000000000E+00  0.10931900687E+04  0.10931900687E+04  0.50400001928E-02 0.  1.
       -1   -1    0    0    0  501  0.00000000000E+00  0.00000000000E+00 -0.73957286859E+03  0.73957286860E+03  0.50400001928E-02 0. -1.
    10030    2    1    2    0    0  0.00000000000E+00  0.00000000000E+00  0.35361720014E+03  0.18327629373E+04  0.17983255713E+04 0.  0.
        2    1    3    3  502    0  0.24039145003E+03 -0.44082972112E+03  0.93699782329E+03  0.10630540029E+04  0.25500000920E-02 0.  1.
       -2    1    3    3    0  502 -0.24039145003E+03  0.44082972112E+03 -0.58338062315E+03  0.76970893443E+03  0.25500000920E-02 0. -1.
</event>
<event>
 5   0  0.3628581E-04  0.1629038E+04  0.7818609E-02  0.8802905E-01
        2   -1    0    0  501    0  0.00000000000E+00  0.00000000000E+00  0.71982793593E+03  0.71982793594E+03  0.25500000920E-02 0. -1.
       -2   -1    0    0    0  501  0.00000000000E+00  0.00000000000E+00 -0.92166598168E+03  0.92166598168E+03  0.25500000920E-02 0.  1.
    10030    2    1    2    0    0  0.00000000000E+00  0.00000000000E+00 -0.20183804574E+03  0.16414939176E+04  0.16290376561E+04 0.  0.
        2    1    3    3  502    0  0.21018254811E+03  0.55510032359E+01 -0.89384992305E+03  0.91824571990E+03  0.25500000920E-02 0.  1.
       -2    1    3    3    0  502 -0.21018254811E+03 -0.55510032359E+01  0.69201187730E+03  0.72324819772E+03  0.25500000920E-02 0. -1.
</event>
<event>
 5   0  0.3568870E-04  0.1791020E+04  0.7818609E-02  0.8711090E-01
        2   -1    0    0  501    0  0.00000000000E+00  0.00000000000E+00  0.19286653814E+04  0.19286653814E+04  0.25500000920E-02 0.  1.
       -2   -1    0    0    0  501  0.00000000000E+00  0.00000000000E+00 -0.41579954511E+03  0.41579954511E+03  0.25500000920E-02 0. -1.
    10030    2    1    2    0    0  0.00000000000E+00  0.00000000000E+00  0.15128658363E+04  0.23444649265E+04  0.17910200315E+04 0.  0.
        1    1    3    3  502    0  0.88094286861E+03 -0.15952071281E+03  0.72925737419E+03  0.11546962862E+04  0.50400001928E-02 0.  1.
       -1    1    3    3    0  502 -0.88094286861E+03  0.15952071281E+03  0.78360846213E+03  0.11897686403E+04  0.50400001928E-02 0. -1.
</event>
<event>
 5   0  0.3531266E-04  0.1814363E+04  0.7818609E-02  0.8698698E-01
        2   -1    0    0  501    0  0.00000000000E+00  0.00000000000E+00  0.20481212312E+04  0.20481212312E+04  0.25500000920E-02 0.  1.
       -2   -1    0    0    0  501  0.00000000000E+00  0.00000000000E+00 -0.40182116683E+03  0.40182116684E+03  0.25500000920E-02 0. -1.
    10030    2    1    2    0    0  0.00000000000E+00  0.00000000000E+00  0.16463000644E+04  0.24499423980E+04  0.18143632083E+04 0.  0.
        3    1    3    3  502    0  0.74095518480E+03 -0.33379584516E+03  0.27875095249E+03  0.85914862267E+03  0.10100000352E+00 0. -1.
       -3    1    3    3    0  502 -0.74095518480E+03  0.33379584516E+03  0.13675491119E+04  0.15907937754E+04  0.10100000352E+00 0.  1.
</event>
<event>
 5   0  0.3628581E-04  0.1790763E+04  0.7818609E-02  0.8711227E-01
        2   -1    0    0  501    0  0.00000000000E+00  0.00000000000E+00  0.15383352458E+04  0.15383352458E+04  0.25500000920E-02 0.  1.
       -2   -1    0    0    0  501  0.00000000000E+00  0.00000000000E+00 -0.52115296243E+03  0.52115296244E+03  0.25500000920E-02 0. -1.
    10030    2    1    2    0    0  0.00000000000E+00  0.00000000000E+00  0.10171822834E+04  0.20594882083E+04  0.17907629330E+04 0.  0.
        2    1    3    3  502    0 -0.10761602137E+03  0.88690072750E+03  0.44022422227E+03  0.99597764753E+03  0.25500000920E-02 0.  1.
       -2    1    3    3    0  502  0.10761602137E+03 -0.88690072750E+03  0.57695806110E+03  0.10635105607E+04  0.25500000920E-02 0. -1.
</event>
<event>
 5   0  0.1883959E-04  0.1784133E+04  0.7818609E-02  0.8714783E-01
       -1   -1    0    0    0  501  0.00000000000E+00  0.00000000000E+00  0.65019391471E+03  0.65019391473E+03  0.50400001928E-02 0. -1.
        1   -1    0    0  501    0  0.00000000000E+00  0.00000000000E+00 -0.12239163214E+04  0.12239163215E+04  0.50400001928E-02 0.  1.
    10030    2    1    2    0    0  0.00000000000E+00  0.00000000000E+00 -0.57372240674E+03  0.18741102362E+04  0.17841333407E+04 0.  0.
        5    1    3    3  502    0  0.51743365963E+03 -0.72523925598E+03 -0.23928599491E+03  0.92249089312E+03  0.46999998093E+01 0. -1.
       -5    1    3    3    0  502 -0.51743365963E+03  0.72523925598E+03 -0.33443641183E+03  0.95161934306E+03  0.46999998093E+01 0.  1.
</event>
<event>
 5   0  0.3582186E-04  0.2225064E+04  0.7818609E-02  0.8508068E-01
       -2   -1    0    0    0  501  0.00000000000E+00  0.00000000000E+00  0.77853325470E+03  0.77853325470E+03  0.25500000920E-02 0. -1.
        2   -1    0    0  501    0  0.00000000000E+00  0.00000000000E+00 -0.15898192698E+04  0.15898192698E+04  0.25500000920E-02 0.  1.
    10030    2    1    2    0    0  0.00000000000E+00  0.00000000000E+00 -0.81128601512E+03  0.23683525245E+04  0.22250637479E+04 0.  0.
        4    1    3    3  502    0  0.94458610169E+03  0.18207791303E+03  0.18921174999E+03  0.98040704259E+03  0.12699999809E+01 0.  1.
       -4    1    3    3    0  502 -0.94458610169E+03 -0.18207791303E+03 -0.10004977651E+04  0.13879454819E+04  0.12699999809E+01 0. -1.
</event>
<event>
 5   0  0.1818778E-04  0.1822186E+04  0.7818609E-02  0.8694589E-01
       -1   -1    0    0    0  501  0.00000000000E+00  0.00000000000E+00  0.12893831748E+04  0.12893831748E+04  0.50400001928E-02 0. -1.
        1   -1    0    0  501    0  0.00000000000E+00  0.00000000000E+00 -0.64378884847E+03  0.64378884849E+03  0.50400001928E-02 0.  1.
    10030    2    1    2    0    0  0.00000000000E+00  0.00000000000E+00  0.64559432629E+03  0.19331720233E+04  0.18221860600E+04 0.  0.
        3    1    3    3  502    0  0.15309170608E+03  0.88875149662E+03  0.18539335584E+03  0.92069919072E+03  0.10100000352E+00 0.  1.
       -3    1    3    3    0  502 -0.15309170608E+03 -0.88875149662E+03  0.46020097045E+03  0.10124728325E+04  0.10100000352E+00 0. -1.
</event>
<event>
 5   0  0.1837313E-04  0.1884750E+04  0.7818609E-02  0.8662485E-01
        1   -1    0    0  501    0  0.00000000000E+00  0.00000000000E+00  0.16887760615E+04  0.16887760615E+04  0.50400001928E-02 0. -1.
       -1   -1    0    0    0  501  0.00000000000E+00  0.00000000000E+00 -0.52586616100E+03  0.52586616103E+03  0.50400001928E-02 0.  1.
    10030    2    1    2    0    0  0.00000000000E+00  0.00000000000E+00  0.11629099005E+04  0.22146422226E+04  0.18847495158E+04 0.  0.
        1    1    3    3  502    0  0.55291570861E+03  0.56809273170E+03  0.11801742159E+04  0.14217089408E+04  0.50400001928E-02 0. -1.
       -1    1    3    3    0  502 -0.55291570861E+03 -0.56809273170E+03 -0.17264315348E+02  0.79293328171E+03  0.50400001928E-02 0.  1.
</event>
<event>
 5   0  0.3531266E-04  0.1810782E+04  0.7818609E-02  0.8700586E-01
        2   -1    0    0  501    0  0.00000000000E+00  0.00000000000E+00  0.85490450669E+03  0.85490450669E+03  0.25500000920E-02 0.  1.
       -2   -1    0    0    0  501  0.00000000000E+00  0.00000000000E+00 -0.95885945139E+03  0.95885945139E+03  0.25500000920E-02 0. -1.
    10030    2    1    2    0    0  0.00000000000E+00  0.00000000000E+00 -0.10395494470E+03  0.18137639581E+04  0.18107824456E+04 0.  0.
        3    1    3    3  502    0  0.86187815055E+03  0.27338075071E+03 -0.98554303568E+02  0.90955150607E+03  0.10100000352E+00 0.  1.
       -3    1    3    3    0  502 -0.86187815055E+03 -0.27338075071E+03 -0.54006411294E+01  0.90421245201E+03  0.10100000352E+00 0. -1.
</event>
<event>
 5   0  0.1330125E-04  0.1807315E+04  0.7818609E-02  0.8702419E-01
       -3   -1    0    0    0  501  0.00000000000E+00  0.00000000000E+00  0.12952312325E+04  0.12952312364E+04  0.10100000352E+00 0.  1.
        3   -1    0    0  501    0  0.00000000000E+00  0.00000000000E+00 -0.63046390600E+03  0.63046391409E+03  0.10100000352E+00 0. -1.
    10030    2    1    2    0    0  0.00000000000E+00  0.00000000000E+00  0.66476732645E+03  0.19256951505E+04  0.18073146417E+04 0.  0.
        2    1    3    3  502    0 -0.24822720869E+02  0.85473750594E+03  0.21001781756E+02  0.85535574259E+03  0.25500000920E-02 0. -1.
       -2    1    3    3    0  502  0.24822720869E+02 -0.85473750594E+03  0.64376554470E+03  0.10703394079E+04  0.25500000920E-02 0.  1.
</event>
<event>
 5   0  0.1818778E-04  0.1331200E+04  0.7818609E-02  0.9005183E-01
        1   -1    0    0  501    0  0.00000000000E+00  0.00000000000E+00  0.10499864649E+04  0.10499864649E+04  0.50400001928E-02 0. -1.
       -1   -1    0    0    0  501  0.00000000000E+00  0.00000000000E+00 -0.42193255263E+03  0.42193255266E+03  0.50400001928E-02 0.  1.
    10030    2    1    2    0    0  0.00000000000E+00  0.00000000000E+00  0.62805391222E+03  0.14719190175E+04  0.13312001643E+04 0.  0.
        3    1    3    3  502    0 -0.51726895707E+03  0.12200985567E+03  0.75709721179E+03  0.92501339295E+03  0.10100000352E+00 0. -1.
       -3    1    3    3    0  502  0.51726895707E+03 -0.12200985567E+03 -0.12904329957E+03  0.54690562458E+03  0.10100000352E+00 0.  1.
</event>
<event>
 5   0  0.1825253E-04  0.1783677E+04  0.7818609E-02  0.8715029E-01
       -1   -1    0    0    0  501  0.00000000000E+00  0.00000000000E+00  0.11914112633E+04  0.11914112633E+04  0.50400001928E-02 0. -1.
        1   -1    0    0  501    0  0.00000000000E+00  0.00000000000E+00 -0.66759113717E+03  0.66759113719E+03  0.50400001928E-02 0.  1.
    10030    2    1    2    0    0  0.00000000000E+00  0.00000000000E+00  0.52382012614E+03  0.18590024005E+04  0.17836766525E+04 0.  0.
        4    1    3    3  502    0 -0.87247864242E+03 -0.76003447359E+01  0.45436251097E+03  0.98372946027E+03  0.12699999809E+01 0. -1.
       -4    1    3    3    0  502  0.87247864242E+03  0.76003447359E+01  0.69457615170E+02  0.87527294025E+03  0.12699999809E+01 0.  1.
</event>
<event>
 5   0  0.1883959E-04  0.1790427E+04  0.7818609E-02  0.8711407E-01
        1   -1    0    0  501    0  0.00000000000E+00  0.00000000000E+00  0.10034117884E+04  0.10034117884E+04  0.50400001928E-02 0.  1.
       -1   -1    0    0    0  501  0.00000000000E+00  0.00000000000E+00 -0.79868240673E+03  0.79868240674E+03  0.50400001928E-02 0. -1.
    10030    2    1    2    0    0  0.00000000000E+00  0.00000000000E+00  0.20472938168E+03  0.18020941952E+04  0.17904271469E+04 0.  0.
        5    1    3    3  502    0 -0.73361522116E+03  0.16392451163E+03 -0.38693345079E+03  0.84545971138E+03  0.46999998093E+01 0. -1.
       -5    1    3    3    0  502  0.73361522116E+03 -0.16392451163E+03  0.59166283247E+03  0.95663448378E+03  0.46999998093E+01 0.  1.
</event>
<event>
 5   0  0.1825253E-04  0.1802895E+04  0.7818609E-02  0.8704762E-01
        1   -1    0    0  501    0  0.00000000000E+00  0.00000000000E+00  0.74270357523E+03  0.74270357524E+03  0.50400001928E-02 0. -1.
       -1   -1    0    0    0  501  0.00000000000E+00  0.00000000000E+00 -0.10941206795E+04  0.10941206795E+04  0.50400001928E-02 0.  1.
    10030    2    1    2    0    0  0.00000000000E+00  0.00000000000E+00 -0.35141710430E+03  0.18368242548E+04  0.18028947173E+04 0.  0.
        4    1    3    3  502    0  0.43077242357E+03 -0.67483925501E+03 -0.59779112062E+03  0.99916401947E+03  0.12699999809E+01 0.  1.
       -4    1    3    3    0  502 -0.43077242357E+03  0.67483925501E+03  0.24637401631E+03  0.83766023532E+03  0.12699999809E+01 0. -1.
</event>
<event>
 5   0  0.3568870E-04  0.1790011E+04  0.7818609E-02  0.8711630E-01
       -2   -1    0    0    0  501  0.00000000000E+00  0.00000000000E+00  0.66015124513E+03  0.66015124513E+03  0.25500000920E-02 0.  1.
        2   -1    0    0  501    0  0.00000000000E+00  0.00000000000E+00 -0.12134111856E+04  0.12134111856E+04  0.25500000920E-02 0. -1.
    10030    2    1    2    0    0  0.00000000000E+00  0.00000000000E+00 -0.55325994045E+03  0.18735624307E+04  0.17900110670E+04 0.  0.
        1    1    3    3  502    0 -0.22912786317E+03 -0.34222303417E+03 -0.11083385481E+04  0.11823834065E+04  0.50400001928E-02 0. -1.
       -1    1    3    3    0  502  0.22912786317E+03  0.34222303417E+03  0.55507860764E+03  0.69117902419E+03  0.50400001928E-02 0.  1.
</event>
<event>
 5   0  0.1825253E-04  0.1801031E+04  0.7818609E-02  0.8705751E-01
        1   -1    0    0  501    0  0.00000000000E+00  0.00000000000E+00  0.16976017737E+04  0.16976017737E+04  0.50400001928E-02 0. -1.
       -1   -1    0    0    0  501  0.00000000000E+00  0.00000000000E+00 -0.47769053962E+03  0.47769053964E+03  0.50400001928E-02 0.  1.
    10030    2    1    2    0    0  0.00000000000E+00  0.00000000000E+00  0.12199112340E+04  0.21752923133E+04  0.18010311572E+04 0.  0.
        4    1    3    3  502    0 -0.83967142696E+03 -0.27898677522E+03  0.81222207860E+03  0.12010778675E+04  0.12699999809E+01 0. -1.
       -4    1    3    3    0  502  0.83967142696E+03  0.27898677522E+03  0.40768915544E+03  0.97421444578E+03  0.12699999809E+01 0.  1.
</event>
<event>
 5   0  0.3531266E-04  0.1784450E+04  0.7818609E-02  0.8714613E-01
       -2   -1    0    0    0  501  0.00000000000E+00  0.00000000000E+00  0.48215988491E+03  0.48215988492E+03  0.25500000920E-02 0.  1.
        2   -1    0    0  501    0  0.00000000000E+00  0.00000000000E+00 -0.16510398906E+04  0.16510398906E+04  0.25500000920E-02 0. -1.
    10030    2    1    2    0    0  0.00000000000E+00  0.00000000000E+00 -0.11688800057E+04  0.21331997755E+04  0.17844497232E+04 0.  0.
        3    1    3    3  502    0  0.73388765197E+03 -0.40178786331E+03 -0.95491140746E+03  0.12695985110E+04  0.10100000352E+00 0. -1.
       -3    1    3    3    0  502 -0.73388765197E+03  0.40178786331E+03 -0.21396859820E+03  0.86360126450E+03  0.10100000352E+00 0.  1.
</event>
<event>
 5   0  0.3582186E-04  0.1799391E+04  0.7818609E-02  0.8706623E-01
       -2   -1    0    0    0  501  0.00000000000E+00  0.00000000000E+00  0.64335965229E+03  0.64335965230E+03  0.25500000920E-02 0.  1.
        2   -1    0    0  501    0  0.00000000000E+00  0.00000000000E+00 -0.12581638251E+04  0.12581638251E+04  0.25500000920E-02 0. -1.
    10030    2    1    2    0    0  0.00000000000E+00  0.00000000000E+00 -0.61480417282E+03  0.19015234774E+04  0.17993908314E+04 0.  0.
        4    1    3    3  502    0 -0.13810183142E+03 -0.88759164106E+03 -0.36086191252E+03  0.96804647096E+03  0.12699999809E+01 0.  1.
       -4    1    3    3    0  502  0.13810183142E+03  0.88759164106E+03 -0.25394226030E+03  0.93347700646E+03  0.12699999809E+01 0. -1.
</event>
<event>
 5   0  0.1825253E-04  0.1753314E+04  0.7818609E-02  0.8731528E-01
        1   -1    0    0  501    0  0.00000000000E+00  0.00000000000E+00  0.19970853456E+04  0.19970853456E+04  0.50400001928E-02 0.  1.
       -1   -1    0    0    0  501  0.00000000000E+00  0.00000000000E+00 -0.38482457274E+03  0.38482457277E+03  0.50400001928E-02 0. -1.
    10030    2    1    2    0    0  0.00000000000E+00  0.00000000000E+00  0.16122607728E+04  0.23819099184E+04  0.17533140219E+04 0.  0.
        4    1    3    3  502    0  0.99321091359E+02 -0.24838765176E+03  0.19402818258E+04  0.19586363321E+04  0.12699999809E+01 0.  1.
       -4    1    3    3    0  502 -0.99321091359E+02  0.24838765176E+03 -0.32802105300E+03  0.42327358629E+03  0.12699999809E+01 0. -1.
</event>
<event>
 5   0  0.1837313E-04  0.1799100E+04  0.7818609E-02  0.8706778E-01
        1   -1    0    0  501    0  0.00000000000E+00  0.00000000000E+00  0.10316832946E+04  0.10316832946E+04  0.50400001928E-02 0. -1.
       -1   -1    0    0    0  501  0.00000000000E+00  0.00000000000E+00 -0.78433935193E+03  0.78433935194E+03  0.50400001928E-02 0.  1.
    10030    2    1    2    0    0  0.00000000000E+00  0.00000000000E+00  0.24734394267E+03  0.18160226466E+04  0.17990995600E+04 0.  0.
        1    1    3    3  502    0 -0.75455857036E+03 -0.44576427131E+03  0.32837348357E+03  0.93589185616E+03  0.50400001928E-02 0.  1.
       -1    1    3    3    0  502  0.75455857036E+03  0.44576427131E+03 -0.81029540902E+02  0.88013079040E+03  0.50400001928E-02 0. -1.
</event>
<event>
 5   0  0.3628581E-04  0.1794819E+04  0.7818609E-02  0.8709060E-01
        2   -1    0    0  501    0  0.00000000000E+00  0.00000000000E+00  0.17306467409E+04  0.17306467409E+04  0.25500000920E-02 0.  1.
       -2   -1    0    0    0  501  0.00000000000E+00  0.00000000000E+00 -0.46534255475E+03  0.46534255476E+03  0.25500000920E-02 0. -1.
    10030    2    1    2    0    0  0.00000000000E+00  0.00000000000E+00  0.12653041862E+04  0.21959892957E+04  0.17948187382E+04 0.  0.
        2    1    3    3  502    0  0.83735916680E+03  0.16376313662E+03  0.97294536338E+03  0.12940677800E+04  0.25500000920E-02 0.  1.
       -2    1    3    3    0  502 -0.83735916680E+03 -0.16376313662E+03  0.29235882277E+03  0.90192151565E+03  0.25500000920E-02 0. -1.
</event>
<event>
 5   0  0.3531266E-04  0.1789469E+04  0.7818609E-02  0.8711920E-01
        2   -1    0    0  501    0  0.00000000000E+00  0.00000000000E+00  0.14007609586E+04  0.14007609587E+04  0.25500000920E-02 0. -1.
       -2   -1    0    0    0  501  0.00000000000E+00  0.00000000000E+00 -0.57151056729E+03  0.57151056730E+03  0.25500000920E-02 0.  1.
    10030    2    1    2    0    0  0.00000000000E+00  0.00000000000E+00  0.82925039136E+03  0.19722715259E+04  0.17894688487E+04 0.  0.
        3    1    3    3  502    0 -0.62894373149E+03 -0.62655184536E+03  0.53741654669E+03  0.10377639361E+04  0.10100000352E+00 0. -1.
       -3    1    3    3    0  502  0.62894373149E+03  0.62655184536E+03  0.29183384466E+03  0.93450758980E+03  0.10100000352E+00 0.  1.
</event>
<event>
 5   0  0.1825253E-04  0.1615340E+04  0.7818609E-02  0.8811179E-01
        1   -1    0    0  501    0  0.00000000000E+00  0.00000000000E+00  0.94410655022E+03  0.94410655023E+03  0.50400001928E-02 0.  1.
       -1   -1    0    0    0  501  0.00000000000E+00  0.00000000000E+00 -0.69095050523E+03  0.69095050525E+03  0.50400001928E-02 0. -1.
    10030    2    1    2    0    0  0.00000000000E+00  0.00000000000E+00  0.25315604499E+03  0.16350570555E+04  0.16153400854E+04 0.  0.
        4    1    3    3  502    0  0.11851217055E+03 -0.49073335669E+03 -0.51156547068E+03  0.71872470782E+03  0.12699999809E+01 0. -1.
       -4    1    3    3    0  502 -0.11851217055E+03  0.49073335669E+03  0.76472151567E+03  0.91633234766E+03  0.12699999809E+01 0.  1.
</event>
<event>
 5   0  0.1835421E-04  0.1806746E+04  0.7818609E-02  0.8702720E-01
       -1   -1    0    0    0  501  0.00000000000E+00  0.00000000000E+00  0.60448594749E+03  0.60448594751E+03  0.50400001928E-02 0. -1.
        1   -1    0    0  501    0  0.00000000000E+00  0.00000000000E+00 -0.13500443389E+04  0.13500443389E+04  0.50400001928E-02 0.  1.
    10030    2    1    2    0    0  0.00000000000E+00  0.00000000000E+00 -0.74555839141E+03  0.19545302864E+04  0.18067460601E+04 0.  0.
        2    1    3    3  502    0 -0.64074666666E+03 -0.57999659465E+03 -0.88346113147E+02  0.86876773441E+03  0.25500000920E-02 0. -1.
       -2    1    3    3    0  502  0.64074666666E+03  0.57999659465E+03 -0.65721227826E+03  0.10857625520E+04  0.25500000920E-02 0.  1.
</event>
<event>
 5   0  0.1837313E-04  0.1720795E+04  0.7818609E-02  0.8749592E-01
       -1   -1    0    0    0  501  0.00000000000E+00  0.00000000000E+00  0.77676066880E+03  0.77676066882E+03  0.50400001928E-02 0.  1.
        1   -1    0    0  501    0  0.00000000000E+00  0.00000000000E+00 -0.95304009627E+03  0.95304009628E+03  0.50400001928E-02 0. -1.
    10030    2    1    2    0    0  0.00000000000E+00  0.00000000000E+00 -0.17627942747E+03  0.17298007651E+04  0.17207952378E+04 0.  0.
        1    1    3    3  502    0  0.42117080703E+03 -0.23283538296E+03 -0.80509515550E+03  0.93796341810E+03  0.50400001928E-02 0. -1.
       -1    1    3    3    0  502 -0.42117080703E+03  0.23283538296E+03  0.62881572803E+03  0.79183734700E+03  0.50400001928E-02 0.  1.
</event>
<event>
 5   0  0.3628581E-04  0.1777395E+04  0.7818609E-02  0.8718414E-01
       -2   -1    0    0    0  501  0.00000000000E+00  0.00000000000E+00  0.10413708132E+04  0.10413708132E+04  0.25500000920E-02 0.  1.
        2   -1    0    0  501    0  0.00000000000E+00  0.00000000000E+00 -0.75840758930E+03  0.75840758930E+03  0.25500000920E-02 0. -1.
    10030    2    1    2    0    0  0.00000000000E+00  0.00000000000E+00  0.28296322391E+03  0.17997784025E+04  0.17773953168E+04 0.  0.
        2    1    3    3  502    0  0.35030883992E+03  0.34383206858E+03  0.89165310065E+03  0.10178320228E+04  0.25500000920E-02 0. -1.
       -2    1    3    3    0  502 -0.35030883992E+03 -0.34383206858E+03 -0.60868987674E+03  0.78194637972E+03  0.25500000920E-02 0.  1.
</event>
<event>
 5   0  0.1883959E-04  0.1730768E+04  0.7818609E-02  0.8744008E-01
       -1   -1    0    0    0  501  0.00000000000E+00  0.00000000000E+00  0.10704459108E+04  0.10704459108E+04  0.50400001928E-02 0.  1.
        1   -1    0    0  501    0  0.00000000000E+00  0.00000000000E+00 -0.69960495277E+03  0.69960495278E+03  0.50400001928E-02 0. -1.
    10030    2    1    2    0    0  0.00000000000E+00  0.00000000000E+00  0.37084095800E+03  0.17700508636E+04  0.17307677613E+04 0.  0.
        5    1    3    3  502    0  0.55363670890E+03 -0.51708467578E+03 -0.24237622744E+03  0.79539832348E+03  0.46999998093E+01 0. -1.
       -5    1    3    3    0  502 -0.55363670890E+03  0.51708467578E+03  0.61321718544E+03  0.97465254008E+03  0.46999998093E+01 0.  1.
</event>
<event>
 5   0  0.1818778E-04  0.1882269E+04  0.7818609E-02  0.8663733E-01
       -1   -1    0    0    0  501  0.00000000000E+00  0.00000000000E+00  0.53827903416E+03  0.53827903418E+03  0.50400001928E-02 0.  1.
        1   -1    0    0  501    0  0.00000000000E+00  0.00000000000E+00 -0.16454933429E+04  0.16454933429E+04  0.50400001928E-02 0. -1.
    10030    2    1    2    0    0  0.00000000000E+00  0.00000000000E+00 -0.11072143087E+04  0.21837723771E+04  0.18822694465E+04 0.  0.
        3    1    3    3  502    0  0.76880537537E+03  0.47675000683E+03 -0.25244635863E+03  0.93919191245E+03  0.10100000352E+00 0.  1.
       -3    1    3    3    0  502 -0.76880537537E+03 -0.47675000683E+03 -0.85476795008E+03  0.12445804646E+04  0.10100000352E+00 0. -1.
</event>
<event>
 5   0  0.3531266E-04  0.1788127E+04  0.7818609E-02  0.8712639E-01
       -2   -1    0    0    0  501  0.00000000000E+00  0.00000000000E+00  0.75750294474E+03  0.75750294474E+03  0.25500000920E-02 0.  1.
        2   -1    0    0  501    0  0.00000000000E+00  0.00000000000E+00 -0.10552428032E+04  0.10552428032E+04  0.25500000920E-02 0. -1.
    10030    2    1    2    0    0  0.00000000000E+00  0.00000000000E+00 -0.29773985848E+03  0.18127457480E+04  0.17881269875E+04 0.  0.
        3    1    3    3  502    0 -0.36326768586E+03  0.80223121144E+03 -0.30530319427E+03  0.93206672446E+03  0.10100000352E+00 0.  1.
       -3    1    3    3    0  502  0.36326768586E+03 -0.80223121144E+03  0.75633357847E+01  0.88067902351E+03  0.10100000352E+00 0. -1.
</event>
<event>
 5   0  0.3531266E-04  0.2104703E+04  0.7818609E-02  0.8559175E-01
        2   -1    0    0  501    0  0.00000000000E+00  0.00000000000E+00  0.84563895287E+03  0.84563895287E+03  0.25500000920E-02 0.  1.
       -2   -1    0    0    0  501  0.00000000000E+00  0.00000000000E+00 -0.13095936203E+04  0.13095936203E+04  0.25500000920E-02 0. -1.
    10030    2    1    2    0    0  0.00000000000E+00  0.00000000000E+00 -0.46395466742E+03  0.21552325732E+04  0.21047027132E+04 0.  0.
        3    1    3    3  502    0 -0.92524024810E+03  0.50137010356E+03 -0.23057698520E+03  0.10773148350E+04  0.10100000352E+00 0.  1.
       -3    1    3    3    0  502  0.92524024810E+03 -0.50137010356E+03 -0.23337768222E+03  0.10779177381E+04  0.10100000352E+00 0. -1.
</event>
<event>
 5   0  0.1837313E-04  0.1812664E+04  0.7818609E-02  0.8699594E-01
       -1   -1    0    0    0  501  0.00000000000E+00  0.00000000000E+00  0.54383022346E+03  0.54383022349E+03  0.50400001928E-02 0.  1.
        1   -1    0    0  501    0  0.00000000000E+00  0.00000000000E+00 -0.15104673811E+04  0.15104673811E+04  0.50400001928E-02 0. -1.
    10030    2    1    2    0    0  0.00000000000E+00  0.00000000000E+00 -0.96663715760E+03  0.20542976046E+04  0.18126641315E+04 0.  0.
        1    1    3    3  502    0  0.41250855615E+03  0.60519930716E+03  0.12170844747E+03  0.74245704016E+03  0.50400001928E-02 0.  1.
       -1    1    3    3    0  502 -0.41250855615E+03 -0.60519930716E+03 -0.10883456051E+04  0.13118405644E+04  0.50400001928E-02 0. -1.
</event>
<event>
 5   0  0.3568870E-04  0.1804400E+04  0.7818609E-02  0.8703963E-01
       -2   -1    0    0    0  501  0.00000000000E+00  0.00000000000E+00  0.11000307222E+04  0.11000307222E+04  0.25500000920E-02 0.  1.
        2   -1    0    0  501    0  0.00000000000E+00  0.00000000000E+00 -0.73994764587E+03  0.73994764587E+03  0.25500000920E-02 0. -1.
    10030    2    1    2    0    0  0.00000000000E+00  0.00000000000E+00  0.36008307634E+03  0.18399783681E+04  0.18044003362E+04 0.  0.
        1    1    3    3  502    0 -0.81506883120E+03 -0.28154097795E+03 -0.90448218602E+02  0.86705444012E+03  0.50400001928E-02 0.  1.
       -1    1    3    3    0  502  0.81506883120E+03  0.28154097795E+03  0.45053129494E+03  0.97292392796E+03  0.50400001928E-02 0. -1.
</event>
<event>
 5   0  0.1835421E-04  0.1775554E+04  0.7818609E-02  0.8719409E-01
       -1   -1    0    0    0  501  0.00000000000E+00  0.00000000000E+00  0.10364041713E+04  0.10364041714E+04  0.50400001928E-02 0.  1.
        1   -1    0    0  501    0  0.00000000000E+00  0.00000000000E+00 -0.76046364347E+03  0.76046364349E+03  0.50400001928E-02 0. -1.
    10030    2    1    2    0    0  0.00000000000E+00  0.00000000000E+00  0.27594052787E+03  0.17968678148E+04  0.17755536514E+04 0.  0.
        2    1    3    3  502    0 -0.51937668159E+03  0.24911878818E+03  0.82160544253E+03  0.10034180640E+04  0.25500000920E-02 0.  1.
       -2    1    3    3    0  502  0.51937668159E+03 -0.24911878818E+03 -0.54566491465E+03  0.79344975083E+03  0.25500000920E-02 0. -1.
</event>
<event>
 5   0  0.1837313E-04  0.1750947E+04  0.7818609E-02  0.8732829E-01
        1   -1    0    0  501    0  0.00000000000E+00  0.00000000000E+00  0.13274714655E+04  0.13274714655E+04  0.50400001928E-02 0.  1.
       -1   -1    0    0    0  501  0.00000000000E+00  0.00000000000E+00 -0.57737876862E+03  0.57737876864E+03  0.50400001928E-02 0. -1.
    10030    2    1    2    0    0  0.00000000000E+00  0.00000000000E+00  0.75009269692E+03  0.19048502342E+04  0.17509469897E+04 0.  0.
        1    1    3    3  502    0 -0.33442747568E+03  0.47159660091E+03 -0.34016535913E+03  0.67078876113E+03  0.50400001928E-02 0. -1.
       -1    1    3    3    0  502  0.33442747568E+03 -0.47159660091E+03  0.10902580561E+04  0.12340614731E+04  0.50400001928E-02 0.  1.
</event>
<event>
 5   0  0.3575091E-04  0.1760075E+04  0.7818609E-02  0.8727824E-01
       -2   -1    0    0    0  501  0.00000000000E+00  0.00000000000E+00  0.54688730987E+03  0.54688730988E+03  0.25500000920E-02 0.  1.
        2   -1    0    0  501    0  0.00000000000E+00  0.00000000000E+00 -0.14161345725E+04  0.14161345725E+04  0.25500000920E-02 0. -1.
    10030    2    1    2    0    0  0.00000000000E+00  0.00000000000E+00 -0.86924726261E+03  0.19630218824E+04  0.17600750288E+04 0.  0.
        5    1    3    3  502    0 -0.50323369440E+01 -0.57405569455E+03  0.30927670017E+03  0.65210385072E+03  0.46999998093E+01 0.  1.
       -5    1    3    3    0  502  0.50323369440E+01  0.57405569455E+03 -0.11785239628E+04  0.13109180316E+04  0.46999998093E+01 0. -1.
</event>
<event>
 5   0  0.3568870E-04  0.1818674E+04  0.7818609E-02  0.8696431E-01
       -2   -1    0    0    0  501  0.00000000000E+00  0.00000000000E+00  0.16128140808E+04  0.16128140808E+04  0.25500000920E-02 0. -1.
        2   -1    0    0  501    0  0.00000000000E+00  0.00000000000E+00 -0.51270267138E+03  0.51270267139E+03  0.25500000920E-02 0.  1.
    10030    2    1    2    0    0  0.00000000000E+00  0.00000000000E+00  0.11001114094E+04  0.21255167522E+04  0.18186743388E+04 0.  0.
        1    1    3    3  502    0  0.61438071079E+03 -0.22894046743E+03 -0.18634462880E+03  0.68161698638E+03  0.50400001928E-02 0.  1.
       -1    1    3    3    0  502 -0.61438071079E+03  0.22894046743E+03  0.12864560382E+04  0.14438997658E+04  0.50400001928E-02 0. -1.
</event>
<event>
 5   0  0.1835421E-04  0.1492211E+04  0.7818609E-02  0.8889649E-01
       -1   -1    0    0    0  501  0.00000000000E+00  0.00000000000E+00  0.55642167006E+03  0.55642167008E+03  0.50400001928E-02 0. -1.
        1   -1    0    0  501    0  0.00000000000E+00  0.00000000000E+00 -0.10004530824E+04  0.10004530824E+04  0.50400001928E-02 0.  1.
    10030    2    1    2    0    0  0.00000000000E+00  0.00000000000E+00 -0.44403141230E+03  0.15568747525E+04  0.14922114796E+04 0.  0.
        2    1    3    3  502    0 -0.40555714270E+03  0.61429258017E+03 -0.34912188356E+03  0.81468893428E+03  0.25500000920E-02 0.  1.
       -2    1    3    3    0  502  0.40555714270E+03 -0.61429258017E+03 -0.94909528740E+02  0.74218581817E+03  0.25500000920E-02 0. -1.
</event>
<event>
 5   0  0.1835421E-04  0.1790845E+04  0.7818609E-02  0.8711183E-01
        1   -1    0    0  501    0  0.00000000000E+00  0.00000000000E+00  0.11605593129E+04  0.11605593129E+04  0.50400001928E-02 0. -1.
       -1   -1    0    0    0  501  0.00000000000E+00  0.00000000000E+00 -0.69085782345E+03  0.69085782347E+03  0.50400001928E-02 0.  1.
    10030    2    1    2    0    0  0.00000000000E+00  0.00000000000E+00  0.46970148947E+03  0.18514171364E+04  0.17908450306E+04 0.  0.
        2    1    3    3  502    0 -0.73849047767E+03 -0.45406075868E+03  0.31218110852E+01  0.86691931798E+03  0.25500000920E-02 0.  1.
       -2    1    3    3    0  502  0.73849047767E+03  0.45406075868E+03  0.46657967839E+03  0.98449781842E+03  0.25500000920E-02 0. -1.
</event>
<event>
 5   0  0.3628581E-04  0.1800879E+04  0.7818609E-02  0.8705832E-01
       -2   -1    0    0    0  501  0.00000000000E+00  0.00000000000E+00  0.12145083092E+04  0.12145083092E+04  0.25500000920E-02 0.  1.
        2   -1    0    0  501    0  0.00000000000E+00  0.00000000000E+00 -0.66758832131E+03  0.66758832132E+03  0.25500000920E-02 0. -1.
    10030    2    1    2    0    0  0.00000000000E+00  0.00000000000E+00  0.54691998791E+03  0.18820966305E+04  0.18008793001E+04 0.  0.
        2    1    3    3  502    0  0.24404843550E+03 -0.35831066442E+03  0.10982576897E+04  0.11807269473E+04  0.25500000920E-02 0.  1.
       -2    1    3    3    0  502 -0.24404843550E+03  0.35831066442E+03 -0.55133770180E+03  0.70136968322E+03  0.25500000920E-02 0. -1.
</event>
<event>
 5   0  0.1330125E-04  0.1670439E+04  0.7818609E-02  0.8778406E-01
        3   -1    0    0  501    0  0.00000000000E+00  0.00000000000E+00  0.12842602148E+04  0.12842602188E+04  0.10100000352E+00 0.  1.
       -3   -1    0    0    0  501  0.00000000000E+00  0.00000000000E+00 -0.54318537600E+03  0.54318538539E+03  0.10100000352E+00 0. -1.
    10030    2    1    2    0    0  0.00000000000E+00  0.00000000000E+00  0.74107483882E+03  0.18274456042E+04  0.16704387207E+04 0.  0.
        3    1    3    3  502    0 -0.49629364715E+02  0.53481051799E+03 -0.32919474541E+03  0.62996393119E+03  0.10100000352E+00 0. -1.
       -3    1    3    3    0  502  0.49629364715E+02 -0.53481051799E+03  0.10702695842E+04  0.11974816730E+04  0.10100000352E+00 0.  1.
</event>
<event>
 5   0  0.1818778E-04  0.1808955E+04  0.7818609E-02  0.8701552E-01
       -1   -1    0    0    0  501  0.00000000000E+00  0.00000000000E+00  0.46634409601E+03  0.46634409604E+03  0.50400001928E-02 0.  1.
        1   -1    0    0  501    0  0.00000000000E+00  0.00000000000E+00 -0.17542394730E+04  0.17542394730E+04  0.50400001928E-02 0. -1.
    10030    2    1    2    0    0  0.00000000000E+00  0.00000000000E+00 -0.12878953770E+04  0.22205835690E+04  0.18089546387E+04 0.  0.
        3    1    3    3  502    0  0.63937234100E+03 -0.50737990328E+03 -0.16559989485E+03  0.83285934711E+03  0.10100000352E+00 0.  1.
       -3    1    3    3    0  502 -0.63937234100E+03  0.50737990328E+03 -0.11222954821E+04  0.13877242219E+04  0.10100000352E+00 0. -1.
</event>
<event>
 5   0  0.3575091E-04  0.2044132E+04  0.7818609E-02  0.8586261E-01
       -2   -1    0    0    0  501  0.00000000000E+00  0.00000000000E+00  0.10242366452E+04  0.10242366452E+04  0.25500000920E-02 0. -1.
        2   -1    0    0  501    0  0.00000000000E+00  0.00000000000E+00 -0.10198994667E+04  0.10198994667E+04  0.25500000920E-02 0.  1.
    10030    2    1    2    0    0  0.00000000000E+00  0.00000000000E+00  0.43371784596E+01  0.20441361119E+04  0.20441315106E+04 0.  0.
        5    1    3    3  502    0 -0.68938130795E+03 -0.19543697871E+03 -0.72663626052E+03  0.10205217026E+04  0.46999998093E+01 0.  1.
       -5    1    3    3    0  502  0.68938130795E+03  0.19543697871E+03  0.73097343898E+03  0.10236144093E+04  0.46999998093E+01 0. -1.
</event>
<event>
 5   0  0.1818778E-04  0.1878188E+04  0.7818609E-02  0.8665790E-01
       -1   -1    0    0    0  501  0.00000000000E+00  0.00000000000E+00  0.46780765577E+03  0.46780765580E+03  0.50400001928E-02 0.  1.
        1   -1    0    0  501    0  0.00000000000E+00  0.00000000000E+00 -0.18851721473E+04  0.18851721473E+04  0.50400001928E-02 0. -1.
    10030    2    1    2    0    0  0.00000000000E+00  0.00000000000E+00 -0.14173644915E+04  0.23529798031E+04  0.18781884495E+04 0.  0.
        3    1    3    3  502    0 -0.18179914434E+03  0.81281870965E+03 -0.16523496250E+03  0.84913355056E+03  0.10100000352E+00 0.  1.
       -3    1    3    3    0  502  0.18179914434E+03 -0.81281870965E+03 -0.12521295290E+04  0.15038462525E+04  0.10100000352E+00 0. -1.
</event>
<event>
 5   0  0.3628581E-04  0.1789693E+04  0.7818609E-02  0.8711800E-01
        2   -1    0    0  501    0  0.00000000000E+00  0.00000000000E+00  0.16367051248E+04  0.16367051248E+04  0.25500000920E-02 0.  1.
       -2   -1    0    0    0  501  0.00000000000E+00  0.00000000000E+00 -0.48924539273E+03  0.48924539274E+03  0.25500000920E-02 0. -1.
    10030    2    1    2    0    0  0.00000000000E+00  0.00000000000E+00  0.11474597321E+04  0.21259505176E+04  0.17896932045E+04 0.  0.
        2    1    3    3  502    0  0.87325940730E+02 -0.86555842122E+03  0.32474601218E+03  0.92858880722E+03  0.25500000920E-02 0.  1.
       -2    1    3    3    0  502 -0.87325940730E+02  0.86555842122E+03  0.82271371992E+03  0.11973617104E+04  0.25500000920E-02 0. -1.
</event>
<event>
 5   0  0.3628581E-04  0.1810937E+04  0.7818609E-02  0.8700505E-01
        2   -1    0    0  501    0  0.00000000000E+00  0.00000000000E+00  0.17104630207E+04  0.17104630207E+04  0.25500000920E-02 0. -1.
       -2   -1    0    0    0  501  0.00000000000E+00  0.00000000000E+00 -0.47932813999E+03  0.47932814000E+03  0.25500000920E-02 0.  1.
    10030    2    1    2    0    0  0.00000000000E+00  0.00000000000E+00  0.12311348807E+04  0.21897911607E+04  0.18109368385E+04 0.  0.
        2    1    3    3  502    0 -0.13943440036E+03 -0.63501383545E+03  0.13776424970E+04  0.15233461106E+04  0.25500000920E-02 0. -1.
       -2    1    3    3    0  502  0.13943440036E+03  0.63501383545E+03 -0.14650761623E+03  0.66644505013E+03  0.25500000920E-02 0.  1.
</event>
<event>
 5   0  0.1837313E-04  0.1806840E+04  0.7818609E-02  0.8702671E-01
       -1   -1    0    0    0  501  0.00000000000E+00  0.00000000000E+00  0.56039677383E+03  0.56039677385E+03  0.50400001928E-02 0.  1.
        1   -1    0    0  501    0  0.00000000000E+00  0.00000000000E+00 -0.14564097536E+04  0.14564097536E+04  0.50400001928E-02 0. -1.
    10030    2    1    2    0    0  0.00000000000E+00  0.00000000000E+00 -0.89601297977E+03  0.20168065275E+04  0.18068395915E+04 0.  0.
        1    1    3    3  502    0  0.38223642326E+03  0.22860462941E+03 -0.13253496496E+04  0.13981832690E+04  0.50400001928E-02 0. -1.
       -1    1    3    3    0  502 -0.38223642326E+03 -0.22860462941E+03  0.42933666985E+03  0.61862325850E+03  0.50400001928E-02 0.  1.
</event>
<event>
 5   0  0.3531266E-04  0.1773559E+04  0.7818609E-02  0.8720488E-01
       -2   -1    0    0    0  501  0.00000000000E+00  0.00000000000E+00  0.95379710424E+03  0.95379710425E+03  0.25500000920E-02 0. -1.
        2   -1    0    0  501    0  0.00000000000E+00  0.00000000000E+00 -0.82447066464E+03  0.82447066464E+03  0.25500000920E-02 0.  1.
    10030    2    1    2    0    0  0.00000000000E+00  0.00000000000E+00  0.12932643961E+03  0.17782677689E+04  0.17735588318E+04 0.  0.
        3    1    3    3  502    0 -0.20246002276E+03 -0.85897518431E+03  0.15178058519E+03  0.89546958871E+03  0.10100000352E+00 0. -1.
       -3    1    3    3    0  502  0.20246002276E+03  0.85897518431E+03 -0.22454145582E+02  0.88279818018E+03  0.10100000352E+00 0.  1.
</event>
<event>
 5   0  0.3628581E-04  0.1895942E+04  0.7818609E-02  0.8656879E-01
       -2   -1    0    0    0  501  0.00000000000E+00  0.00000000000E+00  0.52231766209E+03  0.52231766209E+03  0.25500000920E-02 0.  1.
        2   -1    0    0  501    0  0.00000000000E+00  0.00000000000E+00 -0.17205031002E+04  0.17205031002E+04  0.25500000920E-02 0. -1.
    10030    2    1    2    0    0  0.00000000000E+00  0.00000000000E+00 -0.11981854381E+04  0.22428207623E+04  0.18959421477E+04 0.  0.
        2    1    3    3  502    0 -0.91515418458E+03  0.69346922325E+02 -0.31832262445E+03  0.97141416010E+03  0.25500000920E-02 0. -1.
       -2    1    3    3    0  502  0.91515418458E+03 -0.69346922325E+02 -0.87986281362E+03  0.12714066022E+04  0.25500000920E-02 0.  1.
</event>
<event>
 5   0  0.1818778E-04  0.1796525E+04  0.7818609E-02  0.8708149E-01
       -1   -1    0    0    0  501  0.00000000000E+00  0.00000000000E+00  0.47961798353E+03  0.47961798356E+03  0.50400001928E-02 0. -1.
        1   -1    0    0  501    0  0.00000000000E+00  0.00000000000E+00 -0.16823301645E+04  0.16823301645E+04  0.50400001928E-02 0.  1.
    10030    2    1    2    0    0  0.00000000000E+00  0.00000000000E+00 -0.12027121809E+04  0.21619481480E+04  0.17965253142E+04 0.  0.
        3    1    3    3  502    0 -0.55946924041E+03  0.70266543492E+03 -0.61514264948E+03  0.10886436671E+04  0.10100000352E+00 0.  1.
       -3    1    3    3    0  502  0.55946924041E+03 -0.70266543492E+03 -0.58756953146E+03  0.10733044810E+04  0.10100000352E+00 0. -1.
</event>
<event>
 5   0  0.1818778E-04  0.1780365E+04  0.7818609E-02  0.8716811E-01
       -1   -1    0    0    0  501  0.00000000000E+00  0.00000000000E+00  0.65134010179E+03  0.65134010181E+03  0.50400001928E-02 0.  1.
        1   -1    0    0  501    0  0.00000000000E+00  0.00000000000E+00 -0.12166070873E+04  0.12166070873E+04  0.50400001928E-02 0. -1.
    10030    2    1    2    0    0  0.00000000000E+00  0.00000000000E+00 -0.56526698553E+03  0.18679471891E+04  0.17803651133E+04 0.  0.
        3    1    3    3  502    0 -0.63534695058E+03 -0.84645866862E+01 -0.93675111322E+03  0.11319187494E+04  0.10100000352E+00 0. -1.
       -3    1    3    3    0  502  0.63534695058E+03  0.84645866862E+01  0.37148412769E+03  0.73602843978E+03  0.10100000352E+00 0.  1.
</event>
<event>
 5   0  0.1825253E-04  0.1792145E+04  0.7818609E-02  0.8710488E-01
       -1   -1    0    0    0  501  0.00000000000E+00  0.00000000000E+00  0.31899774767E+03  0.31899774771E+03  0.50400001928E-02 0.  1.
        1   -1    0    0  501    0  0.00000000000E+00  0.00000000000E+00 -0.25170897952E+04  0.25170897952E+04  0.50400001928E-02 0. -1.
    10030    2    1    2    0    0  0.00000000000E+00  0.00000000000E+00 -0.21980920475E+04  0.28360875429E+04  0.17921450560E+04 0.  0.
        4    1    3    3  502    0  0.66996950264E+03  0.13163231005E+03 -0.20173903342E+04  0.21298008295E+04  0.12699999809E+01 0. -1.
       -4    1    3    3    0  502 -0.66996950264E+03 -0.13163231005E+03 -0.18070171329E+03  0.70628671346E+03  0.12699999809E+01 0.  1.
</event>
<event>
 5   0  0.3531266E-04  0.1777705E+04  0.7818609E-02  0.8718246E-01
        2   -1    0    0  501    0  0.00000000000E+00  0.00000000000E+00  0.52733349559E+03  0.52733349559E+03  0.25500000920E-02 0.  1.
       -2   -1    0    0    0  501  0.00000000000E+00  0.00000000000E+00 -0.14982150249E+04  0.14982150249E+04  0.25500000920E-02 0. -1.
    10030    2    1    2    0    0  0.00000000000E+00  0.00000000000E+00 -0.97088152929E+03  0.20255485205E+04  0.17777052244E+04 0.  0.
        3    1    3    3  502    0 -0.68223850290E+03 -0.42290300780E+03 -0.92045753093E+03  0.12212855544E+04  0.10100000352E+00 0. -1.
       -3    1    3    3    0  502  0.68223850290E+03  0.42290300780E+03 -0.50423998354E+02  0.80426296611E+03  0.10100000352E+00 0.  1.
</event>
<event>
 5   0  0.3628581E-04  0.1813900E+04  0.7818609E-02  0.8698942E-01
       -2   -1    0    0    0  501  0.00000000000E+00  0.00000000000E+00  0.48935826717E+03  0.48935826717E+03  0.25500000920E-02 0. -1.
        2   -1    0    0  501    0  0.00000000000E+00  0.00000000000E+00 -0.16808922619E+04  0.16808922619E+04  0.25500000920E-02 0.  1.
    10030    2    1    2    0    0  0.00000000000E+00  0.00000000000E+00 -0.11915339947E+04  0.21702505291E+04  0.18139002449E+04 0.  0.
        2    1    3    3  502    0 -0.27526097581E+03 -0.66089473724E+03  0.70399777266E+02  0.71937930687E+03  0.25500000920E-02 0. -1.
       -2    1    3    3    0  502  0.27526097581E+03  0.66089473724E+03 -0.12619337720E+04  0.14508712222E+04  0.25500000920E-02 0.  1.
</event>
<event>
 5   0  0.3582186E-04  0.1800615E+04  0.7818609E-02  0.8705972E-01
       -2   -1    0    0    0  501  0.00000000000E+00  0.00000000000E+00  0.85302495424E+03  0.85302495424E+03  0.25500000920E-02 0.  1.
        2   -1    0    0  501    0  0.00000000000E+00  0.00000000000E+00 -0.95021110316E+03  0.95021110317E+03  0.25500000920E-02 0. -1.
    10030    2    1    2    0    0  0.00000000000E+00  0.00000000000E+00 -0.97186148925E+02  0.18032360574E+04  0.18006152091E+04 0.  0.
        4    1    3    3  502    0  0.81307365378E+03  0.29836627715E+03 -0.29479836145E+03  0.91488736390E+03  0.12699999809E+01 0. -1.
       -4    1    3    3    0  502 -0.81307365378E+03 -0.29836627715E+03  0.19761221253E+03  0.88834869351E+03  0.12699999809E+01 0.  1.
</event>
<event>
 5   0  0.1835421E-04  0.1833256E+04  0.7818609E-02  0.8688811E-01
       -1   -1    0    0    0  501  0.00000000000E+00  0.00000000000E+00  0.11023755160E+04  0.11023755160E+04  0.50400001928E-02 0. -1.
        1   -1    0    0  501    0  0.00000000000E+00  0.00000000000E+00 -0.76217884535E+03  0.76217884537E+03  0.50400001928E-02 0.  1.
    10030    2    1    2    0    0  0.00000000000E+00  0.00000000000E+00  0.34019667061E+03  0.18645543613E+04  0.18332564446E+04 0.  0.
        2    1    3    3  502    0  0.69594011981E+03 -0.31835786241E+03 -0.34301733390E+03  0.83865682509E+03  0.25500000920E-02 0.  1.
       -2    1    3    3    0  502 -0.69594011981E+03  0.31835786241E+03  0.68321400451E+03  0.10258975362E+04  0.25500000920E-02 0. -1.
</event>
<event>
 5   0  0.1330125E-04  0.1806248E+04  0.7818609E-02  0.8702984E-01
        3   -1    0    0  501    0  0.00000000000E+00  0.00000000000E+00  0.46738480099E+03  0.46738481190E+03  0.10100000352E+00 0. -1.
       -3   -1    0    0    0  501  0.00000000000E+00  0.00000000000E+00 -0.17451002442E+04  0.17451002471E+04  0.10100000352E+00 0.  1.
    10030    2    1    2    0    0  0.00000000000E+00  0.00000000000E+00 -0.12777154432E+04  0.22124850590E+04  0.18062484277E+04 0.  0.
        4    1    3    3  502    0  0.53748113475E+03 -0.72570206223E+03 -0.65124559931E+03  0.11133965587E+04  0.12699999809E+01 0.  1.
       -4    1    3    3    0  502 -0.53748113475E+03  0.72570206223E+03 -0.62646984386E+03  0.10990885003E+04  0.12699999809E+01 0. -1.
</event>
<event>
 5   0  0.3568870E-04  0.1806025E+04  0.7818609E-02  0.8703102E-01
       -2   -1    0    0    0  501  0.00000000000E+00  0.00000000000E+00  0.38343937096E+03  0.38343937096E+03  0.25500000920E-02 0. -1.
        2   -1    0    0  501    0  0.00000000000E+00  0.00000000000E+00 -0.21266246693E+04  0.21266246693E+04  0.25500000920E-02 0.  1.
    10030    2    1    2    0    0  0.00000000000E+00  0.00000000000E+00 -0.17431852983E+04  0.25100640402E+04  0.18060250557E+04 0.  0.
        1    1    3    3  502    0 -0.13499399436E+03 -0.84454215121E+03 -0.12742994592E+04  0.15347032076E+04  0.50400001928E-02 0.  1.
       -1    1    3    3    0  502  0.13499399436E+03  0.84454215121E+03 -0.46888583910E+03  0.97536083262E+03  0.50400001928E-02 0. -1.
</event>
<event>
 5   0  0.3628581E-04  0.1809253E+04  0.7818609E-02  0.8701394E-01
        2   -1    0    0  501    0  0.00000000000E+00  0.00000000000E+00  0.16167456711E+04  0.16167456711E+04  0.25500000920E-02 0.  1.
       -2   -1    0    0    0  501  0.00000000000E+00  0.00000000000E+00 -0.50617073902E+03  0.50617073902E+03  0.25500000920E-02 0. -1.
    10030    2    1    2    0    0  0.00000000000E+00  0.00000000000E+00  0.11105749321E+04  0.21229164101E+04  0.18092532726E+04 0.  0.
        2    1    3    3  502    0  0.23853650630E+02  0.86776304410E+03  0.85390314700E+03  0.12176749492E+04  0.25500000920E-02 0.  1.
       -2    1    3    3    0  502 -0.23853650630E+02 -0.86776304410E+03  0.25667178506E+03  0.90524146094E+03  0.25500000920E-02 0. -1.
</event>
<event>
 5   0  0.1837313E-04  0.1811098E+04  0.7818609E-02  0.8700420E-01
        1   -1    0    0  501    0  0.00000000000E+00  0.00000000000E+00  0.15757182556E+04  0.15757182556E+04  0.50400001928E-02 0.  1.
       -1   -1    0    0    0  501  0.00000000000E+00  0.00000000000E+00 -0.52040984543E+03  0.52040984545E+03  0.50400001928E-02 0. -1.
    10030    2    1    2    0    0  0.00000000000E+00  0.00000000000E+00  0.10553084102E+04  0.20961281010E+04  0.18110983340E+04 0.  0.
        1    1    3    3  502    0 -0.30572511430E+02 -0.87017236680E+03  0.23973719750E+03  0.90311048620E+03  0.50400001928E-02 0.  1.
       -1    1    3    3    0  502  0.30572511430E+02  0.87017236680E+03  0.81557121266E+03  0.11930176148E+04  0.50400001928E-02 0. -1.
</event>
<event>
 5   0  0.1818778E-04  0.1710960E+04  0.7818609E-02  0.8755138E-01
       -1   -1    0    0    0  501  0.00000000000E+00  0.00000000000E+00  0.69790493469E+03  0.69790493471E+03  0.50400001928E-02 0.  1.
        1   -1    0    0  501    0  0.00000000000E+00  0.00000000000E+00 -0.10486327844E+04  0.10486327844E+04  0.50400001928E-02 0. -1.
    10030    2    1    2    0    0  0.00000000000E+00  0.00000000000E+00 -0.35072784971E+03  0.17465377191E+04  0.17109599585E+04 0.  0.
        3    1    3    3  502    0  0.39224185129E+03 -0.86635080130E+02  0.59564761264E+03  0.71843955602E+03  0.10100000352E+00 0.  1.
       -3    1    3    3    0  502 -0.39224185129E+03  0.86635080130E+02 -0.94637546235E+03  0.10280981631E+04  0.10100000352E+00 0. -1.
</event>
<event>
 5   0  0.1825253E-04  0.1784988E+04  0.7818609E-02  0.8714324E-01
       -1   -1    0    0    0  501  0.00000000000E+00  0.00000000000E+00  0.52058033475E+03  0.52058033478E+03  0.50400001928E-02 0. -1.
        1   -1    0    0  501    0  0.00000000000E+00  0.00000000000E+00 -0.15301104492E+04  0.15301104492E+04  0.50400001928E-02 0.  1.
    10030    2    1    2    0    0  0.00000000000E+00  0.00000000000E+00 -0.10095301144E+04  0.20506907839E+04  0.17849878541E+04 0.  0.
        4    1    3    3  502    0 -0.29344659146E+03 -0.16664029787E+03  0.44445823179E+03  0.55805431960E+03  0.12699999809E+01 0. -1.
       -4    1    3    3    0  502  0.29344659146E+03  0.16664029787E+03 -0.14539883462E+04  0.14926364643E+04  0.12699999809E+01 0.  1.
</event>
<event>
 5   0  0.1330125E-04  0.1817807E+04  0.7818609E-02  0.8696887E-01
       -3   -1    0    0    0  501  0.00000000000E+00  0.00000000000E+00  0.93428011226E+03  0.93428011772E+03  0.10100000352E+00 0. -1.
        3   -1    0    0  501    0  0.00000000000E+00  0.00000000000E+00 -0.88421589295E+03  0.88421589871E+03  0.10100000352E+00 0.  1.
    10030    2    1    2    0    0  0.00000000000E+00  0.00000000000E+00  0.50064219317E+02  0.18184960164E+04  0.18178067377E+04 0.  0.
        3    1    3    3  502    0 -0.29779426266E+03 -0.44612155979E+03 -0.70900319903E+03  0.88903960284E+03  0.10100000352E+00 0.  1.
       -3    1    3    3    0  502  0.29779426266E+03  0.44612155979E+03  0.75906741834E+03  0.92945641360E+03  0.10100000352E+00 0. -1.
</event>
<event>
 5   0  0.1837313E-04  0.1811505E+04  0.7818609E-02  0.8700205E-01
        1   -1    0    0  501    0  0.00000000000E+00  0.00000000000E+00  0.23772604309E+04  0.23772604309E+04  0.50400001928E-02 0. -1.
       -1   -1    0    0    0  501  0.00000000000E+00  0.00000000000E+00 -0.34509792050E+03  0.34509792053E+03  0.50400001928E-02 0.  1.
    10030    2    1    2    0    0  0.00000000000E+00  0.00000000000E+00  0.20321625104E+04  0.27223583515E+04  0.18115050442E+04 0.  0.
        1    1    3    3  502    0  0.90463683631E+03 -0.11668852138E+01  0.94856377152E+03  0.13107793086E+04  0.50400001928E-02 0. -1.
       -1    1    3    3    0  502 -0.90463683631E+03  0.11668852138E+01  0.10835987389E+04  0.14115790429E+04  0.50400001928E-02 0.  1.
</event>
<event>
 5   0  0.3531266E-04  0.1889554E+04  0.7818609E-02  0.8660073E-01
       -2   -1    0    0    0  501  0.00000000000E+00  0.00000000000E+00  0.88051905682E+03  0.88051905682E+03  0.25500000920E-02 0. -1.
        2   -1    0    0  501    0  0.00000000000E+00  0.00000000000E+00 -0.10137246451E+04  0.10137246451E+04  0.25500000920E-02 0.  1.
    10030    2    1    2    0    0  0.00000000000E+00  0.00000000000E+00 -0.13320558829E+03  0.18942437019E+04  0.18895543055E+04 0.  0.
        3    1    3    3  502    0 -0.81681959702E+03  0.27986468350E+03 -0.45107168283E+03  0.97415818449E+03  0.10100000352E+00 0.  1.
       -3    1    3    3    0  502  0.81681959702E+03 -0.27986468350E+03  0.31786609454E+03  0.92008551744E+03  0.10100000352E+00 0. -1.
</event>
<event>
 5   0  0.1835421E-04  0.1772444E+04  0.7818609E-02  0.8721092E-01
       -1   -1    0    0    0  501  0.00000000000E+00  0.00000000000E+00  0.69417540421E+03  0.69417540423E+03  0.50400001928E-02 0.  1.
        1   -1    0    0  501    0  0.00000000000E+00  0.00000000000E+00 -0.11313991434E+04  0.11313991434E+04  0.50400001928E-02 0. -1.
    10030    2    1    2    0    0  0.00000000000E+00  0.00000000000E+00 -0.43722373915E+03  0.18255745476E+04  0.17724440276E+04 0.  0.
        2    1    3    3  502    0  0.32536018054E+03 -0.31468795979E+03 -0.10033572904E+04  0.11007332153E+04  0.25500000920E-02 0. -1.
       -2    1    3    3    0  502 -0.32536018054E+03  0.31468795979E+03  0.56613355125E+03  0.72484133228E+03  0.25500000920E-02 0.  1.
</event>
<event>
 5   0  0.3568870E-04  0.1774943E+04  0.7818609E-02  0.8719739E-01
        2   -1    0    0  501    0  0.00000000000E+00  0.00000000000E+00  0.18724852148E+04  0.18724852148E+04  0.25500000920E-02 0.  1.
       -2   -1    0    0    0  501  0.00000000000E+00  0.00000000000E+00 -0.42062042278E+03  0.42062042278E+03  0.25500000920E-02 0. -1.
    10030    2    1    2    0    0  0.00000000000E+00  0.00000000000E+00  0.14518647921E+04  0.22931056376E+04  0.17749428416E+04 0.  0.
        1    1    3    3  502    0 -0.64557439559E+02 -0.85663544234E+03  0.10136987186E+04  0.13287501782E+04  0.50400001928E-02 0. -1.
       -1    1    3    3    0  502  0.64557439559E+02  0.85663544234E+03  0.43816607348E+03  0.96435545939E+03  0.50400001928E-02 0.  1.
</event>
<event>
 5   0  0.1835421E-04  0.1802316E+04  0.7818609E-02  0.8705069E-01
       -1   -1    0    0    0  501  0.00000000000E+00  0.00000000000E+00  0.88454634438E+03  0.88454634440E+03  0.50400001928E-02 0.  1.
        1   -1    0    0  501    0  0.00000000000E+00  0.00000000000E+00 -0.91808132904E+03  0.91808132905E+03  0.50400001928E-02 0. -1.
    10030    2    1    2    0    0  0.00000000000E+00  0.00000000000E+00 -0.33534984658E+02  0.18026276735E+04  0.18023157143E+04 0.  0.
        2    1    3    3  502    0 -0.17275948611E+03  0.79374237656E+03 -0.40697946039E+03  0.90857310194E+03  0.25500000920E-02 0. -1.
       -2    1    3    3    0  502  0.17275948611E+03 -0.79374237656E+03  0.37344447573E+03  0.89405457151E+03  0.25500000920E-02 0.  1.
</event>
<event>
 5   0  0.1818778E-04  0.1787309E+04  0.7818609E-02  0.8713078E-01
        1   -1    0    0  501    0  0.00000000000E+00  0.00000000000E+00  0.58475970086E+03  0.58475970089E+03  0.50400001928E-02 0. -1.
       -1   -1    0    0    0  501  0.00000000000E+00  0.00000000000E+00 -0.13657199729E+04  0.13657199729E+04  0.50400001928E-02 0.  1.
    10030    2    1    2    0    0  0.00000000000E+00  0.00000000000E+00 -0.78096027201E+03  0.19504796738E+04  0.17873085943E+04 0.  0.
        3    1    3    3  502    0 -0.14801424939E+03  0.59814796276E+03 -0.10968171880E+04  0.12580529232E+04  0.10100000352E+00 0.  1.
       -3    1    3    3    0  502  0.14801424939E+03 -0.59814796276E+03  0.31585691599E+03  0.69242675061E+03  0.10100000352E+00 0. -1.
</event>
<event>
 5   0  0.3582186E-04  0.1799756E+04  0.7818609E-02  0.8706429E-01
       -2   -1    0    0    0  501  0.00000000000E+00  0.00000000000E+00  0.95604867810E+03  0.95604867811E+03  0.25500000920E-02 0. -1.
        2   -1    0    0  501    0  0.00000000000E+00  0.00000000000E+00 -0.84700767107E+03  0.84700767108E+03  0.25500000920E-02 0.  1.
    10030    2    1    2    0    0  0.00000000000E+00  0.00000000000E+00  0.10904100703E+03  0.18030563492E+04  0.17997561660E+04 0.  0.
        4    1    3    3  502    0 -0.13516294396E+03 -0.79845243534E+03 -0.33860653794E+03  0.87775356072E+03  0.12699999809E+01 0.  1.
       -4    1    3    3    0  502  0.13516294396E+03  0.79845243534E+03  0.44764754497E+03  0.92530278846E+03  0.12699999809E+01 0. -1.
</event>
<event>
 5   0  0.1825253E-04  0.1802337E+04  0.7818609E-02  0.8705058E-01
       -1   -1    0    0    0  501  0.00000000000E+00  0.00000000000E+00  0.99411417431E+03  0.99411417433E+03  0.50400001928E-02 0.  1.
        1   -1    0    0  501    0  0.00000000000E+00  0.00000000000E+00 -0.81691299077E+03  0.81691299078E+03  0.50400001928E-02 0. -1.
    10030    2    1    2    0    0  0.00000000000E+00  0.00000000000E+00  0.17720118354E+03  0.18110271651E+04  0.18023371309E+04 0.  0.
        4    1    3    3  502    0  0.85053866521E+03  0.13956363972E+03 -0.17574414071E+03  0.87964859259E+03  0.12699999809E+01 0.  1.
       -4    1    3    3    0  502 -0.85053866521E+03 -0.13956363972E+03  0.35294532426E+03  0.93137857252E+03  0.12699999809E+01 0. -1.
</event>
<event>
 5   0  0.3628581E-04  0.1821527E+04  0.7818609E-02  0.8694935E-01
        2   -1    0    0  501    0  0.00000000000E+00  0.00000000000E+00  0.11910065389E+04  0.11910065389E+04  0.25500000920E-02 0. -1.
       -2   -1    0    0    0  501  0.00000000000E+00  0.00000000000E+00 -0.69646158312E+03  0.69646158312E+03  0.25500000920E-02 0.  1.
    10030    2    1    2    0    0  0.00000000000E+00  0.00000000000E+00  0.49454495582E+03  0.18874681221E+04  0.18215271611E+04 0.  0.
        2    1    3    3  502    0  0.12534368775E+03  0.33057919725E+03  0.11170004567E+04  0.11716158355E+04  0.25500000920E-02 0. -1.
       -2    1    3    3    0  502 -0.12534368775E+03 -0.33057919725E+03 -0.62245550083E+03  0.71585228661E+03  0.25500000920E-02 0.  1.
</event>
<event>
 5   0  0.1818778E-04  0.1911941E+04  0.7818609E-02  0.8648935E-01
        1   -1    0    0  501    0  0.00000000000E+00  0.00000000000E+00  0.96406535491E+03  0.96406535492E+03  0.50400001928E-02 0. -1.
       -1   -1    0    0    0  501  0.00000000000E+00  0.00000000000E+00 -0.94794382735E+03  0.94794382737E+03  0.50400001928E-02 0.  1.
    10030    2    1    2    0    0  0.00000000000E+00  0.00000000000E+00  0.16121527555E+02  0.19120091823E+04  0.19119412150E+04 0.  0.
        3    1    3    3  502    0  0.68087100941E+02  0.82079054825E+03  0.49340967117E+03  0.96009691761E+03  0.10100000352E+00 0. -1.
       -3    1    3    3    0  502 -0.68087100941E+02 -0.82079054825E+03 -0.47728814362E+03  0.95191226468E+03  0.10100000352E+00 0.  1.
</event>
<event>
 5   0  0.3531266E-04  0.1798793E+04  0.7818609E-02  0.8706942E-01
       -2   -1    0    0    0  501  0.00000000000E+00  0.00000000000E+00  0.40936896662E+03  0.40936896663E+03  0.25500000920E-02 0.  1.
        2   -1    0    0  501    0  0.00000000000E+00  0.00000000000E+00 -0.19760020432E+04  0.19760020432E+04  0.25500000920E-02 0. -1.
    10030    2    1    2    0    0  0.00000000000E+00  0.00000000000E+00 -0.15666330766E+04  0.23853710098E+04  0.17987928335E+04 0.  0.
        3    1    3    3  502    0  0.18434452278E+02  0.65508456288E+03 -0.16001722795E+04  0.17291694388E+04  0.10100000352E+00 0. -1.
       -3    1    3    3    0  502 -0.18434452278E+02 -0.65508456288E+03  0.33539202938E+02  0.65620157108E+03  0.10100000352E+00 0.  1.
</event>
<event>
 5   0  0.1835421E-04  0.1786936E+04  0.7818609E-02  0.8713278E-01
       -1   -1    0    0    0  501  0.00000000000E+00  0.00000000000E+00  0.76673322165E+03  0.76673322167E+03  0.50400001928E-02 0.  1.
        1   -1    0    0  501    0  0.00000000000E+00  0.00000000000E+00 -0.10411506311E+04  0.10411506311E+04  0.50400001928E-02 0. -1.
    10030    2    1    2    0    0  0.00000000000E+00  0.00000000000E+00 -0.27441740941E+03  0.18078838527E+04  0.17869356761E+04 0.  0.
        2    1    3    3  502    0  0.59196480961E+03 -0.13388127314E+03 -0.80059217621E+03  0.10046364336E+04  0.25500000920E-02 0. -1.
       -2    1    3    3    0  502 -0.59196480961E+03  0.13388127314E+03  0.52617476680E+03  0.80324741913E+03  0.25500000920E-02 0.  1.
</event>
<event>
 5   0  0.3628581E-04  0.1908346E+04  0.7818609E-02  0.8650713E-01
       -2   -1    0    0    0  501  0.00000000000E+00  0.00000000000E+00  0.62629697812E+03  0.62629697813E+03  0.25500000920E-02 0.  1.
        2   -1    0    0  501    0  0.00000000000E+00  0.00000000000E+00 -0.14536968972E+04  0.14536968972E+04  0.25500000920E-02 0. -1.
    10030    2    1    2    0    0  0.00000000000E+00  0.00000000000E+00 -0.82739991905E+03  0.20799938753E+04  0.19083458532E+04 0.  0.
        2    1    3    3  502    0  0.35700939806E+03 -0.84654517299E+03 -0.13294304997E+03  0.92831476060E+03  0.25500000920E-02 0. -1.
       -2    1    3    3    0  502 -0.35700939806E+03  0.84654517299E+03 -0.69445686908E+03  0.11516791147E+04  0.25500000920E-02 0.  1.
</event>
<event>
 5   0  0.3568870E-04  0.1784787E+04  0.7818609E-02  0.8714432E-01
        2   -1    0    0  501    0  0.00000000000E+00  0.00000000000E+00  0.15129517568E+04  0.15129517568E+04  0.25500000920E-02 0. -1.
       -2   -1    0    0    0  501  0.00000000000E+00  0.00000000000E+00 -0.52636581195E+03  0.52636581195E+03  0.25500000920E-02 0.  1.
    10030    2    1    2    0    0  0.00000000000E+00  0.00000000000E+00  0.98658594484E+03  0.20393175687E+04  0.17847869115E+04 0.  0.
        1    1    3    3  502    0  0.62839289932E+03  0.61989612451E+03  0.64322010656E+03  0.10921908929E+04  0.50400001928E-02 0. -1.
       -1    1    3    3    0  502 -0.62839289932E+03 -0.61989612451E+03  0.34336583828E+03  0.94712667581E+03  0.50400001928E-02 0.  1.
</event>
<event>
 5   0  0.1818778E-04  0.1785206E+04  0.7818609E-02  0.8714206E-01
       -1   -1    0    0    0  501  0.00000000000E+00  0.00000000000E+00  0.51620745081E+03  0.51620745084E+03  0.50400001928E-02 0. -1.
        1   -1    0    0  501    0  0.00000000000E+00  0.00000000000E+00 -0.15434499292E+04  0.15434499292E+04  0.50400001928E-02 0.  1.
    10030    2    1    2    0    0  0.00000000000E+00  0.00000000000E+00 -0.10272424784E+04  0.20596573800E+04  0.17852062664E+04 0.  0.
        3    1    3    3  502    0  0.33282576411E+02 -0.86053591635E+03 -0.78446819104E+03  0.11649120766E+04  0.10100000352E+00 0. -1.
       -3    1    3    3    0  502 -0.33282576411E+02  0.86053591635E+03 -0.24277428731E+03  0.89474530342E+03  0.10100000352E+00 0.  1.
</event>
<event>
 5   0  0.1835421E-04  0.1798530E+04  0.7818609E-02  0.8707082E-01
        1   -1    0    0  501    0  0.00000000000E+00  0.00000000000E+00  0.76445435071E+03  0.76445435073E+03  0.50400001928E-02 0. -1.
       -1   -1    0    0    0  501  0.00000000000E+00  0.00000000000E+00 -0.10578488629E+04  0.10578488629E+04  0.50400001928E-02 0.  1.
    10030    2    1    2    0    0  0.00000000000E+00  0.00000000000E+00 -0.29339451222E+03  0.18223032137E+04  0.17985295835E+04 0.  0.
        2    1    3    3  502    0  0.12150739297E+02 -0.65971801529E+03 -0.76575764906E+03  0.10108215853E+04  0.25500000920E-02 0.  1.
       -2    1    3    3    0  502 -0.12150739297E+02  0.65971801529E+03  0.47236313684E+03  0.81148162839E+03  0.25500000920E-02 0. -1.
</event>
<event>
 5   0  0.3628581E-04  0.1793859E+04  0.7818609E-02  0.8709572E-01
       -2   -1    0    0    0  501  0.00000000000E+00  0.00000000000E+00  0.80586581932E+03  0.80586581933E+03  0.25500000920E-02 0. -1.
        2   -1    0    0  501    0  0.00000000000E+00  0.00000000000E+00 -0.99828299577E+03  0.99828299578E+03  0.25500000920E-02 0.  1.
    10030    2    1    2    0    0  0.00000000000E+00  0.00000000000E+00 -0.19241717645E+03  0.18041488151E+04  0.17938585723E+04 0.  0.
        2    1    3    3  502    0  0.38703055671E+02  0.41562745467E+03 -0.89463788184E+03  0.98722897406E+03  0.25500000920E-02 0.  1.
       -2    1    3    3    0  502 -0.38703055671E+02 -0.41562745467E+03  0.70222070539E+03  0.81691984104E+03  0.25500000920E-02 0. -1.
</event>
<event>
 5   0  0.3582186E-04  0.1790225E+04  0.7818609E-02  0.8711515E-01
        2   -1    0    0  501    0  0.00000000000E+00  0.00000000000E+00  0.70960504472E+03  0.70960504472E+03  0.25500000920E-02 0.  1.
       -2   -1    0    0    0  501  0.00000000000E+00  0.00000000000E+00 -0.11291161441E+04  0.11291161441E+04  0.25500000920E-02 0. -1.
    10030    2    1    2    0    0  0.00000000000E+00  0.00000000000E+00 -0.41951109935E+03  0.18387211888E+04  0.17902251388E+04 0.  0.
        4    1    3    3  502    0 -0.29128766310E+03  0.83839279274E+03 -0.32897722888E+03  0.94656146531E+03  0.12699999809E+01 0. -1.
       -4    1    3    3    0  502  0.29128766310E+03 -0.83839279274E+03 -0.90533870473E+02  0.89215972348E+03  0.12699999809E+01 0.  1.
</event>
<event>
 5   0  0.3531266E-04  0.1796026E+04  0.7818609E-02  0.8708416E-01
       -2   -1    0    0    0  501  0.00000000000E+00  0.00000000000E+00  0.74044966018E+03  0.74044966019E+03  0.25500000920E-02 0. -1.
        2   -1    0    0  501    0  0.00000000000E+00  0.00000000000E+00 -0.10891046464E+04  0.10891046464E+04  0.25500000920E-02 0.  1.
    10030    2    1    2    0    0  0.00000000000E+00  0.00000000000E+00 -0.34865498618E+03  0.18295543066E+04  0.17960257964E+04 0.  0.
        3    1    3    3  502    0 -0.12532192630E+03  0.20186342892E+03 -0.10565039633E+04  0.10828919908E+04  0.10100000352E+00 0.  1.
       -3    1    3    3    0  502  0.12532192630E+03 -0.20186342892E+03  0.70784897710E+03  0.74666231573E+03  0.10100000352E+00 0. -1.
</event>
<event>
 5   0  0.3575091E-04  0.1735659E+04  0.7818609E-02  0.8741284E-01
        2   -1    0    0  501    0  0.00000000000E+00  0.00000000000E+00  0.17350386448E+04  0.17350386448E+04  0.25500000920E-02 0. -1.
       -2   -1    0    0    0  501  0.00000000000E+00  0.00000000000E+00 -0.43406967777E+03  0.43406967778E+03  0.25500000920E-02 0.  1.
    10030    2    1    2    0    0  0.00000000000E+00  0.00000000000E+00  0.13009689670E+04  0.21691083226E+04  0.17356585672E+04 0.  0.
        5    1    3    3  502    0  0.51281217976E+03 -0.10886402442E+02 -0.22433760367E+03  0.55986096121E+03  0.46999998093E+01 0.  1.
       -5    1    3    3    0  502 -0.51281217976E+03  0.10886402442E+02  0.15253065707E+04  0.16092473614E+04  0.46999998093E+01 0. -1.
</event>
<event>
 5   0  0.1825253E-04  0.1793190E+04  0.7818609E-02  0.8709929E-01
       -1   -1    0    0    0  501  0.00000000000E+00  0.00000000000E+00  0.47128963909E+03  0.47128963912E+03  0.50400001928E-02 0. -1.
        1   -1    0    0  501    0  0.00000000000E+00  0.00000000000E+00 -0.17057082394E+04  0.17057082394E+04  0.50400001928E-02 0.  1.
    10030    2    1    2    0    0  0.00000000000E+00  0.00000000000E+00 -0.12344186003E+04  0.21769978785E+04  0.17931900296E+04 0.  0.
        4    1    3    3  502    0 -0.29872199074E+03 -0.63558388616E+03  0.59477728855E+02  0.70479849406E+03  0.12699999809E+01 0. -1.
       -4    1    3    3    0  502  0.29872199074E+03  0.63558388616E+03 -0.12938963291E+04  0.14721993844E+04  0.12699999809E+01 0.  1.
</event>
<event>
 5   0  0.1818778E-04  0.1623744E+04  0.7818609E-02  0.8806092E-01
        1   -1    0    0  501    0  0.00000000000E+00  0.00000000000E+00  0.78146055349E+03  0.78146055350E+03  0.50400001928E-02 0. -1.
       -1   -1    0    0    0  501  0.00000000000E+00  0.00000000000E+00 -0.84346706507E+03  0.84346706509E+03  0.50400001928E-02 0.  1.
    10030    2    1    2    0    0  0.00000000000E+00  0.00000000000E+00 -0.62006511582E+02  0.16249276186E+04  0.16237441172E+04 0.  0.
        3    1    3    3  502    0  0.17005033216E+03  0.26449256992E+03 -0.78005586511E+03  0.84104732204E+03  0.10100000352E+00 0.  1.
       -3    1    3    3    0  502 -0.17005033216E+03 -0.26449256992E+03  0.71804935353E+03  0.78388029655E+03  0.10100000352E+00 0. -1.
</event>
<event>
 5   0  0.1837313E-04  0.1797999E+04  0.7818609E-02  0.8707364E-01
       -1   -1    0    0    0  501  0.00000000000E+00  0.00000000000E+00  0.15037798416E+04  0.15037798416E+04  0.50400001928E-02 0. -1.
        1   -1    0    0  501    0  0.00000000000E+00  0.00000000000E+00 -0.53744562539E+03  0.53744562542E+03  0.50400001928E-02 0.  1.
    10030    2    1    2    0    0  0.00000000000E+00  0.00000000000E+00  0.96633421620E+03  0.20412254670E+04  0.17979987736E+04 0.  0.
        1    1    3    3  502    0 -0.20904742893E+03  0.38956526253E+03  0.13718339701E+04  0.14413154973E+04  0.50400001928E-02 0. -1.
       -1    1    3    3    0  502  0.20904742893E+03 -0.38956526253E+03 -0.40549975388E+03  0.59990996970E+03  0.50400001928E-02 0.  1.
</event>
<event>
 5   0  0.3582186E-04  0.1812668E+04  0.7818609E-02  0.8699592E-01
       -2   -1    0    0    0  501  0.00000000000E+00  0.00000000000E+00  0.61791032355E+03  0.61791032355E+03  0.25500000920E-02 0. -1.
        2   -1    0    0  501    0  0.00000000000E+00  0.00000000000E+00 -0.13293857472E+04  0.13293857472E+04  0.25500000920E-02 0.  1.
    10030    2    1    2    0    0  0.00000000000E+00  0.00000000000E+00 -0.71147542369E+03  0.19472960708E+04  0.18126678429E+04 0.  0.
        4    1    3    3  502    0 -0.16389486346E+03  0.26175986021E+03  0.55963920612E+03  0.63920059810E+03  0.12699999809E+01 0. -1.
       -4    1    3    3    0  502  0.16389486346E+03 -0.26175986021E+03 -0.12711146298E+04  0.13080954727E+04  0.12699999809E+01 0.  1.
</event>
<event>
 5   0  0.3582186E-04  0.1773107E+04  0.7818609E-02  0.8720733E-01
       -2   -1    0    0    0  501  0.00000000000E+00  0.00000000000E+00  0.79775164449E+03  0.79775164450E+03  0.25500000920E-02 0.  1.
        2   -1    0    0  501    0  0.00000000000E+00  0.00000000000E+00 -0.98524018856E+03  0.98524018856E+03  0.25500000920E-02 0. -1.
    10030    2    1    2    0    0  0.00000000000E+00  0.00000000000E+00 -0.18748854406E+03  0.17829918331E+04  0.17731068559E+04 0.  0.
        4    1    3    3  502    0  0.37747101533E+03  0.20154505816E+03 -0.87452034142E+03  0.97359756488E+03  0.12699999809E+01 0. -1.
       -4    1    3    3    0  502 -0.37747101533E+03 -0.20154505816E+03  0.68703179736E+03  0.80939426818E+03  0.12699999809E+01 0.  1.
</event>
<event>
 5   0  0.1883959E-04  0.1783161E+04  0.7818609E-02  0.8715306E-01
        1   -1    0    0  501    0  0.00000000000E+00  0.00000000000E+00  0.65530067130E+03  0.65530067132E+03  0.50400001928E-02 0.  1.
       -1   -1    0    0    0  501  0.00000000000E+00  0.00000000000E+00 -0.12130550252E+04  0.12130550252E+04  0.50400001928E-02 0. -1.
    10030    2    1    2    0    0  0.00000000000E+00  0.00000000000E+00 -0.55775435389E+03  0.18683556965E+04  0.17831609825E+04 0.  0.
        5    1    3    3  502    0 -0.15573165314E+03 -0.28090801264E+03 -0.11503180956E+04  0.11943263668E+04  0.46999998093E+01 0. -1.
       -5    1    3    3    0  502  0.15573165314E+03  0.28090801264E+03  0.59256374170E+03  0.67402932973E+03  0.46999998093E+01 0.  1.
</event>
<event>
 5   0  0.3628581E-04  0.1810847E+04  0.7818609E-02  0.8700552E-01
        2   -1    0    0  501    0  0.00000000000E+00  0.00000000000E+00  0.13703319304E+04  0.13703319304E+04  0.25500000920E-02 0. -1.
       -2   -1    0    0    0  501  0.00000000000E+00  0.00000000000E+00 -0.59824328408E+03  0.59824328408E+03  0.25500000920E-02 0.  1.
    10030    2    1    2    0    0  0.00000000000E+00  0.00000000000E+00  0.77208864631E+03  0.19685752145E+04  0.18108471767E+04 0.  0.
        2    1    3    3  502    0  0.24947127165E+02 -0.32190532679E+03 -0.53353486963E+03  0.62362236625E+03  0.25500000920E-02 0.  1.
       -2    1    3    3    0  502 -0.24947127165E+02  0.32190532679E+03  0.13056235159E+04  0.13449528482E+04  0.25500000920E-02 0. -1.
</event>
<event>
 5   0  0.1835421E-04  0.1821112E+04  0.7818609E-02  0.8695152E-01
       -1   -1    0    0    0  501  0.00000000000E+00  0.00000000000E+00  0.68483338040E+03  0.68483338041E+03  0.50400001928E-02 0.  1.
        1   -1    0    0  501    0  0.00000000000E+00  0.00000000000E+00 -0.12106772685E+04  0.12106772685E+04  0.50400001928E-02 0. -1.
    10030    2    1    2    0    0  0.00000000000E+00  0.00000000000E+00 -0.52584388809E+03  0.18955106489E+04  0.18211119750E+04 0.  0.
        2    1    3    3  502    0 -0.56200907750E+03 -0.32359365125E+02 -0.10078493903E+04  0.11544096869E+04  0.25500000920E-02 0. -1.
       -2    1    3    3    0  502  0.56200907750E+03  0.32359365125E+02  0.48200550221E+03  0.74110096200E+03  0.25500000920E-02 0.  1.
</event>
<event>
 5   0  0.1818778E-04  0.1790137E+04  0.7818609E-02  0.8711562E-01
        1   -1    0    0  501    0  0.00000000000E+00  0.00000000000E+00  0.59487523671E+03  0.59487523673E+03  0.50400001928E-02 0. -1.
       -1   -1    0    0    0  501  0.00000000000E+00  0.00000000000E+00 -0.13467494775E+04  0.13467494776E+04  0.50400001928E-02 0.  1.
    10030    2    1    2    0    0  0.00000000000E+00  0.00000000000E+00 -0.75187424084E+03  0.19416247143E+04  0.17901373291E+04 0.  0.
        3    1    3    3  502    0 -0.88529633118E+03 -0.32053684942E+02 -0.51471327211E+03  0.10245519974E+04  0.10100000352E+00 0.  1.
       -3    1    3    3    0  502  0.88529633118E+03  0.32053684942E+02 -0.23716096873E+03  0.91707271687E+03  0.10100000352E+00 0. -1.
</event>
<event>
 5   0  0.3531266E-04  0.1826837E+04  0.7818609E-02  0.8692157E-01
       -2   -1    0    0    0  501  0.00000000000E+00  0.00000000000E+00  0.72767369619E+03  0.72767369619E+03  0.25500000920E-02 0. -1.
        2   -1    0    0  501    0  0.00000000000E+00  0.00000000000E+00 -0.11465765171E+04  0.11465765171E+04  0.25500000920E-02 0.  1.
    10030    2    1    2    0    0  0.00000000000E+00  0.00000000000E+00 -0.41890282087E+03  0.18742502132E+04  0.18268372365E+04 0.  0.
        3    1    3    3  502    0  0.22144067960E+03  0.56696965501E+03 -0.90818756593E+03  0.10932955819E+04  0.10100000352E+00 0.  1.
       -3    1    3    3    0  502 -0.22144067960E+03 -0.56696965501E+03  0.48928474506E+03  0.78095463135E+03  0.10100000352E+00 0. -1.
</event>
<event>
 5   0  0.3568870E-04  0.1797537E+04  0.7818609E-02  0.8707611E-01
       -2   -1    0    0    0  501  0.00000000000E+00  0.00000000000E+00  0.31103233345E+03  0.31103233346E+03  0.25500000920E-02 0. -1.
        2   -1    0    0  501    0  0.00000000000E+00  0.00000000000E+00 -0.25971079997E+04  0.25971079997E+04  0.25500000920E-02 0.  1.
    10030    2    1    2    0    0  0.00000000000E+00  0.00000000000E+00 -0.22860756663E+04  0.29081403332E+04  0.17975367161E+04 0.  0.
        1    1    3    3  502    0 -0.81102332551E+03 -0.38689124390E+03 -0.11131670808E+04  0.14305889063E+04  0.50400001928E-02 0. -1.
       -1    1    3    3    0  502  0.81102332551E+03  0.38689124390E+03 -0.11729085855E+04  0.14775514269E+04  0.50400001928E-02 0.  1.
</event>
<event>
 5   0  0.1825253E-04  0.1808477E+04  0.7818609E-02  0.8701804E-01
       -1   -1    0    0    0  501  0.00000000000E+00  0.00000000000E+00  0.10563901236E+04  0.10563901236E+04  0.50400001928E-02 0. -1.
        1   -1    0    0  501    0  0.00000000000E+00  0.00000000000E+00 -0.77400143753E+03  0.77400143754E+03  0.50400001928E-02 0.  1.
    10030    2    1    2    0    0  0.00000000000E+00  0.00000000000E+00  0.28238868610E+03  0.18303915612E+04  0.18084772316E+04 0.  0.
        4    1    3    3  502    0 -0.27801678623E+03 -0.31993353615E+03 -0.66723043772E+03  0.79047382683E+03  0.12699999809E+01 0.  1.
       -4    1    3    3    0  502  0.27801678623E+03  0.31993353615E+03  0.94961912383E+03  0.10399177344E+04  0.12699999809E+01 0. -1.
</event>
<event>
 5   0  0.1825253E-04  0.1790130E+04  0.7818609E-02  0.8711566E-01
       -1   -1    0    0    0  501  0.00000000000E+00  0.00000000000E+00  0.52926710063E+03  0.52926710065E+03  0.50400001928E-02 0. -1.
        1   -1    0    0  501    0  0.00000000000E+00  0.00000000000E+00 -0.15136804716E+04  0.15136804716E+04  0.50400001928E-02 0.  1.
    10030    2    1    2    0    0  0.00000000000E+00  0.00000000000E+00 -0.98441337096E+03  0.20429475722E+04  0.17901299109E+04 0.  0.
        4    1    3    3  502    0 -0.43304698473E+03  0.69966781078E+03 -0.89419616138E+03  0.12151761701E+04  0.12699999809E+01 0.  1.
       -4    1    3    3    0  502  0.43304698473E+03 -0.69966781078E+03 -0.90217209582E+02  0.82777140216E+03  0.12699999809E+01 0. -1.
</event>
<event>
 5   0  0.1818778E-04  0.1801068E+04  0.7818609E-02  0.8705732E-01
       -1   -1    0    0    0  501  0.00000000000E+00  0.00000000000E+00  0.58425698119E+03  0.58425698121E+03  0.50400001928E-02 0.  1.
        1   -1    0    0  501    0  0.00000000000E+00  0.00000000000E+00 -0.13880215142E+04  0.13880215143E+04  0.50400001928E-02 0. -1.
    10030    2    1    2    0    0  0.00000000000E+00  0.00000000000E+00 -0.80376453306E+03  0.19722784955E+04  0.18010677497E+04 0.  0.
        3    1    3    3  502    0 -0.29034311416E+03  0.52364676268E+03  0.33470881888E+03  0.68595558139E+03  0.10100000352E+00 0.  1.
       -3    1    3    3    0  502  0.29034311416E+03 -0.52364676268E+03 -0.11384733519E+04  0.12863229141E+04  0.10100000352E+00 0. -1.
</event>
<event>
 5   0  0.3582186E-04  0.1790300E+04  0.7818609E-02  0.8711475E-01
       -2   -1    0    0    0  501  0.00000000000E+00  0.00000000000E+00  0.62142140349E+03  0.62142140350E+03  0.25500000920E-02 0. -1.
        2   -1    0    0  501    0  0.00000000000E+00  0.00000000000E+00 -0.12894529533E+04  0.12894529533E+04  0.25500000920E-02 0.  1.
    10030    2    1    2    0    0  0.00000000000E+00  0.00000000000E+00 -0.66803154978E+03  0.19108743568E+04  0.17903001580E+04 0.  0.
        4    1    3    3  502    0 -0.71122532516E+03 -0.40816836075E+03 -0.71714661084E+03  0.10893776885E+04  0.12699999809E+01 0.  1.
       -4    1    3    3    0  502  0.71122532516E+03  0.40816836075E+03  0.49115061060E+02  0.82149666827E+03  0.12699999809E+01 0. -1.
</event>
<event>
 5   0  0.1883959E-04  0.1804923E+04  0.7818609E-02  0.8703686E-01
       -1   -1    0    0    0  501  0.00000000000E+00  0.00000000000E+00  0.65455678115E+03  0.65455678117E+03  0.50400001928E-02 0. -1.
        1   -1    0    0  501    0  0.00000000000E+00  0.00000000000E+00 -0.12442569525E+04  0.12442569525E+04  0.50400001928E-02 0.  1.
    10030    2    1    2    0    0  0.00000000000E+00  0.00000000000E+00 -0.58970017134E+03  0.18988137337E+04  0.18049230740E+04 0.  0.
        5    1    3    3  502    0 -0.81239455304E+03  0.16984113031E+03 -0.66766262029E+03  0.10651884265E+04  0.46999998093E+01 0.  1.
       -5    1    3    3    0  502  0.81239455304E+03 -0.16984113031E+03  0.77962448952E+02  0.83362530720E+03  0.46999998093E+01 0. -1.
</event>
<event>
 5   0  0.3531266E-04  0.1798117E+04  0.7818609E-02  0.8707301E-01
       -2   -1    0    0    0  501  0.00000000000E+00  0.00000000000E+00  0.45756826246E+03  0.45756826247E+03  0.25500000920E-02 0. -1.
        2   -1    0    0  501    0  0.00000000000E+00  0.00000000000E+00 -0.17665266624E+04  0.17665266624E+04  0.25500000920E-02 0.  1.
    10030    2    1    2    0    0  0.00000000000E+00  0.00000000000E+00 -0.13089584000E+04  0.22240949249E+04  0.17981173883E+04 0.  0.
        3    1    3    3  502    0  0.22727170699E+03 -0.79034132956E+03 -0.11038929863E+04  0.13765433453E+04  0.10100000352E+00 0.  1.
       -3    1    3    3    0  502 -0.22727170699E+03  0.79034132956E+03 -0.20506541363E+03  0.84755157960E+03  0.10100000352E+00 0. -1.
</event>
<event>
 5   0  0.3531266E-04  0.1819719E+04  0.7818609E-02  0.8695883E-01
       -2   -1    0    0    0  501  0.00000000000E+00  0.00000000000E+00  0.40114941843E+03  0.40114941844E+03  0.25500000920E-02 0.  1.
        2   -1    0    0  501    0  0.00000000000E+00  0.00000000000E+00 -0.20636806224E+04  0.20636806224E+04  0.25500000920E-02 0. -1.
    10030    2    1    2    0    0  0.00000000000E+00  0.00000000000E+00 -0.16625312040E+04  0.24648300409E+04  0.18197189690E+04 0.  0.
        3    1    3    3  502    0  0.62772693515E+03 -0.39665565306E+03 -0.15434700255E+04  0.17127978696E+04  0.10100000352E+00 0. -1.
       -3    1    3    3    0  502 -0.62772693515E+03  0.39665565306E+03 -0.11906117849E+03  0.75203217128E+03  0.10100000352E+00 0.  1.
</event>
<event>
 5   0  0.1330125E-04  0.1802813E+04  0.7818609E-02  0.8704805E-01
       -3   -1    0    0    0  501  0.00000000000E+00  0.00000000000E+00  0.76145341832E+03  0.76145342502E+03  0.10100000352E+00 0. -1.
        3   -1    0    0  501    0  0.00000000000E+00  0.00000000000E+00 -0.10670825881E+04  0.10670825929E+04  0.10100000352E+00 0.  1.
    10030    2    1    2    0    0  0.00000000000E+00  0.00000000000E+00 -0.30562916977E+03  0.18285360179E+04  0.18028130184E+04 0.  0.
        2    1    3    3  502    0  0.38225939877E+03  0.46266752790E+03  0.52935166638E+03  0.80024788411E+03  0.25500000920E-02 0. -1.
       -2    1    3    3    0  502 -0.38225939877E+03 -0.46266752790E+03 -0.83498083615E+03  0.10282881338E+04  0.25500000920E-02 0.  1.
</event>
<event>
 5   0  0.1883959E-04  0.1813203E+04  0.7818609E-02  0.8699310E-01
        1   -1    0    0  501    0  0.00000000000E+00  0.00000000000E+00  0.63135790446E+03  0.63135790448E+03  0.50400001928E-02 0. -1.
       -1   -1    0    0    0  501  0.00000000000E+00  0.00000000000E+00 -0.13018386088E+04  0.13018386088E+04  0.50400001928E-02 0.  1.
    10030    2    1    2    0    0  0.00000000000E+00  0.00000000000E+00 -0.67048070437E+03  0.19331965133E+04  0.18132027973E+04 0.  0.
        5    1    3    3  502    0  0.19929941074E+03  0.32132161389E+03  0.54326436192E+03  0.66191093933E+03  0.46999998093E+01 0. -1.
       -5    1    3    3    0  502 -0.19929941074E+03 -0.32132161389E+03 -0.12137450663E+04  0.12712855740E+04  0.46999998093E+01 0.  1.
</event>
<event>
 5   0  0.3531266E-04  0.1827850E+04  0.7818609E-02  0.8691628E-01
        2   -1    0    0  501    0  0.00000000000E+00  0.00000000000E+00  0.11833543163E+04  0.11833543163E+04  0.25500000920E-02 0. -1.
       -2   -1    0    0    0  501  0.00000000000E+00  0.00000000000E+00 -0.70583987315E+03  0.70583987315E+03  0.25500000920E-02 0.  1.
    10030    2    1    2    0    0  0.00000000000E+00  0.00000000000E+00  0.47751444319E+03  0.18891941895E+04  0.18278497318E+04 0.  0.
        3    1    3    3  502    0  0.30689297840E+03  0.61215684194E+03 -0.38681563658E+03  0.78647672961E+03  0.10100000352E+00 0.  1.
       -3    1    3    3    0  502 -0.30689297840E+03 -0.61215684194E+03  0.86433007977E+03  0.11027174599E+04  0.10100000352E+00 0. -1.
</event>
<event>
 5   0  0.1330125E-04  0.1808081E+04  0.7818609E-02  0.8702014E-01
       -3   -1    0    0    0  501  0.00000000000E+00  0.00000000000E+00  0.41310424026E+03  0.41310425260E+03  0.10100000352E+00 0.  1.
        3   -1    0    0  501    0  0.00000000000E+00  0.00000000000E+00 -0.19784096047E+04  0.19784096073E+04  0.10100000352E+00 0. -1.
    10030    2    1    2    0    0  0.00000000000E+00  0.00000000000E+00 -0.15653053645E+04  0.23915138599E+04  0.18080812089E+04 0.  0.
        4    1    3    3  502    0 -0.42309527439E+03 -0.67348042621E+03 -0.13511011867E+04  0.15678206292E+04  0.12699999809E+01 0. -1.
       -4    1    3    3    0  502  0.42309527439E+03  0.67348042621E+03 -0.21420417781E+03  0.82369323076E+03  0.12699999809E+01 0.  1.
</event>
<event>
 5   0  0.3628581E-04  0.1777112E+04  0.7818609E-02  0.8718567E-01
        2   -1    0    0  501    0  0.00000000000E+00  0.00000000000E+00  0.15477580485E+04  0.15477580485E+04  0.25500000920E-02 0. -1.
       -2   -1    0    0    0  501  0.00000000000E+00  0.00000000000E+00 -0.51011298496E+03  0.51011298497E+03  0.25500000920E-02 0.  1.
    10030    2    1    2    0    0  0.00000000000E+00  0.00000000000E+00  0.10376450635E+04  0.20578710335E+04  0.17771116770E+04 0.  0.
        2    1    3    3  502    0  0.12394963295E+02 -0.88812037466E+03  0.54765716135E+03  0.10434748686E+04  0.25500000920E-02 0. -1.
       -2    1    3    3    0  502 -0.12394963295E+02  0.88812037466E+03  0.48998790218E+03  0.10143961649E+04  0.25500000920E-02 0.  1.
</event>
<event>
 5   0  0.3568870E-04  0.1800546E+04  0.7818609E-02  0.8706009E-01
        2   -1    0    0  501    0  0.00000000000E+00  0.00000000000E+00  0.18953151660E+04  0.18953151660E+04  0.25500000920E-02 0.  1.
       -2   -1    0    0    0  501  0.00000000000E+00  0.00000000000E+00 -0.42762875047E+03  0.42762875048E+03  0.25500000920E-02 0. -1.
    10030    2    1    2    0    0  0.00000000000E+00  0.00000000000E+00  0.14676864155E+04  0.23229439164E+04  0.18005457575E+04 0.  0.
        1    1    3    3  502    0 -0.44267561868E+03 -0.50238018394E+03 -0.42538029642E+02  0.67093743120E+03  0.50400001928E-02 0. -1.
       -1    1    3    3    0  502  0.44267561868E+03  0.50238018394E+03  0.15102244451E+04  0.16520064852E+04  0.50400001928E-02 0.  1.
</event>
<event>
 5   0  0.1837313E-04  0.1818825E+04  0.7818609E-02  0.8696352E-01
       -1   -1    0    0    0  501  0.00000000000E+00  0.00000000000E+00  0.34056983178E+03  0.34056983182E+03  0.50400001928E-02 0.  1.
        1   -1    0    0  501    0  0.00000000000E+00  0.00000000000E+00 -0.24283744334E+04  0.24283744334E+04  0.50400001928E-02 0. -1.
    10030    2    1    2    0    0  0.00000000000E+00  0.00000000000E+00 -0.20878046016E+04  0.27689442652E+04  0.18188249749E+04 0.  0.
        1    1    3    3  502    0 -0.40318474232E+03 -0.39180820561E+02 -0.22834400623E+04  0.23190928380E+04  0.50400001928E-02 0. -1.
       -1    1    3    3    0  502  0.40318474232E+03  0.39180820561E+02  0.19563546063E+03  0.44985142728E+03  0.50400001928E-02 0.  1.
</event>
<event>
 5   0  0.3582186E-04  0.1804967E+04  0.7818609E-02  0.8703663E-01
       -2   -1    0    0    0  501  0.00000000000E+00  0.00000000000E+00  0.12426665071E+04  0.12426665071E+04  0.25500000920E-02 0.  1.
        2   -1    0    0  501    0  0.00000000000E+00  0.00000000000E+00 -0.65542623195E+03  0.65542623195E+03  0.25500000920E-02 0. -1.
    10030    2    1    2    0    0  0.00000000000E+00  0.00000000000E+00  0.58724027520E+03  0.18980927391E+04  0.18049667325E+04 0.  0.
        4    1    3    3  502    0  0.31391685154E+02 -0.88234891796E+03  0.97026663180E+02  0.88822341625E+03  0.12699999809E+01 0. -1.
       -4    1    3    3    0  502 -0.31391685154E+02  0.88234891796E+03  0.49021361202E+03  0.10098693228E+04  0.12699999809E+01 0.  1.
</event>
<event>
 5   0  0.3582186E-04  0.1880900E+04  0.7818609E-02  0.8664422E-01
       -2   -1    0    0    0  501  0.00000000000E+00  0.00000000000E+00  0.56773955846E+03  0.56773955847E+03  0.25500000920E-02 0. -1.
        2   -1    0    0  501    0  0.00000000000E+00  0.00000000000E+00 -0.15578386578E+04  0.15578386578E+04  0.25500000920E-02 0.  1.
    10030    2    1    2    0    0  0.00000000000E+00  0.00000000000E+00 -0.99009909938E+03  0.21255782163E+04  0.18809004564E+04 0.  0.
        4    1    3    3  502    0 -0.84094080490E+03  0.94452914702E+02 -0.95871828696E+03  0.12787670457E+04  0.12699999809E+01 0.  1.
       -4    1    3    3    0  502  0.84094080490E+03 -0.94452914702E+02 -0.31380812422E+02  0.84681117064E+03  0.12699999809E+01 0. -1.
</event>
<event>
 5   0  0.3531266E-04  0.1669511E+04  0.7818609E-02  0.8778947E-01
        2   -1    0    0  501    0  0.00000000000E+00  0.00000000000E+00  0.76274079942E+03  0.76274079943E+03  0.25500000920E-02 0. -1.
       -2   -1    0    0    0  501  0.00000000000E+00  0.00000000000E+00 -0.91356903634E+03  0.91356903635E+03  0.25500000920E-02 0.  1.
    10030    2    1    2    0    0  0.00000000000E+00  0.00000000000E+00 -0.15082823692E+03  0.16763098358E+04  0.16695105596E+04 0.  0.
        3    1    3    3  502    0 -0.47376333891E+03  0.31182837201E+03 -0.69038522082E+03  0.89348777172E+03  0.10100000352E+00 0.  1.
       -3    1    3    3    0  502  0.47376333891E+03 -0.31182837201E+03  0.53955698390E+03  0.78282206405E+03  0.10100000352E+00 0. -1.
</event>
<event>
 5   0  0.1825253E-04  0.1798469E+04  0.7818609E-02  0.8707114E-01
        1   -1    0    0  501    0  0.00000000000E+00  0.00000000000E+00  0.64675326463E+03  0.64675326465E+03  0.50400001928E-02 0.  1.
       -1   -1    0    0    0  501  0.00000000000E+00  0.00000000000E+00 -0.12502806659E+04  0.12502806659E+04  0.50400001928E-02 0. -1.
    10030    2    1    2    0    0  0.00000000000E+00  0.00000000000E+00 -0.60352740129E+03  0.18970339306E+04  0.17984694631E+04 0.  0.
        4    1    3    3  502    0 -0.17367717591E+03 -0.46779696417E+03 -0.10908419837E+04  0.11995564211E+04  0.12699999809E+01 0. -1.
       -4    1    3    3    0  502  0.17367717591E+03  0.46779696417E+03  0.48731458240E+03  0.69747750949E+03  0.12699999809E+01 0.  1.
</event>
<event>
 5   0  0.1835421E-04  0.1793709E+04  0.7818609E-02  0.8709652E-01
       -1   -1    0    0    0  501  0.00000000000E+00  0.00000000000E+00  0.73911002932E+03  0.73911002934E+03  0.50400001928E-02 0.  1.
        1   -1    0    0  501    0  0.00000000000E+00  0.00000000000E+00 -0.10882657233E+04  0.10882657233E+04  0.50400001928E-02 0. -1.
    10030    2    1    2    0    0  0.00000000000E+00  0.00000000000E+00 -0.34915569398E+03  0.18273757527E+04  0.17937091299E+04 0.  0.
        2    1    3    3  502    0  0.49097864098E+01 -0.31948994011E+03 -0.10283102590E+04  0.10768100653E+04  0.25500000920E-02 0. -1.
       -2    1    3    3    0  502 -0.49097864098E+01  0.31948994011E+03  0.67915456505E+03  0.75056568738E+03  0.25500000920E-02 0.  1.
</event>
<event>
 5   0  0.3531266E-04  0.1798696E+04  0.7818609E-02  0.8706993E-01
       -2   -1    0    0    0  501  0.00000000000E+00  0.00000000000E+00  0.45492634768E+03  0.45492634768E+03  0.25500000920E-02 0.  1.
        2   -1    0    0  501    0  0.00000000000E+00  0.00000000000E+00 -0.17779283507E+04  0.17779283507E+04  0.25500000920E-02 0. -1.
    10030    2    1    2    0    0  0.00000000000E+00  0.00000000000E+00 -0.13230020030E+04  0.22328546984E+04  0.17986955841E+04 0.  0.
        3    1    3    3  502    0 -0.48525601198E+03 -0.53700600906E+03  0.11855371655E+01  0.72377501106E+03  0.10100000352E+00 0.  1.
       -3    1    3    3    0  502  0.48525601198E+03  0.53700600906E+03 -0.13241875402E+04  0.15090796874E+04  0.10100000352E+00 0. -1.
</event>
<event>
 5   0  0.3582186E-04  0.1788888E+04  0.7818609E-02  0.8712231E-01
        2   -1    0    0  501    0  0.00000000000E+00  0.00000000000E+00  0.10070427943E+04  0.10070427943E+04  0.25500000920E-02 0.  1.
       -2   -1    0    0    0  501  0.00000000000E+00  0.00000000000E+00 -0.79443499710E+03  0.79443499711E+03  0.25500000920E-02 0. -1.
    10030    2    1    2    0    0  0.00000000000E+00  0.00000000000E+00  0.21260779724E+03  0.18014777915E+04  0.17888879668E+04 0.  0.
        4    1    3    3  502    0  0.57960645616E+02  0.10583989415E+03  0.99880696292E+03  0.10060708135E+04  0.12699999809E+01 0.  1.
       -4    1    3    3    0  502 -0.57960645616E+02 -0.10583989415E+03 -0.78619916568E+03  0.79540697799E+03  0.12699999809E+01 0. -1.
</event>
<event>
 5   0  0.3582186E-04  0.1784175E+04  0.7818609E-02  0.8714761E-01
        2   -1    0    0  501    0  0.00000000000E+00  0.00000000000E+00  0.10138695348E+04  0.10138695349E+04  0.25500000920E-02 0. -1.
       -2   -1    0    0    0  501  0.00000000000E+00  0.00000000000E+00 -0.78493338637E+03  0.78493338637E+03  0.25500000920E-02 0.  1.
    10030    2    1    2    0    0  0.00000000000E+00  0.00000000000E+00  0.22893614848E+03  0.17988029212E+04  0.17841749324E+04 0.  0.
        4    1    3    3  502    0  0.77458225662E+03  0.25447541078E+03  0.47949036188E+03  0.94585835461E+03  0.12699999809E+01 0. -1.
       -4    1    3    3    0  502 -0.77458225662E+03 -0.25447541078E+03 -0.25055421340E+03  0.85294456661E+03  0.12699999809E+01 0.  1.
</event>
<event>
 5   0  0.1818778E-04  0.1775302E+04  0.7818609E-02  0.8719545E-01
       -1   -1    0    0    0  501  0.00000000000E+00  0.00000000000E+00  0.74986928390E+03  0.74986928392E+03  0.50400001928E-02 0.  1.
        1   -1    0    0  501    0  0.00000000000E+00  0.00000000000E+00 -0.10507491114E+04  0.10507491114E+04  0.50400001928E-02 0. -1.
    10030    2    1    2    0    0  0.00000000000E+00  0.00000000000E+00 -0.30087982747E+03  0.18006183953E+04  0.17753022095E+04 0.  0.
        3    1    3    3  502    0  0.63042936845E+03  0.49034456103E+03 -0.54332077335E+03  0.96595882422E+03  0.10100000352E+00 0. -1.
       -3    1    3    3    0  502 -0.63042936845E+03 -0.49034456103E+03  0.24244094588E+03  0.83465957107E+03  0.10100000352E+00 0.  1.
</event>
<event>
 5   0  0.1837313E-04  0.1781972E+04  0.7818609E-02  0.8715946E-01
       -1   -1    0    0    0  501  0.00000000000E+00  0.00000000000E+00  0.41522700039E+03  0.41522700042E+03  0.50400001928E-02 0.  1.
        1   -1    0    0  501    0  0.00000000000E+00  0.00000000000E+00 -0.19118595571E+04  0.19118595571E+04  0.50400001928E-02 0. -1.
    10030    2    1    2    0    0  0.00000000000E+00  0.00000000000E+00 -0.14966325567E+04  0.23270865575E+04  0.17819716149E+04 0.  0.
        1    1    3    3  502    0  0.56694847331E+03  0.60631693029E+03 -0.32554781219E+03  0.89164576452E+03  0.50400001928E-02 0.  1.
       -1    1    3    3    0  502 -0.56694847331E+03 -0.60631693029E+03 -0.11710847445E+04  0.14354407930E+04  0.50400001928E-02 0. -1.
</event>
<event>
 5   0  0.1835421E-04  0.1793135E+04  0.7818609E-02  0.8709959E-01
       -1   -1    0    0    0  501  0.00000000000E+00  0.00000000000E+00  0.80295845288E+03  0.80295845290E+03  0.50400001928E-02 0. -1.
        1   -1    0    0  501    0  0.00000000000E+00  0.00000000000E+00 -0.10010896090E+04  0.10010896090E+04  0.50400001928E-02 0.  1.
    10030    2    1    2    0    0  0.00000000000E+00  0.00000000000E+00 -0.19813115610E+03  0.18040480619E+04  0.17931350910E+04 0.  0.
        2    1    3    3  502    0 -0.17565618946E+03  0.53706939215E+03  0.60125607065E+03  0.82511059342E+03  0.25500000920E-02 0. -1.
       -2    1    3    3    0  502  0.17565618946E+03 -0.53706939215E+03 -0.79938722675E+03  0.97893746847E+03  0.25500000920E-02 0.  1.
</event>
<event>
 5   0  0.3568870E-04  0.1498849E+04  0.7818609E-02  0.8885219E-01
        2   -1    0    0  501    0  0.00000000000E+00  0.00000000000E+00  0.70445419996E+03  0.70445419996E+03  0.25500000920E-02 0.  1.
       -2   -1    0    0    0  501  0.00000000000E+00  0.00000000000E+00 -0.79726509958E+03  0.79726509958E+03  0.25500000920E-02 0. -1.
    10030    2    1    2    0    0  0.00000000000E+00  0.00000000000E+00 -0.92810899616E+02  0.15017192995E+04  0.14988485552E+04 0.  0.
        1    1    3    3  502    0  0.25832813151E+03 -0.66255583664E+03  0.19052811000E+03  0.73621642261E+03  0.50400001928E-02 0. -1.
       -1    1    3    3    0  502 -0.25832813151E+03  0.66255583664E+03 -0.28333900962E+03  0.76550287693E+03  0.50400001928E-02 0.  1.
</event>
<event>
 5   0  0.3582186E-04  0.1779787E+04  0.7818609E-02  0.8717123E-01
        2   -1    0    0  501    0  0.00000000000E+00  0.00000000000E+00  0.17084724416E+04  0.17084724416E+04  0.25500000920E-02 0. -1.
       -2   -1    0    0    0  501  0.00000000000E+00  0.00000000000E+00 -0.46351969680E+03  0.46351969681E+03  0.25500000920E-02 0.  1.
    10030    2    1    2    0    0  0.00000000000E+00  0.00000000000E+00  0.12449527448E+04  0.21719921385E+04  0.17797872099E+04 0.  0.
        4    1    3    3  502    0  0.27201897518E+03 -0.38287961068E+03 -0.29994441519E+03  0.55727855175E+03  0.12699999809E+01 0.  1.
       -4    1    3    3    0  502 -0.27201897518E+03  0.38287961068E+03  0.15448971600E+04  0.16147135867E+04  0.12699999809E+01 0. -1.
</event>
<event>
 5   0  0.1883959E-04  0.1771851E+04  0.7818609E-02  0.8721414E-01
        1   -1    0    0  501    0  0.00000000000E+00  0.00000000000E+00  0.45738245494E+03  0.45738245496E+03  0.50400001928E-02 0. -1.
       -1   -1    0    0    0  501  0.00000000000E+00  0.00000000000E+00 -0.17159905611E+04  0.17159905611E+04  0.50400001928E-02 0.  1.
    10030    2    1    2    0    0  0.00000000000E+00  0.00000000000E+00 -0.12586081062E+04  0.21733730161E+04  0.17718509819E+04 0.  0.
        5    1    3    3  502    0  0.46010588064E+03  0.75314045298E+03 -0.53489541096E+03  0.10320141249E+04  0.46999998093E+01 0. -1.
       -5    1    3    3    0  502 -0.46010588064E+03 -0.75314045298E+03 -0.72371269525E+03  0.11413588912E+04  0.46999998093E+01 0.  1.
</event>
<event>
 5   0  0.3568870E-04  0.1794614E+04  0.7818609E-02  0.8709169E-01
       -2   -1    0    0    0  501  0.00000000000E+00  0.00000000000E+00  0.59601411724E+03  0.59601411725E+03  0.25500000920E-02 0.  1.
        2   -1    0    0  501    0  0.00000000000E+00  0.00000000000E+00 -0.13509074524E+04  0.13509074524E+04  0.25500000920E-02 0. -1.
    10030    2    1    2    0    0  0.00000000000E+00  0.00000000000E+00 -0.75489333515E+03  0.19469215696E+04  0.17946140674E+04 0.  0.
        1    1    3    3  502    0  0.47832194668E+03 -0.40964951342E+03  0.31598363390E+03  0.70459226894E+03  0.50400001928E-02 0.  1.
       -1    1    3    3    0  502 -0.47832194668E+03  0.40964951342E+03 -0.10708769691E+04  0.12423293007E+04  0.50400001928E-02 0. -1.
</event>
<event>
 5   0  0.1818778E-04  0.1761142E+04  0.7818609E-02  0.8727241E-01
       -1   -1    0    0    0  501  0.00000000000E+00  0.00000000000E+00  0.50763212527E+03  0.50763212530E+03  0.50400001928E-02 0.  1.
        1   -1    0    0  501    0  0.00000000000E+00  0.00000000000E+00 -0.15274953369E+04  0.15274953369E+04  0.50400001928E-02 0. -1.
    10030    2    1    2    0    0  0.00000000000E+00  0.00000000000E+00 -0.10198632117E+04  0.20351274622E+04  0.17611424749E+04 0.  0.
        3    1    3    3  502    0 -0.85457877991E+03  0.11809934754E+03 -0.71389370838E+03  0.11197752382E+04  0.10100000352E+00 0. -1.
       -3    1    3    3    0  502  0.85457877991E+03 -0.11809934754E+03 -0.30596950328E+03  0.91535222406E+03  0.10100000352E+00 0.  1.
</event>
<event>
 5   0  0.1883959E-04  0.1818985E+04  0.7818609E-02  0.8696268E-01
       -1   -1    0    0    0  501  0.00000000000E+00  0.00000000000E+00  0.39981948504E+03  0.39981948507E+03  0.50400001928E-02 0. -1.
        1   -1    0    0  501    0  0.00000000000E+00  0.00000000000E+00 -0.20688742921E+04  0.20688742921E+04  0.50400001928E-02 0.  1.
    10030    2    1    2    0    0  0.00000000000E+00  0.00000000000E+00 -0.16690548070E+04  0.24686937772E+04  0.18189846114E+04 0.  0.
        5    1    3    3  502    0  0.72056737863E+03  0.47545784368E+03 -0.44618193177E+03  0.97179108583E+03  0.46999998093E+01 0.  1.
       -5    1    3    3    0  502 -0.72056737863E+03 -0.47545784368E+03 -0.12228728753E+04  0.14969026913E+04  0.46999998093E+01 0. -1.
</event>
<event>
 5   0  0.1883959E-04  0.1794244E+04  0.7818609E-02  0.8709367E-01
       -1   -1    0    0    0  501  0.00000000000E+00  0.00000000000E+00  0.54517092864E+03  0.54517092866E+03  0.50400001928E-02 0.  1.
        1   -1    0    0  501    0  0.00000000000E+00  0.00000000000E+00 -0.14762851844E+04  0.14762851844E+04  0.50400001928E-02 0. -1.
    10030    2    1    2    0    0  0.00000000000E+00  0.00000000000E+00 -0.93111425577E+03  0.20214561131E+04  0.17942438685E+04 0.  0.
        5    1    3    3  502    0  0.73645333499E+03  0.16374621481E+03 -0.10124440364E+04  0.12626327076E+04  0.46999998093E+01 0. -1.
       -5    1    3    3    0  502 -0.73645333499E+03 -0.16374621481E+03  0.81329780614E+02  0.75882340548E+03  0.46999998093E+01 0.  1.
</event>
<event>
 5   0  0.3575091E-04  0.1804460E+04  0.7818609E-02  0.8703931E-01
        2   -1    0    0  501    0  0.00000000000E+00  0.00000000000E+00  0.88500241931E+03  0.88500241932E+03  0.25500000920E-02 0. -1.
       -2   -1    0    0    0  501  0.00000000000E+00  0.00000000000E+00 -0.91979258634E+03  0.91979258634E+03  0.25500000920E-02 0.  1.
    10030    2    1    2    0    0  0.00000000000E+00  0.00000000000E+00 -0.34790167028E+02  0.18047950057E+04  0.18044596578E+04 0.  0.
        5    1    3    3  502    0  0.13474979218E+03  0.32298919318E+03 -0.84912466765E+03  0.91843035480E+03  0.46999998093E+01 0.  1.
       -5    1    3    3    0  502 -0.13474979218E+03 -0.32298919318E+03  0.81433450062E+03  0.88636465086E+03  0.46999998093E+01 0. -1.
</event>
<event>
 5   0  0.3575091E-04  0.1683339E+04  0.7818609E-02  0.8770924E-01
        2   -1    0    0  501    0  0.00000000000E+00  0.00000000000E+00  0.83210061688E+03  0.83210061688E+03  0.25500000920E-02 0. -1.
       -2   -1    0    0    0  501  0.00000000000E+00  0.00000000000E+00 -0.85134850548E+03  0.85134850548E+03  0.25500000920E-02 0.  1.
    10030    2    1    2    0    0  0.00000000000E+00  0.00000000000E+00 -0.19247888599E+02  0.16834491224E+04  0.16833390824E+04 0.  0.
        5    1    3    3  502    0 -0.11509270034E+02 -0.19816658881E+03  0.80834337298E+03  0.83237224777E+03  0.46999998093E+01 0. -1.
       -5    1    3    3    0  502  0.11509270034E+02  0.19816658881E+03 -0.82759126158E+03  0.85107687459E+03  0.46999998093E+01 0.  1.
</event>
<event>
 5   0  0.3582186E-04  0.1806035E+04  0.7818609E-02  0.8703097E-01
        2   -1    0    0  501    0  0.00000000000E+00  0.00000000000E+00  0.13691917267E+04  0.13691917267E+04  0.25500000920E-02 0.  1.
       -2   -1    0    0    0  501  0.00000000000E+00  0.00000000000E+00 -0.59556368931E+03  0.59556368931E+03  0.25500000920E-02 0. -1.
    10030    2    1    2    0    0  0.00000000000E+00  0.00000000000E+00  0.77362803742E+03  0.19647554160E+04  0.18060352999E+04 0.  0.
        4    1    3    3  502    0 -0.57795378003E+03 -0.29115904239E+03 -0.29832363177E+03  0.71260280801E+03  0.12699999809E+01 0. -1.
       -4    1    3    3    0  502  0.57795378003E+03  0.29115904239E+03  0.10719516692E+04  0.12521526080E+04  0.12699999809E+01 0.  1.
</event>
<event>
 5   0  0.1837313E-04  0.1820429E+04  0.7818609E-02  0.8695511E-01
       -1   -1    0    0    0  501  0.00000000000E+00  0.00000000000E+00  0.77604215186E+03  0.77604215187E+03  0.50400001928E-02 0. -1.
        1   -1    0    0  501    0  0.00000000000E+00  0.00000000000E+00 -0.10675838502E+04  0.10675838502E+04  0.50400001928E-02 0.  1.
    10030    2    1    2    0    0  0.00000000000E+00  0.00000000000E+00 -0.29154169834E+03  0.18436260021E+04  0.18204285962E+04 0.  0.
        1    1    3    3  502    0 -0.22785102569E+03 -0.14072233935E+03 -0.10267821399E+04  0.10611316740E+04  0.50400001928E-02 0.  1.
       -1    1    3    3    0  502  0.22785102569E+03  0.14072233935E+03  0.73524044152E+03  0.78249432814E+03  0.50400001928E-02 0. -1.
</event>
<event>
 5   0  0.3575091E-04  0.1832390E+04  0.7818609E-02  0.8689262E-01
       -2   -1    0    0    0  501  0.00000000000E+00  0.00000000000E+00  0.14470309443E+04  0.14470309443E+04  0.25500000920E-02 0. -1.
        2   -1    0    0  501    0  0.00000000000E+00  0.00000000000E+00 -0.58009328700E+03  0.58009328700E+03  0.25500000920E-02 0.  1.
    10030    2    1    2    0    0  0.00000000000E+00  0.00000000000E+00  0.86693765731E+03  0.20271242313E+04  0.18323896277E+04 0.  0.
        5    1    3    3  502    0  0.59389753283E+03  0.13428720667E+03  0.11907965349E+04  0.13374474984E+04  0.46999998093E+01 0. -1.
       -5    1    3    3    0  502 -0.59389753283E+03 -0.13428720667E+03 -0.32385887759E+03  0.68967673294E+03  0.46999998093E+01 0.  1.
</event>
<event>
 5   0  0.1883959E-04  0.1812473E+04  0.7818609E-02  0.8699694E-01
        1   -1    0    0  501    0  0.00000000000E+00  0.00000000000E+00  0.15556700295E+04  0.15556700295E+04  0.50400001928E-02 0. -1.
       -1   -1    0    0    0  501  0.00000000000E+00  0.00000000000E+00 -0.52791694747E+03  0.52791694749E+03  0.50400001928E-02 0.  1.
    10030    2    1    2    0    0  0.00000000000E+00  0.00000000000E+00  0.10277530820E+04  0.20835869770E+04  0.18124729772E+04 0.  0.
        5    1    3    3  502    0  0.56332642297E+03 -0.28654370271E+03 -0.23273143546E+03  0.67352057387E+03  0.46999998093E+01 0.  1.
       -5    1    3    3    0  502 -0.56332642297E+03  0.28654370271E+03  0.12604845175E+04  0.14100664031E+04  0.46999998093E+01 0. -1.
</event>
<event>
 5   0  0.3531266E-04  0.1760348E+04  0.7818609E-02  0.8727675E-01
        2   -1    0    0  501    0  0.00000000000E+00  0.00000000000E+00  0.83580617065E+03  0.83580617065E+03  0.25500000920E-02 0.  1.
       -2   -1    0    0    0  501  0.00000000000E+00  0.00000000000E+00 -0.92689741410E+03  0.92689741410E+03  0.25500000920E-02 0. -1.
    10030    2    1    2    0    0  0.00000000000E+00  0.00000000000E+00 -0.91091243451E+02  0.17627035848E+04  0.17603483499E+04 0.  0.
        3    1    3    3  502    0  0.24984835892E+03 -0.23472431289E+03  0.76620962953E+03  0.83940271152E+03  0.10100000352E+00 0.  1.
       -3    1    3    3    0  502 -0.24984835892E+03  0.23472431289E+03 -0.85730087298E+03  0.92330087324E+03  0.10100000352E+00 0. -1.
</event>
<event>
 5   0  0.3575091E-04  0.1838641E+04  0.7818609E-02  0.8686016E-01
       -2   -1    0    0    0  501  0.00000000000E+00  0.00000000000E+00  0.60871377293E+03  0.60871377294E+03  0.25500000920E-02 0. -1.
        2   -1    0    0  501    0  0.00000000000E+00  0.00000000000E+00 -0.13884199342E+04  0.13884199342E+04  0.25500000920E-02 0.  1.
    10030    2    1    2    0    0  0.00000000000E+00  0.00000000000E+00 -0.77970616125E+03  0.19971337071E+04  0.18386411684E+04 0.  0.
        5    1    3    3  502    0  0.77148878265E+03 -0.48845625792E+03 -0.50554132478E+03  0.10437330016E+04  0.46999998093E+01 0. -1.
       -5    1    3    3    0  502 -0.77148878265E+03  0.48845625792E+03 -0.27416483647E+03  0.95340070548E+03  0.46999998093E+01 0.  1.
</event>
<event>
 5   0  0.1825253E-04  0.1795426E+04  0.7818609E-02  0.8708736E-01
       -1   -1    0    0    0  501  0.00000000000E+00  0.00000000000E+00  0.54536922810E+03  0.54536922813E+03  0.50400001928E-02 0.  1.
        1   -1    0    0  501    0  0.00000000000E+00  0.00000000000E+00 -0.14776938552E+04  0.14776938552E+04  0.50400001928E-02 0. -1.
    10030    2    1    2    0    0  0.00000000000E+00  0.00000000000E+00 -0.93232462707E+03  0.20230630833E+04  0.17954261413E+04 0.  0.
        4    1    3    3  502    0 -0.40950930455E+03  0.13565735373E+03 -0.13532425157E+04  0.14203407011E+04  0.12699999809E+01 0. -1.
       -4    1    3    3    0  502  0.40950930455E+03 -0.13565735373E+03  0.42091788861E+03  0.60272238218E+03  0.12699999809E+01 0.  1.
</event>
<event>
 5   0  0.3531266E-04  0.1786429E+04  0.7818609E-02  0.8713550E-01
       -2   -1    0    0    0  501  0.00000000000E+00  0.00000000000E+00  0.58730891252E+03  0.58730891253E+03  0.25500000920E-02 0.  1.
        2   -1    0    0  501    0  0.00000000000E+00  0.00000000000E+00 -0.13584545450E+04  0.13584545450E+04  0.25500000920E-02 0. -1.
    10030    2    1    2    0    0  0.00000000000E+00  0.00000000000E+00 -0.77114563249E+03  0.19457634575E+04  0.17864293566E+04 0.  0.
        3    1    3    3  502    0 -0.31827315637E+03  0.83009286856E+03 -0.29136891343E+03  0.93554680610E+03  0.10100000352E+00 0.  1.
       -3    1    3    3    0  502  0.31827315637E+03 -0.83009286856E+03 -0.47977671906E+03  0.10102166514E+04  0.10100000352E+00 0. -1.
</event>
<event>
 5   0  0.3628581E-04  0.1811278E+04  0.7818609E-02  0.8700325E-01
       -2   -1    0    0    0  501  0.00000000000E+00  0.00000000000E+00  0.11700375739E+04  0.11700375739E+04  0.25500000920E-02 0. -1.
        2   -1    0    0  501    0  0.00000000000E+00  0.00000000000E+00 -0.70098746780E+03  0.70098746781E+03  0.25500000920E-02 0.  1.
    10030    2    1    2    0    0  0.00000000000E+00  0.00000000000E+00  0.46905010606E+03  0.18710250417E+04  0.18112776442E+04 0.  0.
        2    1    3    3  502    0 -0.67406291849E+03 -0.27228228629E+03  0.79241725635E+03  0.10753713636E+04  0.25500000920E-02 0. -1.
       -2    1    3    3    0  502  0.67406291849E+03  0.27228228629E+03 -0.32336715029E+03  0.79565367806E+03  0.25500000920E-02 0.  1.
</event>
<event>
 5   0  0.3582186E-04  0.1516339E+04  0.7818609E-02  0.8873660E-01
       -2   -1    0    0    0  501  0.00000000000E+00  0.00000000000E+00  0.56020804209E+03  0.56020804209E+03  0.25500000920E-02 0.  1.
        2   -1    0    0  501    0  0.00000000000E+00  0.00000000000E+00 -0.10260849848E+04  0.10260849848E+04  0.25500000920E-02 0. -1.
    10030    2    1    2    0    0  0.00000000000E+00  0.00000000000E+00 -0.46587694274E+03  0.15862930269E+04  0.15163390919E+04 0.  0.
        4    1    3    3  502    0  0.61492550738E+03 -0.86964067946E+02 -0.68788423348E+03  0.92675911666E+03  0.12699999809E+01 0. -1.
       -4    1    3    3    0  502 -0.61492550738E+03  0.86964067946E+02  0.22200729074E+03  0.65953391026E+03  0.12699999809E+01 0.  1.
</event>
<event>
 5   0  0.3531266E-04  0.1794317E+04  0.7818609E-02  0.8709327E-01
       -2   -1    0    0    0  501  0.00000000000E+00  0.00000000000E+00  0.39187160896E+03  0.39187160897E+03  0.25500000920E-02 0.  1.
        2   -1    0    0  501    0  0.00000000000E+00  0.00000000000E+00 -0.20539729191E+04  0.20539729191E+04  0.25500000920E-02 0. -1.
    10030    2    1    2    0    0  0.00000000000E+00  0.00000000000E+00 -0.16621013101E+04  0.24458445280E+04  0.17943173327E+04 0.  0.
        3    1    3    3  502    0  0.13214552849E+03  0.76175933310E+03 -0.21064436254E+03  0.80131815150E+03  0.10100000352E+00 0.  1.
       -3    1    3    3    0  502 -0.13214552849E+03 -0.76175933310E+03 -0.14514569476E+04  0.16445263765E+04  0.10100000352E+00 0. -1.
</event>
<event>
 5   0  0.3568870E-04  0.1928842E+04  0.7818609E-02  0.8640631E-01
       -2   -1    0    0    0  501  0.00000000000E+00  0.00000000000E+00  0.12970441684E+04  0.12970441684E+04  0.25500000920E-02 0. -1.
        2   -1    0    0  501    0  0.00000000000E+00  0.00000000000E+00 -0.71709837878E+03  0.71709837878E+03  0.25500000920E-02 0.  1.
    10030    2    1    2    0    0  0.00000000000E+00  0.00000000000E+00  0.57994578963E+03  0.20141425472E+04  0.19288424201E+04 0.  0.
        1    1    3    3  502    0  0.87684117878E+03  0.27539314615E+03  0.59515858739E+03  0.10949454698E+04  0.50400001928E-02 0. -1.
       -1    1    3    3    0  502 -0.87684117878E+03 -0.27539314615E+03 -0.15212797760E+02  0.91919707735E+03  0.50400001928E-02 0.  1.
</event>
<event>
 5   0  0.3568870E-04  0.1805554E+04  0.7818609E-02  0.8703351E-01
       -2   -1    0    0    0  501  0.00000000000E+00  0.00000000000E+00  0.50796866677E+03  0.50796866677E+03  0.25500000920E-02 0. -1.
        2   -1    0    0  501    0  0.00000000000E+00  0.00000000000E+00 -0.16044427427E+04  0.16044427427E+04  0.25500000920E-02 0.  1.
    10030    2    1    2    0    0  0.00000000000E+00  0.00000000000E+00 -0.10964740759E+04  0.21124114094E+04  0.18055543646E+04 0.  0.
        1    1    3    3  502    0  0.57121575209E+03  0.49748604554E+03 -0.11228570526E+04  0.13544695499E+04  0.50400001928E-02 0.  1.
       -1    1    3    3    0  502 -0.57121575209E+03 -0.49748604554E+03  0.26382976743E+02  0.75794185953E+03  0.50400001928E-02 0. -1.
</event>
<event>
 5   0  0.1837313E-04  0.1803749E+04  0.7818609E-02  0.8704309E-01
       -1   -1    0    0    0  501  0.00000000000E+00  0.00000000000E+00  0.47038068663E+03  0.47038068666E+03  0.50400001928E-02 0. -1.
        1   -1    0    0  501    0  0.00000000000E+00  0.00000000000E+00 -0.17291892480E+04  0.17291892480E+04  0.50400001928E-02 0.  1.
    10030    2    1    2    0    0  0.00000000000E+00  0.00000000000E+00 -0.12588085614E+04  0.21995699347E+04  0.18037485699E+04 0.  0.
        1    1    3    3  502    0 -0.15739160796E+03  0.11186803371E+03  0.44487698170E+03  0.48497639540E+03  0.50400001928E-02 0. -1.
       -1    1    3    3    0  502  0.15739160796E+03 -0.11186803371E+03 -0.17036855431E+04  0.17145935393E+04  0.50400001928E-02 0.  1.
</event>
<event>
 5   0  0.1835421E-04  0.1627680E+04  0.7818609E-02  0.8803721E-01
       -1   -1    0    0    0  501  0.00000000000E+00  0.00000000000E+00  0.11743774816E+04  0.11743774816E+04  0.50400001928E-02 0. -1.
        1   -1    0    0  501    0  0.00000000000E+00  0.00000000000E+00 -0.56398873435E+03  0.56398873437E+03  0.50400001928E-02 0.  1.
    10030    2    1    2    0    0  0.00000000000E+00  0.00000000000E+00  0.61038874721E+03  0.17383662159E+04  0.16276801522E+04 0.  0.
        2    1    3    3  502    0 -0.56101447917E+03 -0.27619238229E+03  0.86149565662E+03  0.10645159671E+04  0.25500000920E-02 0. -1.
       -2    1    3    3    0  502  0.56101447917E+03  0.27619238229E+03 -0.25110690941E+03  0.67385024882E+03  0.25500000920E-02 0.  1.
</event>
<event>
 5   0  0.3568870E-04  0.1807360E+04  0.7818609E-02  0.8702395E-01
        2   -1    0    0  501    0  0.00000000000E+00  0.00000000000E+00  0.95036727896E+03  0.95036727897E+03  0.25500000920E-02 0.  1.
       -2   -1    0    0    0  501  0.00000000000E+00  0.00000000000E+00 -0.85928642928E+03  0.85928642928E+03  0.25500000920E-02 0. -1.
    10030    2    1    2    0    0  0.00000000000E+00  0.00000000000E+00  0.91080849687E+02  0.18096537082E+04  0.18073601806E+04 0.  0.
        1    1    3    3  502    0 -0.54780745728E+03 -0.22305394555E+03  0.72962893897E+03  0.93925739895E+03  0.50400001928E-02 0.  1.
       -1    1    3    3    0  502  0.54780745728E+03  0.22305394555E+03 -0.63854808929E+03  0.87039630929E+03  0.50400001928E-02 0. -1.
</event>
<event>
 5   0  0.1818778E-04  0.1801997E+04  0.7818609E-02  0.8705238E-01
       -1   -1    0    0    0  501  0.00000000000E+00  0.00000000000E+00  0.59131238014E+03  0.59131238017E+03  0.50400001928E-02 0. -1.
        1   -1    0    0  501    0  0.00000000000E+00  0.00000000000E+00 -0.13728754185E+04  0.13728754185E+04  0.50400001928E-02 0.  1.
    10030    2    1    2    0    0  0.00000000000E+00  0.00000000000E+00 -0.78156303834E+03  0.19641877987E+04  0.18019969272E+04 0.  0.
        3    1    3    3  502    0  0.73353293637E+03 -0.65541149955E+02  0.17500625457E+03  0.75696328208E+03  0.10100000352E+00 0. -1.
       -3    1    3    3    0  502 -0.73353293637E+03  0.65541149955E+02 -0.95656929291E+03  0.12072245166E+04  0.10100000352E+00 0.  1.
</event>
<event>
 5   0  0.3575091E-04  0.1364914E+04  0.7818609E-02  0.8979615E-01
       -2   -1    0    0    0  501  0.00000000000E+00  0.00000000000E+00  0.10651606621E+04  0.10651606621E+04  0.25500000920E-02 0.  1.
        2   -1    0    0  501    0  0.00000000000E+00  0.00000000000E+00 -0.43725563214E+03  0.43725563215E+03  0.25500000920E-02 0. -1.
    10030    2    1    2    0    0  0.00000000000E+00  0.00000000000E+00  0.62790502992E+03  0.15024162942E+04  0.13649139147E+04 0.  0.
        5    1    3    3  502    0  0.39040690219E+02  0.26468461127E+03  0.10050066855E+04  0.10400205031E+04  0.46999998093E+01 0.  1.
       -5    1    3    3    0  502 -0.39040690219E+02 -0.26468461127E+03 -0.37710165563E+03  0.46239579108E+03  0.46999998093E+01 0. -1.
</event>
<event>
 5   0  0.1818778E-04  0.1792482E+04  0.7818609E-02  0.8710308E-01
       -1   -1    0    0    0  501  0.00000000000E+00  0.00000000000E+00  0.53219265756E+03  0.53219265759E+03  0.50400001928E-02 0. -1.
        1   -1    0    0  501    0  0.00000000000E+00  0.00000000000E+00 -0.15093182109E+04  0.15093182109E+04  0.50400001928E-02 0.  1.
    10030    2    1    2    0    0  0.00000000000E+00  0.00000000000E+00 -0.97712555332E+03  0.20415108685E+04  0.17924821559E+04 0.  0.
        3    1    3    3  502    0 -0.77240213743E+03  0.26800760835E+03 -0.90674525664E+03  0.12209095424E+04  0.10100000352E+00 0.  1.
       -3    1    3    3    0  502  0.77240213743E+03 -0.26800760835E+03 -0.70380296676E+02  0.82060132610E+03  0.10100000352E+00 0. -1.
</event>
<event>
 5   0  0.3628581E-04  0.1801196E+04  0.7818609E-02  0.8705664E-01
       -2   -1    0    0    0  501  0.00000000000E+00  0.00000000000E+00  0.11364937495E+04  0.11364937495E+04  0.25500000920E-02 0. -1.
        2   -1    0    0  501    0  0.00000000000E+00  0.00000000000E+00 -0.71366571829E+03  0.71366571829E+03  0.25500000920E-02 0.  1.
    10030    2    1    2    0    0  0.00000000000E+00  0.00000000000E+00  0.42282803119E+03  0.18501594678E+04  0.18011958561E+04 0.  0.
        2    1    3    3  502    0  0.17756286212E+03 -0.59390509803E+03  0.88249207853E+03  0.10784452254E+04  0.25500000920E-02 0. -1.
       -2    1    3    3    0  502 -0.17756286212E+03  0.59390509803E+03 -0.45966404735E+03  0.77171424238E+03  0.25500000920E-02 0.  1.
</event>
<event>
 5   0  0.1825253E-04  0.1801854E+04  0.7818609E-02  0.8705314E-01
       -1   -1    0    0    0  501  0.00000000000E+00  0.00000000000E+00  0.87255372676E+03  0.87255372677E+03  0.50400001928E-02 0. -1.
        1   -1    0    0  501    0  0.00000000000E+00  0.00000000000E+00 -0.93022332839E+03  0.93022332840E+03  0.50400001928E-02 0.  1.
    10030    2    1    2    0    0  0.00000000000E+00  0.00000000000E+00 -0.57669601632E+02  0.18027770552E+04  0.18018544136E+04 0.  0.
        4    1    3    3  502    0  0.45507502859E+03 -0.72931593029E+03  0.24088293138E+03  0.89276044231E+03  0.12699999809E+01 0. -1.
       -4    1    3    3    0  502 -0.45507502859E+03  0.72931593029E+03 -0.29855253301E+03  0.91001661287E+03  0.12699999809E+01 0.  1.
</event>
<event>
 5   0  0.1883959E-04  0.1646464E+04  0.7818609E-02  0.8792501E-01
        1   -1    0    0  501    0  0.00000000000E+00  0.00000000000E+00  0.19079730751E+04  0.19079730751E+04  0.50400001928E-02 0. -1.
       -1   -1    0    0    0  501  0.00000000000E+00  0.00000000000E+00 -0.35519929556E+03  0.35519929559E+03  0.50400001928E-02 0.  1.
    10030    2    1    2    0    0  0.00000000000E+00  0.00000000000E+00  0.15527737795E+04  0.22631723707E+04  0.16464637163E+04 0.  0.
        5    1    3    3  502    0  0.84864023527E+02 -0.81876336361E+03  0.76175863331E+03  0.11215496661E+04  0.46999998093E+01 0. -1.
       -5    1    3    3    0  502 -0.84864023527E+02  0.81876336361E+03  0.79101514618E+03  0.11416227046E+04  0.46999998093E+01 0.  1.
</event>
<event>
 5   0  0.1837313E-04  0.1810894E+04  0.7818609E-02  0.8700527E-01
       -1   -1    0    0    0  501  0.00000000000E+00  0.00000000000E+00  0.35963649627E+03  0.35963649630E+03  0.50400001928E-02 0.  1.
        1   -1    0    0  501    0  0.00000000000E+00  0.00000000000E+00 -0.22796204064E+04  0.22796204064E+04  0.50400001928E-02 0. -1.
    10030    2    1    2    0    0  0.00000000000E+00  0.00000000000E+00 -0.19199839102E+04  0.26392569028E+04  0.18108944705E+04 0.  0.
        1    1    3    3  502    0  0.42284550784E+03 -0.39270393047E+01 -0.21268677615E+04  0.21684972262E+04  0.50400001928E-02 0. -1.
       -1    1    3    3    0  502 -0.42284550784E+03  0.39270393047E+01  0.20688385129E+03  0.47075967657E+03  0.50400001928E-02 0.  1.
</event>
<event>
 5   0  0.1835421E-04  0.1796953E+04  0.7818609E-02  0.8707922E-01
       -1   -1    0    0    0  501  0.00000000000E+00  0.00000000000E+00  0.82925703186E+03  0.82925703187E+03  0.50400001928E-02 0. -1.
        1   -1    0    0  501    0  0.00000000000E+00  0.00000000000E+00 -0.97347363684E+03  0.97347363685E+03  0.50400001928E-02 0.  1.
    10030    2    1    2    0    0  0.00000000000E+00  0.00000000000E+00 -0.14421660498E+03  0.18027306687E+04  0.17969528193E+04 0.  0.
        2    1    3    3  502    0 -0.77933392334E+03  0.44366715371E+03 -0.12758485406E+03  0.90580340160E+03  0.25500000920E-02 0.  1.
       -2    1    3    3    0  502  0.77933392334E+03 -0.44366715371E+03 -0.16631750917E+02  0.89692726712E+03  0.25500000920E-02 0. -1.
</event>
<event>
 5   0  0.3531266E-04  0.1807290E+04  0.7818609E-02  0.8702432E-01
       -2   -1    0    0    0  501  0.00000000000E+00  0.00000000000E+00  0.55274370786E+03  0.55274370786E+03  0.25500000920E-02 0.  1.
        2   -1    0    0  501    0  0.00000000000E+00  0.00000000000E+00 -0.14773113389E+04  0.14773113389E+04  0.25500000920E-02 0. -1.
    10030    2    1    2    0    0  0.00000000000E+00  0.00000000000E+00 -0.92456763103E+03  0.20300550467E+04  0.18072902889E+04 0.  0.
        3    1    3    3  502    0  0.64710495205E+03  0.62795639822E+03 -0.39582636245E+03  0.98476016189E+03  0.10100000352E+00 0.  1.
       -3    1    3    3    0  502 -0.64710495205E+03 -0.62795639822E+03 -0.52874126857E+03  0.10452948849E+04  0.10100000352E+00 0. -1.
</event>
<event>
 5   0  0.3568870E-04  0.1806527E+04  0.7818609E-02  0.8702836E-01
        2   -1    0    0  501    0  0.00000000000E+00  0.00000000000E+00  0.14409635189E+04  0.14409635189E+04  0.25500000920E-02 0.  1.
       -2   -1    0    0    0  501  0.00000000000E+00  0.00000000000E+00 -0.56620772252E+03  0.56620772253E+03  0.25500000920E-02 0. -1.
    10030    2    1    2    0    0  0.00000000000E+00  0.00000000000E+00  0.87475579634E+03  0.20071712414E+04  0.18065266920E+04 0.  0.
        1    1    3    3  502    0 -0.70065378124E+03  0.80765505857E+02  0.10643639263E+04  0.12768356808E+04  0.50400001928E-02 0.  1.
       -1    1    3    3    0  502  0.70065378124E+03 -0.80765505857E+02 -0.18960812996E+03  0.73033556060E+03  0.50400001928E-02 0. -1.
</event>
<event>
 5   0  0.1835421E-04  0.1794122E+04  0.7818609E-02  0.8709431E-01
        1   -1    0    0  501    0  0.00000000000E+00  0.00000000000E+00  0.45094668519E+03  0.45094668522E+03  0.50400001928E-02 0.  1.
       -1   -1    0    0    0  501  0.00000000000E+00  0.00000000000E+00 -0.17845094768E+04  0.17845094768E+04  0.50400001928E-02 0. -1.
    10030    2    1    2    0    0  0.00000000000E+00  0.00000000000E+00 -0.13335627916E+04  0.22354561620E+04  0.17941222180E+04 0.  0.
        2    1    3    3  502    0  0.79940246602E+03  0.21019753244E+03 -0.11010783392E+04  0.13768081981E+04  0.25500000920E-02 0. -1.
       -2    1    3    3    0  502 -0.79940246602E+03 -0.21019753244E+03 -0.23248445241E+03  0.85864796392E+03  0.25500000920E-02 0.  1.
</event>
<event>
 5   0  0.1825253E-04  0.1624596E+04  0.7818609E-02  0.8805578E-01
        1   -1    0    0  501    0  0.00000000000E+00  0.00000000000E+00  0.83007060665E+03  0.83007060666E+03  0.50400001928E-02 0. -1.
       -1   -1    0    0    0  501  0.00000000000E+00  0.00000000000E+00 -0.79490625315E+03  0.79490625316E+03  0.50400001928E-02 0.  1.
    10030    2    1    2    0    0  0.00000000000E+00  0.00000000000E+00  0.35164353499E+02  0.16249768598E+04  0.16245963385E+04 0.  0.
        4    1    3    3  502    0 -0.50111830162E+02  0.35863709056E+03  0.74486660594E+03  0.82822679973E+03  0.12699999809E+01 0. -1.
       -4    1    3    3    0  502  0.50111830162E+02 -0.35863709056E+03 -0.70970225244E+03  0.79675006009E+03  0.12699999809E+01 0.  1.
</event>
<event>
 5   0  0.1818778E-04  0.1808153E+04  0.7818609E-02  0.8701976E-01
        1   -1    0    0  501    0  0.00000000000E+00  0.00000000000E+00  0.14485915838E+04  0.14485915838E+04  0.50400001928E-02 0.  1.
       -1   -1    0    0    0  501  0.00000000000E+00  0.00000000000E+00 -0.56424045171E+03  0.56424045173E+03  0.50400001928E-02 0. -1.
    10030    2    1    2    0    0  0.00000000000E+00  0.00000000000E+00  0.88435113208E+03  0.20128320355E+04  0.18081526148E+04 0.  0.
        3    1    3    3  502    0  0.69009914109E+03  0.21776086160E+03 -0.16110934091E+03  0.74135878446E+03  0.10100000352E+00 0. -1.
       -3    1    3    3    0  502 -0.69009914109E+03 -0.21776086160E+03  0.10454604730E+04  0.12714732511E+04  0.10100000352E+00 0.  1.
</event>
<event>
 5   0  0.1825253E-04  0.1696294E+04  0.7818609E-02  0.8763481E-01
       -1   -1    0    0    0  501  0.00000000000E+00  0.00000000000E+00  0.94283922587E+03  0.94283922588E+03  0.50400001928E-02 0.  1.
        1   -1    0    0  501    0  0.00000000000E+00  0.00000000000E+00 -0.76296515892E+03  0.76296515893E+03  0.50400001928E-02 0. -1.
    10030    2    1    2    0    0  0.00000000000E+00  0.00000000000E+00  0.17987406695E+03  0.17058043848E+04  0.16962941724E+04 0.  0.
        4    1    3    3  502    0 -0.45209656874E+03  0.70769364332E+03 -0.29600209575E+02  0.84029720074E+03  0.12699999809E+01 0.  1.
       -4    1    3    3    0  502  0.45209656874E+03 -0.70769364332E+03  0.20947427652E+03  0.86550718408E+03  0.12699999809E+01 0. -1.
</event>
<event>
 5   0  0.3628581E-04  0.1793869E+04  0.7818609E-02  0.8709566E-01
       -2   -1    0    0    0  501  0.00000000000E+00  0.00000000000E+00  0.49458552481E+03  0.49458552482E+03  0.25500000920E-02 0. -1.
        2   -1    0    0  501    0  0.00000000000E+00  0.00000000000E+00 -0.16265980583E+04  0.16265980583E+04  0.25500000920E-02 0.  1.
    10030    2    1    2    0    0  0.00000000000E+00  0.00000000000E+00 -0.11320125335E+04  0.21211835831E+04  0.17938693981E+04 0.  0.
        2    1    3    3  502    0  0.18036120342E+01 -0.22460083486E+03 -0.15928054426E+04  0.16085639453E+04  0.25500000920E-02 0.  1.
       -2    1    3    3    0  502 -0.18036120342E+01  0.22460083486E+03  0.46079290910E+03  0.51261963786E+03  0.25500000920E-02 0. -1.
</event>
<event>
 5   0  0.3568870E-04  0.1724018E+04  0.7818609E-02  0.8747783E-01
        2   -1    0    0  501    0  0.00000000000E+00  0.00000000000E+00  0.11738774809E+04  0.11738774809E+04  0.25500000920E-02 0. -1.
       -2   -1    0    0    0  501  0.00000000000E+00  0.00000000000E+00 -0.63299591936E+03  0.63299591936E+03  0.25500000920E-02 0.  1.
    10030    2    1    2    0    0  0.00000000000E+00  0.00000000000E+00  0.54088156150E+03  0.18068734002E+04  0.17240181614E+04 0.  0.
        1    1    3    3  502    0  0.14638420781E+03 -0.66522551568E+03 -0.28325438630E+03  0.73768988768E+03  0.50400001928E-02 0.  1.
       -1    1    3    3    0  502 -0.14638420781E+03  0.66522551568E+03  0.82413594780E+03  0.10691835125E+04  0.50400001928E-02 0. -1.
</event>
<event>
 5   0  0.1837313E-04  0.1809480E+04  0.7818609E-02  0.8701274E-01
       -1   -1    0    0    0  501  0.00000000000E+00  0.00000000000E+00  0.40968108410E+03  0.40968108413E+03  0.50400001928E-02 0. -1.
        1   -1    0    0  501    0  0.00000000000E+00  0.00000000000E+00 -0.19980286319E+04  0.19980286319E+04  0.50400001928E-02 0.  1.
    10030    2    1    2    0    0  0.00000000000E+00  0.00000000000E+00 -0.15883475478E+04  0.24077097161E+04  0.18094800756E+04 0.  0.
        1    1    3    3  502    0  0.37104382492E+03  0.20219681244E+03 -0.18586585307E+04  0.19060872500E+04  0.50400001928E-02 0.  1.
       -1    1    3    3    0  502 -0.37104382492E+03 -0.20219681244E+03  0.27031098285E+03  0.50162246605E+03  0.50400001928E-02 0. -1.
</event>
<event>
 5   0  0.3628581E-04  0.1793943E+04  0.7818609E-02  0.8709527E-01
        2   -1    0    0  501    0  0.00000000000E+00  0.00000000000E+00  0.18444020626E+04  0.18444020626E+04  0.25500000920E-02 0.  1.
       -2   -1    0    0    0  501  0.00000000000E+00  0.00000000000E+00 -0.43621594333E+03  0.43621594334E+03  0.25500000920E-02 0. -1.
    10030    2    1    2    0    0  0.00000000000E+00  0.00000000000E+00  0.14081861192E+04  0.22806180059E+04  0.17939426809E+04 0.  0.
        2    1    3    3  502    0 -0.27697024736E+03 -0.73946565503E+03  0.12450042850E+04  0.14742990343E+04  0.25500000920E-02 0.  1.
       -2    1    3    3    0  502  0.27697024736E+03  0.73946565503E+03  0.16318183419E+03  0.80631897156E+03  0.25500000920E-02 0. -1.
</event>
<event>
 5   0  0.1837313E-04  0.1821620E+04  0.7818609E-02  0.8694886E-01
        1   -1    0    0  501    0  0.00000000000E+00  0.00000000000E+00  0.58068004291E+03  0.58068004293E+03  0.50400001928E-02 0.  1.
       -1   -1    0    0    0  501  0.00000000000E+00  0.00000000000E+00 -0.14286266937E+04  0.14286266937E+04  0.50400001928E-02 0. -1.
    10030    2    1    2    0    0  0.00000000000E+00  0.00000000000E+00 -0.84794665080E+03  0.20093067367E+04  0.18216201688E+04 0.  0.
        1    1    3    3  502    0 -0.11936865446E+03 -0.86036514948E+03 -0.12169818123E+03  0.87709036789E+03  0.50400001928E-02 0.  1.
       -1    1    3    3    0  502  0.11936865446E+03  0.86036514948E+03 -0.72624846957E+03  0.11322163688E+04  0.50400001928E-02 0. -1.
</event>
<event>
 5   0  0.3568870E-04  0.1778903E+04  0.7818609E-02  0.8717600E-01
        2   -1    0    0  501    0  0.00000000000E+00  0.00000000000E+00  0.14127155331E+04  0.14127155331E+04  0.25500000920E-02 0.  1.
       -2   -1    0    0    0  501  0.00000000000E+00  0.00000000000E+00 -0.56000208385E+03  0.56000208386E+03  0.25500000920E-02 0. -1.
    10030    2    1    2    0    0  0.00000000000E+00  0.00000000000E+00  0.85271344925E+03  0.19727176170E+04  0.17789026308E+04 0.  0.
        1    1    3    3  502    0  0.27090396688E+03 -0.63438603389E+03 -0.19632652733E+03  0.71720199709E+03  0.50400001928E-02 0. -1.
       -1    1    3    3    0  502 -0.27090396688E+03  0.63438603389E+03  0.10490399766E+04  0.12555156199E+04  0.50400001928E-02 0.  1.
</event>
<event>
 5   0  0.1818778E-04  0.1817050E+04  0.7818609E-02  0.8697285E-01
       -1   -1    0    0    0  501  0.00000000000E+00  0.00000000000E+00  0.95500417984E+03  0.95500417985E+03  0.50400001928E-02 0. -1.
        1   -1    0    0  501    0  0.00000000000E+00  0.00000000000E+00 -0.86430802259E+03  0.86430802261E+03  0.50400001928E-02 0.  1.
    10030    2    1    2    0    0  0.00000000000E+00  0.00000000000E+00  0.90696157249E+02  0.18193122025E+04  0.18170501086E+04 0.  0.
        3    1    3    3  502    0  0.35141090266E+03  0.28213816414E+03 -0.74451055631E+03  0.87028015308E+03  0.10100000352E+00 0.  1.
       -3    1    3    3    0  502 -0.35141090266E+03 -0.28213816414E+03  0.83520671356E+03  0.94903204938E+03  0.10100000352E+00 0. -1.
</event>
<event>
 5   0  0.3575091E-04  0.1729593E+04  0.7818609E-02  0.8744664E-01
       -2   -1    0    0    0  501  0.00000000000E+00  0.00000000000E+00  0.67233566816E+03  0.67233566817E+03  0.25500000920E-02 0.  1.
        2   -1    0    0  501    0  0.00000000000E+00  0.00000000000E+00 -0.11123503318E+04  0.11123503318E+04  0.25500000920E-02 0. -1.
    10030    2    1    2    0    0  0.00000000000E+00  0.00000000000E+00 -0.44001466368E+03  0.17846860000E+04  0.17295927886E+04 0.  0.
        5    1    3    3  502    0  0.65134636293E+03  0.49427654802E+03 -0.51056029328E+03  0.96397888644E+03  0.46999998093E+01 0. -1.
       -5    1    3    3    0  502 -0.65134636293E+03 -0.49427654802E+03  0.70545629594E+02  0.82070711358E+03  0.46999998093E+01 0.  1.
</event>
<event>
 5   0  0.3568870E-04  0.1794342E+04  0.7818609E-02  0.8709314E-01
        2   -1    0    0  501    0  0.00000000000E+00  0.00000000000E+00  0.87034030746E+03  0.87034030747E+03  0.25500000920E-02 0.  1.
       -2   -1    0    0    0  501  0.00000000000E+00  0.00000000000E+00 -0.92482849770E+03  0.92482849770E+03  0.25500000920E-02 0. -1.
    10030    2    1    2    0    0  0.00000000000E+00  0.00000000000E+00 -0.54488190236E+02  0.17951688052E+04  0.17943416832E+04 0.  0.
        1    1    3    3  502    0 -0.66050586517E+03 -0.57623412084E+03  0.16415995614E+03  0.89177477603E+03  0.50400001928E-02 0.  1.
       -1    1    3    3    0  502  0.66050586517E+03  0.57623412084E+03 -0.21864814638E+03  0.90339402914E+03  0.50400001928E-02 0. -1.
</event>
<event>
 5   0  0.1835421E-04  0.1784737E+04  0.7818609E-02  0.8714458E-01
        1   -1    0    0  501    0  0.00000000000E+00  0.00000000000E+00  0.13247890438E+04  0.13247890439E+04  0.50400001928E-02 0. -1.
       -1   -1    0    0    0  501  0.00000000000E+00  0.00000000000E+00 -0.60109325484E+03  0.60109325486E+03  0.50400001928E-02 0.  1.
    10030    2    1    2    0    0  0.00000000000E+00  0.00000000000E+00  0.72369578900E+03  0.19258822987E+04  0.17847372449E+04 0.  0.
        2    1    3    3  502    0  0.72770674984E+03 -0.43509699558E+03  0.66216556181E+03  0.10757926104E+04  0.25500000920E-02 0.  1.
       -2    1    3    3    0  502 -0.72770674984E+03  0.43509699558E+03  0.61530227193E+02  0.85008968832E+03  0.25500000920E-02 0. -1.
</event>
<event>
 5   0  0.3628581E-04  0.1793483E+04  0.7818609E-02  0.8709773E-01
       -2   -1    0    0    0  501  0.00000000000E+00  0.00000000000E+00  0.52196851797E+03  0.52196851798E+03  0.25500000920E-02 0.  1.
        2   -1    0    0  501    0  0.00000000000E+00  0.00000000000E+00 -0.15406007104E+04  0.15406007104E+04  0.25500000920E-02 0. -1.
    10030    2    1    2    0    0  0.00000000000E+00  0.00000000000E+00 -0.10186321924E+04  0.20625692284E+04  0.17934827232E+04 0.  0.
        2    1    3    3  502    0  0.33335015445E+03 -0.58522850855E+03  0.17156949200E+03  0.69501857765E+03  0.25500000920E-02 0.  1.
       -2    1    3    3    0  502 -0.33335015445E+03  0.58522850855E+03 -0.11902016844E+04  0.13675506507E+04  0.25500000920E-02 0. -1.
</event>
<event>
 5   0  0.3568870E-04  0.1792700E+04  0.7818609E-02  0.8710191E-01
        2   -1    0    0  501    0  0.00000000000E+00  0.00000000000E+00  0.98913890037E+03  0.98913890037E+03  0.25500000920E-02 0.  1.
       -2   -1    0    0    0  501  0.00000000000E+00  0.00000000000E+00 -0.81226508699E+03  0.81226508699E+03  0.25500000920E-02 0. -1.
    10030    2    1    2    0    0  0.00000000000E+00  0.00000000000E+00  0.17687381338E+03  0.18014039874E+04  0.17926996346E+04 0.  0.
        1    1    3    3  502    0 -0.87907664572E+02 -0.74561697589E+03 -0.40360435224E+03  0.85239011338E+03  0.50400001928E-02 0. -1.
       -1    1    3    3    0  502  0.87907664572E+02  0.74561697589E+03  0.58047816562E+03  0.94901387398E+03  0.50400001928E-02 0.  1.
</event>
<event>
 5   0  0.1835421E-04  0.1809191E+04  0.7818609E-02  0.8701427E-01
       -1   -1    0    0    0  501  0.00000000000E+00  0.00000000000E+00  0.79174802288E+03  0.79174802289E+03  0.50400001928E-02 0. -1.
        1   -1    0    0  501    0  0.00000000000E+00  0.00000000000E+00 -0.10335269545E+04  0.10335269545E+04  0.50400001928E-02 0.  1.
    10030    2    1    2    0    0  0.00000000000E+00  0.00000000000E+00 -0.24177893165E+03  0.18252749774E+04  0.18091908941E+04 0.  0.
        2    1    3    3  502    0  0.75862317924E+03 -0.15493684916E+03  0.35100631637E+03  0.85012939570E+03  0.25500000920E-02 0. -1.
       -2    1    3    3    0  502 -0.75862317924E+03  0.15493684916E+03 -0.59278524802E+03  0.97514558173E+03  0.25500000920E-02 0.  1.
</event>
<event>
 5   0  0.1825253E-04  0.1805593E+04  0.7818609E-02  0.8703331E-01
       -1   -1    0    0    0  501  0.00000000000E+00  0.00000000000E+00  0.97968966674E+03  0.97968966676E+03  0.50400001928E-02 0.  1.
        1   -1    0    0  501    0  0.00000000000E+00  0.00000000000E+00 -0.83193824067E+03  0.83193824069E+03  0.50400001928E-02 0. -1.
    10030    2    1    2    0    0  0.00000000000E+00  0.00000000000E+00  0.14775142607E+03  0.18116279074E+04  0.18055927534E+04 0.  0.
        4    1    3    3  502    0 -0.37004301560E+03 -0.69587633093E+02 -0.74939440320E+03  0.83867029071E+03  0.12699999809E+01 0. -1.
       -4    1    3    3    0  502  0.37004301560E+03  0.69587633093E+02  0.89714582927E+03  0.97295761673E+03  0.12699999809E+01 0.  1.
</event>
<event>
 5   0  0.3575091E-04  0.1814860E+04  0.7818609E-02  0.8698437E-01
        2   -1    0    0  501    0  0.00000000000E+00  0.00000000000E+00  0.11582795045E+04  0.11582795045E+04  0.25500000920E-02 0. -1.
       -2   -1    0    0    0  501  0.00000000000E+00  0.00000000000E+00 -0.71090724810E+03  0.71090724810E+03  0.25500000920E-02 0.  1.
    10030    2    1    2    0    0  0.00000000000E+00  0.00000000000E+00  0.44737225640E+03  0.18691867526E+04  0.18148600994E+04 0.  0.
        5    1    3    3  502    0 -0.40223396740E+03  0.78428770700E+02 -0.61015623075E+03  0.73502105583E+03  0.46999998093E+01 0.  1.
       -5    1    3    3    0  502  0.40223396740E+03 -0.78428770700E+02  0.10575284872E+04  0.11341656968E+04  0.46999998093E+01 0. -1.
</event>
<event>
 5   0  0.1818778E-04  0.1837243E+04  0.7818609E-02  0.8686741E-01
        1   -1    0    0  501    0  0.00000000000E+00  0.00000000000E+00  0.14692619772E+04  0.14692619772E+04  0.50400001928E-02 0. -1.
       -1   -1    0    0    0  501  0.00000000000E+00  0.00000000000E+00 -0.57434647365E+03  0.57434647367E+03  0.50400001928E-02 0.  1.
    10030    2    1    2    0    0  0.00000000000E+00  0.00000000000E+00  0.89491550354E+03  0.20436084509E+04  0.18372429730E+04 0.  0.
        3    1    3    3  502    0  0.11214718958E+03 -0.25567255807E+03 -0.52601274386E+03  0.59551227190E+03  0.10100000352E+00 0.  1.
       -3    1    3    3    0  502 -0.11214718958E+03  0.25567255807E+03  0.14209282474E+04  0.14480961790E+04  0.10100000352E+00 0. -1.
</event>
<event>
 5   0  0.1837313E-04  0.1421082E+04  0.7818609E-02  0.8938698E-01
       -1   -1    0    0    0  501  0.00000000000E+00  0.00000000000E+00  0.95348272369E+03  0.95348272371E+03  0.50400001928E-02 0.  1.
        1   -1    0    0  501    0  0.00000000000E+00  0.00000000000E+00 -0.52949909796E+03  0.52949909798E+03  0.50400001928E-02 0. -1.
    10030    2    1    2    0    0  0.00000000000E+00  0.00000000000E+00  0.42398362574E+03  0.14829818217E+04  0.14210816192E+04 0.  0.
        1    1    3    3  502    0 -0.21950387576E+03 -0.60484267138E+03 -0.10255346922E+03  0.65156260073E+03  0.50400001928E-02 0. -1.
       -1    1    3    3    0  502  0.21950387576E+03  0.60484267138E+03  0.52653709496E+03  0.83141922096E+03  0.50400001928E-02 0.  1.
</event>
<event>
 5   0  0.3531266E-04  0.1802059E+04  0.7818609E-02  0.8705205E-01
        2   -1    0    0  501    0  0.00000000000E+00  0.00000000000E+00  0.77237203846E+03  0.77237203846E+03  0.25500000920E-02 0. -1.
       -2   -1    0    0    0  501  0.00000000000E+00  0.00000000000E+00 -0.10511182683E+04  0.10511182683E+04  0.25500000920E-02 0.  1.
    10030    2    1    2    0    0  0.00000000000E+00  0.00000000000E+00 -0.27874622988E+03  0.18234903068E+04  0.18020592217E+04 0.  0.
        3    1    3    3  502    0 -0.56504939008E+03 -0.22614004901E+03  0.53293351706E+03  0.80897359586E+03  0.10100000352E+00 0. -1.
       -3    1    3    3    0  502  0.56504939008E+03  0.22614004901E+03 -0.81167974694E+03  0.10145167109E+04  0.10100000352E+00 0.  1.
</event>
<event>
 5   0  0.3575091E-04  0.1806775E+04  0.7818609E-02  0.8702705E-01
        2   -1    0    0  501    0  0.00000000000E+00  0.00000000000E+00  0.58367533530E+03  0.58367533530E+03  0.25500000920E-02 0. -1.
       -2   -1    0    0    0  501  0.00000000000E+00  0.00000000000E+00 -0.13982238490E+04  0.13982238490E+04  0.25500000920E-02 0.  1.
    10030    2    1    2    0    0  0.00000000000E+00  0.00000000000E+00 -0.81454851368E+03  0.19818991843E+04  0.18067747772E+04 0.  0.
        5    1    3    3  502    0  0.61131688520E+03 -0.10904393433E+03  0.31243642550E+03  0.69515287795E+03  0.46999998093E+01 0. -1.
       -5    1    3    3    0  502 -0.61131688520E+03  0.10904393433E+03 -0.11269849392E+04  0.12867463063E+04  0.46999998093E+01 0.  1.
</event>
<event>
 5   0  0.1883959E-04  0.1800223E+04  0.7818609E-02  0.8706181E-01
        1   -1    0    0  501    0  0.00000000000E+00  0.00000000000E+00  0.19783770048E+04  0.19783770048E+04  0.50400001928E-02 0.  1.
       -1   -1    0    0    0  501  0.00000000000E+00  0.00000000000E+00 -0.40952816001E+03  0.40952816004E+03  0.50400001928E-02 0. -1.
    10030    2    1    2    0    0  0.00000000000E+00  0.00000000000E+00  0.15688488448E+04  0.23879051648E+04  0.18002234246E+04 0.  0.
        5    1    3    3  502    0 -0.77853299672E+03 -0.23823980094E+03  0.12935238593E+04  0.15284298788E+04  0.46999998093E+01 0.  1.
       -5    1    3    3    0  502  0.77853299672E+03  0.23823980094E+03  0.27532498547E+03  0.85947528606E+03  0.46999998093E+01 0. -1.
</event>
<event>
 5   0  0.1835421E-04  0.1799737E+04  0.7818609E-02  0.8706439E-01
        1   -1    0    0  501    0  0.00000000000E+00  0.00000000000E+00  0.43418407475E+03  0.43418407478E+03  0.50400001928E-02 0.  1.
       -1   -1    0    0    0  501  0.00000000000E+00  0.00000000000E+00 -0.18650235683E+04  0.18650235683E+04  0.50400001928E-02 0. -1.
    10030    2    1    2    0    0  0.00000000000E+00  0.00000000000E+00 -0.14308394936E+04  0.22992076431E+04  0.17997372391E+04 0.  0.
        2    1    3    3  502    0  0.36640523486E+03  0.59894797642E+03 -0.14344423193E+04  0.15970648834E+04  0.25500000920E-02 0. -1.
       -2    1    3    3    0  502 -0.36640523486E+03 -0.59894797642E+03  0.36028256996E+01  0.70214275967E+03  0.25500000920E-02 0.  1.
</event>
<event>
 5   0  0.3582186E-04  0.1769896E+04  0.7818609E-02  0.8722475E-01
       -2   -1    0    0    0  501  0.00000000000E+00  0.00000000000E+00  0.11964763461E+04  0.11964763461E+04  0.25500000920E-02 0. -1.
        2   -1    0    0  501    0  0.00000000000E+00  0.00000000000E+00 -0.65453242615E+03  0.65453242616E+03  0.25500000920E-02 0.  1.
    10030    2    1    2    0    0  0.00000000000E+00  0.00000000000E+00  0.54194391998E+03  0.18510087723E+04  0.17698955514E+04 0.  0.
        4    1    3    3  502    0 -0.62448910562E+03 -0.12577359432E+03  0.91339159990E+03  0.11135939420E+04  0.12699999809E+01 0. -1.
       -4    1    3    3    0  502  0.62448910562E+03  0.12577359432E+03 -0.37144767992E+03  0.73741483026E+03  0.12699999809E+01 0.  1.
</event>
<event>
 5   0  0.3575091E-04  0.1783226E+04  0.7818609E-02  0.8715271E-01
       -2   -1    0    0    0  501  0.00000000000E+00  0.00000000000E+00  0.51308418840E+03  0.51308418840E+03  0.25500000920E-02 0. -1.
        2   -1    0    0  501    0  0.00000000000E+00  0.00000000000E+00 -0.15494015671E+04  0.15494015671E+04  0.25500000920E-02 0.  1.
    10030    2    1    2    0    0  0.00000000000E+00  0.00000000000E+00 -0.10363173787E+04  0.20624857555E+04  0.17832256678E+04 0.  0.
        5    1    3    3  502    0 -0.10643049907E+03  0.59931116796E+03  0.23536677714E+03  0.65262618470E+03  0.46999998093E+01 0. -1.
       -5    1    3    3    0  502  0.10643049907E+03 -0.59931116796E+03 -0.12716841558E+04  0.14098595708E+04  0.46999998093E+01 0.  1.
</event>
<event>
 5   0  0.1837313E-04  0.1693584E+04  0.7818609E-02  0.8765032E-01
        1   -1    0    0  501    0  0.00000000000E+00  0.00000000000E+00  0.74157283882E+03  0.74157283884E+03  0.50400001928E-02 0.  1.
       -1   -1    0    0    0  501  0.00000000000E+00  0.00000000000E+00 -0.96694048922E+03  0.96694048923E+03  0.50400001928E-02 0. -1.
    10030    2    1    2    0    0  0.00000000000E+00  0.00000000000E+00 -0.22536765039E+03  0.17085133281E+04  0.16935841326E+04 0.  0.
        1    1    3    3  502    0  0.61576732174E+03  0.50320778799E+03 -0.40622880636E+03  0.89297777999E+03  0.50400001928E-02 0. -1.
       -1    1    3    3    0  502 -0.61576732174E+03 -0.50320778799E+03  0.18086115597E+03  0.81553554808E+03  0.50400001928E-02 0.  1.
</event>
<event>
 5   0  0.3628581E-04  0.1800611E+04  0.7818609E-02  0.8705974E-01
        2   -1    0    0  501    0  0.00000000000E+00  0.00000000000E+00  0.11086228528E+04  0.11086228528E+04  0.25500000920E-02 0. -1.
       -2   -1    0    0    0  501  0.00000000000E+00  0.00000000000E+00 -0.73113261501E+03  0.73113261502E+03  0.25500000920E-02 0.  1.
    10030    2    1    2    0    0  0.00000000000E+00  0.00000000000E+00  0.37749023779E+03  0.18397554678E+04  0.18006113689E+04 0.  0.
        2    1    3    3  502    0 -0.65133133613E+03 -0.35598455936E+03 -0.33183364013E+03  0.81306277781E+03  0.25500000920E-02 0.  1.
       -2    1    3    3    0  502  0.65133133613E+03  0.35598455936E+03  0.70932387792E+03  0.10266926900E+04  0.25500000920E-02 0. -1.
</event>
<event>
 5   0  0.1835421E-04  0.1835442E+04  0.7818609E-02  0.8687676E-01
       -1   -1    0    0    0  501  0.00000000000E+00  0.00000000000E+00  0.71016984053E+03  0.71016984055E+03  0.50400001928E-02 0.  1.
        1   -1    0    0  501    0  0.00000000000E+00  0.00000000000E+00 -0.11859299948E+04  0.11859299948E+04  0.50400001928E-02 0. -1.
    10030    2    1    2    0    0  0.00000000000E+00  0.00000000000E+00 -0.47576015428E+03  0.18960998354E+04  0.18354418708E+04 0.  0.
        2    1    3    3  502    0 -0.77893633307E+03  0.26732895214E+03 -0.65623924419E+03  0.10530225663E+04  0.25500000920E-02 0. -1.
       -2    1    3    3    0  502  0.77893633307E+03 -0.26732895214E+03  0.18047908991E+03  0.84307726901E+03  0.25500000920E-02 0.  1.
</event>
<event>
 5   0  0.3568870E-04  0.1810457E+04  0.7818609E-02  0.8700758E-01
       -2   -1    0    0    0  501  0.00000000000E+00  0.00000000000E+00  0.59839661968E+03  0.59839661969E+03  0.25500000920E-02 0. -1.
        2   -1    0    0  501    0  0.00000000000E+00  0.00000000000E+00 -0.13693906633E+04  0.13693906633E+04  0.25500000920E-02 0.  1.
    10030    2    1    2    0    0  0.00000000000E+00  0.00000000000E+00 -0.77099404360E+03  0.19677872830E+04  0.18104571179E+04 0.  0.
        1    1    3    3  502    0 -0.85036382942E+03 -0.31034698734E+03 -0.38789041798E+03  0.98483139233E+03  0.50400001928E-02 0.  1.
       -1    1    3    3    0  502  0.85036382942E+03  0.31034698734E+03 -0.38310362562E+03  0.98295589063E+03  0.50400001928E-02 0. -1.
</event>
<event>
 5   0  0.1837313E-04  0.1820009E+04  0.7818609E-02  0.8695731E-01
       -1   -1    0    0    0  501  0.00000000000E+00  0.00000000000E+00  0.36941735486E+03  0.36941735490E+03  0.50400001928E-02 0.  1.
        1   -1    0    0  501    0  0.00000000000E+00  0.00000000000E+00 -0.22416603636E+04  0.22416603636E+04  0.50400001928E-02 0. -1.
    10030    2    1    2    0    0  0.00000000000E+00  0.00000000000E+00 -0.18722430087E+04  0.26110777185E+04  0.18200090572E+04 0.  0.
        1    1    3    3  502    0  0.43399851403E+03 -0.52648820915E+03 -0.72271364063E+02  0.68612513046E+03  0.50400001928E-02 0.  1.
       -1    1    3    3    0  502 -0.43399851403E+03  0.52648820915E+03 -0.17999716447E+04  0.19249525880E+04  0.50400001928E-02 0. -1.
</event>
<event>
 5   0  0.1818778E-04  0.2148640E+04  0.7818609E-02  0.8540114E-01
        1   -1    0    0  501    0  0.00000000000E+00  0.00000000000E+00  0.22289689279E+04  0.22289689279E+04  0.50400001928E-02 0.  1.
       -1   -1    0    0    0  501  0.00000000000E+00  0.00000000000E+00 -0.51780172869E+03  0.51780172872E+03  0.50400001928E-02 0. -1.
    10030    2    1    2    0    0  0.00000000000E+00  0.00000000000E+00  0.17111671992E+04  0.27467706566E+04  0.21486404670E+04 0.  0.
        3    1    3    3  502    0  0.85207782439E+03  0.46632151168E+03  0.14423451231E+04  0.17389226076E+04  0.10100000352E+00 0.  1.
       -3    1    3    3    0  502 -0.85207782439E+03 -0.46632151168E+03  0.26882207617E+03  0.10078480490E+04  0.10100000352E+00 0. -1.
</event>
<event>
 5   0  0.3582186E-04  0.1763200E+04  0.7818609E-02  0.8726118E-01
       -2   -1    0    0    0  501  0.00000000000E+00  0.00000000000E+00  0.68375532543E+03  0.68375532543E+03  0.25500000920E-02 0.  1.
        2   -1    0    0  501    0  0.00000000000E+00  0.00000000000E+00 -0.11366907390E+04  0.11366907390E+04  0.25500000920E-02 0. -1.
    10030    2    1    2    0    0  0.00000000000E+00  0.00000000000E+00 -0.45293541353E+03  0.18204460644E+04  0.17631997574E+04 0.  0.
        4    1    3    3  502    0 -0.38851146050E+03 -0.92628462828E+02 -0.10379210125E+04  0.11121163735E+04  0.12699999809E+01 0. -1.
       -4    1    3    3    0  502  0.38851146050E+03  0.92628462828E+02  0.58498559899E+03  0.70832969089E+03  0.12699999809E+01 0.  1.
</event>
<event>
 5   0  0.3568870E-04  0.1833470E+04  0.7818609E-02  0.8688700E-01
        2   -1    0    0  501    0  0.00000000000E+00  0.00000000000E+00  0.70071286096E+03  0.70071286097E+03  0.25500000920E-02 0.  1.
       -2   -1    0    0    0  501  0.00000000000E+00  0.00000000000E+00 -0.11993543970E+04  0.11993543970E+04  0.25500000920E-02 0. -1.
    10030    2    1    2    0    0  0.00000000000E+00  0.00000000000E+00 -0.49864153608E+03  0.19000672580E+04  0.18334699898E+04 0.  0.
        1    1    3    3  502    0  0.28289537106E+03 -0.83055704975E+03 -0.52457771068E+03  0.10222703060E+04  0.50400001928E-02 0. -1.
       -1    1    3    3    0  502 -0.28289537106E+03  0.83055704975E+03  0.25936174603E+02  0.87779695206E+03  0.50400001928E-02 0.  1.
</event>
<event>
 5   0  0.3575091E-04  0.1802002E+04  0.7818609E-02  0.8705235E-01
        2   -1    0    0  501    0  0.00000000000E+00  0.00000000000E+00  0.99598188524E+03  0.99598188525E+03  0.25500000920E-02 0.  1.
       -2   -1    0    0    0  501  0.00000000000E+00  0.00000000000E+00 -0.81507811763E+03  0.81507811764E+03  0.25500000920E-02 0. -1.
    10030    2    1    2    0    0  0.00000000000E+00  0.00000000000E+00  0.18090376761E+03  0.18110600029E+04  0.18020022644E+04 0.  0.
        5    1    3    3  502    0 -0.19431625890E+03  0.48308754770E+02 -0.79242164308E+03  0.81734123515E+03  0.46999998093E+01 0. -1.
       -5    1    3    3    0  502  0.19431625890E+03 -0.48308754770E+02  0.97332541069E+03  0.99371876773E+03  0.46999998093E+01 0.  1.
</event>
<event>
 5   0  0.1825253E-04  0.1821709E+04  0.7818609E-02  0.8694839E-01
       -1   -1    0    0    0  501  0.00000000000E+00  0.00000000000E+00  0.11444852843E+04  0.11444852843E+04  0.50400001928E-02 0.  1.
        1   -1    0    0  501    0  0.00000000000E+00  0.00000000000E+00 -0.72491616159E+03  0.72491616160E+03  0.50400001928E-02 0. -1.
    10030    2    1    2    0    0  0.00000000000E+00  0.00000000000E+00  0.41956912268E+03  0.18694014459E+04  0.18217089551E+04 0.  0.
        4    1    3    3  502    0 -0.57987441813E+03  0.70239825787E+03  0.20357528712E+03  0.93330711123E+03  0.12699999809E+01 0.  1.
       -4    1    3    3    0  502  0.57987441813E+03 -0.70239825787E+03  0.21599383556E+03  0.93609433464E+03  0.12699999809E+01 0. -1.
</event>
<event>
 5   0  0.1883959E-04  0.1803266E+04  0.7818609E-02  0.8704565E-01
       -1   -1    0    0    0  501  0.00000000000E+00  0.00000000000E+00  0.85521913756E+03  0.85521913758E+03  0.50400001928E-02 0. -1.
        1   -1    0    0  501    0  0.00000000000E+00  0.00000000000E+00 -0.95056535317E+03  0.95056535319E+03  0.50400001928E-02 0.  1.
    10030    2    1    2    0    0  0.00000000000E+00  0.00000000000E+00 -0.95346215610E+02  0.18057844908E+04  0.18032655729E+04 0.  0.
        5    1    3    3  502    0 -0.74102830506E+02 -0.38027046992E+03  0.76760339276E+03  0.85984528745E+03  0.46999998093E+01 0. -1.
       -5    1    3    3    0  502  0.74102830506E+02  0.38027046992E+03 -0.86294960837E+03  0.94593920331E+03  0.46999998093E+01 0.  1.
</event>
<event>
 5   0  0.3628581E-04  0.1830961E+04  0.7818609E-02  0.8690006E-01
       -2   -1    0    0    0  501  0.00000000000E+00  0.00000000000E+00  0.53336314322E+03  0.53336314323E+03  0.25500000920E-02 0. -1.
        2   -1    0    0  501    0  0.00000000000E+00  0.00000000000E+00 -0.15713578618E+04  0.15713578618E+04  0.25500000920E-02 0.  1.
    10030    2    1    2    0    0  0.00000000000E+00  0.00000000000E+00 -0.10379947186E+04  0.21047210051E+04  0.18309608061E+04 0.  0.
        2    1    3    3  502    0 -0.41889832573E+03  0.57407570608E+03 -0.11824049045E+04  0.13795361835E+04  0.25500000920E-02 0.  1.
       -2    1    3    3    0  502  0.41889832573E+03 -0.57407570608E+03  0.14441018583E+03  0.72518482154E+03  0.25500000920E-02 0. -1.
</event>
<event>
 5   0  0.1825253E-04  0.1685492E+04  0.7818609E-02  0.8769682E-01
        1   -1    0    0  501    0  0.00000000000E+00  0.00000000000E+00  0.93507143540E+03  0.93507143541E+03  0.50400001928E-02 0. -1.
       -1   -1    0    0    0  501  0.00000000000E+00  0.00000000000E+00 -0.75953651812E+03  0.75953651813E+03  0.50400001928E-02 0.  1.
    10030    2    1    2    0    0  0.00000000000E+00  0.00000000000E+00  0.17553491728E+03  0.16946079535E+04  0.16854920970E+04 0.  0.
        4    1    3    3  502    0  0.30121539332E+03 -0.60331222519E+03 -0.42043933535E+03  0.79466169019E+03  0.12699999809E+01 0.  1.
       -4    1    3    3    0  502 -0.30121539332E+03  0.60331222519E+03  0.59597425263E+03  0.89994626336E+03  0.12699999809E+01 0. -1.
</event>
<event>
 5   0  0.3575091E-04  0.1597818E+04  0.7818609E-02  0.8821889E-01
       -2   -1    0    0    0  501  0.00000000000E+00  0.00000000000E+00  0.10634171031E+04  0.10634171031E+04  0.25500000920E-02 0. -1.
        2   -1    0    0  501    0  0.00000000000E+00  0.00000000000E+00 -0.60019335260E+03  0.60019335261E+03  0.25500000920E-02 0.  1.
    10030    2    1    2    0    0  0.00000000000E+00  0.00000000000E+00  0.46322375049E+03  0.16636104557E+04  0.15978183580E+04 0.  0.
        5    1    3    3  502    0 -0.12232024072E+03  0.73759455264E+03  0.52467259279E+03  0.91340647305E+03  0.46999998093E+01 0.  1.
       -5    1    3    3    0  502  0.12232024072E+03 -0.73759455264E+03 -0.61448842303E+02  0.75020398266E+03  0.46999998093E+01 0. -1.
</event>
<event>
 5   0  0.1883959E-04  0.1817334E+04  0.7818609E-02  0.8697135E-01
        1   -1    0    0  501    0  0.00000000000E+00  0.00000000000E+00  0.12643820522E+04  0.12643820522E+04  0.50400001928E-02 0. -1.
       -1   -1    0    0    0  501  0.00000000000E+00  0.00000000000E+00 -0.65302720858E+03  0.65302720860E+03  0.50400001928E-02 0.  1.
    10030    2    1    2    0    0  0.00000000000E+00  0.00000000000E+00  0.61135484362E+03  0.19174092608E+04  0.18173341819E+04 0.  0.
        5    1    3    3  502    0  0.55765210787E+03  0.34878374983E+03 -0.35576442669E+03  0.74780772586E+03  0.46999998093E+01 0.  1.
       -5    1    3    3    0  502 -0.55765210787E+03 -0.34878374983E+03  0.96711927031E+03  0.11696015349E+04  0.46999998093E+01 0. -1.
</event>
<event>
 5   0  0.1837313E-04  0.1831897E+04  0.7818609E-02  0.8689519E-01
       -1   -1    0    0    0  501  0.00000000000E+00  0.00000000000E+00  0.10536585663E+04  0.10536585663E+04  0.50400001928E-02 0.  1.
        1   -1    0    0  501    0  0.00000000000E+00  0.00000000000E+00 -0.79623648513E+03  0.79623648515E+03  0.50400001928E-02 0. -1.
    10030    2    1    2    0    0  0.00000000000E+00  0.00000000000E+00  0.25742208119E+03  0.18498950515E+04  0.18318967148E+04 0.  0.
        1    1    3    3  502    0  0.35651218422E+03 -0.52284417469E+03 -0.53998406557E+03  0.83189528163E+03  0.50400001928E-02 0. -1.
       -1    1    3    3    0  502 -0.35651218422E+03  0.52284417469E+03  0.79740614676E+03  0.10179997699E+04  0.50400001928E-02 0.  1.
</event>
<event>
 5   0  0.3628581E-04  0.1785718E+04  0.7818609E-02  0.8713931E-01
       -2   -1    0    0    0  501  0.00000000000E+00  0.00000000000E+00  0.13859437543E+04  0.13859437543E+04  0.25500000920E-02 0.  1.
        2   -1    0    0  501    0  0.00000000000E+00  0.00000000000E+00 -0.57520179811E+03  0.57520179811E+03  0.25500000920E-02 0. -1.
    10030    2    1    2    0    0  0.00000000000E+00  0.00000000000E+00  0.81074195622E+03  0.19611455524E+04  0.17857181632E+04 0.  0.
        2    1    3    3  502    0 -0.29620991206E+03  0.81915064342E+03  0.19002297296E+03  0.89154742940E+03  0.25500000920E-02 0. -1.
       -2    1    3    3    0  502  0.29620991206E+03 -0.81915064342E+03  0.62071898326E+03  0.10695981230E+04  0.25500000920E-02 0.  1.
</event>
<event>
 5   0  0.1883959E-04  0.1852599E+04  0.7818609E-02  0.8678817E-01
       -1   -1    0    0    0  501  0.00000000000E+00  0.00000000000E+00  0.22948114912E+04  0.22948114913E+04  0.50400001928E-02 0. -1.
        1   -1    0    0  501    0  0.00000000000E+00  0.00000000000E+00 -0.37390035652E+03  0.37390035655E+03  0.50400001928E-02 0.  1.
    10030    2    1    2    0    0  0.00000000000E+00  0.00000000000E+00  0.19209111347E+04  0.26687118478E+04  0.18525990767E+04 0.  0.
        5    1    3    3  502    0 -0.62039716374E+03 -0.24126793841E+03  0.18883424566E+04  0.20022392920E+04  0.46999998093E+01 0. -1.
       -5    1    3    3    0  502  0.62039716374E+03  0.24126793841E+03  0.32568678115E+02  0.66647255583E+03  0.46999998093E+01 0.  1.
</event>
<event>
 5   0  0.3568870E-04  0.1801388E+04  0.7818609E-02  0.8705561E-01
       -2   -1    0    0    0  501  0.00000000000E+00  0.00000000000E+00  0.40289323268E+03  0.40289323269E+03  0.25500000920E-02 0. -1.
        2   -1    0    0  501    0  0.00000000000E+00  0.00000000000E+00 -0.20135609776E+04  0.20135609776E+04  0.25500000920E-02 0.  1.
    10030    2    1    2    0    0  0.00000000000E+00  0.00000000000E+00 -0.16106677449E+04  0.24164542103E+04  0.18013884550E+04 0.  0.
        1    1    3    3  502    0  0.70993880338E+03 -0.29412863778E+03 -0.17510646822E+03  0.78815419516E+03  0.50400001928E-02 0. -1.
       -1    1    3    3    0  502 -0.70993880338E+03  0.29412863778E+03 -0.14355612767E+04  0.16283000151E+04  0.50400001928E-02 0.  1.
</event>
<event>
 5   0  0.1837313E-04  0.1726192E+04  0.7818609E-02  0.8746565E-01
       -1   -1    0    0    0  501  0.00000000000E+00  0.00000000000E+00  0.65920730195E+03  0.65920730197E+03  0.50400001928E-02 0. -1.
        1   -1    0    0  501    0  0.00000000000E+00  0.00000000000E+00 -0.11300462711E+04  0.11300462711E+04  0.50400001928E-02 0.  1.
    10030    2    1    2    0    0  0.00000000000E+00  0.00000000000E+00 -0.47083896918E+03  0.17892535731E+04  0.17261920559E+04 0.  0.
        1    1    3    3  502    0  0.20905794158E+03 -0.55911836433E+03 -0.88158417397E+03  0.10646639019E+04  0.50400001928E-02 0.  1.
       -1    1    3    3    0  502 -0.20905794158E+03  0.55911836433E+03  0.41074520479E+03  0.72458967116E+03  0.50400001928E-02 0. -1.
</event>
<event>
 5   0  0.1835421E-04  0.1791351E+04  0.7818609E-02  0.8710913E-01
       -1   -1    0    0    0  501  0.00000000000E+00  0.00000000000E+00  0.20478247538E+04  0.20478247538E+04  0.50400001928E-02 0.  1.
        1   -1    0    0  501    0  0.00000000000E+00  0.00000000000E+00 -0.39174950821E+03  0.39174950824E+03  0.50400001928E-02 0. -1.
    10030    2    1    2    0    0  0.00000000000E+00  0.00000000000E+00  0.16560752456E+04  0.24395742620E+04  0.17913507085E+04 0.  0.
        2    1    3    3  502    0  0.42205895966E+03  0.78979903399E+03  0.85232543786E+03  0.12362746182E+04  0.25500000920E-02 0.  1.
       -2    1    3    3    0  502 -0.42205895966E+03 -0.78979903399E+03  0.80374980773E+03  0.12032996439E+04  0.25500000920E-02 0. -1.
</event>
<event>
 5   0  0.3582186E-04  0.1806025E+04  0.7818609E-02  0.8703102E-01
        2   -1    0    0  501    0  0.00000000000E+00  0.00000000000E+00  0.14174405758E+04  0.14174405758E+04  0.25500000920E-02 0.  1.
       -2   -1    0    0    0  501  0.00000000000E+00  0.00000000000E+00 -0.57528474916E+03  0.57528474917E+03  0.25500000920E-02 0. -1.
    10030    2    1    2    0    0  0.00000000000E+00  0.00000000000E+00  0.84215582660E+03  0.19927253249E+04  0.18060254108E+04 0.  0.
        4    1    3    3  502    0  0.20164749444E+02 -0.72843265691E+03 -0.16735329003E+03  0.74768274646E+03  0.12699999809E+01 0. -1.
       -4    1    3    3    0  502 -0.20164749444E+02  0.72843265691E+03  0.10095091166E+04  0.12450425785E+04  0.12699999809E+01 0.  1.
</event>
<event>
 5   0  0.3628581E-04  0.1799397E+04  0.7818609E-02  0.8706620E-01
       -2   -1    0    0    0  501  0.00000000000E+00  0.00000000000E+00  0.66112446607E+03  0.66112446607E+03  0.25500000920E-02 0. -1.
        2   -1    0    0  501    0  0.00000000000E+00  0.00000000000E+00 -0.12243641245E+04  0.12243641245E+04  0.25500000920E-02 0.  1.
    10030    2    1    2    0    0  0.00000000000E+00  0.00000000000E+00 -0.56323965843E+03  0.18854885906E+04  0.17993966523E+04 0.  0.
        2    1    3    3  502    0 -0.18995800437E+03  0.43306197908E+03  0.52039599425E+03  0.70316336082E+03  0.25500000920E-02 0. -1.
       -2    1    3    3    0  502  0.18995800437E+03 -0.43306197908E+03 -0.10836356527E+04  0.11823252298E+04  0.25500000920E-02 0.  1.
</event>
<event>
 5   0  0.3582186E-04  0.1776125E+04  0.7818609E-02  0.8719100E-01
        2   -1    0    0  501    0  0.00000000000E+00  0.00000000000E+00  0.99691615826E+03  0.99691615826E+03  0.25500000920E-02 0. -1.
       -2   -1    0    0    0  501  0.00000000000E+00  0.00000000000E+00 -0.79109452131E+03  0.79109452131E+03  0.25500000920E-02 0.  1.
    10030    2    1    2    0    0  0.00000000000E+00  0.00000000000E+00  0.20582163695E+03  0.17880106796E+04  0.17761248954E+04 0.  0.
        4    1    3    3  502    0  0.32099819091E+01 -0.44146828624E+03 -0.67279662638E+03  0.80471203862E+03  0.12699999809E+01 0.  1.
       -4    1    3    3    0  502 -0.32099819091E+01  0.44146828624E+03  0.87861826333E+03  0.98329864095E+03  0.12699999809E+01 0. -1.
</event>
<event>
 5   0  0.1835421E-04  0.1818671E+04  0.7818609E-02  0.8696433E-01
        1   -1    0    0  501    0  0.00000000000E+00  0.00000000000E+00  0.11874812578E+04  0.11874812578E+04  0.50400001928E-02 0. -1.
       -1   -1    0    0    0  501  0.00000000000E+00  0.00000000000E+00 -0.69634039137E+03  0.69634039139E+03  0.50400001928E-02 0.  1.
    10030    2    1    2    0    0  0.00000000000E+00  0.00000000000E+00  0.49114086643E+03  0.18838216492E+04  0.18186711235E+04 0.  0.
        2    1    3    3  502    0  0.23734275064E+03 -0.47556806510E+03  0.10098328721E+04  0.11411656302E+04  0.25500000920E-02 0. -1.
       -2    1    3    3    0  502 -0.23734275064E+03  0.47556806510E+03 -0.51869200569E+03  0.74265601903E+03  0.25500000920E-02 0.  1.
</event>
<event>
 5   0  0.3568870E-04  0.1896955E+04  0.7818609E-02  0.8656374E-01
       -2   -1    0    0    0  501  0.00000000000E+00  0.00000000000E+00  0.44053208367E+03  0.44053208368E+03  0.25500000920E-02 0.  1.
        2   -1    0    0  501    0  0.00000000000E+00  0.00000000000E+00 -0.20420972766E+04  0.20420972766E+04  0.25500000920E-02 0. -1.
    10030    2    1    2    0    0  0.00000000000E+00  0.00000000000E+00 -0.16015651929E+04  0.24826293602E+04  0.18969547895E+04 0.  0.
        1    1    3    3  502    0  0.49572200942E+02  0.32497011012E+03 -0.19651581905E+04  0.19924632216E+04  0.50400001928E-02 0. -1.
       -1    1    3    3    0  502 -0.49572200942E+02 -0.32497011012E+03  0.36359299761E+03  0.49016613868E+03  0.50400001928E-02 0.  1.
</event>
<event>
 5   0  0.1825253E-04  0.1794028E+04  0.7818609E-02  0.8709482E-01
        1   -1    0    0  501    0  0.00000000000E+00  0.00000000000E+00  0.31396371516E+03  0.31396371520E+03  0.50400001928E-02 0. -1.
       -1   -1    0    0    0  501  0.00000000000E+00  0.00000000000E+00 -0.25628240562E+04  0.25628240562E+04  0.50400001928E-02 0.  1.
    10030    2    1    2    0    0  0.00000000000E+00  0.00000000000E+00 -0.22488603410E+04  0.28767877714E+04  0.17940276052E+04 0.  0.
        4    1    3    3  502    0  0.10592467448E+03 -0.40053113887E+03 -0.24002109951E+04  0.24357051677E+04  0.12699999809E+01 0.  1.
       -4    1    3    3    0  502 -0.10592467448E+03  0.40053113887E+03  0.15135065412E+03  0.44108260368E+03  0.12699999809E+01 0. -1.
</event>
<event>
 5   0  0.1835421E-04  0.1827533E+04  0.7818609E-02  0.8691793E-01
       -1   -1    0    0    0  501  0.00000000000E+00  0.00000000000E+00  0.48256735816E+03  0.48256735819E+03  0.50400001928E-02 0.  1.
        1   -1    0    0  501    0  0.00000000000E+00  0.00000000000E+00 -0.17302640901E+04  0.17302640901E+04  0.50400001928E-02 0. -1.
    10030    2    1    2    0    0  0.00000000000E+00  0.00000000000E+00 -0.12476967319E+04  0.22128314483E+04  0.18275327312E+04 0.  0.
        2    1    3    3  502    0 -0.98768658674E+02  0.18333097047E+03  0.45345252213E+03  0.49898364954E+03  0.25500000920E-02 0.  1.
       -2    1    3    3    0  502  0.98768658674E+02 -0.18333097047E+03 -0.17011492541E+04  0.17138477988E+04  0.25500000920E-02 0. -1.
</event>
<event>
 5   0  0.1837313E-04  0.1779269E+04  0.7818609E-02  0.8717402E-01
        1   -1    0    0  501    0  0.00000000000E+00  0.00000000000E+00  0.98954413334E+03  0.98954413335E+03  0.50400001928E-02 0. -1.
       -1   -1    0    0    0  501  0.00000000000E+00  0.00000000000E+00 -0.79981210922E+03  0.79981210924E+03  0.50400001928E-02 0.  1.
    10030    2    1    2    0    0  0.00000000000E+00  0.00000000000E+00  0.18973202411E+03  0.17893562426E+04  0.17792688167E+04 0.  0.
        1    1    3    3  502    0  0.56713160212E+03 -0.52226024517E+03 -0.35155987935E+03  0.84734194196E+03  0.50400001928E-02 0.  1.
       -1    1    3    3    0  502 -0.56713160212E+03  0.52226024517E+03  0.54129190347E+03  0.94201430063E+03  0.50400001928E-02 0. -1.
</event>
<event>
 5   0  0.3568870E-04  0.1802556E+04  0.7818609E-02  0.8704941E-01
       -2   -1    0    0    0  501  0.00000000000E+00  0.00000000000E+00  0.76900387048E+03  0.76900387049E+03  0.25500000920E-02 0. -1.
        2   -1    0    0  501    0  0.00000000000E+00  0.00000000000E+00 -0.10563047427E+04  0.10563047427E+04  0.25500000920E-02 0.  1.
    10030    2    1    2    0    0  0.00000000000E+00  0.00000000000E+00 -0.28730087221E+03  0.18253086132E+04  0.18025564463E+04 0.  0.
        1    1    3    3  502    0  0.80473032073E+03 -0.47187931649E+02 -0.55183244684E+03  0.97690155051E+03  0.50400001928E-02 0.  1.
       -1    1    3    3    0  502 -0.80473032073E+03  0.47187931649E+02  0.26453157462E+03  0.84840706267E+03  0.50400001928E-02 0. -1.
</event>
<event>
 5   0  0.1818778E-04  0.1804398E+04  0.7818609E-02  0.8703964E-01
        1   -1    0    0  501    0  0.00000000000E+00  0.00000000000E+00  0.10852422055E+04  0.10852422055E+04  0.50400001928E-02 0. -1.
       -1   -1    0    0    0  501  0.00000000000E+00  0.00000000000E+00 -0.75002885042E+03  0.75002885044E+03  0.50400001928E-02 0.  1.
    10030    2    1    2    0    0  0.00000000000E+00  0.00000000000E+00  0.33521335509E+03  0.18352710560E+04  0.18043979205E+04 0.  0.
        3    1    3    3  502    0 -0.45193484949E+03  0.43905850489E+03  0.82436794123E+03  0.10375933653E+04  0.10100000352E+00 0. -1.
       -3    1    3    3    0  502  0.45193484949E+03 -0.43905850489E+03 -0.48915458614E+03  0.79767769070E+03  0.10100000352E+00 0.  1.
</event>
<event>
 5   0  0.1883959E-04  0.1755596E+04  0.7818609E-02  0.8730276E-01
        1   -1    0    0  501    0  0.00000000000E+00  0.00000000000E+00  0.13789574364E+04  0.13789574364E+04  0.50400001928E-02 0.  1.
       -1   -1    0    0    0  501  0.00000000000E+00  0.00000000000E+00 -0.55877660845E+03  0.55877660847E+03  0.50400001928E-02 0. -1.
    10030    2    1    2    0    0  0.00000000000E+00  0.00000000000E+00  0.82018082790E+03  0.19377340448E+04  0.17555958071E+04 0.  0.
        5    1    3    3  502    0  0.62953899594E+02 -0.68994327443E+03  0.10050113636E+04  0.12206780273E+04  0.46999998093E+01 0. -1.
       -5    1    3    3    0  502 -0.62953899594E+02  0.68994327443E+03 -0.18483053565E+03  0.71705601755E+03  0.46999998093E+01 0.  1.
</event>
<event>
 5   0  0.1818778E-04  0.1733809E+04  0.7818609E-02  0.8742314E-01
       -1   -1    0    0    0  501  0.00000000000E+00  0.00000000000E+00  0.14566596840E+04  0.14566596841E+04  0.50400001928E-02 0.  1.
        1   -1    0    0  501    0  0.00000000000E+00  0.00000000000E+00 -0.51592226694E+03  0.51592226696E+03  0.50400001928E-02 0. -1.
    10030    2    1    2    0    0  0.00000000000E+00  0.00000000000E+00  0.94073741711E+03  0.19725819510E+04  0.17338087165E+04 0.  0.
        3    1    3    3  502    0 -0.20900787638E+03  0.41465552322E+03 -0.36249821362E+03  0.58909121569E+03  0.10100000352E+00 0. -1.
       -3    1    3    3    0  502  0.20900787638E+03 -0.41465552322E+03  0.13032356307E+04  0.13834907353E+04  0.10100000352E+00 0.  1.
</event>
<event>
 5   0  0.3628581E-04  0.1849472E+04  0.7818609E-02  0.8680425E-01
        2   -1    0    0  501    0  0.00000000000E+00  0.00000000000E+00  0.22316125617E+04  0.22316125617E+04  0.25500000920E-02 0.  1.
       -2   -1    0    0    0  501  0.00000000000E+00  0.00000000000E+00 -0.38319212637E+03  0.38319212638E+03  0.25500000920E-02 0. -1.
    10030    2    1    2    0    0  0.00000000000E+00  0.00000000000E+00  0.18484204353E+04  0.26148046880E+04  0.18494716681E+04 0.  0.
        2    1    3    3  502    0  0.91133000294E+03 -0.83298330908E+02  0.11121747504E+04  0.14402755506E+04  0.25500000920E-02 0.  1.
       -2    1    3    3    0  502 -0.91133000294E+03  0.83298330908E+02  0.73624568486E+03  0.11745291374E+04  0.25500000920E-02 0. -1.
</event>
<event>
 5   0  0.3628581E-04  0.1804349E+04  0.7818609E-02  0.8703990E-01
       -2   -1    0    0    0  501  0.00000000000E+00  0.00000000000E+00  0.77590575205E+03  0.77590575206E+03  0.25500000920E-02 0.  1.
        2   -1    0    0  501    0  0.00000000000E+00  0.00000000000E+00 -0.10489920219E+04  0.10489920219E+04  0.25500000920E-02 0. -1.
    10030    2    1    2    0    0  0.00000000000E+00  0.00000000000E+00 -0.27308626981E+03  0.18248977739E+04  0.18043491277E+04 0.  0.
        2    1    3    3  502    0 -0.78039521120E+03 -0.17016000052E+03  0.28769521764E+03  0.84896386831E+03  0.25500000920E-02 0. -1.
       -2    1    3    3    0  502  0.78039521120E+03  0.17016000052E+03 -0.56078148745E+03  0.97593390561E+03  0.25500000920E-02 0.  1.
</event>
<event>
 5   0  0.3582186E-04  0.1805725E+04  0.7818609E-02  0.8703261E-01
       -2   -1    0    0    0  501  0.00000000000E+00  0.00000000000E+00  0.43965072779E+03  0.43965072780E+03  0.25500000920E-02 0.  1.
        2   -1    0    0  501    0  0.00000000000E+00  0.00000000000E+00 -0.18541105357E+04  0.18541105357E+04  0.25500000920E-02 0. -1.
    10030    2    1    2    0    0  0.00000000000E+00  0.00000000000E+00 -0.14144598079E+04  0.22937612635E+04  0.18057253904E+04 0.  0.
        4    1    3    3  502    0 -0.11620033157E+03  0.83590004631E+03 -0.29969638197E+03  0.89557296674E+03  0.12699999809E+01 0.  1.
       -4    1    3    3    0  502  0.11620033157E+03 -0.83590004631E+03 -0.11147634259E+04  0.13981882967E+04  0.12699999809E+01 0. -1.
</event>
<event>
 5   0  0.1883959E-04  0.1818217E+04  0.7818609E-02  0.8696672E-01
       -1   -1    0    0    0  501  0.00000000000E+00  0.00000000000E+00  0.43139004858E+03  0.43139004861E+03  0.50400001928E-02 0. -1.
        1   -1    0    0  501    0  0.00000000000E+00  0.00000000000E+00 -0.19158483464E+04  0.19158483465E+04  0.50400001928E-02 0.  1.
    10030    2    1    2    0    0  0.00000000000E+00  0.00000000000E+00 -0.14844582979E+04  0.23472383951E+04  0.18182166112E+04 0.  0.
        5    1    3    3  502    0 -0.24757333173E+03 -0.43493542978E+03  0.23753315144E+03  0.55399049694E+03  0.46999998093E+01 0. -1.
       -5    1    3    3    0  502  0.24757333173E+03  0.43493542978E+03 -0.17219914493E+04  0.17932478981E+04  0.46999998093E+01 0.  1.
</event>
<event>
 5   0  0.1818778E-04  0.1813696E+04  0.7818609E-02  0.8699050E-01
       -1   -1    0    0    0  501  0.00000000000E+00  0.00000000000E+00  0.98858563983E+03  0.98858563985E+03  0.50400001928E-02 0.  1.
        1   -1    0    0  501    0  0.00000000000E+00  0.00000000000E+00 -0.83186849584E+03  0.83186849585E+03  0.50400001928E-02 0. -1.
    10030    2    1    2    0    0  0.00000000000E+00  0.00000000000E+00  0.15671714400E+03  0.18204541357E+04  0.18136959494E+04 0.  0.
        3    1    3    3  502    0  0.61136857334E+02 -0.26041929289E+03  0.94808446275E+03  0.98509902149E+03  0.10100000352E+00 0.  1.
       -3    1    3    3    0  502 -0.61136857334E+02  0.26041929289E+03 -0.79136731876E+03  0.83535511421E+03  0.10100000352E+00 0. -1.
</event>
<event>
 5   0  0.1825253E-04  0.1705131E+04  0.7818609E-02  0.8758443E-01
        1   -1    0    0  501    0  0.00000000000E+00  0.00000000000E+00  0.11949505663E+04  0.11949505663E+04  0.50400001928E-02 0. -1.
       -1   -1    0    0    0  501  0.00000000000E+00  0.00000000000E+00 -0.60828308245E+03  0.60828308247E+03  0.50400001928E-02 0.  1.
    10030    2    1    2    0    0  0.00000000000E+00  0.00000000000E+00  0.58666748388E+03  0.18032336488E+04  0.17051313309E+04 0.  0.
        4    1    3    3  502    0 -0.73594940530E+03 -0.27942830245E+03 -0.52860982198E+02  0.78898517078E+03  0.12699999809E+01 0. -1.
       -4    1    3    3    0  502  0.73594940530E+03  0.27942830245E+03  0.63952846608E+03  0.10142484780E+04  0.12699999809E+01 0.  1.
</event>
<event>
 5   0  0.3575091E-04  0.1796576E+04  0.7818609E-02  0.8708122E-01
        2   -1    0    0  501    0  0.00000000000E+00  0.00000000000E+00  0.11803727155E+04  0.11803727155E+04  0.25500000920E-02 0.  1.
       -2   -1    0    0    0  501  0.00000000000E+00  0.00000000000E+00 -0.68361582418E+03  0.68361582418E+03  0.25500000920E-02 0. -1.
    10030    2    1    2    0    0  0.00000000000E+00  0.00000000000E+00  0.49675689134E+03  0.18639885397E+04  0.17965761512E+04 0.  0.
        5    1    3    3  502    0  0.16667563818E+03 -0.86507208165E+03  0.66385897216E+02  0.88349287046E+03  0.46999998093E+01 0. -1.
       -5    1    3    3    0  502 -0.16667563818E+03  0.86507208165E+03  0.43037099412E+03  0.98049566924E+03  0.46999998093E+01 0.  1.
</event>
<event>
 5   0  0.1818778E-04  0.1787007E+04  0.7818609E-02  0.8713240E-01
        1   -1    0    0  501    0  0.00000000000E+00  0.00000000000E+00  0.74176005206E+03  0.74176005207E+03  0.50400001928E-02 0. -1.
       -1   -1    0    0    0  501  0.00000000000E+00  0.00000000000E+00 -0.10762897259E+04  0.10762897259E+04  0.50400001928E-02 0.  1.
    10030    2    1    2    0    0  0.00000000000E+00  0.00000000000E+00 -0.33452967387E+03  0.18180497780E+04  0.17870072447E+04 0.  0.
        3    1    3    3  502    0  0.32720608811E+03  0.78004510356E+03 -0.46003897773E+03  0.96289670210E+03  0.10100000352E+00 0.  1.
       -3    1    3    3    0  502 -0.32720608811E+03 -0.78004510356E+03  0.12550930386E+03  0.85515307591E+03  0.10100000352E+00 0. -1.
</event>
<event>
 5   0  0.1835421E-04  0.1801712E+04  0.7818609E-02  0.8705390E-01
       -1   -1    0    0    0  501  0.00000000000E+00  0.00000000000E+00  0.10299697519E+04  0.10299697519E+04  0.50400001928E-02 0.  1.
        1   -1    0    0  501    0  0.00000000000E+00  0.00000000000E+00 -0.78792749233E+03  0.78792749234E+03  0.50400001928E-02 0. -1.
    10030    2    1    2    0    0  0.00000000000E+00  0.00000000000E+00  0.24204225954E+03  0.18178972442E+04  0.18017119457E+04 0.  0.
        2    1    3    3  502    0  0.34697942465E+03 -0.17038873484E+03 -0.69999275826E+03  0.79963548178E+03  0.25500000920E-02 0. -1.
       -2    1    3    3    0  502 -0.34697942465E+03  0.17038873484E+03  0.94203501781E+03  0.10182617625E+04  0.25500000920E-02 0.  1.
</event>
<event>
 5   0  0.3531266E-04  0.1780680E+04  0.7818609E-02  0.8716641E-01
       -2   -1    0    0    0  501  0.00000000000E+00  0.00000000000E+00  0.90659459826E+03  0.90659459826E+03  0.25500000920E-02 0. -1.
        2   -1    0    0  501    0  0.00000000000E+00  0.00000000000E+00 -0.87437705886E+03  0.87437705886E+03  0.25500000920E-02 0.  1.
    10030    2    1    2    0    0  0.00000000000E+00  0.00000000000E+00  0.32217539401E+02  0.17809716571E+04  0.17806802278E+04 0.  0.
        3    1    3    3  502    0 -0.51337762764E+03  0.31393686418E+03 -0.64019414786E+03  0.87861339644E+03  0.10100000352E+00 0.  1.
       -3    1    3    3    0  502  0.51337762764E+03 -0.31393686418E+03  0.67241168726E+03  0.90235826068E+03  0.10100000352E+00 0. -1.
</event>
<event>
 5   0  0.1818778E-04  0.1797424E+04  0.7818609E-02  0.8707670E-01
        1   -1    0    0  501    0  0.00000000000E+00  0.00000000000E+00  0.81260319161E+03  0.81260319162E+03  0.50400001928E-02 0.  1.
       -1   -1    0    0    0  501  0.00000000000E+00  0.00000000000E+00 -0.99394600694E+03  0.99394600695E+03  0.50400001928E-02 0. -1.
    10030    2    1    2    0    0  0.00000000000E+00  0.00000000000E+00 -0.18134281533E+03  0.18065491986E+04  0.17974244880E+04 0.  0.
        3    1    3    3  502    0  0.52617893436E+03  0.17485547643E+03  0.62019911879E+03  0.83191686228E+03  0.10100000352E+00 0.  1.
       -3    1    3    3    0  502 -0.52617893436E+03 -0.17485547643E+03 -0.80154193411E+03  0.97463233629E+03  0.10100000352E+00 0. -1.
</event>
<event>
 5   0  0.1818778E-04  0.1777720E+04  0.7818609E-02  0.8718238E-01
       -1   -1    0    0    0  501  0.00000000000E+00  0.00000000000E+00  0.72747204809E+03  0.72747204810E+03  0.50400001928E-02 0. -1.
        1   -1    0    0  501    0  0.00000000000E+00  0.00000000000E+00 -0.10860515577E+04  0.10860515577E+04  0.50400001928E-02 0.  1.
    10030    2    1    2    0    0  0.00000000000E+00  0.00000000000E+00 -0.35857950961E+03  0.18135236058E+04  0.17777200579E+04 0.  0.
        3    1    3    3  502    0 -0.61793007935E+03 -0.23274760824E+03  0.42772630244E+03  0.78673936734E+03  0.10100000352E+00 0. -1.
       -3    1    3    3    0  502  0.61793007935E+03  0.23274760824E+03 -0.78630581205E+03  0.10267842385E+04  0.10100000352E+00 0.  1.
</event>
<event>
 5   0  0.1818778E-04  0.1741077E+04  0.7818609E-02  0.8738277E-01
       -1   -1    0    0    0  501  0.00000000000E+00  0.00000000000E+00  0.10988849666E+04  0.10988849666E+04  0.50400001928E-02 0.  1.
        1   -1    0    0  501    0  0.00000000000E+00  0.00000000000E+00 -0.68964201680E+03  0.68964201682E+03  0.50400001928E-02 0. -1.
    10030    2    1    2    0    0  0.00000000000E+00  0.00000000000E+00  0.40924294982E+03  0.17885269834E+04  0.17410769594E+04 0.  0.
        3    1    3    3  502    0 -0.52983857572E+03  0.48645103583E+03  0.70836714743E+03  0.10095283811E+04  0.10100000352E+00 0.  1.
       -3    1    3    3    0  502  0.52983857572E+03 -0.48645103583E+03 -0.29912419762E+03  0.77899860229E+03  0.10100000352E+00 0. -1.
</event>
<event>
 5   0  0.3575091E-04  0.1806564E+04  0.7818609E-02  0.8702816E-01
       -2   -1    0    0    0  501  0.00000000000E+00  0.00000000000E+00  0.37030049842E+03  0.37030049843E+03  0.25500000920E-02 0. -1.
        2   -1    0    0  501    0  0.00000000000E+00  0.00000000000E+00 -0.22033960416E+04  0.22033960416E+04  0.25500000920E-02 0.  1.
    10030    2    1    2    0    0  0.00000000000E+00  0.00000000000E+00 -0.18330955432E+04  0.25736965400E+04  0.18065643110E+04 0.  0.
        5    1    3    3  502    0 -0.39832179096E+03 -0.80324015016E+03 -0.10728789313E+04  0.13981939348E+04  0.46999998093E+01 0. -1.
       -5    1    3    3    0  502  0.39832179096E+03  0.80324015016E+03 -0.76021661184E+03  0.11755026052E+04  0.46999998093E+01 0.  1.
</event>
<event>
 5   0  0.1825253E-04  0.1527686E+04  0.7818609E-02  0.8866248E-01
        1   -1    0    0  501    0  0.00000000000E+00  0.00000000000E+00  0.15744944315E+04  0.15744944315E+04  0.50400001928E-02 0.  1.
       -1   -1    0    0    0  501  0.00000000000E+00  0.00000000000E+00 -0.37056740217E+03  0.37056740220E+03  0.50400001928E-02 0. -1.
    10030    2    1    2    0    0  0.00000000000E+00  0.00000000000E+00  0.12039270294E+04  0.19450618338E+04  0.15276862391E+04 0.  0.
        4    1    3    3  502    0  0.57335171013E+03  0.57196906762E+02  0.12404121366E+04  0.13677088693E+04  0.12699999809E+01 0.  1.
       -4    1    3    3    0  502 -0.57335171013E+03 -0.57196906762E+02 -0.36485107180E+02  0.57735296449E+03  0.12699999809E+01 0. -1.
</event>
<event>
 5   0  0.1835421E-04  0.1794416E+04  0.7818609E-02  0.8709274E-01
        1   -1    0    0  501    0  0.00000000000E+00  0.00000000000E+00  0.18801039182E+04  0.18801039182E+04  0.50400001928E-02 0. -1.
       -1   -1    0    0    0  501  0.00000000000E+00  0.00000000000E+00 -0.42815853001E+03  0.42815853004E+03  0.50400001928E-02 0.  1.
    10030    2    1    2    0    0  0.00000000000E+00  0.00000000000E+00  0.14519453882E+04  0.23082624483E+04  0.17944163730E+04 0.  0.
        2    1    3    3  502    0  0.62528059300E+03 -0.58381630272E+03  0.37802469146E+03  0.93526464847E+03  0.25500000920E-02 0.  1.
       -2    1    3    3    0  502 -0.62528059300E+03  0.58381630272E+03  0.10739206967E+04  0.13729977998E+04  0.25500000920E-02 0. -1.
</event>
<event>
 5   0  0.3531266E-04  0.1793384E+04  0.7818609E-02  0.8709826E-01
        2   -1    0    0  501    0  0.00000000000E+00  0.00000000000E+00  0.15842417993E+04  0.15842417993E+04  0.25500000920E-02 0.  1.
       -2   -1    0    0    0  501  0.00000000000E+00  0.00000000000E+00 -0.50753400952E+03  0.50753400953E+03  0.25500000920E-02 0. -1.
    10030    2    1    2    0    0  0.00000000000E+00  0.00000000000E+00  0.10767077898E+04  0.20917758088E+04  0.17933840553E+04 0.  0.
        3    1    3    3  502    0  0.44145687545E+03 -0.16346691835E+03  0.14285209572E+04  0.15040870126E+04  0.10100000352E+00 0.  1.
       -3    1    3    3    0  502 -0.44145687545E+03  0.16346691835E+03 -0.35181316737E+03  0.58768879623E+03  0.10100000352E+00 0. -1.
</event>
<event>
 5   0  0.3582186E-04  0.1792569E+04  0.7818609E-02  0.8710261E-01
        2   -1    0    0  501    0  0.00000000000E+00  0.00000000000E+00  0.24718162916E+04  0.24718162916E+04  0.25500000920E-02 0. -1.
       -2   -1    0    0    0  501  0.00000000000E+00  0.00000000000E+00 -0.32499418168E+03  0.32499418169E+03  0.25500000920E-02 0.  1.
    10030    2    1    2    0    0  0.00000000000E+00  0.00000000000E+00  0.21468221099E+04  0.27968104733E+04  0.17925690090E+04 0.  0.
        4    1    3    3  502    0 -0.29937930007E+03  0.29540356983E+03  0.23082902967E+04  0.23462942998E+04  0.12699999809E+01 0. -1.
       -4    1    3    3    0  502  0.29937930007E+03 -0.29540356983E+03 -0.16146818677E+03  0.45051617353E+03  0.12699999809E+01 0.  1.
</event>
<event>
 5   0  0.3582186E-04  0.1748398E+04  0.7818609E-02  0.8734233E-01
        2   -1    0    0  501    0  0.00000000000E+00  0.00000000000E+00  0.79844664811E+03  0.79844664811E+03  0.25500000920E-02 0. -1.
       -2   -1    0    0    0  501  0.00000000000E+00  0.00000000000E+00 -0.95713807573E+03  0.95713807573E+03  0.25500000920E-02 0.  1.
    10030    2    1    2    0    0  0.00000000000E+00  0.00000000000E+00 -0.15869142762E+03  0.17555847238E+04  0.17483977675E+04 0.  0.
        4    1    3    3  502    0 -0.15444097795E+03  0.81883819962E+03 -0.34476932113E+03  0.90178462535E+03  0.12699999809E+01 0.  1.
       -4    1    3    3    0  502  0.15444097795E+03 -0.81883819962E+03  0.18607789351E+03  0.85380009849E+03  0.12699999809E+01 0. -1.
</event>
<event>
 5   0  0.1883959E-04  0.1792120E+04  0.7818609E-02  0.8710501E-01
       -1   -1    0    0    0  501  0.00000000000E+00  0.00000000000E+00  0.83272972971E+03  0.83272972973E+03  0.50400001928E-02 0. -1.
        1   -1    0    0  501    0  0.00000000000E+00  0.00000000000E+00 -0.96420671701E+03  0.96420671702E+03  0.50400001928E-02 0.  1.
    10030    2    1    2    0    0  0.00000000000E+00  0.00000000000E+00 -0.13147698730E+03  0.17969364468E+04  0.17921200840E+04 0.  0.
        5    1    3    3  502    0 -0.67677943289E+03 -0.17516556879E+03 -0.62776978829E+03  0.93959053548E+03  0.46999998093E+01 0.  1.
       -5    1    3    3    0  502  0.67677943289E+03  0.17516556879E+03  0.49629280099E+03  0.85734591128E+03  0.46999998093E+01 0. -1.
</event>
<event>
 5   0  0.1818778E-04  0.1781847E+04  0.7818609E-02  0.8716013E-01
        1   -1    0    0  501    0  0.00000000000E+00  0.00000000000E+00  0.11679027059E+04  0.11679027059E+04  0.50400001928E-02 0.  1.
       -1   -1    0    0    0  501  0.00000000000E+00  0.00000000000E+00 -0.67963263091E+03  0.67963263093E+03  0.50400001928E-02 0. -1.
    10030    2    1    2    0    0  0.00000000000E+00  0.00000000000E+00  0.48827007503E+03  0.18475353369E+04  0.17818471188E+04 0.  0.
        3    1    3    3  502    0 -0.64672737138E+03  0.17201241425E+03 -0.36567943973E+03  0.76260476420E+03  0.10100000352E+00 0. -1.
       -3    1    3    3    0  502  0.64672737138E+03 -0.17201241425E+03  0.85394951476E+03  0.10849305727E+04  0.10100000352E+00 0.  1.
</event>
<event>
 5   0  0.3582186E-04  0.1802591E+04  0.7818609E-02  0.8704923E-01
       -2   -1    0    0    0  501  0.00000000000E+00  0.00000000000E+00  0.36053074858E+03  0.36053074858E+03  0.25500000920E-02 0. -1.
        2   -1    0    0  501    0  0.00000000000E+00  0.00000000000E+00 -0.22531615580E+04  0.22531615580E+04  0.25500000920E-02 0.  1.
    10030    2    1    2    0    0  0.00000000000E+00  0.00000000000E+00 -0.18926308094E+04  0.26136923065E+04  0.18025914936E+04 0.  0.
        4    1    3    3  502    0  0.63570009901E+03  0.97000449604E+02 -0.30644408741E+02  0.64378909263E+03  0.12699999809E+01 0. -1.
       -4    1    3    3    0  502 -0.63570009901E+03 -0.97000449604E+02 -0.18619864006E+04  0.19699032139E+04  0.12699999809E+01 0.  1.
</event>
<event>
 5   0  0.3575091E-04  0.1782314E+04  0.7818609E-02  0.8715762E-01
        2   -1    0    0  501    0  0.00000000000E+00  0.00000000000E+00  0.66894469073E+03  0.66894469074E+03  0.25500000920E-02 0. -1.
       -2   -1    0    0    0  501  0.00000000000E+00  0.00000000000E+00 -0.11871840206E+04  0.11871840206E+04  0.25500000920E-02 0.  1.
    10030    2    1    2    0    0  0.00000000000E+00  0.00000000000E+00 -0.51823932987E+03  0.18561287113E+04  0.17823136060E+04 0.  0.
        5    1    3    3  502    0  0.87130789126E+02  0.41386563298E+03 -0.10759915511E+04  0.11561385923E+04  0.46999998093E+01 0.  1.
       -5    1    3    3    0  502 -0.87130789126E+02 -0.41386563298E+03  0.55775222119E+03  0.69999011908E+03  0.46999998093E+01 0. -1.
</event>
<event>
 5   0  0.1883959E-04  0.1801308E+04  0.7818609E-02  0.8705604E-01
        1   -1    0    0  501    0  0.00000000000E+00  0.00000000000E+00  0.22860974027E+04  0.22860974027E+04  0.50400001928E-02 0.  1.
       -1   -1    0    0    0  501  0.00000000000E+00  0.00000000000E+00 -0.35483079814E+03  0.35483079818E+03  0.50400001928E-02 0. -1.
    10030    2    1    2    0    0  0.00000000000E+00  0.00000000000E+00  0.19312666045E+04  0.26409282009E+04  0.18013081536E+04 0.  0.
        5    1    3    3  502    0  0.10589147133E+03  0.79247695877E+02  0.22717635973E+04  0.22756153307E+04  0.46999998093E+01 0.  1.
       -5    1    3    3    0  502 -0.10589147133E+03 -0.79247695877E+02 -0.34049699281E+03  0.36531287017E+03  0.46999998093E+01 0. -1.
</event>
<event>
 5   0  0.1818778E-04  0.1837638E+04  0.7818609E-02  0.8686536E-01
        1   -1    0    0  501    0  0.00000000000E+00  0.00000000000E+00  0.10192461294E+04  0.10192461294E+04  0.50400001928E-02 0.  1.
       -1   -1    0    0    0  501  0.00000000000E+00  0.00000000000E+00 -0.82828709654E+03  0.82828709656E+03  0.50400001928E-02 0. -1.
    10030    2    1    2    0    0  0.00000000000E+00  0.00000000000E+00  0.19095903281E+03  0.18475332259E+04  0.18376380679E+04 0.  0.
        3    1    3    3  502    0 -0.66428531795E+03  0.29514905548E+03  0.66050255857E+03  0.98216678251E+03  0.10100000352E+00 0.  1.
       -3    1    3    3    0  502  0.66428531795E+03 -0.29514905548E+03 -0.46954352576E+03  0.86536644341E+03  0.10100000352E+00 0. -1.
</event>
<event>
 5   0  0.3628581E-04  0.1824004E+04  0.7818609E-02  0.8693638E-01
       -2   -1    0    0    0  501  0.00000000000E+00  0.00000000000E+00  0.90135090978E+03  0.90135090978E+03  0.25500000920E-02 0.  1.
        2   -1    0    0  501    0  0.00000000000E+00  0.00000000000E+00 -0.92277857468E+03  0.92277857469E+03  0.25500000920E-02 0. -1.
    10030    2    1    2    0    0  0.00000000000E+00  0.00000000000E+00 -0.21427664904E+02  0.18241294845E+04  0.18240036270E+04 0.  0.
        2    1    3    3  502    0  0.22055250929E+03 -0.88271639663E+03 -0.73293397502E+02  0.91279985121E+03  0.25500000920E-02 0.  1.
       -2    1    3    3    0  502 -0.22055250929E+03  0.88271639663E+03  0.51865732598E+02  0.91132963326E+03  0.25500000920E-02 0. -1.
</event>
<event>
 5   0  0.3575091E-04  0.1757880E+04  0.7818609E-02  0.8729025E-01
       -2   -1    0    0    0  501  0.00000000000E+00  0.00000000000E+00  0.10081408604E+04  0.10081408604E+04  0.25500000920E-02 0. -1.
        2   -1    0    0  501    0  0.00000000000E+00  0.00000000000E+00 -0.76629681045E+03  0.76629681045E+03  0.25500000920E-02 0.  1.
    10030    2    1    2    0    0  0.00000000000E+00  0.00000000000E+00  0.24184404998E+03  0.17744376709E+04  0.17578795474E+04 0.  0.
        5    1    3    3  502    0  0.15767033006E+03  0.62488758586E+02 -0.74960972712E+03  0.76857114890E+03  0.46999998093E+01 0.  1.
       -5    1    3    3    0  502 -0.15767033006E+03 -0.62488758586E+02  0.99145377709E+03  0.10058665220E+04  0.46999998093E+01 0. -1.
</event>
<event>
 5   0  0.3568870E-04  0.1790169E+04  0.7818609E-02  0.8711545E-01
       -2   -1    0    0    0  501  0.00000000000E+00  0.00000000000E+00  0.43255816542E+03  0.43255816543E+03  0.25500000920E-02 0. -1.
        2   -1    0    0  501    0  0.00000000000E+00  0.00000000000E+00 -0.18521816563E+04  0.18521816563E+04  0.25500000920E-02 0.  1.
    10030    2    1    2    0    0  0.00000000000E+00  0.00000000000E+00 -0.14196234909E+04  0.22847398218E+04  0.17901690415E+04 0.  0.
        1    1    3    3  502    0  0.56472589024E+03  0.12166937128E+03  0.16278540409E+03  0.60018151823E+03  0.50400001928E-02 0. -1.
       -1    1    3    3    0  502 -0.56472589024E+03 -0.12166937128E+03 -0.15824088950E+04  0.16845583035E+04  0.50400001928E-02 0.  1.
</event>
<event>
 5   0  0.3582186E-04  0.1797103E+04  0.7818609E-02  0.8707842E-01
        2   -1    0    0  501    0  0.00000000000E+00  0.00000000000E+00  0.17960960205E+04  0.17960960205E+04  0.25500000920E-02 0.  1.
       -2   -1    0    0    0  501  0.00000000000E+00  0.00000000000E+00 -0.44952768887E+03  0.44952768888E+03  0.25500000920E-02 0. -1.
    10030    2    1    2    0    0  0.00000000000E+00  0.00000000000E+00  0.13465683316E+04  0.22456237093E+04  0.17971031057E+04 0.  0.
        4    1    3    3  502    0 -0.17614554276E+03 -0.55208398299E+03  0.15313818974E+04  0.16373625454E+04  0.12699999809E+01 0.  1.
       -4    1    3    3    0  502  0.17614554276E+03  0.55208398299E+03 -0.18481356584E+03  0.60826116392E+03  0.12699999809E+01 0. -1.
</event>
<event>
 5   0  0.3575091E-04  0.1810938E+04  0.7818609E-02  0.8700504E-01
       -2   -1    0    0    0  501  0.00000000000E+00  0.00000000000E+00  0.52429823493E+03  0.52429823494E+03  0.25500000920E-02 0. -1.
        2   -1    0    0  501    0  0.00000000000E+00  0.00000000000E+00 -0.15637554892E+04  0.15637554892E+04  0.25500000920E-02 0.  1.
    10030    2    1    2    0    0  0.00000000000E+00  0.00000000000E+00 -0.10394572543E+04  0.20880537242E+04  0.18109381468E+04 0.  0.
        5    1    3    3  502    0 -0.61351585620E+03 -0.57141331625E+03 -0.12543975067E+03  0.84774530659E+03  0.46999998093E+01 0.  1.
       -5    1    3    3    0  502  0.61351585620E+03  0.57141331625E+03 -0.91401750364E+03  0.12403084176E+04  0.46999998093E+01 0. -1.
</event>
<event>
 5   0  0.3531266E-04  0.1779818E+04  0.7818609E-02  0.8717106E-01
       -2   -1    0    0    0  501  0.00000000000E+00  0.00000000000E+00  0.72719753193E+03  0.72719753193E+03  0.25500000920E-02 0. -1.
        2   -1    0    0  501    0  0.00000000000E+00  0.00000000000E+00 -0.10890271797E+04  0.10890271797E+04  0.25500000920E-02 0.  1.
    10030    2    1    2    0    0  0.00000000000E+00  0.00000000000E+00 -0.36182964779E+03  0.18162247116E+04  0.17798178303E+04 0.  0.
        3    1    3    3  502    0  0.57397512434E+02  0.52501464819E+03  0.54997848253E+03  0.76250324373E+03  0.10100000352E+00 0. -1.
       -3    1    3    3    0  502 -0.57397512434E+02 -0.52501464819E+03 -0.91180813031E+03  0.10537214679E+04  0.10100000352E+00 0.  1.
</event>
<event>
 5   0  0.1835421E-04  0.1794565E+04  0.7818609E-02  0.8709195E-01
        1   -1    0    0  501    0  0.00000000000E+00  0.00000000000E+00  0.13477027277E+04  0.13477027277E+04  0.50400001928E-02 0.  1.
       -1   -1    0    0    0  501  0.00000000000E+00  0.00000000000E+00 -0.59739854409E+03  0.59739854411E+03  0.50400001928E-02 0. -1.
    10030    2    1    2    0    0  0.00000000000E+00  0.00000000000E+00  0.75030418358E+03  0.19451012718E+04  0.17945647354E+04 0.  0.
        2    1    3    3  502    0 -0.21320299407E+03 -0.75603981207E+03 -0.94889021294E+02  0.79123677902E+03  0.25500000920E-02 0. -1.
       -2    1    3    3    0  502  0.21320299407E+03  0.75603981207E+03  0.84519320488E+03  0.11538644928E+04  0.25500000920E-02 0.  1.
</event>
<event>
 5   0  0.3575091E-04  0.1492269E+04  0.7818609E-02  0.8889610E-01
        2   -1    0    0  501    0  0.00000000000E+00  0.00000000000E+00  0.69929783456E+03  0.69929783456E+03  0.25500000920E-02 0. -1.
       -2   -1    0    0    0  501  0.00000000000E+00  0.00000000000E+00 -0.79610842997E+03  0.79610842997E+03  0.25500000920E-02 0.  1.
    10030    2    1    2    0    0  0.00000000000E+00  0.00000000000E+00 -0.96810595414E+02  0.14954062645E+04  0.14922692802E+04 0.  0.
        5    1    3    3  502    0  0.38284494199E+03  0.61740480652E+03 -0.21886834288E+03  0.75873868113E+03  0.46999998093E+01 0.  1.
       -5    1    3    3    0  502 -0.38284494199E+03 -0.61740480652E+03  0.12205774747E+03  0.73666758341E+03  0.46999998093E+01 0. -1.
</event>
<event>
 5   0  0.1883959E-04  0.1693109E+04  0.7818609E-02  0.8765304E-01
        1   -1    0    0  501    0  0.00000000000E+00  0.00000000000E+00  0.94366533630E+03  0.94366533631E+03  0.50400001928E-02 0.  1.
       -1   -1    0    0    0  501  0.00000000000E+00  0.00000000000E+00 -0.75943688617E+03  0.75943688619E+03  0.50400001928E-02 0. -1.
    10030    2    1    2    0    0  0.00000000000E+00  0.00000000000E+00  0.18422845013E+03  0.17031022225E+04  0.16931086966E+04 0.  0.
        5    1    3    3  502    0  0.82175928685E+03 -0.17351077530E+03 -0.14520261696E+02  0.84001621571E+03  0.46999998093E+01 0. -1.
       -5    1    3    3    0  502 -0.82175928685E+03  0.17351077530E+03  0.19874871182E+03  0.86308600679E+03  0.46999998093E+01 0.  1.
</event>
<event>
 5   0  0.1883959E-04  0.1814108E+04  0.7818609E-02  0.8698833E-01
       -1   -1    0    0    0  501  0.00000000000E+00  0.00000000000E+00  0.72690520625E+03  0.72690520627E+03  0.50400001928E-02 0.  1.
        1   -1    0    0  501    0  0.00000000000E+00  0.00000000000E+00 -0.11318496326E+04  0.11318496327E+04  0.50400001928E-02 0. -1.
    10030    2    1    2    0    0  0.00000000000E+00  0.00000000000E+00 -0.40494442640E+03  0.18587548389E+04  0.18141084760E+04 0.  0.
        5    1    3    3  502    0 -0.31026490736E+03 -0.41162912200E+03 -0.96717946865E+03  0.10959749365E+04  0.46999998093E+01 0. -1.
       -5    1    3    3    0  502  0.31026490736E+03  0.41162912200E+03  0.56223504225E+03  0.76277990244E+03  0.46999998093E+01 0.  1.
</event>
<event>
 5   0  0.1883959E-04  0.1826104E+04  0.7818609E-02  0.8692540E-01
        1   -1    0    0  501    0  0.00000000000E+00  0.00000000000E+00  0.58394293393E+03  0.58394293395E+03  0.50400001928E-02 0.  1.
       -1   -1    0    0    0  501  0.00000000000E+00  0.00000000000E+00 -0.14276458604E+04  0.14276458604E+04  0.50400001928E-02 0. -1.
    10030    2    1    2    0    0  0.00000000000E+00  0.00000000000E+00 -0.84370292646E+03  0.20115887944E+04  0.18261037346E+04 0.  0.
        5    1    3    3  502    0  0.46975076818E+03  0.38364735075E+03 -0.11736631959E+04  0.13211201540E+04  0.46999998093E+01 0. -1.
       -5    1    3    3    0  502 -0.46975076818E+03 -0.38364735075E+03  0.32996026941E+03  0.69046864036E+03  0.46999998093E+01 0.  1.
</event>
<event>
 5   0  0.1825253E-04  0.1805791E+04  0.7818609E-02  0.8703226E-01
        1   -1    0    0  501    0  0.00000000000E+00  0.00000000000E+00  0.12658659808E+04  0.12658659808E+04  0.50400001928E-02 0. -1.
       -1   -1    0    0    0  501  0.00000000000E+00  0.00000000000E+00 -0.64400216542E+03  0.64400216544E+03  0.50400001928E-02 0.  1.
    10030    2    1    2    0    0  0.00000000000E+00  0.00000000000E+00  0.62186381539E+03  0.19098681463E+04  0.18057911649E+04 0.  0.
        4    1    3    3  502    0  0.84203831575E+03 -0.32452680332E+03  0.34217511205E+03  0.96510703627E+03  0.12699999809E+01 0.  1.
       -4    1    3    3    0  502 -0.84203831575E+03  0.32452680332E+03  0.27968870334E+03  0.94476110998E+03  0.12699999809E+01 0. -1.
</event>
<event>
 5   0  0.3531266E-04  0.1795233E+04  0.7818609E-02  0.8708839E-01
        2   -1    0    0  501    0  0.00000000000E+00  0.00000000000E+00  0.10050671776E+04  0.10050671776E+04  0.25500000920E-02 0.  1.
       -2   -1    0    0    0  501  0.00000000000E+00  0.00000000000E+00 -0.80165327632E+03  0.80165327632E+03  0.25500000920E-02 0. -1.
    10030    2    1    2    0    0  0.00000000000E+00  0.00000000000E+00  0.20341390127E+03  0.18067204539E+04  0.17952330165E+04 0.  0.
        3    1    3    3  502    0 -0.58644942937E+03 -0.48002154955E+03  0.58579606142E+03  0.95786254599E+03  0.10100000352E+00 0.  1.
       -3    1    3    3    0  502  0.58644942937E+03  0.48002154955E+03 -0.38238216016E+03  0.84885790792E+03  0.10100000352E+00 0. -1.
</event>
<event>
 5   0  0.3575091E-04  0.1769327E+04  0.7818609E-02  0.8722783E-01
       -2   -1    0    0    0  501  0.00000000000E+00  0.00000000000E+00  0.96432015817E+03  0.96432015817E+03  0.25500000920E-02 0. -1.
        2   -1    0    0  501    0  0.00000000000E+00  0.00000000000E+00 -0.81158724365E+03  0.81158724366E+03  0.25500000920E-02 0.  1.
    10030    2    1    2    0    0  0.00000000000E+00  0.00000000000E+00  0.15273291451E+03  0.17759074018E+04  0.17693274871E+04 0.  0.
        5    1    3    3  502    0  0.18334584946E+03  0.21990630115E+02  0.94474778950E+03  0.96263688071E+03  0.46999998093E+01 0. -1.
       -5    1    3    3    0  502 -0.18334584946E+03 -0.21990630115E+02 -0.79201487499E+03  0.81327052112E+03  0.46999998093E+01 0.  1.
</event>
<event>
 5   0  0.1825253E-04  0.1805059E+04  0.7818609E-02  0.8703614E-01
        1   -1    0    0  501    0  0.00000000000E+00  0.00000000000E+00  0.49292950181E+03  0.49292950184E+03  0.50400001928E-02 0. -1.
       -1   -1    0    0    0  501  0.00000000000E+00  0.00000000000E+00 -0.16524865284E+04  0.16524865284E+04  0.50400001928E-02 0.  1.
    10030    2    1    2    0    0  0.00000000000E+00  0.00000000000E+00 -0.11595570266E+04  0.21454160302E+04  0.18050588480E+04 0.  0.
        4    1    3    3  502    0 -0.54141834107E+03  0.31642426397E+03  0.19168552518E+03  0.65574620726E+03  0.12699999809E+01 0. -1.
       -4    1    3    3    0  502  0.54141834107E+03 -0.31642426397E+03 -0.13512425517E+04  0.14896698229E+04  0.12699999809E+01 0.  1.
</event>
<event>
 5   0  0.3628581E-04  0.1814233E+04  0.7818609E-02  0.8698767E-01
       -2   -1    0    0    0  501  0.00000000000E+00  0.00000000000E+00  0.42074880371E+03  0.42074880371E+03  0.25500000920E-02 0. -1.
        2   -1    0    0  501    0  0.00000000000E+00  0.00000000000E+00 -0.19557049239E+04  0.19557049239E+04  0.25500000920E-02 0.  1.
    10030    2    1    2    0    0  0.00000000000E+00  0.00000000000E+00 -0.15349561202E+04  0.23764537276E+04  0.18142331792E+04 0.  0.
        2    1    3    3  502    0 -0.55191628535E+03  0.69549804600E+03 -0.52406533302E+03  0.10310061063E+04  0.25500000920E-02 0.  1.
       -2    1    3    3    0  502  0.55191628535E+03 -0.69549804600E+03 -0.10108907872E+04  0.13454476213E+04  0.25500000920E-02 0. -1.
</event>
<event>
 5   0  0.3628581E-04  0.1747597E+04  0.7818609E-02  0.8734674E-01
       -2   -1    0    0    0  501  0.00000000000E+00  0.00000000000E+00  0.11461770061E+04  0.11461770061E+04  0.25500000920E-02 0.  1.
        2   -1    0    0  501    0  0.00000000000E+00  0.00000000000E+00 -0.66614793123E+03  0.66614793123E+03  0.25500000920E-02 0. -1.
    10030    2    1    2    0    0  0.00000000000E+00  0.00000000000E+00  0.48002907491E+03  0.18123249374E+04  0.17475965684E+04 0.  0.
        2    1    3    3  502    0 -0.69843931245E+03 -0.31790963635E+03 -0.19336264069E+03  0.79137419776E+03  0.25500000920E-02 0.  1.
       -2    1    3    3    0  502  0.69843931245E+03  0.31790963635E+03  0.67339171560E+03  0.10209507396E+04  0.25500000920E-02 0. -1.
</event>
<event>
 5   0  0.1825253E-04  0.1807548E+04  0.7818609E-02  0.8702296E-01
       -1   -1    0    0    0  501  0.00000000000E+00  0.00000000000E+00  0.75354685415E+03  0.75354685417E+03  0.50400001928E-02 0.  1.
        1   -1    0    0  501    0  0.00000000000E+00  0.00000000000E+00 -0.10839501521E+04  0.10839501521E+04  0.50400001928E-02 0. -1.
    10030    2    1    2    0    0  0.00000000000E+00  0.00000000000E+00 -0.33040329792E+03  0.18374970063E+04  0.18075477611E+04 0.  0.
        4    1    3    3  502    0  0.40769348607E+03 -0.20180312293E+03  0.62867764344E+03  0.77599978818E+03  0.12699999809E+01 0.  1.
       -4    1    3    3    0  502 -0.40769348607E+03  0.20180312293E+03 -0.95908094136E+03  0.10614972181E+04  0.12699999809E+01 0. -1.
</event>
<event>
 5   0  0.3575091E-04  0.1836792E+04  0.7818609E-02  0.8686975E-01
       -2   -1    0    0    0  501  0.00000000000E+00  0.00000000000E+00  0.34486309524E+03  0.34486309525E+03  0.25500000920E-02 0.  1.
        2   -1    0    0  501    0  0.00000000000E+00  0.00000000000E+00 -0.24457556208E+04  0.24457556208E+04  0.25500000920E-02 0. -1.
    10030    2    1    2    0    0  0.00000000000E+00  0.00000000000E+00 -0.21008925255E+04  0.27906187160E+04  0.18367916089E+04 0.  0.
        5    1    3    3  502    0  0.79538619724E+03  0.45315168970E+03 -0.93835699035E+03  0.13109239444E+04  0.46999998093E+01 0.  1.
       -5    1    3    3    0  502 -0.79538619724E+03 -0.45315168970E+03 -0.11625355352E+04  0.14796947716E+04  0.46999998093E+01 0. -1.
</event>
<event>
 5   0  0.1818778E-04  0.1804067E+04  0.7818609E-02  0.8704140E-01
       -1   -1    0    0    0  501  0.00000000000E+00  0.00000000000E+00  0.70459069622E+03  0.70459069623E+03  0.50400001928E-02 0.  1.
        1   -1    0    0  501    0  0.00000000000E+00  0.00000000000E+00 -0.11548043599E+04  0.11548043599E+04  0.50400001928E-02 0. -1.
    10030    2    1    2    0    0  0.00000000000E+00  0.00000000000E+00 -0.45021366370E+03  0.18593950562E+04  0.18040669699E+04 0.  0.
        3    1    3    3  502    0 -0.74223011292E+03 -0.79672816419E+02  0.29679332481E+03  0.80333030943E+03  0.10100000352E+00 0.  1.
       -3    1    3    3    0  502  0.74223011292E+03  0.79672816419E+02 -0.74700698852E+03  0.10560647467E+04  0.10100000352E+00 0. -1.
</event>
<event>
 5   0  0.3582186E-04  0.1641942E+04  0.7818609E-02  0.8795188E-01
        2   -1    0    0  501    0  0.00000000000E+00  0.00000000000E+00  0.13865707816E+04  0.13865707816E+04  0.25500000920E-02 0.  1.
       -2   -1    0    0    0  501  0.00000000000E+00  0.00000000000E+00 -0.48608658475E+03  0.48608658476E+03  0.25500000920E-02 0. -1.
    10030    2    1    2    0    0  0.00000000000E+00  0.00000000000E+00  0.90048419689E+03  0.18726573664E+04  0.16419420888E+04 0.  0.
        4    1    3    3  502    0 -0.18483962847E+03 -0.71702745336E+03  0.85459847991E+03  0.11307670989E+04  0.12699999809E+01 0.  1.
       -4    1    3    3    0  502  0.18483962847E+03  0.71702745336E+03  0.45885716984E+02  0.74189026753E+03  0.12699999809E+01 0. -1.
</event>
<event>
 5   0  0.1330125E-04  0.1786262E+04  0.7818609E-02  0.8713639E-01
       -3   -1    0    0    0  501  0.00000000000E+00  0.00000000000E+00  0.84791173417E+03  0.84791174018E+03  0.10100000352E+00 0. -1.
        3   -1    0    0  501    0  0.00000000000E+00  0.00000000000E+00 -0.94076207459E+03  0.94076208002E+03  0.10100000352E+00 0.  1.
    10030    2    1    2    0    0  0.00000000000E+00  0.00000000000E+00 -0.92850340429E+02  0.17886738202E+04  0.17862622566E+04 0.  0.
        1    1    3    3  502    0  0.18731823758E+03 -0.84060043417E+03 -0.28335822272E+03  0.90663614227E+03  0.50400001928E-02 0. -1.
       -1    1    3    3    0  502 -0.18731823758E+03  0.84060043417E+03  0.19050788229E+03  0.88203767793E+03  0.50400001928E-02 0.  1.
</event>
<event>
 5   0  0.3575091E-04  0.1748096E+04  0.7818609E-02  0.8734399E-01
        2   -1    0    0  501    0  0.00000000000E+00  0.00000000000E+00  0.58767039256E+03  0.58767039257E+03  0.25500000920E-02 0. -1.
       -2   -1    0    0    0  501  0.00000000000E+00  0.00000000000E+00 -0.12999795946E+04  0.12999795946E+04  0.25500000920E-02 0.  1.
    10030    2    1    2    0    0  0.00000000000E+00  0.00000000000E+00 -0.71230920201E+03  0.18876499872E+04  0.17480955565E+04 0.  0.
        5    1    3    3  502    0 -0.88009955875E+02  0.85656639036E+02 -0.12906024234E+04  0.12964410968E+04  0.46999998093E+01 0.  1.
       -5    1    3    3    0  502  0.88009955875E+02 -0.85656639036E+02  0.57829322139E+03  0.59120889037E+03  0.46999998093E+01 0. -1.
</event>
<event>
 5   0  0.1837313E-04  0.1810693E+04  0.7818609E-02  0.8700634E-01
        1   -1    0    0  501    0  0.00000000000E+00  0.00000000000E+00  0.14495046342E+04  0.14495046343E+04  0.50400001928E-02 0. -1.
       -1   -1    0    0    0  501  0.00000000000E+00  0.00000000000E+00 -0.56547078592E+03  0.56547078594E+03  0.50400001928E-02 0.  1.
    10030    2    1    2    0    0  0.00000000000E+00  0.00000000000E+00  0.88403384832E+03  0.20149754202E+04  0.18106932648E+04 0.  0.
        1    1    3    3  502    0 -0.89805873221E+03 -0.72631336846E+01  0.56933774201E+03  0.10633474052E+04  0.50400001928E-02 0. -1.
       -1    1    3    3    0  502  0.89805873221E+03  0.72631336846E+01  0.31469610631E+03  0.95162801501E+03  0.50400001928E-02 0.  1.
</event>
<event>
 5   0  0.1837313E-04  0.1810538E+04  0.7818609E-02  0.8700715E-01
        1   -1    0    0  501    0  0.00000000000E+00  0.00000000000E+00  0.15263996608E+04  0.15263996608E+04  0.50400001928E-02 0. -1.
       -1   -1    0    0    0  501  0.00000000000E+00  0.00000000000E+00 -0.53689214120E+03  0.53689214122E+03  0.50400001928E-02 0.  1.
    10030    2    1    2    0    0  0.00000000000E+00  0.00000000000E+00  0.98950751964E+03  0.20632918021E+04  0.18105380220E+04 0.  0.
        1    1    3    3  502    0 -0.76789756424E+03  0.54723590391E+02 -0.48025205875E+02  0.77134153327E+03  0.50400001928E-02 0. -1.
       -1    1    3    3    0  502  0.76789756424E+03 -0.54723590391E+02  0.10375327255E+04  0.12919502688E+04  0.50400001928E-02 0.  1.
</event>
<event>
 5   0  0.1818778E-04  0.1783129E+04  0.7818609E-02  0.8715323E-01
        1   -1    0    0  501    0  0.00000000000E+00  0.00000000000E+00  0.13714949848E+04  0.13714949848E+04  0.50400001928E-02 0. -1.
       -1   -1    0    0    0  501  0.00000000000E+00  0.00000000000E+00 -0.57957727612E+03  0.57957727614E+03  0.50400001928E-02 0.  1.
    10030    2    1    2    0    0  0.00000000000E+00  0.00000000000E+00  0.79191770863E+03  0.19510722609E+04  0.17831290783E+04 0.  0.
        3    1    3    3  502    0 -0.46485999829E+03  0.75917495009E+03  0.34184488042E+03  0.95357189311E+03  0.10100000352E+00 0.  1.
       -3    1    3    3    0  502  0.46485999829E+03 -0.75917495009E+03  0.45007282821E+03  0.99750036779E+03  0.10100000352E+00 0. -1.
</event>
<event>
 5   0  0.3582186E-04  0.1817399E+04  0.7818609E-02  0.8697101E-01
       -2   -1    0    0    0  501  0.00000000000E+00  0.00000000000E+00  0.58324677961E+03  0.58324677962E+03  0.25500000920E-02 0.  1.
        2   -1    0    0  501    0  0.00000000000E+00  0.00000000000E+00 -0.14157557829E+04  0.14157557829E+04  0.25500000920E-02 0. -1.
    10030    2    1    2    0    0  0.00000000000E+00  0.00000000000E+00 -0.83250900324E+03  0.19990025625E+04  0.18173992419E+04 0.  0.
        4    1    3    3  502    0  0.23681346772E+03 -0.86011770519E+03 -0.22621784570E+03  0.92035819760E+03  0.12699999809E+01 0.  1.
       -4    1    3    3    0  502 -0.23681346772E+03  0.86011770519E+03 -0.60629115754E+03  0.10786443649E+04  0.12699999809E+01 0. -1.
</event>
<event>
 5   0  0.3568870E-04  0.1767410E+04  0.7818609E-02  0.8723825E-01
       -2   -1    0    0    0  501  0.00000000000E+00  0.00000000000E+00  0.94398027735E+03  0.94398027735E+03  0.25500000920E-02 0.  1.
        2   -1    0    0  501    0  0.00000000000E+00  0.00000000000E+00 -0.82727889127E+03  0.82727889127E+03  0.25500000920E-02 0. -1.
    10030    2    1    2    0    0  0.00000000000E+00  0.00000000000E+00  0.11670138608E+03  0.17712591686E+04  0.17674104868E+04 0.  0.
        1    1    3    3  502    0 -0.36772327831E+03  0.50955506896E+03  0.68104757006E+03  0.92665666265E+03  0.50400001928E-02 0.  1.
       -1    1    3    3    0  502  0.36772327831E+03 -0.50955506896E+03 -0.56434618398E+03  0.84460250598E+03  0.50400001928E-02 0. -1.
</event>
<event>
 5   0  0.3575091E-04  0.1809897E+04  0.7818609E-02  0.8701054E-01
       -2   -1    0    0    0  501  0.00000000000E+00  0.00000000000E+00  0.98035822648E+03  0.98035822648E+03  0.25500000920E-02 0. -1.
        2   -1    0    0  501    0  0.00000000000E+00  0.00000000000E+00 -0.83533926560E+03  0.83533926560E+03  0.25500000920E-02 0.  1.
    10030    2    1    2    0    0  0.00000000000E+00  0.00000000000E+00  0.14501896088E+03  0.18156974921E+04  0.18098969263E+04 0.  0.
        5    1    3    3  502    0 -0.65670773041E+03 -0.39410001132E+02 -0.55084450069E+03  0.85806173747E+03  0.46999998093E+01 0.  1.
       -5    1    3    3    0  502  0.65670773041E+03  0.39410001132E+02  0.69586346157E+03  0.95763575461E+03  0.46999998093E+01 0. -1.
</event>
<event>
 5   0  0.1835421E-04  0.1812774E+04  0.7818609E-02  0.8699536E-01
       -1   -1    0    0    0  501  0.00000000000E+00  0.00000000000E+00  0.62792764680E+03  0.62792764682E+03  0.50400001928E-02 0. -1.
        1   -1    0    0  501    0  0.00000000000E+00  0.00000000000E+00 -0.13083318597E+04  0.13083318597E+04  0.50400001928E-02 0.  1.
    10030    2    1    2    0    0  0.00000000000E+00  0.00000000000E+00 -0.68040421293E+03  0.19362595066E+04  0.18127743885E+04 0.  0.
        2    1    3    3  502    0 -0.38407564055E+03 -0.24257272014E+03  0.49756182741E+03  0.67373837231E+03  0.25500000920E-02 0. -1.
       -2    1    3    3    0  502  0.38407564055E+03  0.24257272014E+03 -0.11779660403E+04  0.12625211342E+04  0.25500000920E-02 0.  1.
</event>
<event>
 5   0  0.1883959E-04  0.1860261E+04  0.7818609E-02  0.8674894E-01
        1   -1    0    0  501    0  0.00000000000E+00  0.00000000000E+00  0.10046737023E+04  0.10046737024E+04  0.50400001928E-02 0.  1.
       -1   -1    0    0    0  501  0.00000000000E+00  0.00000000000E+00 -0.86111789045E+03  0.86111789046E+03  0.50400001928E-02 0. -1.
    10030    2    1    2    0    0  0.00000000000E+00  0.00000000000E+00  0.14355581189E+03  0.18657915928E+04  0.18602607335E+04 0.  0.
        5    1    3    3  502    0  0.50458398935E+03  0.79605933589E+02 -0.70782217403E+03  0.87291261133E+03  0.46999998093E+01 0. -1.
       -5    1    3    3    0  502 -0.50458398935E+03 -0.79605933589E+02  0.85137798592E+03  0.99287898149E+03  0.46999998093E+01 0.  1.
</event>
<event>
 5   0  0.3582186E-04  0.1836166E+04  0.7818609E-02  0.8687300E-01
       -2   -1    0    0    0  501  0.00000000000E+00  0.00000000000E+00  0.81329885346E+03  0.81329885347E+03  0.25500000920E-02 0. -1.
        2   -1    0    0  501    0  0.00000000000E+00  0.00000000000E+00 -0.10363671098E+04  0.10363671098E+04  0.25500000920E-02 0.  1.
    10030    2    1    2    0    0  0.00000000000E+00  0.00000000000E+00 -0.22306825632E+03  0.18496659632E+04  0.18361657683E+04 0.  0.
        4    1    3    3  502    0  0.73133592383E+03  0.17370870794E+03 -0.64252219286E+03  0.98886972343E+03  0.12699999809E+01 0.  1.
       -4    1    3    3    0  502 -0.73133592383E+03 -0.17370870794E+03  0.41945393655E+03  0.86079623982E+03  0.12699999809E+01 0. -1.
</event>
<event>
 5   0  0.1818778E-04  0.1784630E+04  0.7818609E-02  0.8714516E-01
       -1   -1    0    0    0  501  0.00000000000E+00  0.00000000000E+00  0.85976321539E+03  0.85976321540E+03  0.50400001928E-02 0. -1.
        1   -1    0    0  501    0  0.00000000000E+00  0.00000000000E+00 -0.92609894025E+03  0.92609894027E+03  0.50400001928E-02 0.  1.
    10030    2    1    2    0    0  0.00000000000E+00  0.00000000000E+00 -0.66335724863E+02  0.17858621557E+04  0.17846297125E+04 0.  0.
        3    1    3    3  502    0  0.39303644630E+03 -0.64772768961E+03  0.43853541654E+03  0.87540969253E+03  0.10100000352E+00 0. -1.
       -3    1    3    3    0  502 -0.39303644630E+03  0.64772768961E+03 -0.50487114141E+03  0.91045246314E+03  0.10100000352E+00 0.  1.
</event>
<event>
 5   0  0.3582186E-04  0.1684915E+04  0.7818609E-02  0.8770015E-01
        2   -1    0    0  501    0  0.00000000000E+00  0.00000000000E+00  0.13647739994E+04  0.13647739994E+04  0.25500000920E-02 0.  1.
       -2   -1    0    0    0  501  0.00000000000E+00  0.00000000000E+00 -0.52003813638E+03  0.52003813638E+03  0.25500000920E-02 0. -1.
    10030    2    1    2    0    0  0.00000000000E+00  0.00000000000E+00  0.84473586300E+03  0.18848121358E+04  0.16849148670E+04 0.  0.
        4    1    3    3  502    0  0.35031923301E+02  0.31186876873E+03 -0.45220745704E+03  0.55043851760E+03  0.12699999809E+01 0. -1.
       -4    1    3    3    0  502 -0.35031923301E+02 -0.31186876873E+03  0.12969433200E+04  0.13343736182E+04  0.12699999809E+01 0.  1.
</event>
<event>
 5   0  0.1837313E-04  0.1842308E+04  0.7818609E-02  0.8684118E-01
        1   -1    0    0  501    0  0.00000000000E+00  0.00000000000E+00  0.80010583559E+03  0.80010583560E+03  0.50400001928E-02 0. -1.
       -1   -1    0    0    0  501  0.00000000000E+00  0.00000000000E+00 -0.10605160510E+04  0.10605160510E+04  0.50400001928E-02 0.  1.
    10030    2    1    2    0    0  0.00000000000E+00  0.00000000000E+00 -0.26041021539E+03  0.18606218866E+04  0.18423084228E+04 0.  0.
        1    1    3    3  502    0  0.11909499093E+03 -0.90790533815E+03 -0.23144811006E+03  0.94448078201E+03  0.50400001928E-02 0. -1.
       -1    1    3    3    0  502 -0.11909499093E+03  0.90790533815E+03 -0.28962105327E+02  0.91614110457E+03  0.50400001928E-02 0.  1.
</event>
<event>
 5   0  0.1837313E-04  0.1780147E+04  0.7818609E-02  0.8716929E-01
        1   -1    0    0  501    0  0.00000000000E+00  0.00000000000E+00  0.81235953472E+03  0.81235953473E+03  0.50400001928E-02 0.  1.
       -1   -1    0    0    0  501  0.00000000000E+00  0.00000000000E+00 -0.97522215184E+03  0.97522215185E+03  0.50400001928E-02 0. -1.
    10030    2    1    2    0    0  0.00000000000E+00  0.00000000000E+00 -0.16286261712E+03  0.17875816866E+04  0.17801472001E+04 0.  0.
        1    1    3    3  502    0  0.31559473836E+03 -0.81705930137E+03 -0.24034859082E+03  0.90826944569E+03  0.50400001928E-02 0.  1.
       -1    1    3    3    0  502 -0.31559473836E+03  0.81705930137E+03  0.77485973698E+02  0.87931224089E+03  0.50400001928E-02 0. -1.
</event>
<event>
 5   0  0.3582186E-04  0.1796273E+04  0.7818609E-02  0.8708284E-01
       -2   -1    0    0    0  501  0.00000000000E+00  0.00000000000E+00  0.35440873611E+03  0.35440873611E+03  0.25500000920E-02 0. -1.
        2   -1    0    0  501    0  0.00000000000E+00  0.00000000000E+00 -0.22760428437E+04  0.22760428437E+04  0.25500000920E-02 0.  1.
    10030    2    1    2    0    0  0.00000000000E+00  0.00000000000E+00 -0.19216341076E+04  0.26304515798E+04  0.17962733284E+04 0.  0.
        4    1    3    3  502    0  0.30020584066E+03  0.78237548334E+02 -0.21950875368E+04  0.22169022459E+04  0.12699999809E+01 0.  1.
       -4    1    3    3    0  502 -0.30020584066E+03 -0.78237548334E+02  0.27345342921E+03  0.41354933392E+03  0.12699999809E+01 0. -1.
</event>
<event>
 5   0  0.3568870E-04  0.1787642E+04  0.7818609E-02  0.8712899E-01
        2   -1    0    0  501    0  0.00000000000E+00  0.00000000000E+00  0.34010930930E+04  0.34010930930E+04  0.25500000920E-02 0.  1.
       -2   -1    0    0    0  501  0.00000000000E+00  0.00000000000E+00 -0.23489967998E+03  0.23489967999E+03  0.25500000920E-02 0. -1.
    10030    2    1    2    0    0  0.00000000000E+00  0.00000000000E+00  0.31661934130E+04  0.36359927730E+04  0.17876416634E+04 0.  0.
        1    1    3    3  502    0 -0.19299183182E+03  0.74698803743E+03  0.66515446655E+03  0.10186596289E+04  0.50400001928E-02 0. -1.
       -1    1    3    3    0  502  0.19299183182E+03 -0.74698803743E+03  0.25010389465E+04  0.26173331441E+04  0.50400001928E-02 0.  1.
</event>
<event>
 5   0  0.3628581E-04  0.1775653E+04  0.7818609E-02  0.8719355E-01
       -2   -1    0    0    0  501  0.00000000000E+00  0.00000000000E+00  0.11649754225E+04  0.11649754225E+04  0.25500000920E-02 0. -1.
        2   -1    0    0  501    0  0.00000000000E+00  0.00000000000E+00 -0.67661141774E+03  0.67661141775E+03  0.25500000920E-02 0.  1.
    10030    2    1    2    0    0  0.00000000000E+00  0.00000000000E+00  0.48836400472E+03  0.18415868402E+04  0.17756527501E+04 0.  0.
        2    1    3    3  502    0 -0.20361461434E+03  0.83135682472E+03 -0.41986730537E+00  0.85592830160E+03  0.25500000920E-02 0.  1.
       -2    1    3    3    0  502  0.20361461434E+03 -0.83135682472E+03  0.48878387202E+03  0.98565853861E+03  0.25500000920E-02 0. -1.
</event>
<event>
 5   0  0.3582186E-04  0.1810465E+04  0.7818609E-02  0.8700754E-01
        2   -1    0    0  501    0  0.00000000000E+00  0.00000000000E+00  0.98669092160E+03  0.98669092160E+03  0.25500000920E-02 0.  1.
       -2   -1    0    0    0  501  0.00000000000E+00  0.00000000000E+00 -0.83049878644E+03  0.83049878644E+03  0.25500000920E-02 0. -1.
    10030    2    1    2    0    0  0.00000000000E+00  0.00000000000E+00  0.15619213516E+03  0.18171897080E+04  0.18104647061E+04 0.  0.
        4    1    3    3  502    0  0.83024433292E+03  0.26101537192E+03 -0.17184562226E+03  0.88711172211E+03  0.12699999809E+01 0. -1.
       -4    1    3    3    0  502 -0.83024433292E+03 -0.26101537192E+03  0.32803775742E+03  0.93007798593E+03  0.12699999809E+01 0.  1.
</event>
<event>
 5   0  0.1837313E-04  0.1811154E+04  0.7818609E-02  0.8700390E-01
        1   -1    0    0  501    0  0.00000000000E+00  0.00000000000E+00  0.76489935668E+03  0.76489935670E+03  0.50400001928E-02 0. -1.
       -1   -1    0    0    0  501  0.00000000000E+00  0.00000000000E+00 -0.10721277417E+04  0.10721277417E+04  0.50400001928E-02 0.  1.
    10030    2    1    2    0    0  0.00000000000E+00  0.00000000000E+00 -0.30722838500E+03  0.18370270984E+04  0.18111541292E+04 0.  0.
        1    1    3    3  502    0 -0.64373950865E+03 -0.15954389760E+03  0.47181015060E+03  0.81391622940E+03  0.50400001928E-02 0. -1.
       -1    1    3    3    0  502  0.64373950865E+03  0.15954389760E+03 -0.77903853560E+03  0.10231108690E+04  0.50400001928E-02 0.  1.
</event>
<event>
 5   0  0.1818778E-04  0.1802187E+04  0.7818609E-02  0.8705137E-01
        1   -1    0    0  501    0  0.00000000000E+00  0.00000000000E+00  0.64388727544E+03  0.64388727546E+03  0.50400001928E-02 0. -1.
       -1   -1    0    0    0  501  0.00000000000E+00  0.00000000000E+00 -0.12610435245E+04  0.12610435245E+04  0.50400001928E-02 0.  1.
    10030    2    1    2    0    0  0.00000000000E+00  0.00000000000E+00 -0.61715624907E+03  0.19049308000E+04  0.18021874256E+04 0.  0.
        3    1    3    3  502    0  0.36135645013E+03 -0.79110461943E+03 -0.55769388867E+03  0.10331735027E+04  0.10100000352E+00 0. -1.
       -3    1    3    3    0  502 -0.36135645013E+03  0.79110461943E+03 -0.59462360404E+02  0.87175729733E+03  0.10100000352E+00 0.  1.
</event>
<event>
 5   0  0.3628581E-04  0.1802757E+04  0.7818609E-02  0.8704835E-01
        2   -1    0    0  501    0  0.00000000000E+00  0.00000000000E+00  0.15856092356E+04  0.15856092356E+04  0.25500000920E-02 0.  1.
       -2   -1    0    0    0  501  0.00000000000E+00  0.00000000000E+00 -0.51241050671E+03  0.51241050671E+03  0.25500000920E-02 0. -1.
    10030    2    1    2    0    0  0.00000000000E+00  0.00000000000E+00  0.10731987289E+04  0.20980197423E+04  0.18027565913E+04 0.  0.
        2    1    3    3  502    0 -0.11848876695E+03 -0.83698863508E+03  0.17247570939E+03  0.86274992523E+03  0.25500000920E-02 0. -1.
       -2    1    3    3    0  502  0.11848876695E+03  0.83698863508E+03  0.90072301953E+03  0.12352698171E+04  0.25500000920E-02 0.  1.
</event>
<event>
 5   0  0.1835421E-04  0.1802817E+04  0.7818609E-02  0.8704803E-01
       -1   -1    0    0    0  501  0.00000000000E+00  0.00000000000E+00  0.86217968981E+03  0.86217968982E+03  0.50400001928E-02 0. -1.
        1   -1    0    0  501    0  0.00000000000E+00  0.00000000000E+00 -0.94242227987E+03  0.94242227988E+03  0.50400001928E-02 0.  1.
    10030    2    1    2    0    0  0.00000000000E+00  0.00000000000E+00 -0.80242590059E+02  0.18046019697E+04  0.18028170722E+04 0.  0.
        2    1    3    3  502    0  0.23720908217E+03 -0.86680356324E+03  0.30096449170E+02  0.89917871537E+03  0.25500000920E-02 0.  1.
       -2    1    3    3    0  502 -0.23720908217E+03  0.86680356324E+03 -0.11033903923E+03  0.90542325434E+03  0.25500000920E-02 0. -1.
</event>
<event>
 5   0  0.1835421E-04  0.1825351E+04  0.7818609E-02  0.8692933E-01
       -1   -1    0    0    0  501  0.00000000000E+00  0.00000000000E+00  0.93517676975E+03  0.93517676976E+03  0.50400001928E-02 0. -1.
        1   -1    0    0  501    0  0.00000000000E+00  0.00000000000E+00 -0.89071580164E+03  0.89071580165E+03  0.50400001928E-02 0.  1.
    10030    2    1    2    0    0  0.00000000000E+00  0.00000000000E+00  0.44460968109E+02  0.18258925714E+04  0.18253511730E+04 0.  0.
        2    1    3    3  502    0 -0.53304485720E+03  0.68050496560E+03  0.31515329684E+03  0.92007903384E+03  0.25500000920E-02 0. -1.
       -2    1    3    3    0  502  0.53304485720E+03 -0.68050496560E+03 -0.27069232873E+03  0.90581353757E+03  0.25500000920E-02 0.  1.
</event>
<event>
 5   0  0.1825253E-04  0.1850082E+04  0.7818609E-02  0.8680111E-01
       -1   -1    0    0    0  501  0.00000000000E+00  0.00000000000E+00  0.86808790264E+03  0.86808790266E+03  0.50400001928E-02 0. -1.
        1   -1    0    0  501    0  0.00000000000E+00  0.00000000000E+00 -0.98573071004E+03  0.98573071005E+03  0.50400001928E-02 0.  1.
    10030    2    1    2    0    0  0.00000000000E+00  0.00000000000E+00 -0.11764280740E+03  0.18538186127E+04  0.18500820573E+04 0.  0.
        4    1    3    3  502    0 -0.36281702250E+03 -0.72374284717E+03 -0.50722872278E+03  0.95536510862E+03  0.12699999809E+01 0.  1.
       -4    1    3    3    0  502  0.36281702250E+03  0.72374284717E+03  0.38958591538E+03  0.89845350409E+03  0.12699999809E+01 0. -1.
</event>
<event>
 5   0  0.3628581E-04  0.1875709E+04  0.7818609E-02  0.8667043E-01
       -2   -1    0    0    0  501  0.00000000000E+00  0.00000000000E+00  0.37384538841E+03  0.37384538842E+03  0.25500000920E-02 0. -1.
        2   -1    0    0  501    0  0.00000000000E+00  0.00000000000E+00 -0.23527657760E+04  0.23527657760E+04  0.25500000920E-02 0.  1.
    10030    2    1    2    0    0  0.00000000000E+00  0.00000000000E+00 -0.19789203876E+04  0.27266111645E+04  0.18757085439E+04 0.  0.
        2    1    3    3  502    0 -0.42918443806E+03 -0.46427024544E+03 -0.19963896796E+04  0.20941150626E+04  0.25500000920E-02 0.  1.
       -2    1    3    3    0  502  0.42918443806E+03  0.46427024544E+03  0.17469291966E+02  0.63249610184E+03  0.25500000920E-02 0. -1.
</event>
<event>
 5   0  0.1837313E-04  0.1781905E+04  0.7818609E-02  0.8715982E-01
       -1   -1    0    0    0  501  0.00000000000E+00  0.00000000000E+00  0.89768117324E+03  0.89768117325E+03  0.50400001928E-02 0. -1.
        1   -1    0    0  501    0  0.00000000000E+00  0.00000000000E+00 -0.88427462576E+03  0.88427462577E+03  0.50400001928E-02 0.  1.
    10030    2    1    2    0    0  0.00000000000E+00  0.00000000000E+00  0.13406547477E+02  0.17819557990E+04  0.17819053662E+04 0.  0.
        1    1    3    3  502    0  0.52202424526E+02  0.62633761017E+03  0.63820573733E+03  0.89572900937E+03  0.50400001928E-02 0. -1.
       -1    1    3    3    0  502 -0.52202424526E+02 -0.62633761017E+03 -0.62479918985E+03  0.88622678966E+03  0.50400001928E-02 0.  1.
</event>
<event>
 5   0  0.3628581E-04  0.1782436E+04  0.7818609E-02  0.8715696E-01
        2   -1    0    0  501    0  0.00000000000E+00  0.00000000000E+00  0.14696305056E+04  0.14696305056E+04  0.25500000920E-02 0. -1.
       -2   -1    0    0    0  501  0.00000000000E+00  0.00000000000E+00 -0.54045549877E+03  0.54045549878E+03  0.25500000920E-02 0.  1.
    10030    2    1    2    0    0  0.00000000000E+00  0.00000000000E+00  0.92917500682E+03  0.20100860044E+04  0.17824364089E+04 0.  0.
        2    1    3    3  502    0 -0.50279877789E+03  0.88563393983E+02 -0.35920258767E+03  0.62424080674E+03  0.25500000920E-02 0.  1.
       -2    1    3    3    0  502  0.50279877789E+03 -0.88563393983E+02  0.12883775945E+04  0.13858451976E+04  0.25500000920E-02 0. -1.
</event>
<event>
 5   0  0.3628581E-04  0.1772919E+04  0.7818609E-02  0.8720835E-01
        2   -1    0    0  501    0  0.00000000000E+00  0.00000000000E+00  0.61032916779E+03  0.61032916780E+03  0.25500000920E-02 0. -1.
       -2   -1    0    0    0  501  0.00000000000E+00  0.00000000000E+00 -0.12875195160E+04  0.12875195160E+04  0.25500000920E-02 0.  1.
    10030    2    1    2    0    0  0.00000000000E+00  0.00000000000E+00 -0.67719034821E+03  0.18978486838E+04  0.17729193041E+04 0.  0.
        2    1    3    3  502    0 -0.16290223366E+03  0.72346411958E+03  0.18129541357E+03  0.76341698765E+03  0.25500000920E-02 0. -1.
       -2    1    3    3    0  502  0.16290223366E+03 -0.72346411958E+03 -0.85848576178E+03  0.11344316961E+04  0.25500000920E-02 0.  1.
</event>
<event>
 5   0  0.3628581E-04  0.1775576E+04  0.7818609E-02  0.8719397E-01
       -2   -1    0    0    0  501  0.00000000000E+00  0.00000000000E+00  0.56309932354E+03  0.56309932354E+03  0.25500000920E-02 0. -1.
        2   -1    0    0  501    0  0.00000000000E+00  0.00000000000E+00 -0.13996952621E+04  0.13996952621E+04  0.25500000920E-02 0.  1.
    10030    2    1    2    0    0  0.00000000000E+00  0.00000000000E+00 -0.83659593856E+03  0.19627945856E+04  0.17755759125E+04 0.  0.
        2    1    3    3  502    0  0.38223697932E+03  0.31895657134E+03  0.39427948127E+03  0.63505488905E+03  0.25500000920E-02 0. -1.
       -2    1    3    3    0  502 -0.38223697932E+03 -0.31895657134E+03 -0.12308754198E+04  0.13277396966E+04  0.25500000920E-02 0.  1.
</event>
<event>
 5   0  0.3568870E-04  0.1827168E+04  0.7818609E-02  0.8691984E-01
       -2   -1    0    0    0  501  0.00000000000E+00  0.00000000000E+00  0.41155966546E+03  0.41155966547E+03  0.25500000920E-02 0.  1.
        2   -1    0    0  501    0  0.00000000000E+00  0.00000000000E+00 -0.20279830079E+04  0.20279830079E+04  0.25500000920E-02 0. -1.
    10030    2    1    2    0    0  0.00000000000E+00  0.00000000000E+00 -0.16164233424E+04  0.24395426734E+04  0.18271683100E+04 0.  0.
        1    1    3    3  502    0 -0.51499944174E+03  0.53395827828E+03 -0.96312639781E+02  0.74807218404E+03  0.50400001928E-02 0.  1.
       -1    1    3    3    0  502  0.51499944174E+03 -0.53395827828E+03 -0.15201107027E+04  0.16914704893E+04  0.50400001928E-02 0. -1.
</event>
<event>
 5   0  0.1835421E-04  0.1929145E+04  0.7818609E-02  0.8640483E-01
        1   -1    0    0  501    0  0.00000000000E+00  0.00000000000E+00  0.15032290177E+04  0.15032290177E+04  0.50400001928E-02 0.  1.
       -1   -1    0    0    0  501  0.00000000000E+00  0.00000000000E+00 -0.61893457266E+03  0.61893457268E+03  0.50400001928E-02 0. -1.
    10030    2    1    2    0    0  0.00000000000E+00  0.00000000000E+00  0.88429444505E+03  0.21221635904E+04  0.19291453131E+04 0.  0.
        2    1    3    3  502    0  0.91929934392E+03 -0.12208740588E+03  0.73399087065E+03  0.11826915137E+04  0.25500000920E-02 0.  1.
       -2    1    3    3    0  502 -0.91929934392E+03  0.12208740588E+03  0.15030357440E+03  0.93947207669E+03  0.25500000920E-02 0. -1.
</event>
<event>
 5   0  0.3582186E-04  0.1842223E+04  0.7818609E-02  0.8684163E-01
        2   -1    0    0  501    0  0.00000000000E+00  0.00000000000E+00  0.56693211600E+03  0.56693211600E+03  0.25500000920E-02 0. -1.
       -2   -1    0    0    0  501  0.00000000000E+00  0.00000000000E+00 -0.14965569215E+04  0.14965569215E+04  0.25500000920E-02 0.  1.
    10030    2    1    2    0    0  0.00000000000E+00  0.00000000000E+00 -0.92962480553E+03  0.20634890375E+04  0.18422227685E+04 0.  0.
        4    1    3    3  502    0  0.39813579040E+03  0.44768395286E+03  0.31887251321E+03  0.67868573127E+03  0.12699999809E+01 0. -1.
       -4    1    3    3    0  502 -0.39813579040E+03 -0.44768395286E+03 -0.12484973187E+04  0.13848033063E+04  0.12699999809E+01 0.  1.
</event>
<event>
 5   0  0.3575091E-04  0.1812533E+04  0.7818609E-02  0.8699663E-01
        2   -1    0    0  501    0  0.00000000000E+00  0.00000000000E+00  0.14183087073E+04  0.14183087073E+04  0.25500000920E-02 0.  1.
       -2   -1    0    0    0  501  0.00000000000E+00  0.00000000000E+00 -0.57908315903E+03  0.57908315903E+03  0.25500000920E-02 0. -1.
    10030    2    1    2    0    0  0.00000000000E+00  0.00000000000E+00  0.83922554827E+03  0.19973918663E+04  0.18125326885E+04 0.  0.
        5    1    3    3  502    0  0.54791565148E+03 -0.41510655650E+03 -0.23118787161E+03  0.72525508365E+03  0.46999998093E+01 0. -1.
       -5    1    3    3    0  502 -0.54791565148E+03  0.41510655650E+03  0.10704134199E+04  0.12721367827E+04  0.46999998093E+01 0.  1.
</event>
<event>
 5   0  0.1818778E-04  0.1847972E+04  0.7818609E-02  0.8681196E-01
       -1   -1    0    0    0  501  0.00000000000E+00  0.00000000000E+00  0.40192454247E+03  0.40192454250E+03  0.50400001928E-02 0. -1.
        1   -1    0    0  501    0  0.00000000000E+00  0.00000000000E+00 -0.21241552938E+04  0.21241552938E+04  0.50400001928E-02 0.  1.
    10030    2    1    2    0    0  0.00000000000E+00  0.00000000000E+00 -0.17222307514E+04  0.25260798363E+04  0.18479720178E+04 0.  0.
        3    1    3    3  502    0  0.19037440424E+02  0.21671005307E+03 -0.20886493711E+04  0.20999480653E+04  0.10100000352E+00 0.  1.
       -3    1    3    3    0  502 -0.19037440424E+02 -0.21671005307E+03  0.36641861973E+03  0.42613177108E+03  0.10100000352E+00 0. -1.
</event>
<event>
 5   0  0.3575091E-04  0.1795841E+04  0.7818609E-02  0.8708514E-01
        2   -1    0    0  501    0  0.00000000000E+00  0.00000000000E+00  0.95809362709E+03  0.95809362710E+03  0.25500000920E-02 0.  1.
       -2   -1    0    0    0  501  0.00000000000E+00  0.00000000000E+00 -0.84152664735E+03  0.84152664735E+03  0.25500000920E-02 0. -1.
    10030    2    1    2    0    0  0.00000000000E+00  0.00000000000E+00  0.11656697974E+03  0.17996202744E+04  0.17958411042E+04 0.  0.
        5    1    3    3  502    0 -0.24810291508E+02  0.26898101743E+03  0.91639906346E+03  0.95539294105E+03  0.46999998093E+01 0.  1.
       -5    1    3    3    0  502  0.24810291508E+02 -0.26898101743E+03 -0.79983208372E+03  0.84422733339E+03  0.46999998093E+01 0. -1.
</event>
<event>
 5   0  0.1883959E-04  0.1843018E+04  0.7818609E-02  0.8683752E-01
       -1   -1    0    0    0  501  0.00000000000E+00  0.00000000000E+00  0.34439156143E+03  0.34439156147E+03  0.50400001928E-02 0.  1.
        1   -1    0    0  501    0  0.00000000000E+00  0.00000000000E+00 -0.24657360527E+04  0.24657360527E+04  0.50400001928E-02 0. -1.
    10030    2    1    2    0    0  0.00000000000E+00  0.00000000000E+00 -0.21213444912E+04  0.28101276141E+04  0.18430178396E+04 0.  0.
        5    1    3    3  502    0 -0.69923203312E+03  0.40488562088E+03 -0.38512562960E+03  0.89509867764E+03  0.46999998093E+01 0.  1.
       -5    1    3    3    0  502  0.69923203312E+03 -0.40488562088E+03 -0.17362188616E+04  0.19150289365E+04  0.46999998093E+01 0. -1.
</event>
<event>
 5   0  0.3575091E-04  0.1798634E+04  0.7818609E-02  0.8707026E-01
        2   -1    0    0  501    0  0.00000000000E+00  0.00000000000E+00  0.11761593481E+04  0.11761593481E+04  0.25500000920E-02 0. -1.
       -2   -1    0    0    0  501  0.00000000000E+00  0.00000000000E+00 -0.68763748935E+03  0.68763748935E+03  0.25500000920E-02 0.  1.
    10030    2    1    2    0    0  0.00000000000E+00  0.00000000000E+00  0.48852185873E+03  0.18637968374E+04  0.17986342165E+04 0.  0.
        5    1    3    3  502    0  0.74007389113E+03 -0.13141279772E+03 -0.26735761624E+03  0.79779751360E+03  0.46999998093E+01 0.  1.
       -5    1    3    3    0  502 -0.74007389113E+03  0.13141279772E+03  0.75587947497E+03  0.10659993238E+04  0.46999998093E+01 0. -1.
</event>
<event>
 5   0  0.3628581E-04  0.1793605E+04  0.7818609E-02  0.8709708E-01
        2   -1    0    0  501    0  0.00000000000E+00  0.00000000000E+00  0.23091559827E+04  0.23091559827E+04  0.25500000920E-02 0.  1.
       -2   -1    0    0    0  501  0.00000000000E+00  0.00000000000E+00 -0.34828954019E+03  0.34828954020E+03  0.25500000920E-02 0. -1.
    10030    2    1    2    0    0  0.00000000000E+00  0.00000000000E+00  0.19608664425E+04  0.26574455229E+04  0.17936051689E+04 0.  0.
        2    1    3    3  502    0  0.12961126204E+03  0.45870795187E+03 -0.14505652041E+03  0.49825039737E+03  0.25500000920E-02 0. -1.
       -2    1    3    3    0  502 -0.12961126204E+03 -0.45870795187E+03  0.21059229629E+04  0.21591951255E+04  0.25500000920E-02 0.  1.
</event>
<event>
 5   0  0.1837313E-04  0.1782747E+04  0.7818609E-02  0.8715529E-01
       -1   -1    0    0    0  501  0.00000000000E+00  0.00000000000E+00  0.89885793885E+03  0.89885793886E+03  0.50400001928E-02 0.  1.
        1   -1    0    0  501    0  0.00000000000E+00  0.00000000000E+00 -0.88395106522E+03  0.88395106523E+03  0.50400001928E-02 0. -1.
    10030    2    1    2    0    0  0.00000000000E+00  0.00000000000E+00  0.14906873627E+02  0.17828090041E+04  0.17827466814E+04 0.  0.
        1    1    3    3  502    0 -0.59861992770E+03  0.33630745711E+03  0.57589032829E+03  0.89615746038E+03  0.50400001928E-02 0.  1.
       -1    1    3    3    0  502  0.59861992770E+03 -0.33630745711E+03 -0.56098345466E+03  0.88665154372E+03  0.50400001928E-02 0. -1.
</event>
<event>
 5   0  0.1837313E-04  0.2268287E+04  0.7818609E-02  0.8490531E-01
        1   -1    0    0  501    0  0.00000000000E+00  0.00000000000E+00  0.19210515090E+04  0.19210515090E+04  0.50400001928E-02 0. -1.
       -1   -1    0    0    0  501  0.00000000000E+00  0.00000000000E+00 -0.66957179853E+03  0.66957179854E+03  0.50400001928E-02 0.  1.
    10030    2    1    2    0    0  0.00000000000E+00  0.00000000000E+00  0.12514797105E+04  0.25906233075E+04  0.22682873839E+04 0.  0.
        1    1    3    3  502    0 -0.71424894552E+03 -0.39411121424E+03  0.15256194248E+04  0.17300259636E+04  0.50400001928E-02 0. -1.
       -1    1    3    3    0  502  0.71424894552E+03  0.39411121424E+03 -0.27413971435E+03  0.86059734393E+03  0.50400001928E-02 0.  1.
</event>
<event>
 5   0  0.3582186E-04  0.1824802E+04  0.7818609E-02  0.8693220E-01
       -2   -1    0    0    0  501  0.00000000000E+00  0.00000000000E+00  0.41082552185E+03  0.41082552186E+03  0.25500000920E-02 0.  1.
        2   -1    0    0  501    0  0.00000000000E+00  0.00000000000E+00 -0.20263479642E+04  0.20263479642E+04  0.25500000920E-02 0. -1.
    10030    2    1    2    0    0  0.00000000000E+00  0.00000000000E+00 -0.16155224423E+04  0.24371734860E+04  0.18248018630E+04 0.  0.
        4    1    3    3  502    0 -0.40837684226E+03 -0.79429074315E+02  0.27677227292E+03  0.49968502790E+03  0.12699999809E+01 0.  1.
       -4    1    3    3    0  502  0.40837684226E+03  0.79429074315E+02 -0.18922947152E+04  0.19374884581E+04  0.12699999809E+01 0. -1.
</event>
<event>
 5   0  0.3582186E-04  0.1841829E+04  0.7818609E-02  0.8684366E-01
        2   -1    0    0  501    0  0.00000000000E+00  0.00000000000E+00  0.11751451212E+04  0.11751451212E+04  0.25500000920E-02 0. -1.
       -2   -1    0    0    0  501  0.00000000000E+00  0.00000000000E+00 -0.72168415679E+03  0.72168415679E+03  0.25500000920E-02 0.  1.
    10030    2    1    2    0    0  0.00000000000E+00  0.00000000000E+00  0.45346096440E+03  0.18968292780E+04  0.18418291081E+04 0.  0.
        4    1    3    3  502    0 -0.51473166136E+03 -0.76309213450E+03  0.19717301950E+03  0.94134855472E+03  0.12699999809E+01 0. -1.
       -4    1    3    3    0  502  0.51473166136E+03  0.76309213450E+03  0.25628794490E+03  0.95548072328E+03  0.12699999809E+01 0.  1.
</event>
<event>
 5   0  0.3568870E-04  0.1841857E+04  0.7818609E-02  0.8684352E-01
       -2   -1    0    0    0  501  0.00000000000E+00  0.00000000000E+00  0.33608478491E+03  0.33608478491E+03  0.25500000920E-02 0.  1.
        2   -1    0    0  501    0  0.00000000000E+00  0.00000000000E+00 -0.25234974502E+04  0.25234974502E+04  0.25500000920E-02 0. -1.
    10030    2    1    2    0    0  0.00000000000E+00  0.00000000000E+00 -0.21874126653E+04  0.28595822351E+04  0.18418567781E+04 0.  0.
        1    1    3    3  502    0  0.33648259960E+02 -0.86257974610E+03 -0.15918151220E+04  0.18108151221E+04  0.50400001928E-02 0. -1.
       -1    1    3    3    0  502 -0.33648259960E+02  0.86257974610E+03 -0.59559754335E+03  0.10487671131E+04  0.50400001928E-02 0.  1.
</event>
<event>
 5   0  0.3575091E-04  0.1543459E+04  0.7818609E-02  0.8856057E-01
       -2   -1    0    0    0  501  0.00000000000E+00  0.00000000000E+00  0.97030320686E+03  0.97030320686E+03  0.25500000920E-02 0.  1.
        2   -1    0    0  501    0  0.00000000000E+00  0.00000000000E+00 -0.61379395345E+03  0.61379395346E+03  0.25500000920E-02 0. -1.
    10030    2    1    2    0    0  0.00000000000E+00  0.00000000000E+00  0.35650925341E+03  0.15840971603E+04  0.15434587670E+04 0.  0.
        5    1    3    3  502    0 -0.40915317219E+03 -0.10366937988E+03 -0.48481335899E+03  0.64282170288E+03  0.46999998093E+01 0. -1.
       -5    1    3    3    0  502  0.40915317219E+03  0.10366937988E+03  0.84132261240E+03  0.94127545744E+03  0.46999998093E+01 0.  1.
</event>
<event>
 5   0  0.1818778E-04  0.1803036E+04  0.7818609E-02  0.8704686E-01
        1   -1    0    0  501    0  0.00000000000E+00  0.00000000000E+00  0.12371980820E+04  0.12371980820E+04  0.50400001928E-02 0.  1.
       -1   -1    0    0    0  501  0.00000000000E+00  0.00000000000E+00 -0.65691588327E+03  0.65691588329E+03  0.50400001928E-02 0. -1.
    10030    2    1    2    0    0  0.00000000000E+00  0.00000000000E+00  0.58028219874E+03  0.18941139653E+04  0.18030364066E+04 0.  0.
        3    1    3    3  502    0 -0.14737125707E+03  0.64422158324E+03  0.93429973396E+03  0.11444019131E+04  0.10100000352E+00 0.  1.
       -3    1    3    3    0  502  0.14737125707E+03 -0.64422158324E+03 -0.35401753522E+03  0.74971205217E+03  0.10100000352E+00 0. -1.
</event>
<event>
 5   0  0.1837313E-04  0.1982408E+04  0.7818609E-02  0.8614890E-01
        1   -1    0    0  501    0  0.00000000000E+00  0.00000000000E+00  0.33901039552E+03  0.33901039556E+03  0.50400001928E-02 0.  1.
       -1   -1    0    0    0  501  0.00000000000E+00  0.00000000000E+00 -0.28980973035E+04  0.28980973035E+04  0.50400001928E-02 0. -1.
    10030    2    1    2    0    0  0.00000000000E+00  0.00000000000E+00 -0.25590869080E+04  0.32371076990E+04  0.19824077413E+04 0.  0.
        1    1    3    3  502    0 -0.32166529005E+03  0.15431078962E+02 -0.28102920136E+04  0.28286830644E+04  0.50400001928E-02 0. -1.
       -1    1    3    3    0  502  0.32166529005E+03 -0.15431078962E+02  0.25120510568E+03  0.40842463462E+03  0.50400001928E-02 0.  1.
</event>
<event>
 5   0  0.3628581E-04  0.1812906E+04  0.7818609E-02  0.8699466E-01
       -2   -1    0    0    0  501  0.00000000000E+00  0.00000000000E+00  0.69935900522E+03  0.69935900522E+03  0.25500000920E-02 0.  1.
        2   -1    0    0  501    0  0.00000000000E+00  0.00000000000E+00 -0.11748718863E+04  0.11748718863E+04  0.25500000920E-02 0. -1.
    10030    2    1    2    0    0  0.00000000000E+00  0.00000000000E+00 -0.47551288107E+03  0.18742308915E+04  0.18129062123E+04 0.  0.
        2    1    3    3  502    0 -0.35375129394E+03 -0.82507759047E+03 -0.10795363706E+03  0.90418305449E+03  0.25500000920E-02 0.  1.
       -2    1    3    3    0  502  0.35375129394E+03  0.82507759047E+03 -0.36755924401E+03  0.97004783703E+03  0.25500000920E-02 0. -1.
</event>
<event>
 5   0  0.1883959E-04  0.1730149E+04  0.7818609E-02  0.8744354E-01
        1   -1    0    0  501    0  0.00000000000E+00  0.00000000000E+00  0.10218259559E+04  0.10218259559E+04  0.50400001928E-02 0. -1.
       -1   -1    0    0    0  501  0.00000000000E+00  0.00000000000E+00 -0.73236947412E+03  0.73236947413E+03  0.50400001928E-02 0.  1.
    10030    2    1    2    0    0  0.00000000000E+00  0.00000000000E+00  0.28945648174E+03  0.17541954300E+04  0.17301492860E+04 0.  0.
        5    1    3    3  502    0  0.41567363094E+03 -0.13370952095E+03 -0.61242318454E+03  0.75216158531E+03  0.46999998093E+01 0.  1.
       -5    1    3    3    0  502 -0.41567363094E+03  0.13370952095E+03  0.90187966628E+03  0.10020338447E+04  0.46999998093E+01 0. -1.
</event>
<event>
 5   0  0.1837313E-04  0.1745428E+04  0.7818609E-02  0.8735871E-01
       -1   -1    0    0    0  501  0.00000000000E+00  0.00000000000E+00  0.50418092090E+03  0.50418092092E+03  0.50400001928E-02 0.  1.
        1   -1    0    0  501    0  0.00000000000E+00  0.00000000000E+00 -0.15106277718E+04  0.15106277718E+04  0.50400001928E-02 0. -1.
    10030    2    1    2    0    0  0.00000000000E+00  0.00000000000E+00 -0.10064468509E+04  0.20148086927E+04  0.17454279718E+04 0.  0.
        1    1    3    3  502    0 -0.32987575689E+03 -0.36170798962E+03 -0.13372087464E+04  0.14240006729E+04  0.50400001928E-02 0. -1.
       -1    1    3    3    0  502  0.32987575689E+03  0.36170798962E+03  0.33076189555E+03  0.59080801985E+03  0.50400001928E-02 0.  1.
</event>
<event>
 5   0  0.1835421E-04  0.1814040E+04  0.7818609E-02  0.8698868E-01
        1   -1    0    0  501    0  0.00000000000E+00  0.00000000000E+00  0.24264436652E+04  0.24264436652E+04  0.50400001928E-02 0. -1.
       -1   -1    0    0    0  501  0.00000000000E+00  0.00000000000E+00 -0.33905000006E+03  0.33905000009E+03  0.50400001928E-02 0.  1.
    10030    2    1    2    0    0  0.00000000000E+00  0.00000000000E+00  0.20873936652E+04  0.27654936653E+04  0.18140404901E+04 0.  0.
        2    1    3    3  502    0  0.72088261511E+03  0.54217762097E+03  0.11887835463E+04  0.14922582342E+04  0.25500000920E-02 0.  1.
       -2    1    3    3    0  502 -0.72088261511E+03 -0.54217762097E+03  0.89861011889E+03  0.12732354312E+04  0.25500000920E-02 0. -1.
</event>
<event>
 5   0  0.3628581E-04  0.1785258E+04  0.7818609E-02  0.8714178E-01
        2   -1    0    0  501    0  0.00000000000E+00  0.00000000000E+00  0.52525642784E+03  0.52525642784E+03  0.25500000920E-02 0. -1.
       -2   -1    0    0    0  501  0.00000000000E+00  0.00000000000E+00 -0.15169482613E+04  0.15169482613E+04  0.25500000920E-02 0.  1.
    10030    2    1    2    0    0  0.00000000000E+00  0.00000000000E+00 -0.99169183344E+03  0.20422046891E+04  0.17852583286E+04 0.  0.
        2    1    3    3  502    0  0.63362682668E+03 -0.11127329865E+03 -0.12037157911E+04  0.13648429976E+04  0.25500000920E-02 0.  1.
       -2    1    3    3    0  502 -0.63362682668E+03  0.11127329865E+03  0.21202395765E+03  0.67736169149E+03  0.25500000920E-02 0. -1.
</event>
<event>
 5   0  0.3531266E-04  0.1754044E+04  0.7818609E-02  0.8731127E-01
       -2   -1    0    0    0  501  0.00000000000E+00  0.00000000000E+00  0.59260228408E+03  0.59260228409E+03  0.25500000920E-02 0. -1.
        2   -1    0    0  501    0  0.00000000000E+00  0.00000000000E+00 -0.12979491291E+04  0.12979491291E+04  0.25500000920E-02 0.  1.
    10030    2    1    2    0    0  0.00000000000E+00  0.00000000000E+00 -0.70534684506E+03  0.18905514132E+04  0.17540440343E+04 0.  0.
        3    1    3    3  502    0 -0.79799614967E+03 -0.12016773167E+03 -0.72280758685E+03  0.10833692613E+04  0.10100000352E+00 0.  1.
       -3    1    3    3    0  502  0.79799614967E+03  0.12016773167E+03  0.17460741791E+02  0.80718215189E+03  0.10100000352E+00 0. -1.
</event>
<event>
 5   0  0.1883959E-04  0.1791490E+04  0.7818609E-02  0.8710838E-01
       -1   -1    0    0    0  501  0.00000000000E+00  0.00000000000E+00  0.55887858539E+03  0.55887858541E+03  0.50400001928E-02 0. -1.
        1   -1    0    0  501    0  0.00000000000E+00  0.00000000000E+00 -0.14356590679E+04  0.14356590679E+04  0.50400001928E-02 0.  1.
    10030    2    1    2    0    0  0.00000000000E+00  0.00000000000E+00 -0.87678048252E+03  0.19945376533E+04  0.17914900045E+04 0.  0.
        5    1    3    3  502    0  0.57257853451E+03  0.12841112800E+03  0.31507160207E+03  0.66605390202E+03  0.46999998093E+01 0. -1.
       -5    1    3    3    0  502 -0.57257853451E+03 -0.12841112800E+03 -0.11918520846E+04  0.13284837513E+04  0.46999998093E+01 0.  1.
</event>
<event>
 5   0  0.1837313E-04  0.1821795E+04  0.7818609E-02  0.8694794E-01
        1   -1    0    0  501    0  0.00000000000E+00  0.00000000000E+00  0.99468963418E+03  0.99468963419E+03  0.50400001928E-02 0.  1.
       -1   -1    0    0    0  501  0.00000000000E+00  0.00000000000E+00 -0.83416373000E+03  0.83416373001E+03  0.50400001928E-02 0. -1.
    10030    2    1    2    0    0  0.00000000000E+00  0.00000000000E+00  0.16052590418E+03  0.18288533642E+04  0.18217947365E+04 0.  0.
        1    1    3    3  502    0  0.48210184850E+03 -0.36877511629E+03 -0.60157166715E+03  0.85457928214E+03  0.50400001928E-02 0. -1.
       -1    1    3    3    0  502 -0.48210184850E+03  0.36877511629E+03  0.76209757133E+03  0.97427408206E+03  0.50400001928E-02 0.  1.
</event>
<event>
 5   0  0.1818778E-04  0.1850122E+04  0.7818609E-02  0.8680090E-01
       -1   -1    0    0    0  501  0.00000000000E+00  0.00000000000E+00  0.11689149685E+04  0.11689149685E+04  0.50400001928E-02 0. -1.
        1   -1    0    0  501    0  0.00000000000E+00  0.00000000000E+00 -0.73207845657E+03  0.73207845659E+03  0.50400001928E-02 0.  1.
    10030    2    1    2    0    0  0.00000000000E+00  0.00000000000E+00  0.43683651189E+03  0.19009934251E+04  0.18501215809E+04 0.  0.
        3    1    3    3  502    0  0.22394868107E+03 -0.58291702429E+03  0.91967402235E+03  0.11116409432E+04  0.10100000352E+00 0. -1.
       -3    1    3    3    0  502 -0.22394868107E+03  0.58291702429E+03 -0.48283751045E+03  0.78935248189E+03  0.10100000352E+00 0.  1.
</event>
<event>
 5   0  0.3575091E-04  0.1788648E+04  0.7818609E-02  0.8712360E-01
       -2   -1    0    0    0  501  0.00000000000E+00  0.00000000000E+00  0.12403431612E+04  0.12403431612E+04  0.25500000920E-02 0.  1.
        2   -1    0    0  501    0  0.00000000000E+00  0.00000000000E+00 -0.64483362594E+03  0.64483362595E+03  0.25500000920E-02 0. -1.
    10030    2    1    2    0    0  0.00000000000E+00  0.00000000000E+00  0.59550953527E+03  0.18851767872E+04  0.17886475092E+04 0.  0.
        5    1    3    3  502    0 -0.80801298094E+03 -0.11238122272E+03  0.68397084994E+03  0.10645904049E+04  0.46999998093E+01 0. -1.
       -5    1    3    3    0  502  0.80801298094E+03  0.11238122272E+03 -0.88461314668E+02  0.82058638228E+03  0.46999998093E+01 0.  1.
</event>
<event>
 5   0  0.1330125E-04  0.1816577E+04  0.7818609E-02  0.8697534E-01
        3   -1    0    0  501    0  0.00000000000E+00  0.00000000000E+00  0.85504156200E+03  0.85504156796E+03  0.10100000352E+00 0.  1.
       -3   -1    0    0    0  501  0.00000000000E+00  0.00000000000E+00 -0.96485099085E+03  0.96485099614E+03  0.10100000352E+00 0. -1.
    10030    2    1    2    0    0  0.00000000000E+00  0.00000000000E+00 -0.10980942885E+03  0.18198925641E+04  0.18165766800E+04 0.  0.
        2    1    3    3  502    0 -0.80634670572E+03 -0.41802860392E+03 -0.48200338374E+02  0.90954175064E+03  0.25500000920E-02 0. -1.
       -2    1    3    3    0  502  0.80634670572E+03  0.41802860392E+03 -0.61609090481E+02  0.91035081346E+03  0.25500000920E-02 0.  1.
</event>
<event>
 5   0  0.3628581E-04  0.1816849E+04  0.7818609E-02  0.8697390E-01
       -2   -1    0    0    0  501  0.00000000000E+00  0.00000000000E+00  0.49098043295E+03  0.49098043296E+03  0.25500000920E-02 0. -1.
        2   -1    0    0  501    0  0.00000000000E+00  0.00000000000E+00 -0.16807906278E+04  0.16807906278E+04  0.25500000920E-02 0.  1.
    10030    2    1    2    0    0  0.00000000000E+00  0.00000000000E+00 -0.11898101948E+04  0.21717710607E+04  0.18168492619E+04 0.  0.
        2    1    3    3  502    0  0.33105017705E+03  0.23888387296E+02 -0.16057151589E+04  0.16396603448E+04  0.25500000920E-02 0.  1.
       -2    1    3    3    0  502 -0.33105017705E+03 -0.23888387296E+02  0.41590496413E+03  0.53211071589E+03  0.25500000920E-02 0. -1.
</event>
<event>
 5   0  0.3628581E-04  0.1794806E+04  0.7818609E-02  0.8709067E-01
        2   -1    0    0  501    0  0.00000000000E+00  0.00000000000E+00  0.16212307048E+04  0.16212307048E+04  0.25500000920E-02 0. -1.
       -2   -1    0    0    0  501  0.00000000000E+00  0.00000000000E+00 -0.49674117049E+03  0.49674117049E+03  0.25500000920E-02 0.  1.
    10030    2    1    2    0    0  0.00000000000E+00  0.00000000000E+00  0.11244895343E+04  0.21179718752E+04  0.17948058813E+04 0.  0.
        2    1    3    3  502    0 -0.26512648209E+03 -0.46720191312E+02  0.15724564513E+04  0.15953351118E+04  0.25500000920E-02 0. -1.
       -2    1    3    3    0  502  0.26512648209E+03  0.46720191312E+02 -0.44796691700E+03  0.52263676346E+03  0.25500000920E-02 0.  1.
</event>
<event>
 5   0  0.3575091E-04  0.1784702E+04  0.7818609E-02  0.8714477E-01
       -2   -1    0    0    0  501  0.00000000000E+00  0.00000000000E+00  0.11300260531E+04  0.11300260531E+04  0.25500000920E-02 0.  1.
        2   -1    0    0  501    0  0.00000000000E+00  0.00000000000E+00 -0.70466523235E+03  0.70466523235E+03  0.25500000920E-02 0. -1.
    10030    2    1    2    0    0  0.00000000000E+00  0.00000000000E+00  0.42536082074E+03  0.18346912854E+04  0.17847017356E+04 0.  0.
        5    1    3    3  502    0  0.69424210208E+03  0.98963968205E+01 -0.36355377992E+03  0.78374962575E+03  0.46999998093E+01 0. -1.
       -5    1    3    3    0  502 -0.69424210208E+03 -0.98963968205E+01  0.78891460065E+03  0.10509416597E+04  0.46999998093E+01 0.  1.
</event>
<event>
 5   0  0.3568870E-04  0.1749180E+04  0.7818609E-02  0.8733802E-01
        2   -1    0    0  501    0  0.00000000000E+00  0.00000000000E+00  0.17057749023E+04  0.17057749023E+04  0.25500000920E-02 0.  1.
       -2   -1    0    0    0  501  0.00000000000E+00  0.00000000000E+00 -0.44842232786E+03  0.44842232787E+03  0.25500000920E-02 0. -1.
    10030    2    1    2    0    0  0.00000000000E+00  0.00000000000E+00  0.12573525744E+04  0.21541972302E+04  0.17491798678E+04 0.  0.
        1    1    3    3  502    0 -0.29212191011E+03 -0.79632132777E+03  0.89121451053E+03  0.12303357961E+04  0.50400001928E-02 0.  1.
       -1    1    3    3    0  502  0.29212191011E+03  0.79632132777E+03  0.36613806389E+03  0.92386143403E+03  0.50400001928E-02 0. -1.
</event>
<event>
 5   0  0.3628581E-04  0.1685228E+04  0.7818609E-02  0.8769835E-01
        2   -1    0    0  501    0  0.00000000000E+00  0.00000000000E+00  0.27026463821E+04  0.27026463821E+04  0.25500000920E-02 0.  1.
       -2   -1    0    0    0  501  0.00000000000E+00  0.00000000000E+00 -0.26270484231E+03  0.26270484233E+03  0.25500000920E-02 0. -1.
    10030    2    1    2    0    0  0.00000000000E+00  0.00000000000E+00  0.24399415398E+04  0.29653512245E+04  0.16852279272E+04 0.  0.
        2    1    3    3  502    0 -0.23081575376E+03 -0.20358914144E+03 -0.16026004037E+03  0.34699817181E+03  0.25500000920E-02 0. -1.
       -2    1    3    3    0  502  0.23081575376E+03  0.20358914144E+03  0.26002015802E+04  0.26183530526E+04  0.25500000920E-02 0.  1.
</event>
<event>
 5   0  0.3568870E-04  0.1803880E+04  0.7818609E-02  0.8704239E-01
       -2   -1    0    0    0  501  0.00000000000E+00  0.00000000000E+00  0.88083967501E+03  0.88083967502E+03  0.25500000920E-02 0.  1.
        2   -1    0    0  501    0  0.00000000000E+00  0.00000000000E+00 -0.92354581021E+03  0.92354581022E+03  0.25500000920E-02 0. -1.
    10030    2    1    2    0    0  0.00000000000E+00  0.00000000000E+00 -0.42706135201E+02  0.18043854852E+04  0.18038800307E+04 0.  0.
        1    1    3    3  502    0  0.44525315672E+03  0.14572086821E+03  0.74958388276E+03  0.88394623271E+03  0.50400001928E-02 0.  1.
       -1    1    3    3    0  502 -0.44525315672E+03 -0.14572086821E+03 -0.79229001796E+03  0.92043925252E+03  0.50400001928E-02 0. -1.
</event>
<event>
 5   0  0.1825253E-04  0.1806185E+04  0.7818609E-02  0.8703018E-01
       -1   -1    0    0    0  501  0.00000000000E+00  0.00000000000E+00  0.89327815147E+03  0.89327815149E+03  0.50400001928E-02 0. -1.
        1   -1    0    0  501    0  0.00000000000E+00  0.00000000000E+00 -0.91301420211E+03  0.91301420213E+03  0.50400001928E-02 0.  1.
    10030    2    1    2    0    0  0.00000000000E+00  0.00000000000E+00 -0.19736050640E+02  0.18062923536E+04  0.18061845296E+04 0.  0.
        4    1    3    3  502    0 -0.19107416625E+03  0.59256550545E+03 -0.66407128471E+03  0.91029418285E+03  0.12699999809E+01 0.  1.
       -4    1    3    3    0  502  0.19107416625E+03 -0.59256550545E+03  0.64433523407E+03  0.89599817077E+03  0.12699999809E+01 0. -1.
</event>
<event>
 5   0  0.1825253E-04  0.1677953E+04  0.7818609E-02  0.8774040E-01
       -1   -1    0    0    0  501  0.00000000000E+00  0.00000000000E+00  0.50022967299E+03  0.50022967302E+03  0.50400001928E-02 0. -1.
        1   -1    0    0  501    0  0.00000000000E+00  0.00000000000E+00 -0.14071162620E+04  0.14071162620E+04  0.50400001928E-02 0.  1.
    10030    2    1    2    0    0  0.00000000000E+00  0.00000000000E+00 -0.90688658900E+03  0.19073459350E+04  0.16779526902E+04 0.  0.
        4    1    3    3  502    0 -0.22176109243E+03 -0.59964808546E+03 -0.10709645870E+04  0.12472860810E+04  0.12699999809E+01 0.  1.
       -4    1    3    3    0  502  0.22176109243E+03  0.59964808546E+03  0.16407799797E+03  0.66005985398E+03  0.12699999809E+01 0. -1.
</event>
<event>
 5   0  0.1825253E-04  0.1834237E+04  0.7818609E-02  0.8688301E-01
        1   -1    0    0  501    0  0.00000000000E+00  0.00000000000E+00  0.10384276320E+04  0.10384276320E+04  0.50400001928E-02 0.  1.
       -1   -1    0    0    0  501  0.00000000000E+00  0.00000000000E+00 -0.80998100078E+03  0.80998100080E+03  0.50400001928E-02 0. -1.
    10030    2    1    2    0    0  0.00000000000E+00  0.00000000000E+00  0.22844663119E+03  0.18484086328E+04  0.18342373375E+04 0.  0.
        4    1    3    3  502    0  0.47310130401E+03 -0.76424046018E+03 -0.69439313922E+02  0.90150527233E+03  0.12699999809E+01 0. -1.
       -4    1    3    3    0  502 -0.47310130401E+03  0.76424046018E+03  0.29788594511E+03  0.94690336044E+03  0.12699999809E+01 0.  1.
</event>
<event>
 5   0  0.3582186E-04  0.1783167E+04  0.7818609E-02  0.8715302E-01
       -2   -1    0    0    0  501  0.00000000000E+00  0.00000000000E+00  0.94660251429E+03  0.94660251429E+03  0.25500000920E-02 0. -1.
        2   -1    0    0  501    0  0.00000000000E+00  0.00000000000E+00 -0.83976279923E+03  0.83976279923E+03  0.25500000920E-02 0.  1.
    10030    2    1    2    0    0  0.00000000000E+00  0.00000000000E+00  0.10683971506E+03  0.17863653135E+04  0.17831674932E+04 0.  0.
        4    1    3    3  502    0 -0.28089158045E+03  0.46543414251E+03  0.76136314759E+03  0.93552363753E+03  0.12699999809E+01 0. -1.
       -4    1    3    3    0  502  0.28089158045E+03 -0.46543414251E+03 -0.65452343253E+03  0.85084167599E+03  0.12699999809E+01 0.  1.
</event>
<event>
 5   0  0.1883959E-04  0.1655030E+04  0.7818609E-02  0.8787437E-01
       -1   -1    0    0    0  501  0.00000000000E+00  0.00000000000E+00  0.93265240848E+03  0.93265240849E+03  0.50400001928E-02 0.  1.
        1   -1    0    0  501    0  0.00000000000E+00  0.00000000000E+00 -0.73422933666E+03  0.73422933668E+03  0.50400001928E-02 0. -1.
    10030    2    1    2    0    0  0.00000000000E+00  0.00000000000E+00  0.19842307182E+03  0.16668817452E+04  0.16550296182E+04 0.  0.
        5    1    3    3  502    0 -0.31877886636E+03 -0.34289863597E+02  0.86753955858E+03  0.92490147371E+03  0.46999998093E+01 0.  1.
       -5    1    3    3    0  502  0.31877886636E+03  0.34289863597E+02 -0.66911648676E+03  0.74198027146E+03  0.46999998093E+01 0. -1.
</event>
<event>
 5   0  0.1835421E-04  0.1794587E+04  0.7818609E-02  0.8709184E-01
       -1   -1    0    0    0  501  0.00000000000E+00  0.00000000000E+00  0.28719625018E+03  0.28719625022E+03  0.50400001928E-02 0.  1.
        1   -1    0    0  501    0  0.00000000000E+00  0.00000000000E+00 -0.28034322848E+04  0.28034322848E+04  0.50400001928E-02 0. -1.
    10030    2    1    2    0    0  0.00000000000E+00  0.00000000000E+00 -0.25162360346E+04  0.30906285351E+04  0.17945865707E+04 0.  0.
        2    1    3    3  502    0 -0.11319225413E+01  0.41830105873E+03 -0.26252397482E+04  0.26583567842E+04  0.25500000920E-02 0. -1.
       -2    1    3    3    0  502  0.11319225413E+01 -0.41830105873E+03  0.10900371351E+03  0.43227175082E+03  0.25500000920E-02 0.  1.
</event>
<event>
 5   0  0.1825253E-04  0.1806659E+04  0.7818609E-02  0.8702766E-01
        1   -1    0    0  501    0  0.00000000000E+00  0.00000000000E+00  0.13009565426E+04  0.13009565426E+04  0.50400001928E-02 0.  1.
       -1   -1    0    0    0  501  0.00000000000E+00  0.00000000000E+00 -0.62723399734E+03  0.62723399736E+03  0.50400001928E-02 0. -1.
    10030    2    1    2    0    0  0.00000000000E+00  0.00000000000E+00  0.67372254530E+03  0.19281905400E+04  0.18066589857E+04 0.  0.
        4    1    3    3  502    0  0.22480198830E+03  0.52426099458E+03  0.10844195840E+04  0.12252970951E+04  0.12699999809E+01 0.  1.
       -4    1    3    3    0  502 -0.22480198830E+03 -0.52426099458E+03 -0.41069703865E+03  0.70289344487E+03  0.12699999809E+01 0. -1.
</event>
<event>
 5   0  0.1825253E-04  0.1800560E+04  0.7818609E-02  0.8706002E-01
       -1   -1    0    0    0  501  0.00000000000E+00  0.00000000000E+00  0.63167567427E+03  0.63167567429E+03  0.50400001928E-02 0. -1.
        1   -1    0    0  501    0  0.00000000000E+00  0.00000000000E+00 -0.12831012308E+04  0.12831012308E+04  0.50400001928E-02 0.  1.
    10030    2    1    2    0    0  0.00000000000E+00  0.00000000000E+00 -0.65142555648E+03  0.19147769051E+04  0.18005597298E+04 0.  0.
        4    1    3    3  502    0 -0.62371647589E+03 -0.53290312460E+03 -0.72003649607E+03  0.10915411816E+04  0.12699999809E+01 0.  1.
       -4    1    3    3    0  502  0.62371647589E+03  0.53290312460E+03  0.68610939583E+02  0.82323572349E+03  0.12699999809E+01 0. -1.
</event>
<event>
 5   0  0.3531266E-04  0.1670634E+04  0.7818609E-02  0.8778293E-01
       -2   -1    0    0    0  501  0.00000000000E+00  0.00000000000E+00  0.51298306033E+03  0.51298306033E+03  0.25500000920E-02 0.  1.
        2   -1    0    0  501    0  0.00000000000E+00  0.00000000000E+00 -0.13601893952E+04  0.13601893952E+04  0.25500000920E-02 0. -1.
    10030    2    1    2    0    0  0.00000000000E+00  0.00000000000E+00 -0.84720633486E+03  0.18731724555E+04  0.16706335548E+04 0.  0.
        3    1    3    3  502    0  0.19407145541E+03 -0.81140331480E+03 -0.37716943432E+03  0.91558498320E+03  0.10100000352E+00 0.  1.
       -3    1    3    3    0  502 -0.19407145541E+03  0.81140331480E+03 -0.47003690054E+03  0.95758747232E+03  0.10100000352E+00 0. -1.
</event>
<event>
 5   0  0.1835421E-04  0.1788073E+04  0.7818609E-02  0.8712668E-01
       -1   -1    0    0    0  501  0.00000000000E+00  0.00000000000E+00  0.35603994143E+03  0.35603994146E+03  0.50400001928E-02 0.  1.
        1   -1    0    0  501    0  0.00000000000E+00  0.00000000000E+00 -0.22449776110E+04  0.22449776110E+04  0.50400001928E-02 0. -1.
    10030    2    1    2    0    0  0.00000000000E+00  0.00000000000E+00 -0.18889376696E+04  0.26010175525E+04  0.17880734853E+04 0.  0.
        2    1    3    3  502    0 -0.36072476782E+03 -0.59676765027E+03 -0.17583540997E+04  0.18915768888E+04  0.25500000920E-02 0. -1.
       -2    1    3    3    0  502  0.36072476782E+03  0.59676765027E+03 -0.13058356994E+03  0.70944066368E+03  0.25500000920E-02 0.  1.
</event>
<event>
 5   0  0.3531266E-04  0.1389168E+04  0.7818609E-02  0.8961697E-01
       -2   -1    0    0    0  501  0.00000000000E+00  0.00000000000E+00  0.30766070352E+03  0.30766070353E+03  0.25500000920E-02 0.  1.
        2   -1    0    0  501    0  0.00000000000E+00  0.00000000000E+00 -0.15681135702E+04  0.15681135702E+04  0.25500000920E-02 0. -1.
    10030    2    1    2    0    0  0.00000000000E+00  0.00000000000E+00 -0.12604528666E+04  0.18757742737E+04  0.13891679873E+04 0.  0.
        3    1    3    3  502    0 -0.59184691568E+03 -0.32304586875E+03 -0.40506643641E+03  0.78658771477E+03  0.10100000352E+00 0.  1.
       -3    1    3    3    0  502  0.59184691568E+03  0.32304586875E+03 -0.85538643022E+03  0.10891865589E+04  0.10100000352E+00 0. -1.
</event>
<event>
 5   0  0.1883959E-04  0.1804936E+04  0.7818609E-02  0.8703679E-01
        1   -1    0    0  501    0  0.00000000000E+00  0.00000000000E+00  0.72076105115E+03  0.72076105117E+03  0.50400001928E-02 0. -1.
       -1   -1    0    0    0  501  0.00000000000E+00  0.00000000000E+00 -0.11299836359E+04  0.11299836359E+04  0.50400001928E-02 0.  1.
    10030    2    1    2    0    0  0.00000000000E+00  0.00000000000E+00 -0.40922258474E+03  0.18507446871E+04  0.18049356700E+04 0.  0.
        5    1    3    3  502    0 -0.49031160973E+03 -0.59469797137E+03  0.27672232012E+03  0.81894351713E+03  0.46999998093E+01 0.  1.
       -5    1    3    3    0  502  0.49031160973E+03  0.59469797137E+03 -0.68594490486E+03  0.10318011699E+04  0.46999998093E+01 0. -1.
</event>
<event>
 5   0  0.3531266E-04  0.1781285E+04  0.7818609E-02  0.8716316E-01
        2   -1    0    0  501    0  0.00000000000E+00  0.00000000000E+00  0.70135006288E+03  0.70135006288E+03  0.25500000920E-02 0. -1.
       -2   -1    0    0    0  501  0.00000000000E+00  0.00000000000E+00 -0.11310248274E+04  0.11310248274E+04  0.25500000920E-02 0.  1.
    10030    2    1    2    0    0  0.00000000000E+00  0.00000000000E+00 -0.42967476449E+03  0.18323748903E+04  0.17812853043E+04 0.  0.
        3    1    3    3  502    0 -0.55342329251E+03  0.68761875802E+03 -0.92482988245E+02  0.88749648472E+03  0.10100000352E+00 0. -1.
       -3    1    3    3    0  502  0.55342329251E+03 -0.68761875802E+03 -0.33719177625E+03  0.94487840554E+03  0.10100000352E+00 0.  1.
</event>
<event>
 5   0  0.1837313E-04  0.1789319E+04  0.7818609E-02  0.8712000E-01
        1   -1    0    0  501    0  0.00000000000E+00  0.00000000000E+00  0.11262775038E+04  0.11262775038E+04  0.50400001928E-02 0.  1.
       -1   -1    0    0    0  501  0.00000000000E+00  0.00000000000E+00 -0.71067346025E+03  0.71067346027E+03  0.50400001928E-02 0. -1.
    10030    2    1    2    0    0  0.00000000000E+00  0.00000000000E+00  0.41560404350E+03  0.18369509640E+04  0.17893188993E+04 0.  0.
        1    1    3    3  502    0  0.16652631986E+03  0.23615536350E+03  0.10770500140E+04  0.11151399480E+04  0.50400001928E-02 0.  1.
       -1    1    3    3    0  502 -0.16652631986E+03 -0.23615536350E+03 -0.66144597052E+03  0.72181101602E+03  0.50400001928E-02 0. -1.
</event>
<event>
 5   0  0.1883959E-04  0.1767465E+04  0.7818609E-02  0.8723795E-01
       -1   -1    0    0    0  501  0.00000000000E+00  0.00000000000E+00  0.73516820623E+03  0.73516820625E+03  0.50400001928E-02 0. -1.
        1   -1    0    0  501    0  0.00000000000E+00  0.00000000000E+00 -0.10623188142E+04  0.10623188142E+04  0.50400001928E-02 0.  1.
    10030    2    1    2    0    0  0.00000000000E+00  0.00000000000E+00 -0.32715060795E+03  0.17974870204E+04  0.17674648705E+04 0.  0.
        5    1    3    3  502    0  0.64677088080E+02 -0.24879060316E+03 -0.10234434505E+04  0.10552433256E+04  0.46999998093E+01 0.  1.
       -5    1    3    3    0  502 -0.64677088080E+02  0.24879060316E+03  0.69629284253E+03  0.74224369482E+03  0.46999998093E+01 0. -1.
</event>
<event>
 5   0  0.3531266E-04  0.1801727E+04  0.7818609E-02  0.8705382E-01
       -2   -1    0    0    0  501  0.00000000000E+00  0.00000000000E+00  0.69904384382E+03  0.69904384383E+03  0.25500000920E-02 0.  1.
        2   -1    0    0  501    0  0.00000000000E+00  0.00000000000E+00 -0.11609501321E+04  0.11609501321E+04  0.25500000920E-02 0. -1.
    10030    2    1    2    0    0  0.00000000000E+00  0.00000000000E+00 -0.46190628831E+03  0.18599939760E+04  0.18017269969E+04 0.  0.
        3    1    3    3  502    0  0.63100611903E+03  0.99568453679E+02 -0.88668983613E+03  0.10928410108E+04  0.10100000352E+00 0. -1.
       -3    1    3    3    0  502 -0.63100611903E+03 -0.99568453679E+02  0.42478354782E+03  0.76715296514E+03  0.10100000352E+00 0.  1.
</event>
<event>
 5   0  0.1837313E-04  0.1806030E+04  0.7818609E-02  0.8703099E-01
       -1   -1    0    0    0  501  0.00000000000E+00  0.00000000000E+00  0.94579670479E+03  0.94579670480E+03  0.50400001928E-02 0.  1.
        1   -1    0    0  501    0  0.00000000000E+00  0.00000000000E+00 -0.86216882420E+03  0.86216882422E+03  0.50400001928E-02 0. -1.
    10030    2    1    2    0    0  0.00000000000E+00  0.00000000000E+00  0.83627880584E+02  0.18079655290E+04  0.18060303795E+04 0.  0.
        1    1    3    3  502    0 -0.63865663821E+03 -0.10840991710E+03 -0.58798767358E+03  0.87485113931E+03  0.50400001928E-02 0. -1.
       -1    1    3    3    0  502  0.63865663821E+03  0.10840991710E+03  0.67161555416E+03  0.93311438970E+03  0.50400001928E-02 0.  1.
</event>
<event>
 5   0  0.1835421E-04  0.1313443E+04  0.7818609E-02  0.9018972E-01
        1   -1    0    0  501    0  0.00000000000E+00  0.00000000000E+00  0.16327620158E+04  0.16327620158E+04  0.50400001928E-02 0. -1.
       -1   -1    0    0    0  501  0.00000000000E+00  0.00000000000E+00 -0.26414321078E+03  0.26414321083E+03  0.50400001928E-02 0.  1.
    10030    2    1    2    0    0  0.00000000000E+00  0.00000000000E+00  0.13686188050E+04  0.18969052267E+04  0.13134428063E+04 0.  0.
        2    1    3    3  502    0  0.41989684997E+03  0.28832677285E+03  0.12829872633E+04  0.13803992214E+04  0.25500000920E-02 0. -1.
       -2    1    3    3    0  502 -0.41989684997E+03 -0.28832677285E+03  0.85631541732E+02  0.51650600529E+03  0.25500000920E-02 0.  1.
</event>
<event>
 5   0  0.3628581E-04  0.1806502E+04  0.7818609E-02  0.8702850E-01
        2   -1    0    0  501    0  0.00000000000E+00  0.00000000000E+00  0.10541981180E+04  0.10541981180E+04  0.25500000920E-02 0.  1.
       -2   -1    0    0    0  501  0.00000000000E+00  0.00000000000E+00 -0.77391709013E+03  0.77391709013E+03  0.25500000920E-02 0. -1.
    10030    2    1    2    0    0  0.00000000000E+00  0.00000000000E+00  0.28028102787E+03  0.18281152081E+04  0.18065015249E+04 0.  0.
        2    1    3    3  502    0  0.20345269952E+03  0.31716950515E+03 -0.69057836015E+03  0.78669432911E+03  0.25500000920E-02 0. -1.
       -2    1    3    3    0  502 -0.20345269952E+03 -0.31716950515E+03  0.97085938802E+03  0.10414208790E+04  0.25500000920E-02 0.  1.
</event>
<event>
 5   0  0.3628581E-04  0.1813991E+04  0.7818609E-02  0.8698895E-01
        2   -1    0    0  501    0  0.00000000000E+00  0.00000000000E+00  0.84313569046E+03  0.84313569047E+03  0.25500000920E-02 0. -1.
       -2   -1    0    0    0  501  0.00000000000E+00  0.00000000000E+00 -0.97569192646E+03  0.97569192646E+03  0.25500000920E-02 0.  1.
    10030    2    1    2    0    0  0.00000000000E+00  0.00000000000E+00 -0.13255623599E+03  0.18188276169E+04  0.18139908336E+04 0.  0.
        2    1    3    3  502    0 -0.51028870320E+03 -0.74371881946E+03  0.29519521339E+02  0.90243207234E+03  0.25500000920E-02 0.  1.
       -2    1    3    3    0  502  0.51028870320E+03  0.74371881946E+03 -0.16207575733E+03  0.91639554460E+03  0.25500000920E-02 0. -1.
</event>
<event>
 5   0  0.3582186E-04  0.1815492E+04  0.7818609E-02  0.8698104E-01
       -2   -1    0    0    0  501  0.00000000000E+00  0.00000000000E+00  0.51587392998E+03  0.51587392998E+03  0.25500000920E-02 0. -1.
        2   -1    0    0  501    0  0.00000000000E+00  0.00000000000E+00 -0.15972952970E+04  0.15972952970E+04  0.25500000920E-02 0.  1.
    10030    2    1    2    0    0  0.00000000000E+00  0.00000000000E+00 -0.10814213670E+04  0.21131692270E+04  0.18154922222E+04 0.  0.
        4    1    3    3  502    0  0.15707161815E+03  0.89309260478E+03 -0.49250095815E+03  0.10319131265E+04  0.12699999809E+01 0. -1.
       -4    1    3    3    0  502 -0.15707161815E+03 -0.89309260478E+03 -0.58892040886E+03  0.10812561005E+04  0.12699999809E+01 0.  1.
</event>
<event>
 5   0  0.3568870E-04  0.1798943E+04  0.7818609E-02  0.8706862E-01
       -2   -1    0    0    0  501  0.00000000000E+00  0.00000000000E+00  0.79848576744E+03  0.79848576745E+03  0.25500000920E-02 0.  1.
        2   -1    0    0  501    0  0.00000000000E+00  0.00000000000E+00 -0.10132291736E+04  0.10132291736E+04  0.25500000920E-02 0. -1.
    10030    2    1    2    0    0  0.00000000000E+00  0.00000000000E+00 -0.21474340613E+03  0.18117149410E+04  0.17989431056E+04 0.  0.
        1    1    3    3  502    0  0.47194686630E+01 -0.38417772115E+03  0.71168842897E+03  0.80877389594E+03  0.50400001928E-02 0.  1.
       -1    1    3    3    0  502 -0.47194686630E+01  0.38417772115E+03 -0.92643183509E+03  0.10029410451E+04  0.50400001928E-02 0. -1.
</event>
<event>
 5   0  0.3575091E-04  0.1797228E+04  0.7818609E-02  0.8707775E-01
        2   -1    0    0  501    0  0.00000000000E+00  0.00000000000E+00  0.12147969077E+04  0.12147969077E+04  0.25500000920E-02 0.  1.
       -2   -1    0    0    0  501  0.00000000000E+00  0.00000000000E+00 -0.66472591993E+03  0.66472591993E+03  0.25500000920E-02 0. -1.
    10030    2    1    2    0    0  0.00000000000E+00  0.00000000000E+00  0.55007098774E+03  0.18795228276E+04  0.17972278564E+04 0.  0.
        5    1    3    3  502    0  0.35444024219E+03 -0.82549483055E+03  0.29634759036E+03  0.94599872350E+03  0.46999998093E+01 0.  1.
       -5    1    3    3    0  502 -0.35444024219E+03  0.82549483055E+03  0.25372339737E+03  0.93352410410E+03  0.46999998093E+01 0. -1.
</event>
<event>
 5   0  0.3628581E-04  0.1786927E+04  0.7818609E-02  0.8713283E-01
       -2   -1    0    0    0  501  0.00000000000E+00  0.00000000000E+00  0.12650067665E+04  0.12650067665E+04  0.25500000920E-02 0.  1.
        2   -1    0    0  501    0  0.00000000000E+00  0.00000000000E+00 -0.63104549205E+03  0.63104549206E+03  0.25500000920E-02 0. -1.
    10030    2    1    2    0    0  0.00000000000E+00  0.00000000000E+00  0.63396127440E+03  0.18960522585E+04  0.17869267667E+04 0.  0.
        2    1    3    3  502    0  0.28769799449E+03  0.12984760635E+03  0.12038756738E+04  0.12445670633E+04  0.25500000920E-02 0.  1.
       -2    1    3    3    0  502 -0.28769799449E+03 -0.12984760635E+03 -0.56991439945E+03  0.65148519524E+03  0.25500000920E-02 0. -1.
</event>
<event>
 5   0  0.3568870E-04  0.1818441E+04  0.7818609E-02  0.8696554E-01
       -2   -1    0    0    0  501  0.00000000000E+00  0.00000000000E+00  0.84663400104E+03  0.84663400104E+03  0.25500000920E-02 0.  1.
        2   -1    0    0  501    0  0.00000000000E+00  0.00000000000E+00 -0.97643349526E+03  0.97643349526E+03  0.25500000920E-02 0. -1.
    10030    2    1    2    0    0  0.00000000000E+00  0.00000000000E+00 -0.12979949422E+03  0.18230674963E+04  0.18184408672E+04 0.  0.
        1    1    3    3  502    0  0.63025268680E+03 -0.44429350809E+03 -0.54785835311E+03  0.94591962960E+03  0.50400001928E-02 0. -1.
       -1    1    3    3    0  502 -0.63025268680E+03  0.44429350809E+03  0.41805885889E+03  0.87714786671E+03  0.50400001928E-02 0.  1.
</event>
<event>
 5   0  0.1330125E-04  0.2053316E+04  0.7818609E-02  0.8582092E-01
        3   -1    0    0  501    0  0.00000000000E+00  0.00000000000E+00  0.15294931624E+04  0.15294931657E+04  0.10100000352E+00 0. -1.
       -3   -1    0    0    0  501  0.00000000000E+00  0.00000000000E+00 -0.68913449058E+03  0.68913449798E+03  0.10100000352E+00 0.  1.
    10030    2    1    2    0    0  0.00000000000E+00  0.00000000000E+00  0.84035867182E+03  0.22186276637E+04  0.20533158580E+04 0.  0.
        4    1    3    3  502    0  0.64971168304E+03  0.54199059697E+03 -0.20814035323E+03  0.87132261409E+03  0.12699999809E+01 0.  1.
       -4    1    3    3    0  502 -0.64971168304E+03 -0.54199059697E+03  0.10484990251E+04  0.13473050496E+04  0.12699999809E+01 0. -1.
</event>
<event>
 5   0  0.1330125E-04  0.1809080E+04  0.7818609E-02  0.8701486E-01
        3   -1    0    0  501    0  0.00000000000E+00  0.00000000000E+00  0.85499580778E+03  0.85499581374E+03  0.10100000352E+00 0.  1.
       -3   -1    0    0    0  501  0.00000000000E+00  0.00000000000E+00 -0.95695491642E+03  0.95695492175E+03  0.10100000352E+00 0. -1.
    10030    2    1    2    0    0  0.00000000000E+00  0.00000000000E+00 -0.10195910864E+03  0.18119507355E+04  0.18090798236E+04 0.  0.
        4    1    3    3  502    0  0.10612471145E+02  0.68405950512E+03 -0.64364556388E+03  0.93932489368E+03  0.12699999809E+01 0. -1.
       -4    1    3    3    0  502 -0.10612471145E+02 -0.68405950512E+03  0.54168645524E+03  0.87262584181E+03  0.12699999809E+01 0.  1.
</event>
<event>
 5   0  0.1818778E-04  0.1845582E+04  0.7818609E-02  0.8682428E-01
       -1   -1    0    0    0  501  0.00000000000E+00  0.00000000000E+00  0.10805815647E+04  0.10805815647E+04  0.50400001928E-02 0. -1.
        1   -1    0    0  501    0  0.00000000000E+00  0.00000000000E+00 -0.78804151267E+03  0.78804151269E+03  0.50400001928E-02 0.  1.
    10030    2    1    2    0    0  0.00000000000E+00  0.00000000000E+00  0.29254005205E+03  0.18686230774E+04  0.18455818929E+04 0.  0.
        3    1    3    3  502    0 -0.34630546065E+03 -0.80474752430E+03 -0.14717074685E+03  0.88837226931E+03  0.10100000352E+00 0.  1.
       -3    1    3    3    0  502  0.34630546065E+03  0.80474752430E+03  0.43971079889E+03  0.98025080811E+03  0.10100000352E+00 0. -1.
</event>
<event>
 5   0  0.3575091E-04  0.1762045E+04  0.7818609E-02  0.8726748E-01
        2   -1    0    0  501    0  0.00000000000E+00  0.00000000000E+00  0.19926707106E+04  0.19926707106E+04  0.25500000920E-02 0.  1.
       -2   -1    0    0    0  501  0.00000000000E+00  0.00000000000E+00 -0.38952788857E+03  0.38952788858E+03  0.25500000920E-02 0. -1.
    10030    2    1    2    0    0  0.00000000000E+00  0.00000000000E+00  0.16031428220E+04  0.23821985992E+04  0.17620451918E+04 0.  0.
        5    1    3    3  502    0 -0.84562816693E+03  0.60088847399E+02  0.47743837302E+03  0.97296821958E+03  0.46999998093E+01 0. -1.
       -5    1    3    3    0  502  0.84562816693E+03 -0.60088847399E+02  0.11257044490E+04  0.14092303796E+04  0.46999998093E+01 0.  1.
</event>
<event>
 5   0  0.1825253E-04  0.1798480E+04  0.7818609E-02  0.8707108E-01
       -1   -1    0    0    0  501  0.00000000000E+00  0.00000000000E+00  0.80085994453E+03  0.80085994455E+03  0.50400001928E-02 0. -1.
        1   -1    0    0  501    0  0.00000000000E+00  0.00000000000E+00 -0.10097049058E+04  0.10097049058E+04  0.50400001928E-02 0.  1.
    10030    2    1    2    0    0  0.00000000000E+00  0.00000000000E+00 -0.20884496128E+03  0.18105648504E+04  0.17984795967E+04 0.  0.
        4    1    3    3  502    0 -0.17375667529E+03  0.34998844723E+03 -0.91977054824E+03  0.99933116118E+03  0.12699999809E+01 0.  1.
       -4    1    3    3    0  502  0.17375667529E+03 -0.34998844723E+03  0.71092558695E+03  0.81123368920E+03  0.12699999809E+01 0. -1.
</event>
<event>
 5   0  0.3568870E-04  0.1791398E+04  0.7818609E-02  0.8710888E-01
        2   -1    0    0  501    0  0.00000000000E+00  0.00000000000E+00  0.63542448350E+03  0.63542448351E+03  0.25500000920E-02 0. -1.
       -2   -1    0    0    0  501  0.00000000000E+00  0.00000000000E+00 -0.12625832975E+04  0.12625832975E+04  0.25500000920E-02 0.  1.
    10030    2    1    2    0    0  0.00000000000E+00  0.00000000000E+00 -0.62715881397E+03  0.18980077810E+04  0.17913975993E+04 0.  0.
        1    1    3    3  502    0  0.87303674171E+03 -0.19865166092E+03 -0.28718277074E+03  0.94028164855E+03  0.50400001928E-02 0.  1.
       -1    1    3    3    0  502 -0.87303674171E+03  0.19865166092E+03 -0.33997604323E+03  0.95772613244E+03  0.50400001928E-02 0. -1.
</event>
<event>
 5   0  0.1330125E-04  0.1782977E+04  0.7818609E-02  0.8715405E-01
        3   -1    0    0  501    0  0.00000000000E+00  0.00000000000E+00  0.23191184112E+04  0.23191184134E+04  0.10100000352E+00 0. -1.
       -3   -1    0    0    0  501  0.00000000000E+00  0.00000000000E+00 -0.34269544217E+03  0.34269545706E+03  0.10100000352E+00 0.  1.
    10030    2    1    2    0    0  0.00000000000E+00  0.00000000000E+00  0.19764229690E+04  0.26618138705E+04  0.17829765362E+04 0.  0.
        5    1    3    3  502    0  0.49695170244E+03 -0.82550501075E+02  0.20862361312E+04  0.21462010309E+04  0.46999998093E+01 0. -1.
       -5    1    3    3    0  502 -0.49695170244E+03  0.82550501075E+02 -0.10981316215E+03  0.51561283961E+03  0.46999998093E+01 0.  1.
</event>
<event>
 5   0  0.3628581E-04  0.1781164E+04  0.7818609E-02  0.8716381E-01
       -2   -1    0    0    0  501  0.00000000000E+00  0.00000000000E+00  0.64736456422E+03  0.64736456423E+03  0.25500000920E-02 0. -1.
        2   -1    0    0  501    0  0.00000000000E+00  0.00000000000E+00 -0.12251770618E+04  0.12251770618E+04  0.25500000920E-02 0.  1.
    10030    2    1    2    0    0  0.00000000000E+00  0.00000000000E+00 -0.57781249757E+03  0.18725416260E+04  0.17811639057E+04 0.  0.
        2    1    3    3  502    0 -0.16140179208E+03 -0.36665084993E+03 -0.11251065557E+04  0.11942981813E+04  0.25500000920E-02 0.  1.
       -2    1    3    3    0  502  0.16140179208E+03  0.36665084993E+03  0.54729405812E+03  0.67824344471E+03  0.25500000920E-02 0. -1.
</event>
<event>
 5   0  0.1883959E-04  0.1916345E+04  0.7818609E-02  0.8646763E-01
        1   -1    0    0  501    0  0.00000000000E+00  0.00000000000E+00  0.21163806284E+04  0.21163806284E+04  0.50400001928E-02 0. -1.
       -1   -1    0    0    0  501  0.00000000000E+00  0.00000000000E+00 -0.43380397864E+03  0.43380397867E+03  0.50400001928E-02 0.  1.
    10030    2    1    2    0    0  0.00000000000E+00  0.00000000000E+00  0.16825766497E+04  0.25501846071E+04  0.19163447883E+04 0.  0.
        5    1    3    3  502    0 -0.26537036305E+03 -0.43454050868E+03 -0.23885932556E+03  0.56242577348E+03  0.46999998093E+01 0.  1.
       -5    1    3    3    0  502  0.26537036305E+03  0.43454050868E+03  0.19214359753E+04  0.19877588336E+04  0.46999998093E+01 0. -1.
</event>
<event>
 5   0  0.3582186E-04  0.1797661E+04  0.7818609E-02  0.8707544E-01
       -2   -1    0    0    0  501  0.00000000000E+00  0.00000000000E+00  0.11163954788E+04  0.11163954788E+04  0.25500000920E-02 0. -1.
        2   -1    0    0  501    0  0.00000000000E+00  0.00000000000E+00 -0.72366497284E+03  0.72366497284E+03  0.25500000920E-02 0.  1.
    10030    2    1    2    0    0  0.00000000000E+00  0.00000000000E+00  0.39273050595E+03  0.18400604516E+04  0.17976610402E+04 0.  0.
        4    1    3    3  502    0 -0.26323904959E+03 -0.72423984329E+03  0.66996212624E+03  0.10211116547E+04  0.12699999809E+01 0.  1.
       -4    1    3    3    0  502  0.26323904959E+03  0.72423984329E+03 -0.27723162029E+03  0.81894879695E+03  0.12699999809E+01 0. -1.
</event>
<event>
 5   0  0.3575091E-04  0.1389190E+04  0.7818609E-02  0.8961681E-01
       -2   -1    0    0    0  501  0.00000000000E+00  0.00000000000E+00  0.10481849566E+04  0.10481849566E+04  0.25500000920E-02 0. -1.
        2   -1    0    0  501    0  0.00000000000E+00  0.00000000000E+00 -0.46028362651E+03  0.46028362652E+03  0.25500000920E-02 0.  1.
    10030    2    1    2    0    0  0.00000000000E+00  0.00000000000E+00  0.58790133012E+03  0.15084685832E+04  0.13891902290E+04 0.  0.
        5    1    3    3  502    0  0.32678048584E+03  0.36738222122E+03  0.82667085031E+03  0.96185340210E+03  0.46999998093E+01 0. -1.
       -5    1    3    3    0  502 -0.32678048584E+03 -0.36738222122E+03 -0.23876952019E+03  0.54661518105E+03  0.46999998093E+01 0.  1.
</event>
<event>
 5   0  0.1825253E-04  0.1800249E+04  0.7818609E-02  0.8706167E-01
        1   -1    0    0  501    0  0.00000000000E+00  0.00000000000E+00  0.85013051471E+03  0.85013051473E+03  0.50400001928E-02 0. -1.
       -1   -1    0    0    0  501  0.00000000000E+00  0.00000000000E+00 -0.95305886879E+03  0.95305886880E+03  0.50400001928E-02 0.  1.
    10030    2    1    2    0    0  0.00000000000E+00  0.00000000000E+00 -0.10292835408E+03  0.18031893835E+04  0.18002493457E+04 0.  0.
        4    1    3    3  502    0 -0.82364760496E+03 -0.31019315489E+03  0.13754387032E+03  0.89080587091E+03  0.12699999809E+01 0. -1.
       -4    1    3    3    0  502  0.82364760496E+03  0.31019315489E+03 -0.24047222439E+03  0.91238351262E+03  0.12699999809E+01 0.  1.
</event>
<event>
 5   0  0.3568870E-04  0.1696377E+04  0.7818609E-02  0.8763434E-01
       -2   -1    0    0    0  501  0.00000000000E+00  0.00000000000E+00  0.82348281414E+03  0.82348281414E+03  0.25500000920E-02 0.  1.
        2   -1    0    0  501    0  0.00000000000E+00  0.00000000000E+00 -0.87363488099E+03  0.87363488100E+03  0.25500000920E-02 0. -1.
    10030    2    1    2    0    0  0.00000000000E+00  0.00000000000E+00 -0.50152066855E+02  0.16971176951E+04  0.16963765034E+04 0.  0.
        1    1    3    3  502    0  0.12099602463E+03 -0.76656352792E+03 -0.36751732203E+03  0.85867843942E+03  0.50400001928E-02 0. -1.
       -1    1    3    3    0  502 -0.12099602463E+03  0.76656352792E+03  0.31736525517E+03  0.83843925572E+03  0.50400001928E-02 0.  1.
</event>
<event>
 5   0  0.1883959E-04  0.1746554E+04  0.7818609E-02  0.8735249E-01
        1   -1    0    0  501    0  0.00000000000E+00  0.00000000000E+00  0.16352851961E+04  0.16352851961E+04  0.50400001928E-02 0. -1.
       -1   -1    0    0    0  501  0.00000000000E+00  0.00000000000E+00 -0.46634844050E+03  0.46634844053E+03  0.50400001928E-02 0.  1.
    10030    2    1    2    0    0  0.00000000000E+00  0.00000000000E+00  0.11689367556E+04  0.21016336367E+04  0.17465539797E+04 0.  0.
        5    1    3    3  502    0  0.50266751126E+03 -0.26948493147E+03  0.13801909645E+04  0.14934007981E+04  0.46999998093E+01 0. -1.
       -5    1    3    3    0  502 -0.50266751126E+03  0.26948493147E+03 -0.21125420889E+03  0.60823283859E+03  0.46999998093E+01 0.  1.
</event>
<event>
 5   0  0.1818778E-04  0.1783901E+04  0.7818609E-02  0.8714908E-01
        1   -1    0    0  501    0  0.00000000000E+00  0.00000000000E+00  0.19091352653E+04  0.19091352653E+04  0.50400001928E-02 0.  1.
       -1   -1    0    0    0  501  0.00000000000E+00  0.00000000000E+00 -0.41672052325E+03  0.41672052328E+03  0.50400001928E-02 0. -1.
    10030    2    1    2    0    0  0.00000000000E+00  0.00000000000E+00  0.14924147420E+04  0.23258557886E+04  0.17839011707E+04 0.  0.
        3    1    3    3  502    0  0.75224348725E+03 -0.19697734473E+03  0.13158745664E+04  0.15284620450E+04  0.10100000352E+00 0.  1.
       -3    1    3    3    0  502 -0.75224348725E+03  0.19697734473E+03  0.17654017568E+03  0.79739374356E+03  0.10100000352E+00 0. -1.
</event>
<event>
 5   0  0.1818778E-04  0.1806483E+04  0.7818609E-02  0.8702859E-01
       -1   -1    0    0    0  501  0.00000000000E+00  0.00000000000E+00  0.41673828141E+03  0.41673828144E+03  0.50400001928E-02 0. -1.
        1   -1    0    0  501    0  0.00000000000E+00  0.00000000000E+00 -0.19576926525E+04  0.19576926526E+04  0.50400001928E-02 0.  1.
    10030    2    1    2    0    0  0.00000000000E+00  0.00000000000E+00 -0.15409543711E+04  0.23744309340E+04  0.18064832926E+04 0.  0.
        3    1    3    3  502    0  0.10771183123E+03 -0.67757583655E+02 -0.19458516489E+04  0.19500080971E+04  0.10100000352E+00 0.  1.
       -3    1    3    3    0  502 -0.10771183123E+03  0.67757583655E+02  0.40489727781E+03  0.42442283693E+03  0.10100000352E+00 0. -1.
</event>
<event>
 5   0  0.1825253E-04  0.1811723E+04  0.7818609E-02  0.8700090E-01
       -1   -1    0    0    0  501  0.00000000000E+00  0.00000000000E+00  0.48808510781E+03  0.48808510784E+03  0.50400001928E-02 0.  1.
        1   -1    0    0  501    0  0.00000000000E+00  0.00000000000E+00 -0.16812333295E+04  0.16812333295E+04  0.50400001928E-02 0. -1.
    10030    2    1    2    0    0  0.00000000000E+00  0.00000000000E+00 -0.11931482216E+04  0.21693184373E+04  0.18117228827E+04 0.  0.
        4    1    3    3  502    0 -0.22283324528E+03  0.34364517971E+02 -0.16470975708E+04  0.16624582990E+04  0.12699999809E+01 0. -1.
       -4    1    3    3    0  502  0.22283324528E+03 -0.34364517971E+02  0.45394934915E+03  0.50686013830E+03  0.12699999809E+01 0.  1.
</event>
<event>
 5   0  0.3531266E-04  0.1784407E+04  0.7818609E-02  0.8714636E-01
       -2   -1    0    0    0  501  0.00000000000E+00  0.00000000000E+00  0.68064210172E+03  0.68064210172E+03  0.25500000920E-02 0.  1.
        2   -1    0    0  501    0  0.00000000000E+00  0.00000000000E+00 -0.11695236006E+04  0.11695236006E+04  0.25500000920E-02 0. -1.
    10030    2    1    2    0    0  0.00000000000E+00  0.00000000000E+00 -0.48888149890E+03  0.18501657023E+04  0.17844069060E+04 0.  0.
        3    1    3    3  502    0  0.78463054781E+02 -0.38272870260E+03 -0.10761157382E+04  0.11448418244E+04  0.10100000352E+00 0. -1.
       -3    1    3    3    0  502 -0.78463054781E+02  0.38272870260E+03  0.58723423930E+03  0.70532387792E+03  0.10100000352E+00 0.  1.
</event>
<event>
 5   0  0.1883959E-04  0.1813235E+04  0.7818609E-02  0.8699293E-01
       -1   -1    0    0    0  501  0.00000000000E+00  0.00000000000E+00  0.38175718625E+03  0.38175718628E+03  0.50400001928E-02 0. -1.
        1   -1    0    0  501    0  0.00000000000E+00  0.00000000000E+00 -0.21530848419E+04  0.21530848419E+04  0.50400001928E-02 0.  1.
    10030    2    1    2    0    0  0.00000000000E+00  0.00000000000E+00 -0.17713276557E+04  0.25348420282E+04  0.18132353527E+04 0.  0.
        5    1    3    3  502    0  0.74725450103E+03  0.16547737865E+03 -0.15650258137E+04  0.17421538221E+04  0.46999998093E+01 0.  1.
       -5    1    3    3    0  502 -0.74725450103E+03 -0.16547737865E+03 -0.20630184195E+03  0.79268820614E+03  0.46999998093E+01 0. -1.
</event>
<event>
 5   0  0.3531266E-04  0.1805905E+04  0.7818609E-02  0.8703165E-01
        2   -1    0    0  501    0  0.00000000000E+00  0.00000000000E+00  0.12347692718E+04  0.12347692718E+04  0.25500000920E-02 0.  1.
       -2   -1    0    0    0  501  0.00000000000E+00  0.00000000000E+00 -0.66030437083E+03  0.66030437083E+03  0.25500000920E-02 0. -1.
    10030    2    1    2    0    0  0.00000000000E+00  0.00000000000E+00  0.57446490098E+03  0.18950736426E+04  0.18059053653E+04 0.  0.
        3    1    3    3  502    0  0.31109182134E+03 -0.15605135651E+03  0.11615543168E+04  0.12125751887E+04  0.10100000352E+00 0.  1.
       -3    1    3    3    0  502 -0.31109182134E+03  0.15605135651E+03 -0.58708941585E+03  0.68249845391E+03  0.10100000352E+00 0. -1.
</event>
<event>
 5   0  0.3575091E-04  0.1855535E+04  0.7818609E-02  0.8677311E-01
        2   -1    0    0  501    0  0.00000000000E+00  0.00000000000E+00  0.17350184427E+04  0.17350184427E+04  0.25500000920E-02 0.  1.
       -2   -1    0    0    0  501  0.00000000000E+00  0.00000000000E+00 -0.49610595284E+03  0.49610595285E+03  0.25500000920E-02 0. -1.
    10030    2    1    2    0    0  0.00000000000E+00  0.00000000000E+00  0.12389124898E+04  0.22311243955E+04  0.18555354782E+04 0.  0.
        5    1    3    3  502    0  0.67261705262E+03 -0.20999068794E+03  0.13451227418E+04  0.15185147576E+04  0.46999998093E+01 0.  1.
       -5    1    3    3    0  502 -0.67261705262E+03  0.20999068794E+03 -0.10621025193E+03  0.71260963796E+03  0.46999998093E+01 0. -1.
</event>
<event>
 5   0  0.1835421E-04  0.1751532E+04  0.7818609E-02  0.8732507E-01
        1   -1    0    0  501    0  0.00000000000E+00  0.00000000000E+00  0.85210346282E+03  0.85210346283E+03  0.50400001928E-02 0. -1.
       -1   -1    0    0    0  501  0.00000000000E+00  0.00000000000E+00 -0.90008568432E+03  0.90008568434E+03  0.50400001928E-02 0.  1.
    10030    2    1    2    0    0  0.00000000000E+00  0.00000000000E+00 -0.47982221505E+02  0.17521891472E+04  0.17515320476E+04 0.  0.
        2    1    3    3  502    0  0.30455102754E+03  0.57011719262E+03 -0.61512834647E+03  0.89228236805E+03  0.25500000920E-02 0.  1.
       -2    1    3    3    0  502 -0.30455102754E+03 -0.57011719262E+03  0.56714612497E+03  0.85990677912E+03  0.25500000920E-02 0. -1.
</event>
<event>
 5   0  0.1825253E-04  0.1757120E+04  0.7818609E-02  0.8729441E-01
        1   -1    0    0  501    0  0.00000000000E+00  0.00000000000E+00  0.11420674662E+04  0.11420674662E+04  0.50400001928E-02 0. -1.
       -1   -1    0    0    0  501  0.00000000000E+00  0.00000000000E+00 -0.67585117707E+03  0.67585117709E+03  0.50400001928E-02 0.  1.
    10030    2    1    2    0    0  0.00000000000E+00  0.00000000000E+00  0.46621628911E+03  0.18179186433E+04  0.17571199633E+04 0.  0.
        4    1    3    3  502    0  0.54767915179E+03 -0.66061075133E+03  0.42806121698E+03  0.95895622239E+03  0.12699999809E+01 0.  1.
       -4    1    3    3    0  502 -0.54767915179E+03  0.66061075133E+03  0.38155072127E+02  0.85896242089E+03  0.12699999809E+01 0. -1.
</event>
<event>
 5   0  0.3628581E-04  0.1613488E+04  0.7818609E-02  0.8812304E-01
        2   -1    0    0  501    0  0.00000000000E+00  0.00000000000E+00  0.59361537264E+03  0.59361537264E+03  0.25500000920E-02 0. -1.
       -2   -1    0    0    0  501  0.00000000000E+00  0.00000000000E+00 -0.10963937500E+04  0.10963937500E+04  0.25500000920E-02 0.  1.
    10030    2    1    2    0    0  0.00000000000E+00  0.00000000000E+00 -0.50277837732E+03  0.16900091226E+04  0.16134883755E+04 0.  0.
        2    1    3    3  502    0 -0.54097441011E+03  0.59798623729E+03 -0.27694577504E+03  0.85260765578E+03  0.25500000920E-02 0. -1.
       -2    1    3    3    0  502  0.54097441011E+03 -0.59798623729E+03 -0.22583260228E+03  0.83740146682E+03  0.25500000920E-02 0.  1.
</event>
<event>
 5   0  0.3531266E-04  0.1789767E+04  0.7818609E-02  0.8711760E-01
       -2   -1    0    0    0  501  0.00000000000E+00  0.00000000000E+00  0.73048430304E+03  0.73048430305E+03  0.25500000920E-02 0.  1.
        2   -1    0    0  501    0  0.00000000000E+00  0.00000000000E+00 -0.10962813582E+04  0.10962813582E+04  0.25500000920E-02 0. -1.
    10030    2    1    2    0    0  0.00000000000E+00  0.00000000000E+00 -0.36579705512E+03  0.18267656612E+04  0.17897668271E+04 0.  0.
        3    1    3    3  502    0  0.88515725747E+03 -0.77876487975E+02 -0.29114850627E+03  0.93505913221E+03  0.10100000352E+00 0.  1.
       -3    1    3    3    0  502 -0.88515725747E+03  0.77876487975E+02 -0.74648548850E+02  0.89170652901E+03  0.10100000352E+00 0. -1.
</event>
<event>
 5   0  0.1837313E-04  0.1806665E+04  0.7818609E-02  0.8702763E-01
       -1   -1    0    0    0  501  0.00000000000E+00  0.00000000000E+00  0.13602129449E+04  0.13602129449E+04  0.50400001928E-02 0. -1.
        1   -1    0    0  501    0  0.00000000000E+00  0.00000000000E+00 -0.59991280323E+03  0.59991280325E+03  0.50400001928E-02 0.  1.
    10030    2    1    2    0    0  0.00000000000E+00  0.00000000000E+00  0.76030014169E+03  0.19601257482E+04  0.18066645076E+04 0.  0.
        1    1    3    3  502    0 -0.49031050654E+03 -0.74697496463E+03  0.23608071307E+03  0.92418076896E+03  0.50400001928E-02 0. -1.
       -1    1    3    3    0  502  0.49031050654E+03  0.74697496463E+03  0.52421942862E+03  0.10359449792E+04  0.50400001928E-02 0.  1.
</event>
<event>
 5   0  0.3575091E-04  0.1792767E+04  0.7818609E-02  0.8710156E-01
        2   -1    0    0  501    0  0.00000000000E+00  0.00000000000E+00  0.11426925993E+04  0.11426925993E+04  0.25500000920E-02 0. -1.
       -2   -1    0    0    0  501  0.00000000000E+00  0.00000000000E+00 -0.70316636589E+03  0.70316636590E+03  0.25500000920E-02 0.  1.
    10030    2    1    2    0    0  0.00000000000E+00  0.00000000000E+00  0.43952623342E+03  0.18458589652E+04  0.17927665798E+04 0.  0.
        5    1    3    3  502    0  0.31232411851E+03  0.80002539000E+03 -0.44537077217E+02  0.85999570981E+03  0.46999998093E+01 0. -1.
       -5    1    3    3    0  502 -0.31232411851E+03 -0.80002539000E+03  0.48406331063E+03  0.98586325540E+03  0.46999998093E+01 0.  1.
</event>
<event>
 5   0  0.1825253E-04  0.1801760E+04  0.7818609E-02  0.8705364E-01
        1   -1    0    0  501    0  0.00000000000E+00  0.00000000000E+00  0.76304837525E+03  0.76304837527E+03  0.50400001928E-02 0. -1.
       -1   -1    0    0    0  501  0.00000000000E+00  0.00000000000E+00 -0.10636087517E+04  0.10636087517E+04  0.50400001928E-02 0.  1.
    10030    2    1    2    0    0  0.00000000000E+00  0.00000000000E+00 -0.30056037640E+03  0.18266571269E+04  0.18017601726E+04 0.  0.
        4    1    3    3  502    0  0.64851297537E+03  0.19680442153E+02 -0.78391807434E+03  0.10175881088E+04  0.12699999809E+01 0.  1.
       -4    1    3    3    0  502 -0.64851297537E+03 -0.19680442153E+02  0.48335769794E+03  0.80906901812E+03  0.12699999809E+01 0. -1.
</event>
<event>
 5   0  0.1883959E-04  0.1889908E+04  0.7818609E-02  0.8659896E-01
       -1   -1    0    0    0  501  0.00000000000E+00  0.00000000000E+00  0.13641432657E+04  0.13641432657E+04  0.50400001928E-02 0. -1.
        1   -1    0    0  501    0  0.00000000000E+00  0.00000000000E+00 -0.65457778148E+03  0.65457778150E+03  0.50400001928E-02 0.  1.
    10030    2    1    2    0    0  0.00000000000E+00  0.00000000000E+00  0.70956548423E+03  0.20187210472E+04  0.18899077994E+04 0.  0.
        5    1    3    3  502    0 -0.81561895259E+02 -0.51398071360E+03  0.11972661362E+04  0.13054871917E+04  0.46999998093E+01 0. -1.
       -5    1    3    3    0  502  0.81561895259E+02  0.51398071360E+03 -0.48770065200E+03  0.71323385553E+03  0.46999998093E+01 0.  1.
</event>
<event>
 5   0  0.3628581E-04  0.1867317E+04  0.7818609E-02  0.8671298E-01
       -2   -1    0    0    0  501  0.00000000000E+00  0.00000000000E+00  0.83257682922E+03  0.83257682923E+03  0.25500000920E-02 0. -1.
        2   -1    0    0  501    0  0.00000000000E+00  0.00000000000E+00 -0.10470128751E+04  0.10470128751E+04  0.25500000920E-02 0.  1.
    10030    2    1    2    0    0  0.00000000000E+00  0.00000000000E+00 -0.21443604588E+03  0.18795897043E+04  0.18673174981E+04 0.  0.
        2    1    3    3  502    0 -0.10766919814E+03  0.71830623440E+02 -0.10379387921E+04  0.10459776436E+04  0.25500000920E-02 0.  1.
       -2    1    3    3    0  502  0.10766919814E+03 -0.71830623440E+02  0.82350274626E+03  0.83361206073E+03  0.25500000920E-02 0. -1.
</event>
<event>
 5   0  0.1837313E-04  0.1814797E+04  0.7818609E-02  0.8698470E-01
        1   -1    0    0  501    0  0.00000000000E+00  0.00000000000E+00  0.72837189631E+03  0.72837189633E+03  0.50400001928E-02 0. -1.
       -1   -1    0    0    0  501  0.00000000000E+00  0.00000000000E+00 -0.11304284499E+04  0.11304284499E+04  0.50400001928E-02 0.  1.
    10030    2    1    2    0    0  0.00000000000E+00  0.00000000000E+00 -0.40205655359E+03  0.18588003463E+04  0.18147973041E+04 0.  0.
        1    1    3    3  502    0 -0.50456282748E+03 -0.75383219143E+03 -0.22451222584E+03  0.93447972653E+03  0.50400001928E-02 0. -1.
       -1    1    3    3    0  502  0.50456282748E+03  0.75383219143E+03 -0.17754432775E+03  0.92432061973E+03  0.50400001928E-02 0.  1.
</event>
<event>
 5   0  0.1835421E-04  0.1829656E+04  0.7818609E-02  0.8690686E-01
       -1   -1    0    0    0  501  0.00000000000E+00  0.00000000000E+00  0.10222117741E+04  0.10222117741E+04  0.50400001928E-02 0.  1.
        1   -1    0    0  501    0  0.00000000000E+00  0.00000000000E+00 -0.81872521984E+03  0.81872521986E+03  0.50400001928E-02 0. -1.
    10030    2    1    2    0    0  0.00000000000E+00  0.00000000000E+00  0.20348655425E+03  0.18409369940E+04  0.18296563169E+04 0.  0.
        2    1    3    3  502    0 -0.84944706453E+03 -0.79219781979E+02 -0.23055719760E+03  0.88373791967E+03  0.25500000920E-02 0. -1.
       -2    1    3    3    0  502  0.84944706453E+03  0.79219781979E+02  0.43404375186E+03  0.95719907429E+03  0.25500000920E-02 0.  1.
</event>
<event>
 5   0  0.3575091E-04  0.1792625E+04  0.7818609E-02  0.8710231E-01
       -2   -1    0    0    0  501  0.00000000000E+00  0.00000000000E+00  0.50546526233E+03  0.50546526233E+03  0.25500000920E-02 0. -1.
        2   -1    0    0  501    0  0.00000000000E+00  0.00000000000E+00 -0.15893790972E+04  0.15893790972E+04  0.25500000920E-02 0.  1.
    10030    2    1    2    0    0  0.00000000000E+00  0.00000000000E+00 -0.10839138348E+04  0.20948443595E+04  0.17926248044E+04 0.  0.
        5    1    3    3  502    0  0.61689953794E+03  0.50858533715E+03 -0.10153871748E+04  0.12923843429E+04  0.46999998093E+01 0.  1.
       -5    1    3    3    0  502 -0.61689953794E+03 -0.50858533715E+03 -0.68526660028E+02  0.80246001658E+03  0.46999998093E+01 0. -1.
</event>
<event>
 5   0  0.3582186E-04  0.1824102E+04  0.7818609E-02  0.8693586E-01
       -2   -1    0    0    0  501  0.00000000000E+00  0.00000000000E+00  0.98834074237E+03  0.98834074237E+03  0.25500000920E-02 0.  1.
        2   -1    0    0  501    0  0.00000000000E+00  0.00000000000E+00 -0.84164984982E+03  0.84164984982E+03  0.25500000920E-02 0. -1.
    10030    2    1    2    0    0  0.00000000000E+00  0.00000000000E+00  0.14669089255E+03  0.18299905922E+04  0.18241017925E+04 0.  0.
        4    1    3    3  502    0  0.83818939775E+03 -0.23420541607E+03 -0.20033844310E+03  0.89305696801E+03  0.12699999809E+01 0. -1.
       -4    1    3    3    0  502 -0.83818939775E+03  0.23420541607E+03  0.34702933565E+03  0.93693362418E+03  0.12699999809E+01 0.  1.
</event>
<event>
 5   0  0.1835421E-04  0.1800757E+04  0.7818609E-02  0.8705897E-01
       -1   -1    0    0    0  501  0.00000000000E+00  0.00000000000E+00  0.14047168283E+04  0.14047168283E+04  0.50400001928E-02 0. -1.
        1   -1    0    0  501    0  0.00000000000E+00  0.00000000000E+00 -0.57711405356E+03  0.57711405358E+03  0.50400001928E-02 0.  1.
    10030    2    1    2    0    0  0.00000000000E+00  0.00000000000E+00  0.82760277476E+03  0.19818308819E+04  0.18007574217E+04 0.  0.
        2    1    3    3  502    0 -0.23711480088E+03  0.61070795961E+03 -0.26595819407E+03  0.70705120163E+03  0.25500000920E-02 0.  1.
       -2    1    3    3    0  502  0.23711480088E+03 -0.61070795961E+03  0.10935609688E+04  0.12747796803E+04  0.25500000920E-02 0. -1.
</event>
<event>
 5   0  0.1818778E-04  0.1764276E+04  0.7818609E-02  0.8725531E-01
        1   -1    0    0  501    0  0.00000000000E+00  0.00000000000E+00  0.14356993671E+04  0.14356993671E+04  0.50400001928E-02 0.  1.
       -1   -1    0    0    0  501  0.00000000000E+00  0.00000000000E+00 -0.54201305413E+03  0.54201305415E+03  0.50400001928E-02 0. -1.
    10030    2    1    2    0    0  0.00000000000E+00  0.00000000000E+00  0.89368631300E+03  0.19777124213E+04  0.17642763942E+04 0.  0.
        3    1    3    3  502    0 -0.12644356361E+03 -0.70054347140E+03  0.10308478906E+04  0.12527555683E+04  0.10100000352E+00 0.  1.
       -3    1    3    3    0  502  0.12644356361E+03  0.70054347140E+03 -0.13716157764E+03  0.72495685298E+03  0.10100000352E+00 0. -1.
</event>
<event>
 5   0  0.1835421E-04  0.1813340E+04  0.7818609E-02  0.8699238E-01
       -1   -1    0    0    0  501  0.00000000000E+00  0.00000000000E+00  0.63692217785E+03  0.63692217787E+03  0.50400001928E-02 0. -1.
        1   -1    0    0  501    0  0.00000000000E+00  0.00000000000E+00 -0.12906603243E+04  0.12906603243E+04  0.50400001928E-02 0.  1.
    10030    2    1    2    0    0  0.00000000000E+00  0.00000000000E+00 -0.65373814642E+03  0.19275825022E+04  0.18133396644E+04 0.  0.
        2    1    3    3  502    0 -0.51613833915E+03 -0.65207442741E+03 -0.71080293982E+03  0.10940021313E+04  0.25500000920E-02 0.  1.
       -2    1    3    3    0  502  0.51613833915E+03  0.65207442741E+03  0.57064793400E+02  0.83358037086E+03  0.25500000920E-02 0. -1.
</event>
<event>
 5   0  0.3531266E-04  0.1795969E+04  0.7818609E-02  0.8708446E-01
       -2   -1    0    0    0  501  0.00000000000E+00  0.00000000000E+00  0.56522150969E+03  0.56522150969E+03  0.25500000920E-02 0. -1.
        2   -1    0    0  501    0  0.00000000000E+00  0.00000000000E+00 -0.14266552564E+04  0.14266552564E+04  0.25500000920E-02 0.  1.
    10030    2    1    2    0    0  0.00000000000E+00  0.00000000000E+00 -0.86143374669E+03  0.19918767661E+04  0.17959690842E+04 0.  0.
        3    1    3    3  502    0  0.62827383144E+03 -0.62445752939E+03 -0.59409865450E+03  0.10665966598E+04  0.10100000352E+00 0. -1.
       -3    1    3    3    0  502 -0.62827383144E+03  0.62445752939E+03 -0.26733509219E+03  0.92528010624E+03  0.10100000352E+00 0.  1.
</event>
<event>
 5   0  0.1883959E-04  0.1802332E+04  0.7818609E-02  0.8705060E-01
        1   -1    0    0  501    0  0.00000000000E+00  0.00000000000E+00  0.16860122699E+04  0.16860122699E+04  0.50400001928E-02 0.  1.
       -1   -1    0    0    0  501  0.00000000000E+00  0.00000000000E+00 -0.48166916651E+03  0.48166916654E+03  0.50400001928E-02 0. -1.
    10030    2    1    2    0    0  0.00000000000E+00  0.00000000000E+00  0.12043431034E+04  0.21676814364E+04  0.18023319614E+04 0.  0.
        5    1    3    3  502    0  0.66022750651E+03  0.31219058622E+02  0.13388769482E+04  0.14931472005E+04  0.46999998093E+01 0.  1.
       -5    1    3    3    0  502 -0.66022750651E+03 -0.31219058622E+02 -0.13453384486E+03  0.67453423589E+03  0.46999998093E+01 0. -1.
</event>
<event>
 5   0  0.1825253E-04  0.1791960E+04  0.7818609E-02  0.8710587E-01
       -1   -1    0    0    0  501  0.00000000000E+00  0.00000000000E+00  0.55202407677E+03  0.55202407679E+03  0.50400001928E-02 0. -1.
        1   -1    0    0  501    0  0.00000000000E+00  0.00000000000E+00 -0.14542485834E+04  0.14542485834E+04  0.50400001928E-02 0.  1.
    10030    2    1    2    0    0  0.00000000000E+00  0.00000000000E+00 -0.90222450659E+03  0.20062726602E+04  0.17919600795E+04 0.  0.
        4    1    3    3  502    0  0.22696791790E+03 -0.34747759474E+03 -0.13401337549E+04  0.14029309351E+04  0.12699999809E+01 0.  1.
       -4    1    3    3    0  502 -0.22696791790E+03  0.34747759474E+03  0.43790924830E+03  0.60334172511E+03  0.12699999809E+01 0. -1.
</event>
<event>
 5   0  0.1818778E-04  0.1806505E+04  0.7818609E-02  0.8702848E-01
        1   -1    0    0  501    0  0.00000000000E+00  0.00000000000E+00  0.10357922797E+04  0.10357922797E+04  0.50400001928E-02 0. -1.
       -1   -1    0    0    0  501  0.00000000000E+00  0.00000000000E+00 -0.78767218303E+03  0.78767218304E+03  0.50400001928E-02 0.  1.
    10030    2    1    2    0    0  0.00000000000E+00  0.00000000000E+00  0.24812009663E+03  0.18234644627E+04  0.18065046539E+04 0.  0.
        3    1    3    3  502    0 -0.14155548752E+03  0.24504564798E+03 -0.74176877691E+03  0.79391829191E+03  0.10100000352E+00 0.  1.
       -3    1    3    3    0  502  0.14155548752E+03 -0.24504564798E+03  0.98988887353E+03  0.10295461708E+04  0.10100000352E+00 0. -1.
</event>
<event>
 5   0  0.3568870E-04  0.1778191E+04  0.7818609E-02  0.8717984E-01
        2   -1    0    0  501    0  0.00000000000E+00  0.00000000000E+00  0.11582351147E+04  0.11582351147E+04  0.25500000920E-02 0.  1.
       -2   -1    0    0    0  501  0.00000000000E+00  0.00000000000E+00 -0.68249560447E+03  0.68249560448E+03  0.25500000920E-02 0. -1.
    10030    2    1    2    0    0  0.00000000000E+00  0.00000000000E+00  0.47573951026E+03  0.18407307192E+04  0.17781905126E+04 0.  0.
        1    1    3    3  502    0  0.70006727582E+03  0.28798493574E+03 -0.24485828110E+03  0.79560360214E+03  0.50400001928E-02 0. -1.
       -1    1    3    3    0  502 -0.70006727582E+03 -0.28798493574E+03  0.72059779135E+03  0.10451271171E+04  0.50400001928E-02 0.  1.
</event>
<event>
 5   0  0.1837313E-04  0.1789534E+04  0.7818609E-02  0.8711885E-01
       -1   -1    0    0    0  501  0.00000000000E+00  0.00000000000E+00  0.10020543191E+04  0.10020543191E+04  0.50400001928E-02 0. -1.
        1   -1    0    0  501    0  0.00000000000E+00  0.00000000000E+00 -0.79896627926E+03  0.79896627927E+03  0.50400001928E-02 0.  1.
    10030    2    1    2    0    0  0.00000000000E+00  0.00000000000E+00  0.20308803981E+03  0.18010205983E+04  0.17895335827E+04 0.  0.
        1    1    3    3  502    0 -0.22485767103E+03 -0.86410371991E+03  0.43107551157E+02  0.89392084212E+03  0.50400001928E-02 0.  1.
       -1    1    3    3    0  502  0.22485767103E+03  0.86410371991E+03  0.15998048865E+03  0.90709975623E+03  0.50400001928E-02 0. -1.
</event>
<event>
 5   0  0.3531266E-04  0.1813907E+04  0.7818609E-02  0.8698939E-01
       -2   -1    0    0    0  501  0.00000000000E+00  0.00000000000E+00  0.59659159587E+03  0.59659159587E+03  0.25500000920E-02 0. -1.
        2   -1    0    0  501    0  0.00000000000E+00  0.00000000000E+00 -0.13787731084E+04  0.13787731084E+04  0.25500000920E-02 0.  1.
    10030    2    1    2    0    0  0.00000000000E+00  0.00000000000E+00 -0.78218151250E+03  0.19753647042E+04  0.18139067772E+04 0.  0.
        3    1    3    3  502    0 -0.24909700045E+03 -0.26851177135E+03  0.51247128520E+03  0.62990055988E+03  0.10100000352E+00 0. -1.
       -3    1    3    3    0  502  0.24909700045E+03  0.26851177135E+03 -0.12946527977E+04  0.13454641444E+04  0.10100000352E+00 0.  1.
</event>
<event>
 5   0  0.3531266E-04  0.1811191E+04  0.7818609E-02  0.8700371E-01
       -2   -1    0    0    0  501  0.00000000000E+00  0.00000000000E+00  0.83388835681E+03  0.83388835681E+03  0.25500000920E-02 0. -1.
        2   -1    0    0  501    0  0.00000000000E+00  0.00000000000E+00 -0.98346907719E+03  0.98346907719E+03  0.25500000920E-02 0.  1.
    10030    2    1    2    0    0  0.00000000000E+00  0.00000000000E+00 -0.14958072038E+03  0.18173574340E+04  0.18111912243E+04 0.  0.
        3    1    3    3  502    0 -0.35866867608E+03  0.62790636351E+03  0.47222044606E+03  0.86365605447E+03  0.10100000352E+00 0. -1.
       -3    1    3    3    0  502  0.35866867608E+03 -0.62790636351E+03 -0.62180116645E+03  0.95370137954E+03  0.10100000352E+00 0.  1.
</event>
<event>
 5   0  0.3582186E-04  0.1816930E+04  0.7818609E-02  0.8697348E-01
       -2   -1    0    0    0  501  0.00000000000E+00  0.00000000000E+00  0.88642225294E+03  0.88642225294E+03  0.25500000920E-02 0. -1.
        2   -1    0    0  501    0  0.00000000000E+00  0.00000000000E+00 -0.93105557650E+03  0.93105557650E+03  0.25500000920E-02 0.  1.
    10030    2    1    2    0    0  0.00000000000E+00  0.00000000000E+00 -0.44633323562E+02  0.18174778294E+04  0.18169296979E+04 0.  0.
        4    1    3    3  502    0  0.38615141148E+03 -0.45819860655E+03  0.66071280397E+03  0.89196518871E+03  0.12699999809E+01 0. -1.
       -4    1    3    3    0  502 -0.38615141148E+03  0.45819860655E+03 -0.70534612754E+03  0.92551264074E+03  0.12699999809E+01 0.  1.
</event>
<event>
 5   0  0.1818778E-04  0.1718410E+04  0.7818609E-02  0.8750934E-01
        1   -1    0    0  501    0  0.00000000000E+00  0.00000000000E+00  0.10234390146E+04  0.10234390146E+04  0.50400001928E-02 0. -1.
       -1   -1    0    0    0  501  0.00000000000E+00  0.00000000000E+00 -0.72132596864E+03  0.72132596866E+03  0.50400001928E-02 0.  1.
    10030    2    1    2    0    0  0.00000000000E+00  0.00000000000E+00  0.30211304592E+03  0.17447649832E+04  0.17184098912E+04 0.  0.
        3    1    3    3  502    0 -0.60247121509E+03 -0.59223307890E+03 -0.79386996702E+01  0.84485183192E+03  0.10100000352E+00 0.  1.
       -3    1    3    3    0  502  0.60247121509E+03  0.59223307890E+03  0.31005174559E+03  0.89991315131E+03  0.10100000352E+00 0. -1.
</event>
<event>
 5   0  0.3582186E-04  0.1795282E+04  0.7818609E-02  0.8708813E-01
       -2   -1    0    0    0  501  0.00000000000E+00  0.00000000000E+00  0.90370790967E+03  0.90370790967E+03  0.25500000920E-02 0.  1.
        2   -1    0    0  501    0  0.00000000000E+00  0.00000000000E+00 -0.89161457697E+03  0.89161457697E+03  0.25500000920E-02 0. -1.
    10030    2    1    2    0    0  0.00000000000E+00  0.00000000000E+00  0.12093332700E+02  0.17953224866E+04  0.17952817557E+04 0.  0.
        4    1    3    3  502    0  0.35778466072E+03 -0.53772748333E+03 -0.61734282338E+03  0.89346207768E+03  0.12699999809E+01 0. -1.
       -4    1    3    3    0  502 -0.35778466072E+03  0.53772748333E+03  0.62943615608E+03  0.90186040896E+03  0.12699999809E+01 0.  1.
</event>
<event>
 5   0  0.1883959E-04  0.1793147E+04  0.7818609E-02  0.8709952E-01
       -1   -1    0    0    0  501  0.00000000000E+00  0.00000000000E+00  0.11741352776E+04  0.11741352776E+04  0.50400001928E-02 0. -1.
        1   -1    0    0  501    0  0.00000000000E+00  0.00000000000E+00 -0.68462680566E+03  0.68462680568E+03  0.50400001928E-02 0.  1.
    10030    2    1    2    0    0  0.00000000000E+00  0.00000000000E+00  0.48950847195E+03  0.18587620833E+04  0.17931474948E+04 0.  0.
        5    1    3    3  502    0 -0.10191150941E+03 -0.89072498000E+03  0.25174249509E+03  0.93122141276E+03  0.46999998093E+01 0. -1.
       -5    1    3    3    0  502  0.10191150941E+03  0.89072498000E+03  0.23776597686E+03  0.92754067053E+03  0.46999998093E+01 0.  1.
</event>
<event>
 5   0  0.3568870E-04  0.1817457E+04  0.7818609E-02  0.8697071E-01
        2   -1    0    0  501    0  0.00000000000E+00  0.00000000000E+00  0.10890071169E+04  0.10890071169E+04  0.25500000920E-02 0.  1.
       -2   -1    0    0    0  501  0.00000000000E+00  0.00000000000E+00 -0.75829418555E+03  0.75829418555E+03  0.25500000920E-02 0. -1.
    10030    2    1    2    0    0  0.00000000000E+00  0.00000000000E+00  0.33071293132E+03  0.18473013024E+04  0.18174573060E+04 0.  0.
        1    1    3    3  502    0 -0.87935945246E+03  0.21477759256E+03  0.24657671203E+03  0.93819109772E+03  0.50400001928E-02 0.  1.
       -1    1    3    3    0  502  0.87935945246E+03 -0.21477759256E+03  0.84136219293E+02  0.90911020471E+03  0.50400001928E-02 0. -1.
</event>
<event>
 5   0  0.1835421E-04  0.1742099E+04  0.7818609E-02  0.8737711E-01
       -1   -1    0    0    0  501  0.00000000000E+00  0.00000000000E+00  0.42424796642E+03  0.42424796645E+03  0.50400001928E-02 0.  1.
        1   -1    0    0  501    0  0.00000000000E+00  0.00000000000E+00 -0.17884053170E+04  0.17884053170E+04  0.50400001928E-02 0. -1.
    10030    2    1    2    0    0  0.00000000000E+00  0.00000000000E+00 -0.13641573506E+04  0.22126532834E+04  0.17420991004E+04 0.  0.
        2    1    3    3  502    0  0.77227954385E+03 -0.20867545102E+03 -0.24436823432E+03  0.83646695790E+03  0.25500000920E-02 0.  1.
       -2    1    3    3    0  502 -0.77227954385E+03  0.20867545102E+03 -0.11197891163E+04  0.13761863255E+04  0.25500000920E-02 0. -1.
</event>
<event>
 5   0  0.3575091E-04  0.1629230E+04  0.7818609E-02  0.8802789E-01
       -2   -1    0    0    0  501  0.00000000000E+00  0.00000000000E+00  0.10888823265E+04  0.10888823265E+04  0.25500000920E-02 0.  1.
        2   -1    0    0  501    0  0.00000000000E+00  0.00000000000E+00 -0.60943031759E+03  0.60943031760E+03  0.25500000920E-02 0. -1.
    10030    2    1    2    0    0  0.00000000000E+00  0.00000000000E+00  0.47945200890E+03  0.16983126441E+04  0.16292303730E+04 0.  0.
        5    1    3    3  502    0  0.70838689592E+03  0.38668488990E+03  0.35504510811E+03  0.88171215098E+03  0.46999998093E+01 0.  1.
       -5    1    3    3    0  502 -0.70838689592E+03 -0.38668488990E+03  0.12440690079E+03  0.81660049311E+03  0.46999998093E+01 0. -1.
</event>
<event>
 5   0  0.1818778E-04  0.1750702E+04  0.7818609E-02  0.8732964E-01
       -1   -1    0    0    0  501  0.00000000000E+00  0.00000000000E+00  0.91680250620E+03  0.91680250621E+03  0.50400001928E-02 0. -1.
        1   -1    0    0  501    0  0.00000000000E+00  0.00000000000E+00 -0.83577340908E+03  0.83577340909E+03  0.50400001928E-02 0.  1.
    10030    2    1    2    0    0  0.00000000000E+00  0.00000000000E+00  0.81029097120E+02  0.17525759153E+04  0.17507017520E+04 0.  0.
        3    1    3    3  502    0  0.87150740714E+03 -0.79868069879E+02  0.22189855327E+02  0.87544072853E+03  0.10100000352E+00 0. -1.
       -3    1    3    3    0  502 -0.87150740714E+03  0.79868069879E+02  0.58839241793E+02  0.87713518677E+03  0.10100000352E+00 0.  1.
</event>
<event>
 5   0  0.1818778E-04  0.1374580E+04  0.7818609E-02  0.8972427E-01
        1   -1    0    0  501    0  0.00000000000E+00  0.00000000000E+00  0.66700445307E+03  0.66700445309E+03  0.50400001928E-02 0. -1.
       -1   -1    0    0    0  501  0.00000000000E+00  0.00000000000E+00 -0.70819236978E+03  0.70819236979E+03  0.50400001928E-02 0.  1.
    10030    2    1    2    0    0  0.00000000000E+00  0.00000000000E+00 -0.41187916710E+02  0.13751968229E+04  0.13745798839E+04 0.  0.
        3    1    3    3  502    0 -0.25020663516E+02  0.40325052751E+03 -0.57683849333E+03  0.70425824747E+03  0.10100000352E+00 0.  1.
       -3    1    3    3    0  502  0.25020663516E+02 -0.40325052751E+03  0.53565057662E+03  0.67093857541E+03  0.10100000352E+00 0. -1.
</event>
<event>
 5   0  0.1330125E-04  0.1800256E+04  0.7818609E-02  0.8706163E-01
        3   -1    0    0  501    0  0.00000000000E+00  0.00000000000E+00  0.23384113270E+04  0.23384113292E+04  0.10100000352E+00 0. -1.
       -3   -1    0    0    0  501  0.00000000000E+00  0.00000000000E+00 -0.34648769789E+03  0.34648771261E+03  0.10100000352E+00 0.  1.
    10030    2    1    2    0    0  0.00000000000E+00  0.00000000000E+00  0.19919236291E+04  0.26848990418E+04  0.18002564041E+04 0.  0.
        2    1    3    3  502    0 -0.28752606096E+03 -0.65010697715E+03  0.18195059529E+04  0.19534360061E+04  0.25500000920E-02 0. -1.
       -2    1    3    3    0  502  0.28752606096E+03  0.65010697715E+03  0.17241767624E+03  0.73146303567E+03  0.25500000920E-02 0.  1.
</event>
<event>
 5   0  0.1837313E-04  0.1832983E+04  0.7818609E-02  0.8688954E-01
       -1   -1    0    0    0  501  0.00000000000E+00  0.00000000000E+00  0.59101032506E+03  0.59101032508E+03  0.50400001928E-02 0.  1.
        1   -1    0    0  501    0  0.00000000000E+00  0.00000000000E+00 -0.14212210859E+04  0.14212210859E+04  0.50400001928E-02 0. -1.
    10030    2    1    2    0    0  0.00000000000E+00  0.00000000000E+00 -0.83021076086E+03  0.20122314110E+04  0.18329826360E+04 0.  0.
        1    1    3    3  502    0  0.68727859196E+03 -0.59754324528E+03 -0.52784449965E+03  0.10526298536E+04  0.50400001928E-02 0. -1.
       -1    1    3    3    0  502 -0.68727859196E+03  0.59754324528E+03 -0.30236626121E+03  0.95960155736E+03  0.50400001928E-02 0.  1.
</event>
<event>
 5   0  0.1835421E-04  0.1816257E+04  0.7818609E-02  0.8697702E-01
       -1   -1    0    0    0  501  0.00000000000E+00  0.00000000000E+00  0.43361827739E+03  0.43361827742E+03  0.50400001928E-02 0. -1.
        1   -1    0    0  501    0  0.00000000000E+00  0.00000000000E+00 -0.19018976871E+04  0.19018976871E+04  0.50400001928E-02 0.  1.
    10030    2    1    2    0    0  0.00000000000E+00  0.00000000000E+00 -0.14682794097E+04  0.23355159645E+04  0.18162572493E+04 0.  0.
        2    1    3    3  502    0 -0.45648546631E+03 -0.45207035952E+03 -0.15594709076E+04  0.16866226912E+04  0.25500000920E-02 0.  1.
       -2    1    3    3    0  502  0.45648546631E+03  0.45207035952E+03  0.91191497844E+02  0.64889327335E+03  0.25500000920E-02 0. -1.
</event>
<event>
 5   0  0.1883959E-04  0.1788861E+04  0.7818609E-02  0.8712246E-01
       -1   -1    0    0    0  501  0.00000000000E+00  0.00000000000E+00  0.88033003850E+03  0.88033003851E+03  0.50400001928E-02 0. -1.
        1   -1    0    0  501    0  0.00000000000E+00  0.00000000000E+00 -0.90875669699E+03  0.90875669701E+03  0.50400001928E-02 0.  1.
    10030    2    1    2    0    0  0.00000000000E+00  0.00000000000E+00 -0.28426658494E+02  0.17890867355E+04  0.17888608868E+04 0.  0.
        5    1    3    3  502    0  0.16925286090E+03 -0.84330884557E+03 -0.25953471378E+03  0.89844125995E+03  0.46999998093E+01 0.  1.
       -5    1    3    3    0  502 -0.16925286090E+03  0.84330884557E+03  0.23110805529E+03  0.89064547557E+03  0.46999998093E+01 0. -1.
</event>
<event>
 5   0  0.3575091E-04  0.1815850E+04  0.7818609E-02  0.8697916E-01
        2   -1    0    0  501    0  0.00000000000E+00  0.00000000000E+00  0.70871487817E+03  0.70871487818E+03  0.25500000920E-02 0. -1.
       -2   -1    0    0    0  501  0.00000000000E+00  0.00000000000E+00 -0.11631302117E+04  0.11631302117E+04  0.25500000920E-02 0.  1.
    10030    2    1    2    0    0  0.00000000000E+00  0.00000000000E+00 -0.45441533350E+03  0.18718450899E+04  0.18158498685E+04 0.  0.
        5    1    3    3  502    0 -0.58405187528E+03 -0.36602531732E+03 -0.83637426373E+03  0.10838058521E+04  0.46999998093E+01 0.  1.
       -5    1    3    3    0  502  0.58405187528E+03  0.36602531732E+03  0.38195893022E+03  0.78803923780E+03  0.46999998093E+01 0. -1.
</event>
<event>
 5   0  0.1883959E-04  0.1806814E+04  0.7818609E-02  0.8702684E-01
        1   -1    0    0  501    0  0.00000000000E+00  0.00000000000E+00  0.47572867649E+03  0.47572867652E+03  0.50400001928E-02 0. -1.
       -1   -1    0    0    0  501  0.00000000000E+00  0.00000000000E+00 -0.17155661197E+04  0.17155661197E+04  0.50400001928E-02 0.  1.
    10030    2    1    2    0    0  0.00000000000E+00  0.00000000000E+00 -0.12398374432E+04  0.21912947963E+04  0.18068137697E+04 0.  0.
        5    1    3    3  502    0 -0.23430519140E+03  0.36366424405E+03  0.34192127329E+03  0.55143707913E+03  0.46999998093E+01 0. -1.
       -5    1    3    3    0  502  0.23430519140E+03 -0.36366424405E+03 -0.15817587165E+04  0.16398577171E+04  0.46999998093E+01 0.  1.
</event>
<event>
 5   0  0.3568870E-04  0.1770588E+04  0.7818609E-02  0.8722099E-01
        2   -1    0    0  501    0  0.00000000000E+00  0.00000000000E+00  0.17640579696E+04  0.17640579696E+04  0.25500000920E-02 0.  1.
       -2   -1    0    0    0  501  0.00000000000E+00  0.00000000000E+00 -0.44428561458E+03  0.44428561459E+03  0.25500000920E-02 0. -1.
    10030    2    1    2    0    0  0.00000000000E+00  0.00000000000E+00  0.13197723550E+04  0.22083435842E+04  0.17705881274E+04 0.  0.
        1    1    3    3  502    0  0.40260094140E+03 -0.15674299537E+03 -0.30387379262E+03  0.52819993040E+03  0.50400001928E-02 0. -1.
       -1    1    3    3    0  502 -0.40260094140E+03  0.15674299537E+03  0.16236461477E+04  0.16801436538E+04  0.50400001928E-02 0.  1.
</event>
<event>
 5   0  0.1837313E-04  0.1836950E+04  0.7818609E-02  0.8686893E-01
       -1   -1    0    0    0  501  0.00000000000E+00  0.00000000000E+00  0.11905901051E+04  0.11905901051E+04  0.50400001928E-02 0.  1.
        1   -1    0    0  501    0  0.00000000000E+00  0.00000000000E+00 -0.70855286122E+03  0.70855286123E+03  0.50400001928E-02 0. -1.
    10030    2    1    2    0    0  0.00000000000E+00  0.00000000000E+00  0.48203724390E+03  0.18991429664E+04  0.18369496733E+04 0.  0.
        1    1    3    3  502    0  0.54657514101E+03  0.35721678838E+03 -0.42679832002E+03  0.78006732060E+03  0.50400001928E-02 0. -1.
       -1    1    3    3    0  502 -0.54657514101E+03 -0.35721678838E+03  0.90883556391E+03  0.11190756458E+04  0.50400001928E-02 0.  1.
</event>
<event>
 5   0  0.3582186E-04  0.1801340E+04  0.7818609E-02  0.8705587E-01
        2   -1    0    0  501    0  0.00000000000E+00  0.00000000000E+00  0.11056164902E+04  0.11056164902E+04  0.25500000920E-02 0.  1.
       -2   -1    0    0    0  501  0.00000000000E+00  0.00000000000E+00 -0.73371403170E+03  0.73371403170E+03  0.25500000920E-02 0. -1.
    10030    2    1    2    0    0  0.00000000000E+00  0.00000000000E+00  0.37190245853E+03  0.18393305219E+04  0.18013398708E+04 0.  0.
        4    1    3    3  502    0 -0.21742860953E+03 -0.87069297648E+03  0.26387091843E+03  0.93542019115E+03  0.12699999809E+01 0.  1.
       -4    1    3    3    0  502  0.21742860953E+03  0.87069297648E+03  0.10803154010E+03  0.90391033078E+03  0.12699999809E+01 0. -1.
</event>
<event>
 5   0  0.3531266E-04  0.1800477E+04  0.7818609E-02  0.8706046E-01
       -2   -1    0    0    0  501  0.00000000000E+00  0.00000000000E+00  0.40092640956E+03  0.40092640957E+03  0.25500000920E-02 0. -1.
        2   -1    0    0  501    0  0.00000000000E+00  0.00000000000E+00 -0.20213920926E+04  0.20213920926E+04  0.25500000920E-02 0.  1.
    10030    2    1    2    0    0  0.00000000000E+00  0.00000000000E+00 -0.16204656830E+04  0.24223185021E+04  0.18004771301E+04 0.  0.
        3    1    3    3  502    0 -0.86206727463E+03  0.24799885142E+03 -0.91239327924E+03  0.12795018259E+04  0.10100000352E+00 0.  1.
       -3    1    3    3    0  502  0.86206727463E+03 -0.24799885142E+03 -0.70807240378E+03  0.11428166762E+04  0.10100000352E+00 0. -1.
</event>
<event>
 5   0  0.1818778E-04  0.1815952E+04  0.7818609E-02  0.8697862E-01
        1   -1    0    0  501    0  0.00000000000E+00  0.00000000000E+00  0.81758748800E+03  0.81758748802E+03  0.50400001928E-02 0.  1.
       -1   -1    0    0    0  501  0.00000000000E+00  0.00000000000E+00 -0.10083571368E+04  0.10083571368E+04  0.50400001928E-02 0. -1.
    10030    2    1    2    0    0  0.00000000000E+00  0.00000000000E+00 -0.19076964878E+03  0.18259446248E+04  0.18159517378E+04 0.  0.
        3    1    3    3  502    0 -0.50031396902E+03  0.75769280003E+03 -0.98178870598E+02  0.91326422663E+03  0.10100000352E+00 0.  1.
       -3    1    3    3    0  502  0.50031396902E+03 -0.75769280003E+03 -0.92590778184E+02  0.91268039818E+03  0.10100000352E+00 0. -1.
</event>
<event>
 5   0  0.1883959E-04  0.1768361E+04  0.7818609E-02  0.8723308E-01
        1   -1    0    0  501    0  0.00000000000E+00  0.00000000000E+00  0.79059183961E+03  0.79059183963E+03  0.50400001928E-02 0.  1.
       -1   -1    0    0    0  501  0.00000000000E+00  0.00000000000E+00 -0.98884750674E+03  0.98884750675E+03  0.50400001928E-02 0. -1.
    10030    2    1    2    0    0  0.00000000000E+00  0.00000000000E+00 -0.19825566713E+03  0.17794393464E+04  0.17683605622E+04 0.  0.
        5    1    3    3  502    0 -0.73975375085E+03 -0.48424377922E+03 -0.94093503389E+02  0.88915877490E+03  0.46999998093E+01 0. -1.
       -5    1    3    3    0  502  0.73975375085E+03  0.48424377922E+03 -0.10416216374E+03  0.89028057148E+03  0.46999998093E+01 0.  1.
</event>
<event>
 5   0  0.1330125E-04  0.1811899E+04  0.7818609E-02  0.8699997E-01
       -3   -1    0    0    0  501  0.00000000000E+00  0.00000000000E+00  0.12220728771E+04  0.12220728813E+04  0.10100000352E+00 0. -1.
        3   -1    0    0  501    0  0.00000000000E+00  0.00000000000E+00 -0.67160054572E+03  0.67160055331E+03  0.10100000352E+00 0.  1.
    10030    2    1    2    0    0  0.00000000000E+00  0.00000000000E+00  0.55047233140E+03  0.18936734346E+04  0.18118993596E+04 0.  0.
        1    1    3    3  502    0  0.90282262507E+03 -0.24024904157E+02  0.20075314232E+03  0.92518523148E+03  0.50400001928E-02 0.  1.
       -1    1    3    3    0  502 -0.90282262507E+03  0.24024904157E+02  0.34971918908E+03  0.96848820313E+03  0.50400001928E-02 0. -1.
</event>
<event>
 5   0  0.1835421E-04  0.1747117E+04  0.7818609E-02  0.8734939E-01
       -1   -1    0    0    0  501  0.00000000000E+00  0.00000000000E+00  0.97501650057E+03  0.97501650058E+03  0.50400001928E-02 0. -1.
        1   -1    0    0  501    0  0.00000000000E+00  0.00000000000E+00 -0.78265767914E+03  0.78265767915E+03  0.50400001928E-02 0.  1.
    10030    2    1    2    0    0  0.00000000000E+00  0.00000000000E+00  0.19235882143E+03  0.17576741797E+04  0.17471166549E+04 0.  0.
        2    1    3    3  502    0 -0.33149298579E+03  0.67105102510E+03  0.54935349185E+03  0.92843219296E+03  0.25500000920E-02 0. -1.
       -2    1    3    3    0  502  0.33149298579E+03 -0.67105102510E+03 -0.35699467041E+03  0.82924198677E+03  0.25500000920E-02 0.  1.
</event>
<event>
 5   0  0.3531266E-04  0.1777452E+04  0.7818609E-02  0.8718383E-01
        2   -1    0    0  501    0  0.00000000000E+00  0.00000000000E+00  0.93941158034E+03  0.93941158035E+03  0.25500000920E-02 0. -1.
       -2   -1    0    0    0  501  0.00000000000E+00  0.00000000000E+00 -0.84077546865E+03  0.84077546865E+03  0.25500000920E-02 0.  1.
    10030    2    1    2    0    0  0.00000000000E+00  0.00000000000E+00  0.98636111694E+02  0.17801870490E+04  0.17774523473E+04 0.  0.
        3    1    3    3  502    0  0.19294775239E+03  0.86749307112E+03  0.41486950907E+02  0.88965962080E+03  0.10100000352E+00 0. -1.
       -3    1    3    3    0  502 -0.19294775239E+03 -0.86749307112E+03  0.57149160787E+02  0.89052742820E+03  0.10100000352E+00 0.  1.
</event>
<event>
 5   0  0.3628581E-04  0.1798296E+04  0.7818609E-02  0.8707206E-01
       -2   -1    0    0    0  501  0.00000000000E+00  0.00000000000E+00  0.43691602127E+03  0.43691602128E+03  0.25500000920E-02 0. -1.
        2   -1    0    0  501    0  0.00000000000E+00  0.00000000000E+00 -0.18503951751E+04  0.18503951751E+04  0.25500000920E-02 0.  1.
    10030    2    1    2    0    0  0.00000000000E+00  0.00000000000E+00 -0.14134791538E+04  0.22873111964E+04  0.17982961911E+04 0.  0.
        2    1    3    3  502    0  0.77935314462E+03 -0.42858063406E+03 -0.87449301380E+03  0.12473214161E+04  0.25500000920E-02 0.  1.
       -2    1    3    3    0  502 -0.77935314462E+03  0.42858063406E+03 -0.53898614003E+03  0.10399897803E+04  0.25500000920E-02 0. -1.
</event>
<event>
 5   0  0.3531266E-04  0.1792661E+04  0.7818609E-02  0.8710212E-01
       -2   -1    0    0    0  501  0.00000000000E+00  0.00000000000E+00  0.55601591223E+03  0.55601591224E+03  0.25500000920E-02 0.  1.
        2   -1    0    0  501    0  0.00000000000E+00  0.00000000000E+00 -0.14449382848E+04  0.14449382848E+04  0.25500000920E-02 0. -1.
    10030    2    1    2    0    0  0.00000000000E+00  0.00000000000E+00 -0.88892237253E+03  0.20009541970E+04  0.17926613495E+04 0.  0.
        3    1    3    3  502    0 -0.89605628703E+03  0.14209329824E+00 -0.41970842156E+03  0.98948070170E+03  0.10100000352E+00 0. -1.
       -3    1    3    3    0  502  0.89605628703E+03 -0.14209329824E+00 -0.46921395096E+03  0.10114734953E+04  0.10100000352E+00 0.  1.
</event>
<event>
 5   0  0.3628581E-04  0.1811344E+04  0.7818609E-02  0.8700290E-01
        2   -1    0    0  501    0  0.00000000000E+00  0.00000000000E+00  0.15354791214E+04  0.15354791214E+04  0.25500000920E-02 0. -1.
       -2   -1    0    0    0  501  0.00000000000E+00  0.00000000000E+00 -0.53419291230E+03  0.53419291231E+03  0.25500000920E-02 0.  1.
    10030    2    1    2    0    0  0.00000000000E+00  0.00000000000E+00  0.10012862091E+04  0.20696720337E+04  0.18113443225E+04 0.  0.
        2    1    3    3  502    0  0.11937176939E+03 -0.75793941163E+03  0.10504308413E+04  0.13008177133E+04  0.25500000920E-02 0. -1.
       -2    1    3    3    0  502 -0.11937176939E+03  0.75793941163E+03 -0.49144632201E+02  0.76885432034E+03  0.25500000920E-02 0.  1.
</event>
<event>
 5   0  0.3531266E-04  0.1790252E+04  0.7818609E-02  0.8711501E-01
        2   -1    0    0  501    0  0.00000000000E+00  0.00000000000E+00  0.97605101646E+03  0.97605101646E+03  0.25500000920E-02 0.  1.
       -2   -1    0    0    0  501  0.00000000000E+00  0.00000000000E+00 -0.82091014892E+03  0.82091014893E+03  0.25500000920E-02 0. -1.
    10030    2    1    2    0    0  0.00000000000E+00  0.00000000000E+00  0.15514086753E+03  0.17969611654E+04  0.17902515860E+04 0.  0.
        3    1    3    3  502    0  0.58549226296E+03 -0.62269267155E+03  0.34446700730E+03  0.92152313184E+03  0.10100000352E+00 0.  1.
       -3    1    3    3    0  502 -0.58549226296E+03  0.62269267155E+03 -0.18932613976E+03  0.87543803355E+03  0.10100000352E+00 0. -1.
</event>
<event>
 5   0  0.3575091E-04  0.1724637E+04  0.7818609E-02  0.8747436E-01
       -2   -1    0    0    0  501  0.00000000000E+00  0.00000000000E+00  0.67081460876E+03  0.67081460877E+03  0.25500000920E-02 0. -1.
        2   -1    0    0  501    0  0.00000000000E+00  0.00000000000E+00 -0.11084928333E+04  0.11084928333E+04  0.25500000920E-02 0.  1.
    10030    2    1    2    0    0  0.00000000000E+00  0.00000000000E+00 -0.43767822457E+03  0.17793074421E+04  0.17246369894E+04 0.  0.
        5    1    3    3  502    0 -0.53080466413E+03  0.57213114019E+03  0.15950566311E+03  0.79658758439E+03  0.46999998093E+01 0. -1.
       -5    1    3    3    0  502  0.53080466413E+03 -0.57213114019E+03 -0.59718388767E+03  0.98271985771E+03  0.46999998093E+01 0.  1.
</event>
<event>
 5   0  0.3582186E-04  0.1732866E+04  0.7818609E-02  0.8742838E-01
       -2   -1    0    0    0  501  0.00000000000E+00  0.00000000000E+00  0.78999158067E+03  0.78999158068E+03  0.25500000920E-02 0.  1.
        2   -1    0    0  501    0  0.00000000000E+00  0.00000000000E+00 -0.95027120966E+03  0.95027120966E+03  0.25500000920E-02 0. -1.
    10030    2    1    2    0    0  0.00000000000E+00  0.00000000000E+00 -0.16027962899E+03  0.17402627903E+04  0.17328661287E+04 0.  0.
        4    1    3    3  502    0 -0.67831764751E+03  0.44964113580E+03  0.21847204393E+03  0.84262899832E+03  0.12699999809E+01 0.  1.
       -4    1    3    3    0  502  0.67831764751E+03 -0.44964113580E+03 -0.37875167292E+03  0.89763379202E+03  0.12699999809E+01 0. -1.
</event>
<event>
 5   0  0.3582186E-04  0.1801161E+04  0.7818609E-02  0.8705682E-01
        2   -1    0    0  501    0  0.00000000000E+00  0.00000000000E+00  0.12526571630E+04  0.12526571630E+04  0.25500000920E-02 0.  1.
       -2   -1    0    0    0  501  0.00000000000E+00  0.00000000000E+00 -0.64745965838E+03  0.64745965838E+03  0.25500000920E-02 0. -1.
    10030    2    1    2    0    0  0.00000000000E+00  0.00000000000E+00  0.60519750465E+03  0.19001168214E+04  0.18011607134E+04 0.  0.
        4    1    3    3  502    0 -0.65311753319E+03 -0.46274370802E+03  0.73800812876E+03  0.10887386567E+04  0.12699999809E+01 0.  1.
       -4    1    3    3    0  502  0.65311753319E+03  0.46274370802E+03 -0.13281062411E+03  0.81137816476E+03  0.12699999809E+01 0. -1.
</event>
<event>
 5   0  0.1837313E-04  0.1795283E+04  0.7818609E-02  0.8708812E-01
       -1   -1    0    0    0  501  0.00000000000E+00  0.00000000000E+00  0.87179667826E+03  0.87179667827E+03  0.50400001928E-02 0. -1.
        1   -1    0    0  501    0  0.00000000000E+00  0.00000000000E+00 -0.92425291933E+03  0.92425291934E+03  0.50400001928E-02 0.  1.
    10030    2    1    2    0    0  0.00000000000E+00  0.00000000000E+00 -0.52456241073E+02  0.17960495976E+04  0.17952834038E+04 0.  0.
        1    1    3    3  502    0  0.19825001198E+02 -0.83339870863E+03  0.30680159858E+03  0.88829818143E+03  0.50400001928E-02 0. -1.
       -1    1    3    3    0  502 -0.19825001198E+02  0.83339870863E+03 -0.35925783965E+03  0.90775141619E+03  0.50400001928E-02 0.  1.
</event>
<event>
 5   0  0.3628581E-04  0.1767332E+04  0.7818609E-02  0.8723867E-01
       -2   -1    0    0    0  501  0.00000000000E+00  0.00000000000E+00  0.43925809895E+03  0.43925809895E+03  0.25500000920E-02 0.  1.
        2   -1    0    0  501    0  0.00000000000E+00  0.00000000000E+00 -0.17776928285E+04  0.17776928285E+04  0.25500000920E-02 0. -1.
    10030    2    1    2    0    0  0.00000000000E+00  0.00000000000E+00 -0.13384347295E+04  0.22169509274E+04  0.17673324219E+04 0.  0.
        2    1    3    3  502    0 -0.71576989366E+01  0.41035921233E+03  0.31244589680E+03  0.51581814066E+03  0.25500000920E-02 0.  1.
       -2    1    3    3    0  502  0.71576989366E+01 -0.41035921233E+03 -0.16508806263E+04  0.17011327868E+04  0.25500000920E-02 0. -1.
</event>
<event>
 5   0  0.1883959E-04  0.1774029E+04  0.7818609E-02  0.8720234E-01
        1   -1    0    0  501    0  0.00000000000E+00  0.00000000000E+00  0.15487024318E+04  0.15487024318E+04  0.50400001928E-02 0. -1.
       -1   -1    0    0    0  501  0.00000000000E+00  0.00000000000E+00 -0.50803479372E+03  0.50803479374E+03  0.50400001928E-02 0.  1.
    10030    2    1    2    0    0  0.00000000000E+00  0.00000000000E+00  0.10406676381E+04  0.20567372256E+04  0.17740289970E+04 0.  0.
        5    1    3    3  502    0  0.12286754053E+03  0.18703941766E+02  0.15385434048E+04  0.15435621687E+04  0.46999998093E+01 0. -1.
       -5    1    3    3    0  502 -0.12286754053E+03 -0.18703941766E+02 -0.49787576672E+03  0.51317505692E+03  0.46999998093E+01 0.  1.
</event>
<event>
 5   0  0.1825253E-04  0.1792899E+04  0.7818609E-02  0.8710085E-01
       -1   -1    0    0    0  501  0.00000000000E+00  0.00000000000E+00  0.11493473396E+04  0.11493473396E+04  0.50400001928E-02 0. -1.
        1   -1    0    0  501    0  0.00000000000E+00  0.00000000000E+00 -0.69919855290E+03  0.69919855292E+03  0.50400001928E-02 0.  1.
    10030    2    1    2    0    0  0.00000000000E+00  0.00000000000E+00  0.45014878671E+03  0.18485458925E+04  0.17928993242E+04 0.  0.
        4    1    3    3  502    0  0.64496522389E+03 -0.39563875711E+03  0.72073443232E+03  0.10449736365E+04  0.12699999809E+01 0. -1.
       -4    1    3    3    0  502 -0.64496522389E+03  0.39563875711E+03 -0.27058564561E+03  0.80357225603E+03  0.12699999809E+01 0.  1.
</event>
<event>
 5   0  0.1883959E-04  0.1731536E+04  0.7818609E-02  0.8743580E-01
        1   -1    0    0  501    0  0.00000000000E+00  0.00000000000E+00  0.41442293085E+03  0.41442293088E+03  0.50400001928E-02 0. -1.
       -1   -1    0    0    0  501  0.00000000000E+00  0.00000000000E+00 -0.18086701580E+04  0.18086701580E+04  0.50400001928E-02 0.  1.
    10030    2    1    2    0    0  0.00000000000E+00  0.00000000000E+00 -0.13942472271E+04  0.22230930889E+04  0.17315361825E+04 0.  0.
        5    1    3    3  502    0  0.63890223351E+03 -0.19058160682E+03  0.11942277211E+02  0.66684490013E+03  0.46999998093E+01 0. -1.
       -5    1    3    3    0  502 -0.63890223351E+03  0.19058160682E+03 -0.14061895043E+04  0.15562481887E+04  0.46999998093E+01 0.  1.
</event>
<event>
 5   0  0.3568870E-04  0.1800901E+04  0.7818609E-02  0.8705820E-01
        2   -1    0    0  501    0  0.00000000000E+00  0.00000000000E+00  0.10322656375E+04  0.10322656375E+04  0.25500000920E-02 0. -1.
       -2   -1    0    0    0  501  0.00000000000E+00  0.00000000000E+00 -0.78546781476E+03  0.78546781476E+03  0.25500000920E-02 0.  1.
    10030    2    1    2    0    0  0.00000000000E+00  0.00000000000E+00  0.24679782272E+03  0.18177334522E+04  0.18009013682E+04 0.  0.
        1    1    3    3  502    0  0.38336841636E+03 -0.81476187560E+03  0.12159957971E+03  0.90862242675E+03  0.50400001928E-02 0.  1.
       -1    1    3    3    0  502 -0.38336841636E+03  0.81476187560E+03  0.12519824301E+03  0.90911102549E+03  0.50400001928E-02 0. -1.
</event>
<event>
 5   0  0.3531266E-04  0.1792502E+04  0.7818609E-02  0.8710297E-01
       -2   -1    0    0    0  501  0.00000000000E+00  0.00000000000E+00  0.10494710149E+04  0.10494710149E+04  0.25500000920E-02 0.  1.
        2   -1    0    0  501    0  0.00000000000E+00  0.00000000000E+00 -0.76540104723E+03  0.76540104724E+03  0.25500000920E-02 0. -1.
    10030    2    1    2    0    0  0.00000000000E+00  0.00000000000E+00  0.28406996769E+03  0.18148720622E+04  0.17925024004E+04 0.  0.
        3    1    3    3  502    0 -0.55806103225E+03  0.67897716706E+03 -0.35723948624E+02  0.87961259644E+03  0.10100000352E+00 0. -1.
       -3    1    3    3    0  502  0.55806103225E+03 -0.67897716706E+03  0.31979391632E+03  0.93525946572E+03  0.10100000352E+00 0.  1.
</event>
<event>
 5   0  0.3575091E-04  0.1738941E+04  0.7818609E-02  0.8739461E-01
       -2   -1    0    0    0  501  0.00000000000E+00  0.00000000000E+00  0.44973015606E+03  0.44973015607E+03  0.25500000920E-02 0.  1.
        2   -1    0    0  501    0  0.00000000000E+00  0.00000000000E+00 -0.16809618071E+04  0.16809618071E+04  0.25500000920E-02 0. -1.
    10030    2    1    2    0    0  0.00000000000E+00  0.00000000000E+00 -0.12312316511E+04  0.21306919632E+04  0.17389413053E+04 0.  0.
        5    1    3    3  502    0  0.58933121275E+03  0.21780902851E+03  0.12078228562E+03  0.63981442758E+03  0.46999998093E+01 0.  1.
       -5    1    3    3    0  502 -0.58933121275E+03 -0.21780902851E+03 -0.13520139367E+04  0.14908775356E+04  0.46999998093E+01 0. -1.
</event>
<event>
 5   0  0.1883959E-04  0.1824387E+04  0.7818609E-02  0.8693437E-01
        1   -1    0    0  501    0  0.00000000000E+00  0.00000000000E+00  0.96485221360E+03  0.96485221362E+03  0.50400001928E-02 0.  1.
       -1   -1    0    0    0  501  0.00000000000E+00  0.00000000000E+00 -0.86240900196E+03  0.86240900198E+03  0.50400001928E-02 0. -1.
    10030    2    1    2    0    0  0.00000000000E+00  0.00000000000E+00  0.10244321164E+03  0.18272612156E+04  0.18243872775E+04 0.  0.
        5    1    3    3  502    0  0.60571332991E+02  0.53878064693E+03 -0.68350174545E+03  0.87243922305E+03  0.46999998093E+01 0. -1.
       -5    1    3    3    0  502 -0.60571332991E+02 -0.53878064693E+03  0.78594495709E+03  0.95482199255E+03  0.46999998093E+01 0.  1.
</event>
<event>
 5   0  0.3531266E-04  0.1771640E+04  0.7818609E-02  0.8721528E-01
        2   -1    0    0  501    0  0.00000000000E+00  0.00000000000E+00  0.15958697812E+04  0.15958697812E+04  0.25500000920E-02 0.  1.
       -2   -1    0    0    0  501  0.00000000000E+00  0.00000000000E+00 -0.49169262233E+03  0.49169262234E+03  0.25500000920E-02 0. -1.
    10030    2    1    2    0    0  0.00000000000E+00  0.00000000000E+00  0.11041771589E+04  0.20875624036E+04  0.17716403672E+04 0.  0.
        3    1    3    3  502    0 -0.48729697388E+03 -0.29684726551E+03  0.13504837468E+04  0.14660774196E+04  0.10100000352E+00 0.  1.
       -3    1    3    3    0  502  0.48729697388E+03  0.29684726551E+03 -0.24630658791E+03  0.62148498392E+03  0.10100000352E+00 0. -1.
</event>
<event>
 5   0  0.3582186E-04  0.1794931E+04  0.7818609E-02  0.8709000E-01
       -2   -1    0    0    0  501  0.00000000000E+00  0.00000000000E+00  0.66808464449E+03  0.66808464450E+03  0.25500000920E-02 0. -1.
        2   -1    0    0  501    0  0.00000000000E+00  0.00000000000E+00 -0.12056023432E+04  0.12056023432E+04  0.25500000920E-02 0.  1.
    10030    2    1    2    0    0  0.00000000000E+00  0.00000000000E+00 -0.53751769868E+03  0.18736869877E+04  0.17949310993E+04 0.  0.
        4    1    3    3  502    0 -0.14504675511E+03 -0.61031478900E+03 -0.93872945527E+03  0.11290426502E+04  0.12699999809E+01 0.  1.
       -4    1    3    3    0  502  0.14504675511E+03  0.61031478900E+03  0.40121175659E+03  0.74464433749E+03  0.12699999809E+01 0. -1.
</event>
<event>
 5   0  0.3575091E-04  0.1807547E+04  0.7818609E-02  0.8702296E-01
       -2   -1    0    0    0  501  0.00000000000E+00  0.00000000000E+00  0.80618845681E+03  0.80618845682E+03  0.25500000920E-02 0.  1.
        2   -1    0    0  501    0  0.00000000000E+00  0.00000000000E+00 -0.10131706744E+04  0.10131706744E+04  0.25500000920E-02 0. -1.
    10030    2    1    2    0    0  0.00000000000E+00  0.00000000000E+00 -0.20698221756E+03  0.18193591312E+04  0.18075469592E+04 0.  0.
        5    1    3    3  502    0 -0.91878509323E+02 -0.67007590092E+03  0.49987686641E+03  0.84103647069E+03  0.46999998093E+01 0.  1.
       -5    1    3    3    0  502  0.91878509323E+02  0.67007590092E+03 -0.70685908396E+03  0.97832266050E+03  0.46999998093E+01 0. -1.
</event>
<event>
 5   0  0.1883959E-04  0.1798246E+04  0.7818609E-02  0.8707233E-01
       -1   -1    0    0    0  501  0.00000000000E+00  0.00000000000E+00  0.64938238833E+03  0.64938238835E+03  0.50400001928E-02 0. -1.
        1   -1    0    0  501    0  0.00000000000E+00  0.00000000000E+00 -0.12449097811E+04  0.12449097811E+04  0.50400001928E-02 0.  1.
    10030    2    1    2    0    0  0.00000000000E+00  0.00000000000E+00 -0.59552739276E+03  0.18942921695E+04  0.17982463535E+04 0.  0.
        5    1    3    3  502    0  0.80410843765E+03  0.92185043637E+02  0.11470002753E+03  0.81747577829E+03  0.46999998093E+01 0. -1.
       -5    1    3    3    0  502 -0.80410843765E+03 -0.92185043637E+02 -0.71022742029E+03  0.10768163912E+04  0.46999998093E+01 0.  1.
</event>
<event>
 5   0  0.3531266E-04  0.1643420E+04  0.7818609E-02  0.8794309E-01
       -2   -1    0    0    0  501  0.00000000000E+00  0.00000000000E+00  0.43026134483E+03  0.43026134483E+03  0.25500000920E-02 0.  1.
        2   -1    0    0  501    0  0.00000000000E+00  0.00000000000E+00 -0.15692954093E+04  0.15692954093E+04  0.25500000920E-02 0. -1.
    10030    2    1    2    0    0  0.00000000000E+00  0.00000000000E+00 -0.11390340645E+04  0.19995567542E+04  0.16434197921E+04 0.  0.
        3    1    3    3  502    0  0.64216141844E+03  0.38043810401E+03 -0.98765070612E+03  0.12379654138E+04  0.10100000352E+00 0.  1.
       -3    1    3    3    0  502 -0.64216141844E+03 -0.38043810401E+03 -0.15138335840E+03  0.76159134036E+03  0.10100000352E+00 0. -1.
</event>
<event>
 5   0  0.3568870E-04  0.1794880E+04  0.7818609E-02  0.8709027E-01
       -2   -1    0    0    0  501  0.00000000000E+00  0.00000000000E+00  0.49671490457E+03  0.49671490458E+03  0.25500000920E-02 0.  1.
        2   -1    0    0  501    0  0.00000000000E+00  0.00000000000E+00 -0.16214511073E+04  0.16214511073E+04  0.25500000920E-02 0. -1.
    10030    2    1    2    0    0  0.00000000000E+00  0.00000000000E+00 -0.11247362027E+04  0.21181660118E+04  0.17948804217E+04 0.  0.
        1    1    3    3  502    0  0.44760679689E+03  0.75565678266E+03 -0.34466986948E+03  0.94348626739E+03  0.50400001928E-02 0.  1.
       -1    1    3    3    0  502 -0.44760679689E+03 -0.75565678266E+03 -0.78006633320E+03  0.11746797444E+04  0.50400001928E-02 0. -1.
</event>
<event>
 5   0  0.3582186E-04  0.1809144E+04  0.7818609E-02  0.8701452E-01
        2   -1    0    0  501    0  0.00000000000E+00  0.00000000000E+00  0.13056962096E+04  0.13056962096E+04  0.25500000920E-02 0. -1.
       -2   -1    0    0    0  501  0.00000000000E+00  0.00000000000E+00 -0.62667780880E+03  0.62667780881E+03  0.25500000920E-02 0.  1.
    10030    2    1    2    0    0  0.00000000000E+00  0.00000000000E+00  0.67901840077E+03  0.19323740184E+04  0.18091443719E+04 0.  0.
        4    1    3    3  502    0  0.99029758182E+02  0.43991770275E+03  0.11770875038E+04  0.12605042970E+04  0.12699999809E+01 0. -1.
       -4    1    3    3    0  502 -0.99029758182E+02 -0.43991770275E+03 -0.49806910305E+03  0.67186972139E+03  0.12699999809E+01 0.  1.
</event>
<event>
 5   0  0.3568870E-04  0.1840771E+04  0.7818609E-02  0.8684914E-01
        2   -1    0    0  501    0  0.00000000000E+00  0.00000000000E+00  0.15216518565E+04  0.15216518565E+04  0.25500000920E-02 0. -1.
       -2   -1    0    0    0  501  0.00000000000E+00  0.00000000000E+00 -0.55670359238E+03  0.55670359239E+03  0.25500000920E-02 0.  1.
    10030    2    1    2    0    0  0.00000000000E+00  0.00000000000E+00  0.96494826415E+03  0.20783554489E+04  0.18407705505E+04 0.  0.
        1    1    3    3  502    0  0.72247732967E+03  0.45171347119E+03  0.87536796163E+03  0.12215922479E+04  0.50400001928E-02 0. -1.
       -1    1    3    3    0  502 -0.72247732967E+03 -0.45171347119E+03  0.89580302519E+02  0.85676320099E+03  0.50400001928E-02 0.  1.
</event>
<event>
 5   0  0.3531266E-04  0.2139252E+04  0.7818609E-02  0.8544147E-01
       -2   -1    0    0    0  501  0.00000000000E+00  0.00000000000E+00  0.13269209694E+04  0.13269209694E+04  0.25500000920E-02 0.  1.
        2   -1    0    0  501    0  0.00000000000E+00  0.00000000000E+00 -0.86222122427E+03  0.86222122427E+03  0.25500000920E-02 0. -1.
    10030    2    1    2    0    0  0.00000000000E+00  0.00000000000E+00  0.46469974510E+03  0.21891421936E+04  0.21392516661E+04 0.  0.
        3    1    3    3  502    0 -0.76320449279E+03  0.12707003742E+02  0.99912900265E+03  0.12573389916E+04  0.10100000352E+00 0.  1.
       -3    1    3    3    0  502  0.76320449279E+03 -0.12707003742E+02 -0.53442925755E+03  0.93180320201E+03  0.10100000352E+00 0. -1.
</event>
<event>
 5   0  0.3628581E-04  0.1829430E+04  0.7818609E-02  0.8690804E-01
        2   -1    0    0  501    0  0.00000000000E+00  0.00000000000E+00  0.49550043208E+03  0.49550043209E+03  0.25500000920E-02 0.  1.
       -2   -1    0    0    0  501  0.00000000000E+00  0.00000000000E+00 -0.16886021915E+04  0.16886021915E+04  0.25500000920E-02 0. -1.
    10030    2    1    2    0    0  0.00000000000E+00  0.00000000000E+00 -0.11931017595E+04  0.21841026236E+04  0.18294295455E+04 0.  0.
        2    1    3    3  502    0  0.61247563701E+03 -0.35367130791E+03 -0.12890920118E+04  0.14703632255E+04  0.25500000920E-02 0. -1.
       -2    1    3    3    0  502 -0.61247563701E+03  0.35367130791E+03  0.95990252304E+02  0.71373939818E+03  0.25500000920E-02 0.  1.
</event>
<event>
 5   0  0.3568870E-04  0.1773846E+04  0.7818609E-02  0.8720333E-01
        2   -1    0    0  501    0  0.00000000000E+00  0.00000000000E+00  0.89362773528E+03  0.89362773529E+03  0.25500000920E-02 0. -1.
       -2   -1    0    0    0  501  0.00000000000E+00  0.00000000000E+00 -0.88026859944E+03  0.88026859945E+03  0.25500000920E-02 0.  1.
    10030    2    1    2    0    0  0.00000000000E+00  0.00000000000E+00  0.13359135840E+02  0.17738963347E+04  0.17738460305E+04 0.  0.
        1    1    3    3  502    0  0.25921618449E+02 -0.87663125887E+03 -0.12552910025E+03  0.88595250966E+03  0.50400001928E-02 0. -1.
       -1    1    3    3    0  502 -0.25921618449E+02  0.87663125887E+03  0.13888823609E+03  0.88794382508E+03  0.50400001928E-02 0.  1.
</event>
<event>
 5   0  0.3628581E-04  0.1799444E+04  0.7818609E-02  0.8706595E-01
        2   -1    0    0  501    0  0.00000000000E+00  0.00000000000E+00  0.13112792553E+04  0.13112792553E+04  0.25500000920E-02 0.  1.
       -2   -1    0    0    0  501  0.00000000000E+00  0.00000000000E+00 -0.61733600461E+03  0.61733600461E+03  0.25500000920E-02 0. -1.
    10030    2    1    2    0    0  0.00000000000E+00  0.00000000000E+00  0.69394325074E+03  0.19286152600E+04  0.17994442436E+04 0.  0.
        2    1    3    3  502    0 -0.51947048616E+03 -0.38178878232E+03  0.10196281804E+04  0.12063390429E+04  0.25500000920E-02 0.  1.
       -2    1    3    3    0  502  0.51947048616E+03  0.38178878232E+03 -0.32568492963E+03  0.72227621703E+03  0.25500000920E-02 0. -1.
</event>
<event>
 5   0  0.1837313E-04  0.1800954E+04  0.7818609E-02  0.8705792E-01
        1   -1    0    0  501    0  0.00000000000E+00  0.00000000000E+00  0.52864649847E+03  0.52864649849E+03  0.50400001928E-02 0. -1.
       -1   -1    0    0    0  501  0.00000000000E+00  0.00000000000E+00 -0.15338391128E+04  0.15338391129E+04  0.50400001928E-02 0.  1.
    10030    2    1    2    0    0  0.00000000000E+00  0.00000000000E+00 -0.10051926144E+04  0.20624856113E+04  0.18009538320E+04 0.  0.
        1    1    3    3  502    0 -0.29481453230E+03 -0.80232691997E+03 -0.82694713307E+03  0.11893215107E+04  0.50400001928E-02 0.  1.
       -1    1    3    3    0  502  0.29481453230E+03  0.80232691997E+03 -0.17824548131E+03  0.87316410061E+03  0.50400001928E-02 0. -1.
</event>
<event>
 5   0  0.1835421E-04  0.1714219E+04  0.7818609E-02  0.8753296E-01
       -1   -1    0    0    0  501  0.00000000000E+00  0.00000000000E+00  0.10691928942E+04  0.10691928942E+04  0.50400001928E-02 0. -1.
        1   -1    0    0  501    0  0.00000000000E+00  0.00000000000E+00 -0.68709469528E+03  0.68709469530E+03  0.50400001928E-02 0.  1.
    10030    2    1    2    0    0  0.00000000000E+00  0.00000000000E+00  0.38209819893E+03  0.17562875895E+04  0.17142190827E+04 0.  0.
        2    1    3    3  502    0  0.22865073946E+03  0.68519048027E+03  0.66374968509E+03  0.98098460710E+03  0.25500000920E-02 0. -1.
       -2    1    3    3    0  502 -0.22865073946E+03 -0.68519048027E+03 -0.28165148616E+03  0.77530298243E+03  0.25500000920E-02 0.  1.
</event>
<event>
 5   0  0.1825253E-04  0.1807766E+04  0.7818609E-02  0.8702180E-01
       -1   -1    0    0    0  501  0.00000000000E+00  0.00000000000E+00  0.46081045832E+03  0.46081045834E+03  0.50400001928E-02 0.  1.
        1   -1    0    0  501    0  0.00000000000E+00  0.00000000000E+00 -0.17729739035E+04  0.17729739035E+04  0.50400001928E-02 0. -1.
    10030    2    1    2    0    0  0.00000000000E+00  0.00000000000E+00 -0.13121634452E+04  0.22337843619E+04  0.18077664861E+04 0.  0.
        4    1    3    3  502    0  0.16537599593E+03  0.70289832357E+02 -0.17506792339E+04  0.17598776302E+04  0.12699999809E+01 0. -1.
       -4    1    3    3    0  502 -0.16537599593E+03 -0.70289832357E+02  0.43851578863E+03  0.47390673168E+03  0.12699999809E+01 0.  1.
</event>
<event>
 5   0  0.1883959E-04  0.1625325E+04  0.7818609E-02  0.8805139E-01
       -1   -1    0    0    0  501  0.00000000000E+00  0.00000000000E+00  0.62704675658E+03  0.62704675660E+03  0.50400001928E-02 0.  1.
        1   -1    0    0  501    0  0.00000000000E+00  0.00000000000E+00 -0.10532229913E+04  0.10532229913E+04  0.50400001928E-02 0. -1.
    10030    2    1    2    0    0  0.00000000000E+00  0.00000000000E+00 -0.42617623473E+03  0.16802697479E+04  0.16253246576E+04 0.  0.
        5    1    3    3  502    0  0.47555389076E+03  0.79336855302E+02  0.46320735653E+03  0.66860226202E+03  0.46999998093E+01 0.  1.
       -5    1    3    3    0  502 -0.47555389076E+03 -0.79336855302E+02 -0.88938359126E+03  0.10116674859E+04  0.46999998093E+01 0. -1.
</event>
<event>
 5   0  0.3531266E-04  0.1783239E+04  0.7818609E-02  0.8715264E-01
        2   -1    0    0  501    0  0.00000000000E+00  0.00000000000E+00  0.11730751018E+04  0.11730751018E+04  0.25500000920E-02 0. -1.
       -2   -1    0    0    0  501  0.00000000000E+00  0.00000000000E+00 -0.67769375320E+03  0.67769375321E+03  0.25500000920E-02 0.  1.
    10030    2    1    2    0    0  0.00000000000E+00  0.00000000000E+00  0.49538134856E+03  0.18507688550E+04  0.17832393765E+04 0.  0.
        3    1    3    3  502    0 -0.82887720894E+03 -0.21997067422E+03  0.50098415577E+03  0.99318158439E+03  0.10100000352E+00 0. -1.
       -3    1    3    3    0  502  0.82887720894E+03  0.21997067422E+03 -0.56028072097E+01  0.85758727059E+03  0.10100000352E+00 0.  1.
</event>
<event>
 5   0  0.1330125E-04  0.1810467E+04  0.7818609E-02  0.8700753E-01
        3   -1    0    0  501    0  0.00000000000E+00  0.00000000000E+00  0.45601789100E+03  0.45601790218E+03  0.10100000352E+00 0.  1.
       -3   -1    0    0    0  501  0.00000000000E+00  0.00000000000E+00 -0.17969634147E+04  0.17969634175E+04  0.10100000352E+00 0. -1.
    10030    2    1    2    0    0  0.00000000000E+00  0.00000000000E+00 -0.13409455237E+04  0.22529813197E+04  0.18104667712E+04 0.  0.
        3    1    3    3  502    0  0.79014190664E+03  0.12572243319E+03 -0.14351246248E+03  0.81285066275E+03  0.10100000352E+00 0.  1.
       -3    1    3    3    0  502 -0.79014190664E+03 -0.12572243319E+03 -0.11974330612E+04  0.14401306570E+04  0.10100000352E+00 0. -1.
</event>
<event>
 5   0  0.3531266E-04  0.1809241E+04  0.7818609E-02  0.8701400E-01
        2   -1    0    0  501    0  0.00000000000E+00  0.00000000000E+00  0.14192051823E+04  0.14192051823E+04  0.25500000920E-02 0.  1.
       -2   -1    0    0    0  501  0.00000000000E+00  0.00000000000E+00 -0.57661758508E+03  0.57661758508E+03  0.25500000920E-02 0. -1.
    10030    2    1    2    0    0  0.00000000000E+00  0.00000000000E+00  0.84258759721E+03  0.19958227674E+04  0.18092414598E+04 0.  0.
        3    1    3    3  502    0  0.61453920513E+03 -0.63907009916E+03  0.22313086462E+03  0.91425183579E+03  0.10100000352E+00 0.  1.
       -3    1    3    3    0  502 -0.61453920513E+03  0.63907009916E+03  0.61945673259E+03  0.10815709316E+04  0.10100000352E+00 0. -1.
</event>
<event>
 5   0  0.1818778E-04  0.1791580E+04  0.7818609E-02  0.8710790E-01
       -1   -1    0    0    0  501  0.00000000000E+00  0.00000000000E+00  0.11735973972E+04  0.11735973972E+04  0.50400001928E-02 0.  1.
        1   -1    0    0  501    0  0.00000000000E+00  0.00000000000E+00 -0.68374370599E+03  0.68374370601E+03  0.50400001928E-02 0. -1.
    10030    2    1    2    0    0  0.00000000000E+00  0.00000000000E+00  0.48985369123E+03  0.18573411032E+04  0.17915801224E+04 0.  0.
        3    1    3    3  502    0  0.71112843274E+03 -0.86320297441E+02  0.80252121371E+03  0.10757300545E+04  0.10100000352E+00 0.  1.
       -3    1    3    3    0  502 -0.71112843274E+03  0.86320297441E+02 -0.31266752248E+03  0.78161104868E+03  0.10100000352E+00 0. -1.
</event>
<event>
 5   0  0.1825253E-04  0.1800220E+04  0.7818609E-02  0.8706182E-01
        1   -1    0    0  501    0  0.00000000000E+00  0.00000000000E+00  0.40795780630E+03  0.40795780633E+03  0.50400001928E-02 0.  1.
       -1   -1    0    0    0  501  0.00000000000E+00  0.00000000000E+00 -0.19859851105E+04  0.19859851105E+04  0.50400001928E-02 0. -1.
    10030    2    1    2    0    0  0.00000000000E+00  0.00000000000E+00 -0.15780273042E+04  0.23939429168E+04  0.18002201299E+04 0.  0.
        4    1    3    3  502    0  0.39846378383E+03 -0.65094073272E+03 -0.15445902302E+03  0.77868891557E+03  0.12699999809E+01 0.  1.
       -4    1    3    3    0  502 -0.39846378383E+03  0.65094073272E+03 -0.14235682812E+04  0.16152540012E+04  0.12699999809E+01 0. -1.
</event>
<event>
 5   0  0.1883959E-04  0.1822690E+04  0.7818609E-02  0.8694326E-01
        1   -1    0    0  501    0  0.00000000000E+00  0.00000000000E+00  0.11543219844E+04  0.11543219844E+04  0.50400001928E-02 0.  1.
       -1   -1    0    0    0  501  0.00000000000E+00  0.00000000000E+00 -0.71951270894E+03  0.71951270896E+03  0.50400001928E-02 0. -1.
    10030    2    1    2    0    0  0.00000000000E+00  0.00000000000E+00  0.43480927541E+03  0.18738346933E+04  0.18226895929E+04 0.  0.
        5    1    3    3  502    0 -0.47548459379E+03  0.71419236052E+03  0.53322320489E+03  0.10102006746E+04  0.46999998093E+01 0.  1.
       -5    1    3    3    0  502  0.47548459379E+03 -0.71419236052E+03 -0.98413929482E+02  0.86363401871E+03  0.46999998093E+01 0. -1.
</event>
<event>
 5   0  0.3582186E-04  0.1802575E+04  0.7818609E-02  0.8704932E-01
       -2   -1    0    0    0  501  0.00000000000E+00  0.00000000000E+00  0.63451523803E+03  0.63451523803E+03  0.25500000920E-02 0.  1.
        2   -1    0    0  501    0  0.00000000000E+00  0.00000000000E+00 -0.12802194356E+04  0.12802194356E+04  0.25500000920E-02 0. -1.
    10030    2    1    2    0    0  0.00000000000E+00  0.00000000000E+00 -0.64570419754E+03  0.19147346736E+04  0.18025745365E+04 0.  0.
        4    1    3    3  502    0  0.35078048692E+03  0.80629202742E+03 -0.53306300816E+03  0.10282565667E+04  0.12699999809E+01 0. -1.
       -4    1    3    3    0  502 -0.35078048692E+03 -0.80629202742E+03 -0.11264118938E+03  0.88647810685E+03  0.12699999809E+01 0.  1.
</event>
<event>
 5   0  0.3582186E-04  0.1867166E+04  0.7818609E-02  0.8671375E-01
        2   -1    0    0  501    0  0.00000000000E+00  0.00000000000E+00  0.79905094501E+03  0.79905094501E+03  0.25500000920E-02 0. -1.
       -2   -1    0    0    0  501  0.00000000000E+00  0.00000000000E+00 -0.10907660851E+04  0.10907660852E+04  0.25500000920E-02 0.  1.
    10030    2    1    2    0    0  0.00000000000E+00  0.00000000000E+00 -0.29171514014E+03  0.18898170302E+04  0.18671664855E+04 0.  0.
        4    1    3    3  502    0  0.54627955045E+03  0.35391935513E+03 -0.82322640358E+03  0.10494682376E+04  0.12699999809E+01 0.  1.
       -4    1    3    3    0  502 -0.54627955045E+03 -0.35391935513E+03  0.53151126344E+03  0.84034879261E+03  0.12699999809E+01 0. -1.
</event>
<event>
 5   0  0.3531266E-04  0.1768091E+04  0.7818609E-02  0.8723455E-01
        2   -1    0    0  501    0  0.00000000000E+00  0.00000000000E+00  0.11249499093E+04  0.11249499093E+04  0.25500000920E-02 0.  1.
       -2   -1    0    0    0  501  0.00000000000E+00  0.00000000000E+00 -0.69472970221E+03  0.69472970222E+03  0.25500000920E-02 0. -1.
    10030    2    1    2    0    0  0.00000000000E+00  0.00000000000E+00  0.43022020709E+03  0.18196796115E+04  0.17680906261E+04 0.  0.
        3    1    3    3  502    0  0.28247725205E+03 -0.70785378473E+03  0.67616076588E+03  0.10188443306E+04  0.10100000352E+00 0.  1.
       -3    1    3    3    0  502 -0.28247725205E+03  0.70785378473E+03 -0.24594055880E+03  0.80083528091E+03  0.10100000352E+00 0. -1.
</event>
<event>
 5   0  0.1837313E-04  0.1799618E+04  0.7818609E-02  0.8706502E-01
       -1   -1    0    0    0  501  0.00000000000E+00  0.00000000000E+00  0.33485303732E+03  0.33485303736E+03  0.50400001928E-02 0. -1.
        1   -1    0    0  501    0  0.00000000000E+00  0.00000000000E+00 -0.24179457860E+04  0.24179457860E+04  0.50400001928E-02 0.  1.
    10030    2    1    2    0    0  0.00000000000E+00  0.00000000000E+00 -0.20830927487E+04  0.27527988234E+04  0.17996182824E+04 0.  0.
        1    1    3    3  502    0  0.51969441133E+03 -0.56350722999E+03 -0.17623278792E+04  0.19218278366E+04  0.50400001928E-02 0.  1.
       -1    1    3    3    0  502 -0.51969441133E+03  0.56350722999E+03 -0.32076486945E+03  0.83097098681E+03  0.50400001928E-02 0. -1.
</event>
<event>
 5   0  0.3582186E-04  0.1801410E+04  0.7818609E-02  0.8705550E-01
       -2   -1    0    0    0  501  0.00000000000E+00  0.00000000000E+00  0.95043636759E+03  0.95043636759E+03  0.25500000920E-02 0.  1.
        2   -1    0    0  501    0  0.00000000000E+00  0.00000000000E+00 -0.85357586401E+03  0.85357586402E+03  0.25500000920E-02 0. -1.
    10030    2    1    2    0    0  0.00000000000E+00  0.00000000000E+00  0.96860503577E+02  0.18040122316E+04  0.18014100518E+04 0.  0.
        4    1    3    3  502    0 -0.35668469492E+02  0.10619442854E+03  0.94343172482E+03  0.95006027634E+03  0.12699999809E+01 0.  1.
       -4    1    3    3    0  502  0.35668469492E+02 -0.10619442854E+03 -0.84657122125E+03  0.85395195527E+03  0.12699999809E+01 0. -1.
</event>
<event>
 5   0  0.1825253E-04  0.1757088E+04  0.7818609E-02  0.8729458E-01
       -1   -1    0    0    0  501  0.00000000000E+00  0.00000000000E+00  0.56782682189E+03  0.56782682191E+03  0.50400001928E-02 0. -1.
        1   -1    0    0  501    0  0.00000000000E+00  0.00000000000E+00 -0.13592871076E+04  0.13592871076E+04  0.50400001928E-02 0.  1.
    10030    2    1    2    0    0  0.00000000000E+00  0.00000000000E+00 -0.79146028572E+03  0.19271139295E+04  0.17570881348E+04 0.  0.
        4    1    3    3  502    0 -0.28356518902E+03 -0.86185683027E+02  0.51134271912E+03  0.59102468449E+03  0.12699999809E+01 0. -1.
       -4    1    3    3    0  502  0.28356518902E+03  0.86185683027E+02 -0.13028030048E+04  0.13360892450E+04  0.12699999809E+01 0.  1.
</event>
<event>
 5   0  0.3568870E-04  0.1810875E+04  0.7818609E-02  0.8700538E-01
        2   -1    0    0  501    0  0.00000000000E+00  0.00000000000E+00  0.12149894578E+04  0.12149894578E+04  0.25500000920E-02 0.  1.
       -2   -1    0    0    0  501  0.00000000000E+00  0.00000000000E+00 -0.67475230902E+03  0.67475230902E+03  0.25500000920E-02 0. -1.
    10030    2    1    2    0    0  0.00000000000E+00  0.00000000000E+00  0.54023714874E+03  0.18897417668E+04  0.18108748627E+04 0.  0.
        1    1    3    3  502    0 -0.61704364783E+03 -0.66168674120E+03  0.23330122561E+03  0.93434558313E+03  0.50400001928E-02 0.  1.
       -1    1    3    3    0  502  0.61704364783E+03  0.66168674120E+03  0.30693592313E+03  0.95539618365E+03  0.50400001928E-02 0. -1.
</event>
<event>
 5   0  0.3575091E-04  0.1795949E+04  0.7818609E-02  0.8708457E-01
       -2   -1    0    0    0  501  0.00000000000E+00  0.00000000000E+00  0.30333137632E+03  0.30333137633E+03  0.25500000920E-02 0. -1.
        2   -1    0    0  501    0  0.00000000000E+00  0.00000000000E+00 -0.26583410674E+04  0.26583410674E+04  0.25500000920E-02 0.  1.
    10030    2    1    2    0    0  0.00000000000E+00  0.00000000000E+00 -0.23550096911E+04  0.29616724438E+04  0.17959490580E+04 0.  0.
        5    1    3    3  502    0 -0.54952635058E+02 -0.19359169266E+03 -0.26206554150E+04  0.26283748648E+04  0.46999998093E+01 0.  1.
       -5    1    3    3    0  502  0.54952635058E+02  0.19359169266E+03  0.26564572387E+03  0.33329757901E+03  0.46999998093E+01 0. -1.
</event>
<event>
 5   0  0.1825253E-04  0.1739379E+04  0.7818609E-02  0.8739218E-01
       -1   -1    0    0    0  501  0.00000000000E+00  0.00000000000E+00  0.14963526661E+04  0.14963526661E+04  0.50400001928E-02 0.  1.
        1   -1    0    0  501    0  0.00000000000E+00  0.00000000000E+00 -0.50546907143E+03  0.50546907145E+03  0.50400001928E-02 0. -1.
    10030    2    1    2    0    0  0.00000000000E+00  0.00000000000E+00  0.99088359471E+03  0.20018217376E+04  0.17393791912E+04 0.  0.
        4    1    3    3  502    0  0.50710084452E+03  0.68352907423E+03  0.28958131372E+03  0.89901179747E+03  0.12699999809E+01 0. -1.
       -4    1    3    3    0  502 -0.50710084452E+03 -0.68352907423E+03  0.70130228099E+03  0.11028099401E+04  0.12699999809E+01 0.  1.
</event>
<event>
 5   0  0.1837313E-04  0.1785909E+04  0.7818609E-02  0.8713829E-01
       -1   -1    0    0    0  501  0.00000000000E+00  0.00000000000E+00  0.46487248484E+03  0.46487248487E+03  0.50400001928E-02 0. -1.
        1   -1    0    0  501    0  0.00000000000E+00  0.00000000000E+00 -0.17152403924E+04  0.17152403924E+04  0.50400001928E-02 0.  1.
    10030    2    1    2    0    0  0.00000000000E+00  0.00000000000E+00 -0.12503679075E+04  0.21801128773E+04  0.17859093631E+04 0.  0.
        1    1    3    3  502    0  0.54284466798E+03 -0.59417930037E+02  0.23727463815E+03  0.59540748895E+03  0.50400001928E-02 0. -1.
       -1    1    3    3    0  502 -0.54284466798E+03  0.59417930037E+02 -0.14876425457E+04  0.15847053883E+04  0.50400001928E-02 0.  1.
</event>
<event>
 5   0  0.1825253E-04  0.1793524E+04  0.7818609E-02  0.8709751E-01
       -1   -1    0    0    0  501  0.00000000000E+00  0.00000000000E+00  0.69594017273E+03  0.69594017275E+03  0.50400001928E-02 0. -1.
        1   -1    0    0  501    0  0.00000000000E+00  0.00000000000E+00 -0.11555336195E+04  0.11555336195E+04  0.50400001928E-02 0.  1.
    10030    2    1    2    0    0  0.00000000000E+00  0.00000000000E+00 -0.45959344674E+03  0.18514737922E+04  0.17935242031E+04 0.  0.
        4    1    3    3  502    0 -0.20420064878E+03  0.86291531743E+03 -0.36775567493E+03  0.95998260368E+03  0.12699999809E+01 0.  1.
       -4    1    3    3    0  502  0.20420064878E+03 -0.86291531743E+03 -0.91837771813E+02  0.89149118855E+03  0.12699999809E+01 0. -1.
</event>
<event>
 5   0  0.3582186E-04  0.1829586E+04  0.7818609E-02  0.8690722E-01
        2   -1    0    0  501    0  0.00000000000E+00  0.00000000000E+00  0.65112680566E+03  0.65112680567E+03  0.25500000920E-02 0. -1.
       -2   -1    0    0    0  501  0.00000000000E+00  0.00000000000E+00 -0.12852280523E+04  0.12852280523E+04  0.25500000920E-02 0.  1.
    10030    2    1    2    0    0  0.00000000000E+00  0.00000000000E+00 -0.63410124667E+03  0.19363548580E+04  0.18295862224E+04 0.  0.
        4    1    3    3  502    0  0.14276864451E+03 -0.89820864988E+03 -0.21290510274E+03  0.93407272749E+03  0.12699999809E+01 0. -1.
       -4    1    3    3    0  502 -0.14276864451E+03  0.89820864988E+03 -0.42119614392E+03  0.10022821305E+04  0.12699999809E+01 0.  1.
</event>
<event>
 5   0  0.1837313E-04  0.1666984E+04  0.7818609E-02  0.8780422E-01
        1   -1    0    0  501    0  0.00000000000E+00  0.00000000000E+00  0.13821521573E+04  0.13821521573E+04  0.50400001928E-02 0. -1.
       -1   -1    0    0    0  501  0.00000000000E+00  0.00000000000E+00 -0.50262829790E+03  0.50262829792E+03  0.50400001928E-02 0.  1.
    10030    2    1    2    0    0  0.00000000000E+00  0.00000000000E+00  0.87952385938E+03  0.18847804552E+04  0.16669838467E+04 0.  0.
        1    1    3    3  502    0  0.39354641049E+03  0.72652059287E+03  0.31591625028E+03  0.88459822874E+03  0.50400001928E-02 0.  1.
       -1    1    3    3    0  502 -0.39354641049E+03 -0.72652059287E+03  0.56360760910E+03  0.10001822265E+04  0.50400001928E-02 0. -1.
</event>
<event>
 5   0  0.3568870E-04  0.1858392E+04  0.7818609E-02  0.8675849E-01
       -2   -1    0    0    0  501  0.00000000000E+00  0.00000000000E+00  0.52426107343E+03  0.52426107343E+03  0.25500000920E-02 0. -1.
        2   -1    0    0  501    0  0.00000000000E+00  0.00000000000E+00 -0.16468986929E+04  0.16468986929E+04  0.25500000920E-02 0.  1.
    10030    2    1    2    0    0  0.00000000000E+00  0.00000000000E+00 -0.11226376195E+04  0.21711597663E+04  0.18583916450E+04 0.  0.
        1    1    3    3  502    0  0.89990254168E+03 -0.14184534246E+03 -0.77502580843E+03  0.11960809711E+04  0.50400001928E-02 0.  1.
       -1    1    3    3    0  502 -0.89990254168E+03  0.14184534246E+03 -0.34761181106E+03  0.97507879524E+03  0.50400001928E-02 0. -1.
</event>
<event>
 5   0  0.1330125E-04  0.1807709E+04  0.7818609E-02  0.8702211E-01
       -3   -1    0    0    0  501  0.00000000000E+00  0.00000000000E+00  0.14932590605E+04  0.14932590639E+04  0.10100000352E+00 0. -1.
        3   -1    0    0  501    0  0.00000000000E+00  0.00000000000E+00 -0.54709406085E+03  0.54709407018E+03  0.10100000352E+00 0.  1.
    10030    2    1    2    0    0  0.00000000000E+00  0.00000000000E+00  0.94616499967E+03  0.20403531341E+04  0.18077092425E+04 0.  0.
        4    1    3    3  502    0  0.60873669100E+03 -0.97769423414E+01  0.12271115382E+04  0.13698395116E+04  0.12699999809E+01 0. -1.
       -4    1    3    3    0  502 -0.60873669100E+03  0.97769423414E+01 -0.28094653850E+03  0.67051362251E+03  0.12699999809E+01 0.  1.
</event>
<event>
 5   0  0.1883959E-04  0.1793556E+04  0.7818609E-02  0.8709734E-01
       -1   -1    0    0    0  501  0.00000000000E+00  0.00000000000E+00  0.91304244270E+03  0.91304244271E+03  0.50400001928E-02 0. -1.
        1   -1    0    0  501    0  0.00000000000E+00  0.00000000000E+00 -0.88080285331E+03  0.88080285333E+03  0.50400001928E-02 0.  1.
    10030    2    1    2    0    0  0.00000000000E+00  0.00000000000E+00  0.32239589383E+02  0.17938452960E+04  0.17935555623E+04 0.  0.
        5    1    3    3  502    0  0.73757287908E+03  0.37964805301E+03 -0.32458447129E+03  0.89079939667E+03  0.46999998093E+01 0.  1.
       -5    1    3    3    0  502 -0.73757287908E+03 -0.37964805301E+03  0.35682406067E+03  0.90304589937E+03  0.46999998093E+01 0. -1.
</event>
<event>
 5   0  0.3531266E-04  0.1852993E+04  0.7818609E-02  0.8678615E-01
       -2   -1    0    0    0  501  0.00000000000E+00  0.00000000000E+00  0.58306403734E+03  0.58306403735E+03  0.25500000920E-02 0. -1.
        2   -1    0    0  501    0  0.00000000000E+00  0.00000000000E+00 -0.14722150847E+04  0.14722150847E+04  0.25500000920E-02 0.  1.
    10030    2    1    2    0    0  0.00000000000E+00  0.00000000000E+00 -0.88915104733E+03  0.20552791220E+04  0.18529928992E+04 0.  0.
        3    1    3    3  502    0  0.23124385561E+03  0.76204209015E+03  0.80628710080E+02  0.80042667810E+03  0.10100000352E+00 0. -1.
       -3    1    3    3    0  502 -0.23124385561E+03 -0.76204209015E+03 -0.96977975741E+03  0.12548524439E+04  0.10100000352E+00 0.  1.
</event>
<event>
 5   0  0.1837313E-04  0.1810251E+04  0.7818609E-02  0.8700867E-01
       -1   -1    0    0    0  501  0.00000000000E+00  0.00000000000E+00  0.88294793327E+03  0.88294793328E+03  0.50400001928E-02 0.  1.
        1   -1    0    0  501    0  0.00000000000E+00  0.00000000000E+00 -0.92785994866E+03  0.92785994867E+03  0.50400001928E-02 0. -1.
    10030    2    1    2    0    0  0.00000000000E+00  0.00000000000E+00 -0.44912015390E+02  0.18108078820E+04  0.18102508379E+04 0.  0.
        1    1    3    3  502    0  0.33312925766E+03 -0.82676859559E+03 -0.17976409217E+03  0.90930552722E+03  0.50400001928E-02 0. -1.
       -1    1    3    3    0  502 -0.33312925766E+03  0.82676859559E+03  0.13485207678E+03  0.90150235474E+03  0.50400001928E-02 0.  1.
</event>
<event>
 5   0  0.1883959E-04  0.1795504E+04  0.7818609E-02  0.8708694E-01
        1   -1    0    0  501    0  0.00000000000E+00  0.00000000000E+00  0.23393821537E+04  0.23393821537E+04  0.50400001928E-02 0. -1.
       -1   -1    0    0    0  501  0.00000000000E+00  0.00000000000E+00 -0.34451766769E+03  0.34451766773E+03  0.50400001928E-02 0.  1.
    10030    2    1    2    0    0  0.00000000000E+00  0.00000000000E+00  0.19948644860E+04  0.26838998214E+04  0.17955038106E+04 0.  0.
        5    1    3    3  502    0 -0.60085056324E+03 -0.61154675957E+03  0.13955223103E+04  0.16378386511E+04  0.46999998093E+01 0. -1.
       -5    1    3    3    0  502  0.60085056324E+03  0.61154675957E+03  0.59934217568E+03  0.10460611703E+04  0.46999998093E+01 0.  1.
</event>
<event>
 5   0  0.1330125E-04  0.1795432E+04  0.7818609E-02  0.8708732E-01
        3   -1    0    0  501    0  0.00000000000E+00  0.00000000000E+00  0.16865502273E+04  0.16865502303E+04  0.10100000352E+00 0.  1.
       -3   -1    0    0    0  501  0.00000000000E+00  0.00000000000E+00 -0.47783574349E+03  0.47783575417E+03  0.10100000352E+00 0. -1.
    10030    2    1    2    0    0  0.00000000000E+00  0.00000000000E+00  0.12087144838E+04  0.21643859844E+04  0.17954319777E+04 0.  0.
        3    1    3    3  502    0 -0.63987597012E+03 -0.58250095894E+03  0.89253220850E+03  0.12431260506E+04  0.10100000352E+00 0. -1.
       -3    1    3    3    0  502  0.63987597012E+03  0.58250095894E+03  0.31618227527E+03  0.92125993384E+03  0.10100000352E+00 0.  1.
</event>
<event>
 5   0  0.3575091E-04  0.1804605E+04  0.7818609E-02  0.8703854E-01
       -2   -1    0    0    0  501  0.00000000000E+00  0.00000000000E+00  0.87697873147E+03  0.87697873148E+03  0.25500000920E-02 0.  1.
        2   -1    0    0  501    0  0.00000000000E+00  0.00000000000E+00 -0.92835736746E+03  0.92835736746E+03  0.25500000920E-02 0. -1.
    10030    2    1    2    0    0  0.00000000000E+00  0.00000000000E+00 -0.51378635984E+02  0.18053360989E+04  0.18046048503E+04 0.  0.
        5    1    3    3  502    0  0.35602554278E+03 -0.26827236477E+03 -0.81048366497E+03  0.92500276216E+03  0.46999998093E+01 0. -1.
       -5    1    3    3    0  502 -0.35602554278E+03  0.26827236477E+03  0.75910502899E+03  0.88033333678E+03  0.46999998093E+01 0.  1.
</event>
<event>
 5   0  0.1837313E-04  0.1808094E+04  0.7818609E-02  0.8702007E-01
       -1   -1    0    0    0  501  0.00000000000E+00  0.00000000000E+00  0.77533011220E+03  0.77533011221E+03  0.50400001928E-02 0. -1.
        1   -1    0    0  501    0  0.00000000000E+00  0.00000000000E+00 -0.10541325221E+04  0.10541325221E+04  0.50400001928E-02 0.  1.
    10030    2    1    2    0    0  0.00000000000E+00  0.00000000000E+00 -0.27880240988E+03  0.18294626343E+04  0.18080936775E+04 0.  0.
        1    1    3    3  502    0  0.88649102898E+02  0.38467281155E+03  0.68351822225E+03  0.78932185803E+03  0.50400001928E-02 0. -1.
       -1    1    3    3    0  502 -0.88649102898E+02 -0.38467281155E+03 -0.96232063213E+03  0.10401407763E+04  0.50400001928E-02 0.  1.
</event>
<event>
 5   0  0.1883959E-04  0.1798259E+04  0.7818609E-02  0.8707226E-01
       -1   -1    0    0    0  501  0.00000000000E+00  0.00000000000E+00  0.36330185570E+03  0.36330185574E+03  0.50400001928E-02 0. -1.
        1   -1    0    0  501    0  0.00000000000E+00  0.00000000000E+00 -0.22252399114E+04  0.22252399114E+04  0.50400001928E-02 0.  1.
    10030    2    1    2    0    0  0.00000000000E+00  0.00000000000E+00 -0.18619380557E+04  0.25885417671E+04  0.17982589238E+04 0.  0.
        5    1    3    3  502    0 -0.53077012401E+03  0.48253158496E+03 -0.15065081310E+03  0.73298800298E+03  0.46999998093E+01 0. -1.
       -5    1    3    3    0  502  0.53077012401E+03 -0.48253158496E+03 -0.17112872426E+04  0.18555537642E+04  0.46999998093E+01 0.  1.
</event>
<event>
 5   0  0.1818778E-04  0.1691366E+04  0.7818609E-02  0.8766304E-01
        1   -1    0    0  501    0  0.00000000000E+00  0.00000000000E+00  0.18255844813E+04  0.18255844813E+04  0.50400001928E-02 0.  1.
       -1   -1    0    0    0  501  0.00000000000E+00  0.00000000000E+00 -0.39175376429E+03  0.39175376432E+03  0.50400001928E-02 0. -1.
    10030    2    1    2    0    0  0.00000000000E+00  0.00000000000E+00  0.14338307170E+04  0.22173382457E+04  0.16913658299E+04 0.  0.
        3    1    3    3  502    0  0.66517291008E+03  0.30725390480E+03  0.12705126551E+04  0.14666500535E+04  0.10100000352E+00 0.  1.
       -3    1    3    3    0  502 -0.66517291008E+03 -0.30725390480E+03  0.16331806190E+03  0.75068819217E+03  0.10100000352E+00 0. -1.
</event>
<event>
 5   0  0.3582186E-04  0.1631678E+04  0.7818609E-02  0.8801320E-01
       -2   -1    0    0    0  501  0.00000000000E+00  0.00000000000E+00  0.31891693566E+03  0.31891693567E+03  0.25500000920E-02 0.  1.
        2   -1    0    0  501    0  0.00000000000E+00  0.00000000000E+00 -0.20870416186E+04  0.20870416186E+04  0.25500000920E-02 0. -1.
    10030    2    1    2    0    0  0.00000000000E+00  0.00000000000E+00 -0.17681246829E+04  0.24059585543E+04  0.16316775633E+04 0.  0.
        4    1    3    3  502    0  0.55281859988E+03 -0.59194007343E+03 -0.10284598509E+04  0.13090961511E+04  0.12699999809E+01 0. -1.
       -4    1    3    3    0  502 -0.55281859988E+03  0.59194007343E+03 -0.73966483203E+03  0.10968624032E+04  0.12699999809E+01 0.  1.
</event>
<event>
 5   0  0.1835421E-04  0.1843002E+04  0.7818609E-02  0.8683760E-01
        1   -1    0    0  501    0  0.00000000000E+00  0.00000000000E+00  0.14698803884E+04  0.14698803884E+04  0.50400001928E-02 0. -1.
       -1   -1    0    0    0  501  0.00000000000E+00  0.00000000000E+00 -0.57770949333E+03  0.57770949335E+03  0.50400001928E-02 0.  1.
    10030    2    1    2    0    0  0.00000000000E+00  0.00000000000E+00  0.89217089506E+03  0.20475898817E+04  0.18430017411E+04 0.  0.
        2    1    3    3  502    0 -0.74358812736E+03  0.16061209132E+03  0.10238569956E+04  0.12755401579E+04  0.25500000920E-02 0. -1.
       -2    1    3    3    0  502  0.74358812736E+03 -0.16061209132E+03 -0.13168610051E+03  0.77204972385E+03  0.25500000920E-02 0.  1.
</event>
<event>
 5   0  0.1330125E-04  0.1739104E+04  0.7818609E-02  0.8739371E-01
       -3   -1    0    0    0  501  0.00000000000E+00  0.00000000000E+00  0.61740979269E+03  0.61740980095E+03  0.10100000352E+00 0.  1.
        3   -1    0    0  501    0  0.00000000000E+00  0.00000000000E+00 -0.12246661505E+04  0.12246661547E+04  0.10100000352E+00 0. -1.
    10030    2    1    2    0    0  0.00000000000E+00  0.00000000000E+00 -0.60725635781E+03  0.18420759556E+04  0.17391042356E+04 0.  0.
        2    1    3    3  502    0  0.39766545215E+03 -0.19579871004E+03  0.48876111536E+03  0.65981995619E+03  0.25500000920E-02 0.  1.
       -2    1    3    3    0  502 -0.39766545215E+03  0.19579871004E+03 -0.10960174732E+04  0.11822559994E+04  0.25500000920E-02 0. -1.
</event>
<event>
 5   0  0.3568870E-04  0.1790533E+04  0.7818609E-02  0.8711350E-01
        2   -1    0    0  501    0  0.00000000000E+00  0.00000000000E+00  0.18110454157E+04  0.18110454157E+04  0.25500000920E-02 0.  1.
       -2   -1    0    0    0  501  0.00000000000E+00  0.00000000000E+00 -0.44256317944E+03  0.44256317945E+03  0.25500000920E-02 0. -1.
    10030    2    1    2    0    0  0.00000000000E+00  0.00000000000E+00  0.13684822362E+04  0.22536085951E+04  0.17905329009E+04 0.  0.
        1    1    3    3  502    0  0.55741721619E+03  0.94141893519E+02 -0.18950664869E+03  0.59622933418E+03  0.50400001928E-02 0. -1.
       -1    1    3    3    0  502 -0.55741721619E+03 -0.94141893519E+02  0.15579888849E+04  0.16573792609E+04  0.50400001928E-02 0.  1.
</event>
<event>
 5   0  0.3582186E-04  0.1930313E+04  0.7818609E-02  0.8639913E-01
       -2   -1    0    0    0  501  0.00000000000E+00  0.00000000000E+00  0.84873608546E+03  0.84873608546E+03  0.25500000920E-02 0.  1.
        2   -1    0    0  501    0  0.00000000000E+00  0.00000000000E+00 -0.10975461635E+04  0.10975461635E+04  0.25500000920E-02 0. -1.
    10030    2    1    2    0    0  0.00000000000E+00  0.00000000000E+00 -0.24881007806E+03  0.19462822490E+04  0.19303129637E+04 0.  0.
        4    1    3    3  502    0 -0.16042547827E+03 -0.13443555027E+03  0.82557648701E+03  0.85169677706E+03  0.12699999809E+01 0.  1.
       -4    1    3    3    0  502  0.16042547827E+03  0.13443555027E+03 -0.10743865651E+04  0.10945854719E+04  0.12699999809E+01 0. -1.
</event>
<event>
 5   0  0.3582186E-04  0.1782085E+04  0.7818609E-02  0.8715885E-01
       -2   -1    0    0    0  501  0.00000000000E+00  0.00000000000E+00  0.47082936235E+03  0.47082936235E+03  0.25500000920E-02 0.  1.
        2   -1    0    0  501    0  0.00000000000E+00  0.00000000000E+00 -0.16862944035E+04  0.16862944035E+04  0.25500000920E-02 0. -1.
    10030    2    1    2    0    0  0.00000000000E+00  0.00000000000E+00 -0.12154650412E+04  0.21571237659E+04  0.17820852042E+04 0.  0.
        4    1    3    3  502    0  0.62729425041E+03 -0.59018964852E+03 -0.33135376484E+03  0.92283196097E+03  0.12699999809E+01 0.  1.
       -4    1    3    3    0  502 -0.62729425041E+03  0.59018964852E+03 -0.88411127633E+03  0.12342918049E+04  0.12699999809E+01 0. -1.
</event>
<event>
 5   0  0.3628581E-04  0.1798128E+04  0.7818609E-02  0.8707296E-01
        2   -1    0    0  501    0  0.00000000000E+00  0.00000000000E+00  0.12344718575E+04  0.12344718575E+04  0.25500000920E-02 0. -1.
       -2   -1    0    0    0  501  0.00000000000E+00  0.00000000000E+00 -0.65478673808E+03  0.65478673809E+03  0.25500000920E-02 0.  1.
    10030    2    1    2    0    0  0.00000000000E+00  0.00000000000E+00  0.57968511939E+03  0.18892585956E+04  0.17981276938E+04 0.  0.
        2    1    3    3  502    0  0.32482219788E+03  0.41999685510E+03  0.10521541493E+04  0.11785309383E+04  0.25500000920E-02 0. -1.
       -2    1    3    3    0  502 -0.32482219788E+03 -0.41999685510E+03 -0.47246902996E+03  0.71072765726E+03  0.25500000920E-02 0.  1.
</event>
<event>
 5   0  0.3531266E-04  0.2034371E+04  0.7818609E-02  0.8590718E-01
        2   -1    0    0  501    0  0.00000000000E+00  0.00000000000E+00  0.82411820220E+03  0.82411820220E+03  0.25500000920E-02 0.  1.
       -2   -1    0    0    0  501  0.00000000000E+00  0.00000000000E+00 -0.12554823492E+04  0.12554823492E+04  0.25500000920E-02 0. -1.
    10030    2    1    2    0    0  0.00000000000E+00  0.00000000000E+00 -0.43136414700E+03  0.20796005514E+04  0.20343705233E+04 0.  0.
        3    1    3    3  502    0 -0.21465093069E+03 -0.99116702723E+03 -0.13532943812E+03  0.10231330143E+04  0.10100000352E+00 0.  1.
       -3    1    3    3    0  502  0.21465093069E+03  0.99116702723E+03 -0.29603470888E+03  0.10564675371E+04  0.10100000352E+00 0. -1.
</event>
<event>
 5   0  0.1818778E-04  0.1885988E+04  0.7818609E-02  0.8661863E-01
        1   -1    0    0  501    0  0.00000000000E+00  0.00000000000E+00  0.12466455020E+04  0.12466455020E+04  0.50400001928E-02 0.  1.
       -1   -1    0    0    0  501  0.00000000000E+00  0.00000000000E+00 -0.71330418943E+03  0.71330418944E+03  0.50400001928E-02 0. -1.
    10030    2    1    2    0    0  0.00000000000E+00  0.00000000000E+00  0.53334131256E+03  0.19599496914E+04  0.18859877617E+04 0.  0.
        3    1    3    3  502    0 -0.13012677679E+03 -0.66371868091E+03 -0.41619978188E+03  0.79415221089E+03  0.10100000352E+00 0.  1.
       -3    1    3    3    0  502  0.13012677679E+03  0.66371868091E+03  0.94954109444E+03  0.11657974806E+04  0.10100000352E+00 0. -1.
</event>
<event>
 5   0  0.1825253E-04  0.1815936E+04  0.7818609E-02  0.8697870E-01
        1   -1    0    0  501    0  0.00000000000E+00  0.00000000000E+00  0.85534227473E+03  0.85534227474E+03  0.50400001928E-02 0.  1.
       -1   -1    0    0    0  501  0.00000000000E+00  0.00000000000E+00 -0.96383204253E+03  0.96383204254E+03  0.50400001928E-02 0. -1.
    10030    2    1    2    0    0  0.00000000000E+00  0.00000000000E+00 -0.10848976780E+03  0.18191743173E+04  0.18159364435E+04 0.  0.
        4    1    3    3  502    0  0.57592778908E+03 -0.15445072472E+03 -0.74019699506E+03  0.95049515990E+03  0.12699999809E+01 0. -1.
       -4    1    3    3    0  502 -0.57592778908E+03  0.15445072472E+03  0.63170722726E+03  0.86867915738E+03  0.12699999809E+01 0.  1.
</event>
<event>
 5   0  0.3531266E-04  0.1790720E+04  0.7818609E-02  0.8711250E-01
        2   -1    0    0  501    0  0.00000000000E+00  0.00000000000E+00  0.24954123567E+04  0.24954123567E+04  0.25500000920E-02 0.  1.
       -2   -1    0    0    0  501  0.00000000000E+00  0.00000000000E+00 -0.32125721037E+03  0.32125721038E+03  0.25500000920E-02 0. -1.
    10030    2    1    2    0    0  0.00000000000E+00  0.00000000000E+00  0.21741551463E+04  0.28166695671E+04  0.17907196458E+04 0.  0.
        3    1    3    3  502    0 -0.10664054012E+03 -0.78299960096E+03  0.42493619587E+03  0.89723539869E+03  0.10100000352E+00 0. -1.
       -3    1    3    3    0  502  0.10664054012E+03  0.78299960096E+03  0.17492189505E+04  0.19194341684E+04  0.10100000352E+00 0.  1.
</event>
<event>
 5   0  0.3628581E-04  0.1803162E+04  0.7818609E-02  0.8704620E-01
       -2   -1    0    0    0  501  0.00000000000E+00  0.00000000000E+00  0.69934690046E+03  0.69934690047E+03  0.25500000920E-02 0. -1.
        2   -1    0    0  501    0  0.00000000000E+00  0.00000000000E+00 -0.11622961444E+04  0.11622961444E+04  0.25500000920E-02 0.  1.
    10030    2    1    2    0    0  0.00000000000E+00  0.00000000000E+00 -0.46294924393E+03  0.18616430449E+04  0.18031618962E+04 0.  0.
        2    1    3    3  502    0  0.24140613311E+03  0.77015120783E+03 -0.64629980710E+03  0.10339793251E+04  0.25500000920E-02 0.  1.
       -2    1    3    3    0  502 -0.24140613311E+03 -0.77015120783E+03  0.18335056318E+03  0.82766371978E+03  0.25500000920E-02 0. -1.
</event>
<event>
 5   0  0.1837313E-04  0.1803150E+04  0.7818609E-02  0.8704626E-01
        1   -1    0    0  501    0  0.00000000000E+00  0.00000000000E+00  0.14633599426E+04  0.14633599426E+04  0.50400001928E-02 0.  1.
       -1   -1    0    0    0  501  0.00000000000E+00  0.00000000000E+00 -0.55545983210E+03  0.55545983212E+03  0.50400001928E-02 0. -1.
    10030    2    1    2    0    0  0.00000000000E+00  0.00000000000E+00  0.90790011047E+03  0.20188197747E+04  0.18031502079E+04 0.  0.
        1    1    3    3  502    0  0.25313778303E+02  0.56886801419E+03  0.12365434554E+04  0.13613564273E+04  0.50400001928E-02 0.  1.
       -1    1    3    3    0  502 -0.25313778303E+02 -0.56886801419E+03 -0.32864334497E+03  0.65746334739E+03  0.50400001928E-02 0. -1.
</event>
<event>
 5   0  0.3568870E-04  0.1805974E+04  0.7818609E-02  0.8703129E-01
       -2   -1    0    0    0  501  0.00000000000E+00  0.00000000000E+00  0.69978391462E+03  0.69978391462E+03  0.25500000920E-02 0. -1.
        2   -1    0    0  501    0  0.00000000000E+00  0.00000000000E+00 -0.11651965818E+04  0.11651965818E+04  0.25500000920E-02 0.  1.
    10030    2    1    2    0    0  0.00000000000E+00  0.00000000000E+00 -0.46541266714E+03  0.18649804964E+04  0.18059743357E+04 0.  0.
        1    1    3    3  502    0  0.33644597011E+03 -0.37289505217E+03 -0.10076508427E+04  0.11258804695E+04  0.50400001928E-02 0.  1.
       -1    1    3    3    0  502 -0.33644597011E+03  0.37289505217E+03  0.54223817555E+03  0.73910002691E+03  0.50400001928E-02 0. -1.
</event>
<event>
 5   0  0.1835421E-04  0.1775511E+04  0.7818609E-02  0.8719432E-01
        1   -1    0    0  501    0  0.00000000000E+00  0.00000000000E+00  0.13186443434E+04  0.13186443434E+04  0.50400001928E-02 0. -1.
       -1   -1    0    0    0  501  0.00000000000E+00  0.00000000000E+00 -0.59766656723E+03  0.59766656726E+03  0.50400001928E-02 0.  1.
    10030    2    1    2    0    0  0.00000000000E+00  0.00000000000E+00  0.72097777618E+03  0.19163109107E+04  0.17755107864E+04 0.  0.
        2    1    3    3  502    0  0.32272913760E+03  0.37014746465E+02  0.12521938242E+04  0.12936435216E+04  0.25500000920E-02 0. -1.
       -2    1    3    3    0  502 -0.32272913760E+03 -0.37014746465E+02 -0.53121604801E+03  0.62266738905E+03  0.25500000920E-02 0.  1.
</event>
<event>
 5   0  0.3575091E-04  0.1805006E+04  0.7818609E-02  0.8703642E-01
       -2   -1    0    0    0  501  0.00000000000E+00  0.00000000000E+00  0.51135376936E+03  0.51135376937E+03  0.25500000920E-02 0.  1.
        2   -1    0    0  501    0  0.00000000000E+00  0.00000000000E+00 -0.15928534130E+04  0.15928534130E+04  0.25500000920E-02 0. -1.
    10030    2    1    2    0    0  0.00000000000E+00  0.00000000000E+00 -0.10814996436E+04  0.21042071823E+04  0.18050059244E+04 0.  0.
        5    1    3    3  502    0  0.18230855347E+03 -0.10253485823E+03 -0.15641929918E+04  0.15781228125E+04  0.46999998093E+01 0. -1.
       -5    1    3    3    0  502 -0.18230855347E+03  0.10253485823E+03  0.48269334817E+03  0.52608436984E+03  0.46999998093E+01 0.  1.
</event>
<event>
 5   0  0.1835421E-04  0.1823032E+04  0.7818609E-02  0.8694146E-01
       -1   -1    0    0    0  501  0.00000000000E+00  0.00000000000E+00  0.90223198126E+03  0.90223198127E+03  0.50400001928E-02 0. -1.
        1   -1    0    0  501    0  0.00000000000E+00  0.00000000000E+00 -0.92089595409E+03  0.92089595410E+03  0.50400001928E-02 0.  1.
    10030    2    1    2    0    0  0.00000000000E+00  0.00000000000E+00 -0.18663972828E+02  0.18231279354E+04  0.18230323982E+04 0.  0.
        2    1    3    3  502    0  0.67343372161E+03 -0.50088048641E+03 -0.36497337563E+03  0.91520478800E+03  0.25500000920E-02 0.  1.
       -2    1    3    3    0  502 -0.67343372161E+03  0.50088048641E+03  0.34630940280E+03  0.90792314737E+03  0.25500000920E-02 0. -1.
</event>
<event>
 5   0  0.1837313E-04  0.1822439E+04  0.7818609E-02  0.8694457E-01
        1   -1    0    0  501    0  0.00000000000E+00  0.00000000000E+00  0.11850659939E+04  0.11850659939E+04  0.50400001928E-02 0. -1.
       -1   -1    0    0    0  501  0.00000000000E+00  0.00000000000E+00 -0.70065347645E+03  0.70065347646E+03  0.50400001928E-02 0.  1.
    10030    2    1    2    0    0  0.00000000000E+00  0.00000000000E+00  0.48441251745E+03  0.18857194704E+04  0.18224385954E+04 0.  0.
        1    1    3    3  502    0 -0.55441205086E+03  0.63787083319E+03  0.59472459826E+03  0.10334163100E+04  0.50400001928E-02 0.  1.
       -1    1    3    3    0  502  0.55441205086E+03 -0.63787083319E+03 -0.11031208081E+03  0.85230316037E+03  0.50400001928E-02 0. -1.
</event>
<event>
 5   0  0.1883959E-04  0.1818527E+04  0.7818609E-02  0.8696509E-01
        1   -1    0    0  501    0  0.00000000000E+00  0.00000000000E+00  0.14599482538E+04  0.14599482538E+04  0.50400001928E-02 0. -1.
       -1   -1    0    0    0  501  0.00000000000E+00  0.00000000000E+00 -0.56629384709E+03  0.56629384711E+03  0.50400001928E-02 0.  1.
    10030    2    1    2    0    0  0.00000000000E+00  0.00000000000E+00  0.89365440671E+03  0.20262421009E+04  0.18185265610E+04 0.  0.
        5    1    3    3  502    0 -0.22240874538E+03 -0.14495064072E+03  0.14157911550E+04  0.14404731941E+04  0.46999998093E+01 0. -1.
       -5    1    3    3    0  502  0.22240874538E+03  0.14495064072E+03 -0.52213674831E+03  0.58576890683E+03  0.46999998093E+01 0.  1.
</event>
<event>
 5   0  0.3568870E-04  0.1722281E+04  0.7818609E-02  0.8748758E-01
        2   -1    0    0  501    0  0.00000000000E+00  0.00000000000E+00  0.71362826010E+03  0.71362826010E+03  0.25500000920E-02 0.  1.
       -2   -1    0    0    0  501  0.00000000000E+00  0.00000000000E+00 -0.10391442290E+04  0.10391442290E+04  0.25500000920E-02 0. -1.
    10030    2    1    2    0    0  0.00000000000E+00  0.00000000000E+00 -0.32551596886E+03  0.17527724891E+04  0.17222806834E+04 0.  0.
        1    1    3    3  502    0  0.79642304644E+03  0.48340283201E+02 -0.49243172741E+03  0.93761157099E+03  0.50400001928E-02 0. -1.
       -1    1    3    3    0  502 -0.79642304644E+03 -0.48340283201E+02  0.16691575855E+03  0.81516091807E+03  0.50400001928E-02 0.  1.
</event>
<event>
 5   0  0.1818778E-04  0.1796779E+04  0.7818609E-02  0.8708014E-01
       -1   -1    0    0    0  501  0.00000000000E+00  0.00000000000E+00  0.95746395777E+03  0.95746395779E+03  0.50400001928E-02 0.  1.
        1   -1    0    0  501    0  0.00000000000E+00  0.00000000000E+00 -0.84295947451E+03  0.84295947453E+03  0.50400001928E-02 0. -1.
    10030    2    1    2    0    0  0.00000000000E+00  0.00000000000E+00  0.11450448326E+03  0.18004234323E+04  0.17967785782E+04 0.  0.
        3    1    3    3  502    0  0.33158955973E+03  0.14186726051E+03 -0.76723238135E+03  0.84777561473E+03  0.10100000352E+00 0. -1.
       -3    1    3    3    0  502 -0.33158955973E+03 -0.14186726051E+03  0.88173686461E+03  0.95264781758E+03  0.10100000352E+00 0.  1.
</event>
<event>
 5   0  0.3628581E-04  0.1840679E+04  0.7818609E-02  0.8684961E-01
       -2   -1    0    0    0  501  0.00000000000E+00  0.00000000000E+00  0.85824754214E+03  0.85824754214E+03  0.25500000920E-02 0. -1.
        2   -1    0    0  501    0  0.00000000000E+00  0.00000000000E+00 -0.98692407114E+03  0.98692407114E+03  0.25500000920E-02 0.  1.
    10030    2    1    2    0    0  0.00000000000E+00  0.00000000000E+00 -0.12867652900E+03  0.18451716133E+04  0.18406793945E+04 0.  0.
        2    1    3    3  502    0 -0.42739758027E+03  0.75845889560E+03 -0.36355722339E+03  0.94345240613E+03  0.25500000920E-02 0. -1.
       -2    1    3    3    0  502  0.42739758027E+03 -0.75845889560E+03  0.23488069439E+03  0.90171920715E+03  0.25500000920E-02 0.  1.
</event>
<event>
 5   0  0.1825253E-04  0.1803205E+04  0.7818609E-02  0.8704597E-01
       -1   -1    0    0    0  501  0.00000000000E+00  0.00000000000E+00  0.99799980743E+03  0.99799980744E+03  0.50400001928E-02 0.  1.
        1   -1    0    0  501    0  0.00000000000E+00  0.00000000000E+00 -0.81451584997E+03  0.81451584999E+03  0.50400001928E-02 0. -1.
    10030    2    1    2    0    0  0.00000000000E+00  0.00000000000E+00  0.18348395746E+03  0.18125156574E+04  0.18032045491E+04 0.  0.
        4    1    3    3  502    0 -0.69422494262E+03  0.45718190284E+02  0.66815458036E+03  0.96460902962E+03  0.12699999809E+01 0.  1.
       -4    1    3    3    0  502  0.69422494262E+03 -0.45718190284E+02 -0.48467062290E+03  0.84790662781E+03  0.12699999809E+01 0. -1.
</event>
<event>
 5   0  0.1883959E-04  0.1873797E+04  0.7818609E-02  0.8668010E-01
        1   -1    0    0  501    0  0.00000000000E+00  0.00000000000E+00  0.81418219384E+03  0.81418219386E+03  0.50400001928E-02 0. -1.
       -1   -1    0    0    0  501  0.00000000000E+00  0.00000000000E+00 -0.10781108396E+04  0.10781108396E+04  0.50400001928E-02 0.  1.
    10030    2    1    2    0    0  0.00000000000E+00  0.00000000000E+00 -0.26392864572E+03  0.18922930334E+04  0.18737968391E+04 0.  0.
        5    1    3    3  502    0 -0.10179624003E+03 -0.91236459642E+03  0.56924550554E+02  0.91980113380E+03  0.46999998093E+01 0. -1.
       -5    1    3    3    0  502  0.10179624003E+03  0.91236459642E+03 -0.32085319627E+03  0.97249189963E+03  0.46999998093E+01 0.  1.
</event>
<event>
 5   0  0.3575091E-04  0.1788685E+04  0.7818609E-02  0.8712340E-01
       -2   -1    0    0    0  501  0.00000000000E+00  0.00000000000E+00  0.64848457113E+03  0.64848457113E+03  0.25500000920E-02 0. -1.
        2   -1    0    0  501    0  0.00000000000E+00  0.00000000000E+00 -0.12334112535E+04  0.12334112535E+04  0.25500000920E-02 0.  1.
    10030    2    1    2    0    0  0.00000000000E+00  0.00000000000E+00 -0.58492668235E+03  0.18818958246E+04  0.17886846203E+04 0.  0.
        5    1    3    3  502    0  0.90824550875E+02 -0.69999086997E+03  0.28532676672E+03  0.76136047368E+03  0.46999998093E+01 0. -1.
       -5    1    3    3    0  502 -0.90824550875E+02  0.69999086997E+03 -0.87025344907E+03  0.11205353509E+04  0.46999998093E+01 0.  1.
</event>
<event>
 5   0  0.1883959E-04  0.1785413E+04  0.7818609E-02  0.8714095E-01
       -1   -1    0    0    0  501  0.00000000000E+00  0.00000000000E+00  0.13465897698E+04  0.13465897698E+04  0.50400001928E-02 0. -1.
        1   -1    0    0  501    0  0.00000000000E+00  0.00000000000E+00 -0.59180957752E+03  0.59180957754E+03  0.50400001928E-02 0.  1.
    10030    2    1    2    0    0  0.00000000000E+00  0.00000000000E+00  0.75478019229E+03  0.19383993474E+04  0.17854128069E+04 0.  0.
        5    1    3    3  502    0 -0.81940643393E+03  0.11423530111E+03  0.74142081790E+03  0.11109471307E+04  0.46999998093E+01 0.  1.
       -5    1    3    3    0  502  0.81940643393E+03 -0.11423530111E+03  0.13359374390E+02  0.82745221666E+03  0.46999998093E+01 0. -1.
</event>
<event>
 5   0  0.1835421E-04  0.1707128E+04  0.7818609E-02  0.8757309E-01
       -1   -1    0    0    0  501  0.00000000000E+00  0.00000000000E+00  0.53925051268E+03  0.53925051271E+03  0.50400001928E-02 0.  1.
        1   -1    0    0  501    0  0.00000000000E+00  0.00000000000E+00 -0.13510821323E+04  0.13510821323E+04  0.50400001928E-02 0. -1.
    10030    2    1    2    0    0  0.00000000000E+00  0.00000000000E+00 -0.81183161958E+03  0.18903326450E+04  0.17071282700E+04 0.  0.
        2    1    3    3  502    0 -0.77237161108E+03  0.35781803680E+03 -0.33605751971E+03  0.91516463526E+03  0.25500000920E-02 0. -1.
       -2    1    3    3    0  502  0.77237161108E+03 -0.35781803680E+03 -0.47577409987E+03  0.97516800972E+03  0.25500000920E-02 0.  1.
</event>
<event>
 5   0  0.3568870E-04  0.1518599E+04  0.7818609E-02  0.8872178E-01
        2   -1    0    0  501    0  0.00000000000E+00  0.00000000000E+00  0.80140430826E+03  0.80140430826E+03  0.25500000920E-02 0. -1.
       -2   -1    0    0    0  501  0.00000000000E+00  0.00000000000E+00 -0.71940718138E+03  0.71940718138E+03  0.25500000920E-02 0.  1.
    10030    2    1    2    0    0  0.00000000000E+00  0.00000000000E+00  0.81997126880E+02  0.15208114896E+04  0.15185993738E+04 0.  0.
        1    1    3    3  502    0 -0.37959846948E+03  0.17998668047E+03  0.67441165059E+03  0.79455728407E+03  0.50400001928E-02 0. -1.
       -1    1    3    3    0  502  0.37959846948E+03 -0.17998668047E+03 -0.59241452371E+03  0.72625420557E+03  0.50400001928E-02 0.  1.
</event>
<event>
 5   0  0.1825253E-04  0.1768300E+04  0.7818609E-02  0.8723341E-01
        1   -1    0    0  501    0  0.00000000000E+00  0.00000000000E+00  0.11683591431E+04  0.11683591432E+04  0.50400001928E-02 0. -1.
       -1   -1    0    0    0  501  0.00000000000E+00  0.00000000000E+00 -0.66907578153E+03  0.66907578155E+03  0.50400001928E-02 0.  1.
    10030    2    1    2    0    0  0.00000000000E+00  0.00000000000E+00  0.49928336161E+03  0.18374349247E+04  0.17682995299E+04 0.  0.
        4    1    3    3  502    0  0.38751161453E+03  0.79395708237E+03  0.21385547394E+03  0.90899333148E+03  0.12699999809E+01 0.  1.
       -4    1    3    3    0  502 -0.38751161453E+03 -0.79395708237E+03  0.28542788767E+03  0.92844159321E+03  0.12699999809E+01 0. -1.
</event>
<event>
 5   0  0.3568870E-04  0.1761133E+04  0.7818609E-02  0.8727246E-01
       -2   -1    0    0    0  501  0.00000000000E+00  0.00000000000E+00  0.59306970096E+03  0.59306970096E+03  0.25500000920E-02 0. -1.
        2   -1    0    0  501    0  0.00000000000E+00  0.00000000000E+00 -0.13074309937E+04  0.13074309937E+04  0.25500000920E-02 0.  1.
    10030    2    1    2    0    0  0.00000000000E+00  0.00000000000E+00 -0.71436129270E+03  0.19005006946E+04  0.17611333947E+04 0.  0.
        1    1    3    3  502    0  0.76010498993E+03 -0.43809840829E+03 -0.27565131927E+03  0.91960505702E+03  0.50400001928E-02 0. -1.
       -1    1    3    3    0  502 -0.76010498993E+03  0.43809840829E+03 -0.43870997343E+03  0.98089563760E+03  0.50400001928E-02 0.  1.
</event>
<event>
 5   0  0.3568870E-04  0.1795990E+04  0.7818609E-02  0.8708435E-01
       -2   -1    0    0    0  501  0.00000000000E+00  0.00000000000E+00  0.57438168597E+03  0.57438168598E+03  0.25500000920E-02 0. -1.
        2   -1    0    0  501    0  0.00000000000E+00  0.00000000000E+00 -0.14039360119E+04  0.14039360119E+04  0.25500000920E-02 0.  1.
    10030    2    1    2    0    0  0.00000000000E+00  0.00000000000E+00 -0.82955432596E+03  0.19783176979E+04  0.17959901264E+04 0.  0.
        1    1    3    3  502    0  0.49477389243E+03 -0.53085636683E+02 -0.12381772395E+04  0.13344295283E+04  0.50400001928E-02 0.  1.
       -1    1    3    3    0  502 -0.49477389243E+03  0.53085636683E+02  0.40862291357E+03  0.64388816962E+03  0.50400001928E-02 0. -1.
</event>
<event>
 5   0  0.1825253E-04  0.1805816E+04  0.7818609E-02  0.8703213E-01
        1   -1    0    0  501    0  0.00000000000E+00  0.00000000000E+00  0.25985111154E+03  0.25985111159E+03  0.50400001928E-02 0.  1.
       -1   -1    0    0    0  501  0.00000000000E+00  0.00000000000E+00 -0.31373444911E+04  0.31373444911E+04  0.50400001928E-02 0. -1.
    10030    2    1    2    0    0  0.00000000000E+00  0.00000000000E+00 -0.28774933795E+04  0.33971956027E+04  0.18058155536E+04 0.  0.
        4    1    3    3  502    0  0.70339304130E+03 -0.30716637186E+03 -0.23333370809E+04  0.24563339546E+04  0.12699999809E+01 0. -1.
       -4    1    3    3    0  502 -0.70339304130E+03  0.30716637186E+03 -0.54415629865E+03  0.94086164807E+03  0.12699999809E+01 0.  1.
</event>
<event>
 5   0  0.1818778E-04  0.1821163E+04  0.7818609E-02  0.8695126E-01
        1   -1    0    0  501    0  0.00000000000E+00  0.00000000000E+00  0.13523926315E+04  0.13523926315E+04  0.50400001928E-02 0. -1.
       -1   -1    0    0    0  501  0.00000000000E+00  0.00000000000E+00 -0.61310478524E+03  0.61310478526E+03  0.50400001928E-02 0.  1.
    10030    2    1    2    0    0  0.00000000000E+00  0.00000000000E+00  0.73928784627E+03  0.19654974168E+04  0.18211626989E+04 0.  0.
        3    1    3    3  502    0 -0.12470441656E+03 -0.45583957291E+03  0.12096736005E+04  0.12987113373E+04  0.10100000352E+00 0. -1.
       -3    1    3    3    0  502  0.12470441656E+03  0.45583957291E+03 -0.47038575424E+03  0.66678607944E+03  0.10100000352E+00 0.  1.
</event>
<event>
 5   0  0.3582186E-04  0.1785218E+04  0.7818609E-02  0.8714200E-01
        2   -1    0    0  501    0  0.00000000000E+00  0.00000000000E+00  0.18017394016E+04  0.18017394016E+04  0.25500000920E-02 0. -1.
       -2   -1    0    0    0  501  0.00000000000E+00  0.00000000000E+00 -0.44221193881E+03  0.44221193882E+03  0.25500000920E-02 0.  1.
    10030    2    1    2    0    0  0.00000000000E+00  0.00000000000E+00  0.13595274628E+04  0.22439513404E+04  0.17852178287E+04 0.  0.
        4    1    3    3  502    0 -0.32688555370E+03  0.57473208713E+03  0.14334988140E+04  0.15786359934E+04  0.12699999809E+01 0. -1.
       -4    1    3    3    0  502  0.32688555370E+03 -0.57473208713E+03 -0.73971351214E+02  0.66531534696E+03  0.12699999809E+01 0.  1.
</event>
<event>
 5   0  0.1825253E-04  0.1846562E+04  0.7818609E-02  0.8681923E-01
        1   -1    0    0  501    0  0.00000000000E+00  0.00000000000E+00  0.10165510470E+04  0.10165510470E+04  0.50400001928E-02 0.  1.
       -1   -1    0    0    0  501  0.00000000000E+00  0.00000000000E+00 -0.83856834852E+03  0.83856834853E+03  0.50400001928E-02 0. -1.
    10030    2    1    2    0    0  0.00000000000E+00  0.00000000000E+00  0.17798269851E+03  0.18551193956E+04  0.18465617051E+04 0.  0.
        4    1    3    3  502    0  0.74265034463E+03 -0.72242072520E+01  0.64004425347E+03  0.98042846901E+03  0.12699999809E+01 0.  1.
       -4    1    3    3    0  502 -0.74265034463E+03  0.72242072520E+01 -0.46206155496E+03  0.87469092656E+03  0.12699999809E+01 0. -1.
</event>
<event>
 5   0  0.1837313E-04  0.1822933E+04  0.7818609E-02  0.8694198E-01
        1   -1    0    0  501    0  0.00000000000E+00  0.00000000000E+00  0.68521369825E+03  0.68521369827E+03  0.50400001928E-02 0. -1.
       -1   -1    0    0    0  501  0.00000000000E+00  0.00000000000E+00 -0.12124264971E+04  0.12124264972E+04  0.50400001928E-02 0.  1.
    10030    2    1    2    0    0  0.00000000000E+00  0.00000000000E+00 -0.52721279889E+03  0.18976401954E+04  0.18229330695E+04 0.  0.
        1    1    3    3  502    0 -0.75618396321E+03  0.47829730658E+03 -0.44447603839E+03  0.99907029204E+03  0.50400001928E-02 0.  1.
       -1    1    3    3    0  502  0.75618396321E+03 -0.47829730658E+03 -0.82736760497E+02  0.89856990338E+03  0.50400001928E-02 0. -1.
</event>
<event>
 5   0  0.1883959E-04  0.1774362E+04  0.7818609E-02  0.8720053E-01
        1   -1    0    0  501    0  0.00000000000E+00  0.00000000000E+00  0.20191389996E+04  0.20191389996E+04  0.50400001928E-02 0.  1.
       -1   -1    0    0    0  501  0.00000000000E+00  0.00000000000E+00 -0.38981494811E+03  0.38981494814E+03  0.50400001928E-02 0. -1.
    10030    2    1    2    0    0  0.00000000000E+00  0.00000000000E+00  0.16293240515E+04  0.24089539478E+04  0.17743624933E+04 0.  0.
        5    1    3    3  502    0  0.27893832977E+03 -0.47754672171E+03  0.17564517055E+04  0.18414673896E+04  0.46999998093E+01 0.  1.
       -5    1    3    3    0  502 -0.27893832977E+03  0.47754672171E+03 -0.12712765403E+03  0.56748655812E+03  0.46999998093E+01 0. -1.
</event>
<event>
 5   0  0.3582186E-04  0.1747479E+04  0.7818609E-02  0.8734739E-01
       -2   -1    0    0    0  501  0.00000000000E+00  0.00000000000E+00  0.48204417061E+03  0.48204417061E+03  0.25500000920E-02 0. -1.
        2   -1    0    0  501    0  0.00000000000E+00  0.00000000000E+00 -0.15837148587E+04  0.15837148587E+04  0.25500000920E-02 0.  1.
    10030    2    1    2    0    0  0.00000000000E+00  0.00000000000E+00 -0.11016706881E+04  0.20657590294E+04  0.17474787731E+04 0.  0.
        4    1    3    3  502    0 -0.13472946880E+03 -0.71510116771E+03  0.20880536133E+02  0.72798304892E+03  0.12699999809E+01 0. -1.
       -4    1    3    3    0  502  0.13472946880E+03  0.71510116771E+03 -0.11225512243E+04  0.13377759804E+04  0.12699999809E+01 0.  1.
</event>
<event>
 5   0  0.3628581E-04  0.1801064E+04  0.7818609E-02  0.8705734E-01
        2   -1    0    0  501    0  0.00000000000E+00  0.00000000000E+00  0.25976250139E+04  0.25976250139E+04  0.25500000920E-02 0.  1.
       -2   -1    0    0    0  501  0.00000000000E+00  0.00000000000E+00 -0.31219208984E+03  0.31219208985E+03  0.25500000920E-02 0. -1.
    10030    2    1    2    0    0  0.00000000000E+00  0.00000000000E+00  0.22854329241E+04  0.29098171038E+04  0.18010641096E+04 0.  0.
        2    1    3    3  502    0 -0.80517227373E+03 -0.19864998026E+03  0.17097789317E+04  0.19002916093E+04  0.25500000920E-02 0.  1.
       -2    1    3    3    0  502  0.80517227373E+03  0.19864998026E+03  0.57565399234E+03  0.10095254945E+04  0.25500000920E-02 0. -1.
</event>
<event>
 5   0  0.1883959E-04  0.1763963E+04  0.7818609E-02  0.8725702E-01
        1   -1    0    0  501    0  0.00000000000E+00  0.00000000000E+00  0.11804271124E+04  0.11804271124E+04  0.50400001928E-02 0. -1.
       -1   -1    0    0    0  501  0.00000000000E+00  0.00000000000E+00 -0.65899173264E+03  0.65899173266E+03  0.50400001928E-02 0.  1.
    10030    2    1    2    0    0  0.00000000000E+00  0.00000000000E+00  0.52143537977E+03  0.18394188451E+04  0.17639633875E+04 0.  0.
        5    1    3    3  502    0 -0.79439458529E+03 -0.17247200182E+03 -0.96058468370E+02  0.81857111352E+03  0.46999998093E+01 0.  1.
       -5    1    3    3    0  502  0.79439458529E+03  0.17247200182E+03  0.61749384814E+03  0.10208477316E+04  0.46999998093E+01 0. -1.
</event>
<event>
 5   0  0.1837313E-04  0.1842744E+04  0.7818609E-02  0.8683893E-01
        1   -1    0    0  501    0  0.00000000000E+00  0.00000000000E+00  0.20081201760E+04  0.20081201760E+04  0.50400001928E-02 0.  1.
       -1   -1    0    0    0  501  0.00000000000E+00  0.00000000000E+00 -0.42274685381E+03  0.42274685384E+03  0.50400001928E-02 0. -1.
    10030    2    1    2    0    0  0.00000000000E+00  0.00000000000E+00  0.15853733222E+04  0.24308670298E+04  0.18427441347E+04 0.  0.
        1    1    3    3  502    0  0.70737612183E+03  0.95334365753E+02  0.24107747250E+02  0.71417841086E+03  0.50400001928E-02 0. -1.
       -1    1    3    3    0  502 -0.70737612183E+03 -0.95334365753E+02  0.15612655749E+04  0.17166886190E+04  0.50400001928E-02 0.  1.
</event>
<event>
 5   0  0.3531266E-04  0.1805095E+04  0.7818609E-02  0.8703595E-01
       -2   -1    0    0    0  501  0.00000000000E+00  0.00000000000E+00  0.53884966880E+03  0.53884966881E+03  0.25500000920E-02 0. -1.
        2   -1    0    0  501    0  0.00000000000E+00  0.00000000000E+00 -0.15117237440E+04  0.15117237440E+04  0.25500000920E-02 0.  1.
    10030    2    1    2    0    0  0.00000000000E+00  0.00000000000E+00 -0.97287407521E+03  0.20505734128E+04  0.18050948327E+04 0.  0.
        3    1    3    3  502    0  0.52302253191E+03 -0.13204561887E+03 -0.13084458077E+04  0.14152805574E+04  0.10100000352E+00 0.  1.
       -3    1    3    3    0  502 -0.52302253191E+03  0.13204561887E+03  0.33557173245E+03  0.63529285544E+03  0.10100000352E+00 0. -1.
</event>
<event>
 5   0  0.3582186E-04  0.1793215E+04  0.7818609E-02  0.8709916E-01
        2   -1    0    0  501    0  0.00000000000E+00  0.00000000000E+00  0.25264913760E+04  0.25264913760E+04  0.25500000920E-02 0.  1.
       -2   -1    0    0    0  501  0.00000000000E+00  0.00000000000E+00 -0.31819021690E+03  0.31819021691E+03  0.25500000920E-02 0. -1.
    10030    2    1    2    0    0  0.00000000000E+00  0.00000000000E+00  0.22083011591E+04  0.28446815929E+04  0.17932148103E+04 0.  0.
        4    1    3    3  502    0 -0.12062084639E+02  0.82520426058E+03  0.16600456914E+04  0.18538772548E+04  0.12699999809E+01 0. -1.
       -4    1    3    3    0  502  0.12062084639E+02 -0.82520426058E+03  0.54825546768E+03  0.99080433805E+03  0.12699999809E+01 0.  1.
</event>
<event>
 5   0  0.3582186E-04  0.1799006E+04  0.7818609E-02  0.8706828E-01
       -2   -1    0    0    0  501  0.00000000000E+00  0.00000000000E+00  0.47899939299E+03  0.47899939300E+03  0.25500000920E-02 0.  1.
        2   -1    0    0  501    0  0.00000000000E+00  0.00000000000E+00 -0.16891571378E+04  0.16891571378E+04  0.25500000920E-02 0. -1.
    10030    2    1    2    0    0  0.00000000000E+00  0.00000000000E+00 -0.12101577448E+04  0.21681565308E+04  0.17990055516E+04 0.  0.
        4    1    3    3  502    0 -0.17719091081E+02 -0.55605806872E+02  0.47671416102E+03  0.48027489646E+03  0.12699999809E+01 0.  1.
       -4    1    3    3    0  502  0.17719091081E+02  0.55605806872E+02 -0.16868719058E+04  0.16878816343E+04  0.12699999809E+01 0. -1.
</event>
<event>
 5   0  0.1818778E-04  0.1741257E+04  0.7818609E-02  0.8738178E-01
       -1   -1    0    0    0  501  0.00000000000E+00  0.00000000000E+00  0.33241019366E+03  0.33241019370E+03  0.50400001928E-02 0.  1.
        1   -1    0    0  501    0  0.00000000000E+00  0.00000000000E+00 -0.22802968492E+04  0.22802968492E+04  0.50400001928E-02 0. -1.
    10030    2    1    2    0    0  0.00000000000E+00  0.00000000000E+00 -0.19478866556E+04  0.26127070429E+04  0.17412569222E+04 0.  0.
        3    1    3    3  502    0 -0.35036503073E+03 -0.19605754118E+03  0.18521338749E+03  0.44215181026E+03  0.10100000352E+00 0.  1.
       -3    1    3    3    0  502  0.35036503073E+03  0.19605754118E+03 -0.21331000430E+04  0.21705552327E+04  0.10100000352E+00 0. -1.
</event>
<event>
 5   0  0.1818778E-04  0.1792845E+04  0.7818609E-02  0.8710114E-01
       -1   -1    0    0    0  501  0.00000000000E+00  0.00000000000E+00  0.83610874314E+03  0.83610874315E+03  0.50400001928E-02 0. -1.
        1   -1    0    0  501    0  0.00000000000E+00  0.00000000000E+00 -0.96108669005E+03  0.96108669006E+03  0.50400001928E-02 0.  1.
    10030    2    1    2    0    0  0.00000000000E+00  0.00000000000E+00 -0.12497794691E+03  0.17971954332E+04  0.17928446497E+04 0.  0.
        3    1    3    3  502    0  0.64552293423E+03 -0.22176398477E+03  0.52003556312E+03  0.85808864383E+03  0.10100000352E+00 0. -1.
       -3    1    3    3    0  502 -0.64552293423E+03  0.22176398477E+03 -0.64501351002E+03  0.93910678939E+03  0.10100000352E+00 0.  1.
</event>
<event>
 5   0  0.1837313E-04  0.1800934E+04  0.7818609E-02  0.8705803E-01
        1   -1    0    0  501    0  0.00000000000E+00  0.00000000000E+00  0.75698260425E+03  0.75698260426E+03  0.50400001928E-02 0. -1.
       -1   -1    0    0    0  501  0.00000000000E+00  0.00000000000E+00 -0.10711489756E+04  0.10711489756E+04  0.50400001928E-02 0.  1.
    10030    2    1    2    0    0  0.00000000000E+00  0.00000000000E+00 -0.31416637137E+03  0.18281315799E+04  0.18009343587E+04 0.  0.
        1    1    3    3  502    0  0.56364449173E+03 -0.16404039985E+03 -0.85021020748E+03  0.10331804115E+04  0.50400001928E-02 0.  1.
       -1    1    3    3    0  502 -0.56364449173E+03  0.16404039985E+03  0.53604383611E+03  0.79495116837E+03  0.50400001928E-02 0. -1.
</event>
<event>
 5   0  0.1330125E-04  0.1781893E+04  0.7818609E-02  0.8715988E-01
       -4   -1    0    0    0  501  0.00000000000E+00  0.00000000000E+00  0.10640630642E+04  0.10640638221E+04  0.12699999809E+01 0.  1.
        4   -1    0    0  501    0  0.00000000000E+00  0.00000000000E+00 -0.74599342535E+03  0.74599450639E+03  0.12699999809E+01 0. -1.
    10030    2    1    2    0    0  0.00000000000E+00  0.00000000000E+00  0.31806963882E+03  0.18100583285E+04  0.17818930544E+04 0.  0.
        5    1    3    3  502    0  0.51968794395E+03 -0.56837302179E+02 -0.57379579969E+03  0.77625366199E+03  0.46999998093E+01 0. -1.
       -5    1    3    3    0  502 -0.51968794395E+03  0.56837302179E+02  0.89186543851E+03  0.10338046665E+04  0.46999998093E+01 0.  1.
</event>
<event>
 5   0  0.3531266E-04  0.2085624E+04  0.7818609E-02  0.8567603E-01
        2   -1    0    0  501    0  0.00000000000E+00  0.00000000000E+00  0.98989476793E+03  0.98989476793E+03  0.25500000920E-02 0.  1.
       -2   -1    0    0    0  501  0.00000000000E+00  0.00000000000E+00 -0.10985583637E+04  0.10985583637E+04  0.25500000920E-02 0. -1.
    10030    2    1    2    0    0  0.00000000000E+00  0.00000000000E+00 -0.10866359574E+03  0.20884531316E+04  0.20856242964E+04 0.  0.
        3    1    3    3  502    0 -0.80526767330E+03 -0.78181645715E+02  0.60450343499E+03  0.10099469335E+04  0.10100000352E+00 0.  1.
       -3    1    3    3    0  502  0.80526767330E+03  0.78181645715E+02 -0.71316703074E+03  0.10785061981E+04  0.10100000352E+00 0. -1.
</event>
<event>
 5   0  0.3531266E-04  0.1768692E+04  0.7818609E-02  0.8723128E-01
        2   -1    0    0  501    0  0.00000000000E+00  0.00000000000E+00  0.82680029862E+03  0.82680029863E+03  0.25500000920E-02 0.  1.
       -2   -1    0    0    0  501  0.00000000000E+00  0.00000000000E+00 -0.94589655601E+03  0.94589655601E+03  0.25500000920E-02 0. -1.
    10030    2    1    2    0    0  0.00000000000E+00  0.00000000000E+00 -0.11909625739E+03  0.17726968546E+04  0.17686916690E+04 0.  0.
        3    1    3    3  502    0 -0.41449622776E+03 -0.50687749669E+03  0.53621834198E+03  0.84632265712E+03  0.10100000352E+00 0.  1.
       -3    1    3    3    0  502  0.41449622776E+03  0.50687749669E+03 -0.65531459937E+03  0.92637419752E+03  0.10100000352E+00 0. -1.
</event>
<event>
 5   0  0.1818778E-04  0.1797718E+04  0.7818609E-02  0.8707514E-01
       -1   -1    0    0    0  501  0.00000000000E+00  0.00000000000E+00  0.87413378233E+03  0.87413378235E+03  0.50400001928E-02 0. -1.
        1   -1    0    0  501    0  0.00000000000E+00  0.00000000000E+00 -0.92428359806E+03  0.92428359807E+03  0.50400001928E-02 0.  1.
    10030    2    1    2    0    0  0.00000000000E+00  0.00000000000E+00 -0.50149815723E+02  0.17984173804E+04  0.17977180174E+04 0.  0.
        3    1    3    3  502    0 -0.42987731437E+03  0.64279288152E+03  0.43332853226E+03  0.88642586888E+03  0.10100000352E+00 0. -1.
       -3    1    3    3    0  502  0.42987731437E+03 -0.64279288152E+03 -0.48347834798E+03  0.91199151154E+03  0.10100000352E+00 0.  1.
</event>
<event>
 5   0  0.3628581E-04  0.1834048E+04  0.7818609E-02  0.8688400E-01
        2   -1    0    0  501    0  0.00000000000E+00  0.00000000000E+00  0.11969931732E+04  0.11969931732E+04  0.25500000920E-02 0.  1.
       -2   -1    0    0    0  501  0.00000000000E+00  0.00000000000E+00 -0.70253768225E+03  0.70253768226E+03  0.25500000920E-02 0. -1.
    10030    2    1    2    0    0  0.00000000000E+00  0.00000000000E+00  0.49445549098E+03  0.18995308555E+04  0.18340477743E+04 0.  0.
        2    1    3    3  502    0 -0.88570202103E+03  0.23367510507E+03  0.29190352251E+03  0.96139471147E+03  0.25500000920E-02 0.  1.
       -2    1    3    3    0  502  0.88570202103E+03 -0.23367510507E+03  0.20255196847E+03  0.93813614402E+03  0.25500000920E-02 0. -1.
</event>
<event>
 5   0  0.3568870E-04  0.1798792E+04  0.7818609E-02  0.8706942E-01
        2   -1    0    0  501    0  0.00000000000E+00  0.00000000000E+00  0.10230799728E+04  0.10230799728E+04  0.25500000920E-02 0.  1.
       -2   -1    0    0    0  501  0.00000000000E+00  0.00000000000E+00 -0.79066440192E+03  0.79066440193E+03  0.25500000920E-02 0. -1.
    10030    2    1    2    0    0  0.00000000000E+00  0.00000000000E+00  0.23241557083E+03  0.18137443747E+04  0.17987917220E+04 0.  0.
        1    1    3    3  502    0  0.48479664989E+03 -0.40255209982E+03 -0.53087201383E+03  0.82395453753E+03  0.50400001928E-02 0. -1.
       -1    1    3    3    0  502 -0.48479664989E+03  0.40255209982E+03  0.76328758466E+03  0.98978983716E+03  0.50400001928E-02 0.  1.
</event>
<event>
 5   0  0.3582186E-04  0.1814391E+04  0.7818609E-02  0.8698684E-01
        2   -1    0    0  501    0  0.00000000000E+00  0.00000000000E+00  0.26103389412E+04  0.26103389412E+04  0.25500000920E-02 0. -1.
       -2   -1    0    0    0  501  0.00000000000E+00  0.00000000000E+00 -0.31528619362E+03  0.31528619363E+03  0.25500000920E-02 0.  1.
    10030    2    1    2    0    0  0.00000000000E+00  0.00000000000E+00  0.22950527476E+04  0.29256251349E+04  0.18143911694E+04 0.  0.
        4    1    3    3  502    0  0.25548115924E+01 -0.65406606463E+03  0.13386586737E+03  0.66763060693E+03  0.12699999809E+01 0.  1.
       -4    1    3    3    0  502 -0.25548115924E+01  0.65406606463E+03  0.21611868802E+04  0.22579945279E+04  0.12699999809E+01 0. -1.
</event>
<event>
 5   0  0.1883959E-04  0.1783742E+04  0.7818609E-02  0.8714993E-01
        1   -1    0    0  501    0  0.00000000000E+00  0.00000000000E+00  0.47517172752E+03  0.47517172754E+03  0.50400001928E-02 0.  1.
       -1   -1    0    0    0  501  0.00000000000E+00  0.00000000000E+00 -0.16739932316E+04  0.16739932317E+04  0.50400001928E-02 0. -1.
    10030    2    1    2    0    0  0.00000000000E+00  0.00000000000E+00 -0.11988215041E+04  0.21491649592E+04  0.17837424206E+04 0.  0.
        5    1    3    3  502    0  0.65764135216E+03  0.60206057091E+03 -0.57404884272E+03  0.10604354025E+04  0.46999998093E+01 0.  1.
       -5    1    3    3    0  502 -0.65764135216E+03 -0.60206057091E+03 -0.62477266141E+03  0.10887295567E+04  0.46999998093E+01 0. -1.
</event>
<event>
 5   0  0.3568870E-04  0.1802414E+04  0.7818609E-02  0.8705017E-01
        2   -1    0    0  501    0  0.00000000000E+00  0.00000000000E+00  0.73167190945E+03  0.73167190945E+03  0.25500000920E-02 0. -1.
       -2   -1    0    0    0  501  0.00000000000E+00  0.00000000000E+00 -0.11100245341E+04  0.11100245341E+04  0.25500000920E-02 0.  1.
    10030    2    1    2    0    0  0.00000000000E+00  0.00000000000E+00 -0.37835262467E+03  0.18416964436E+04  0.18024136822E+04 0.  0.
        1    1    3    3  502    0 -0.54547943467E+03  0.28264831899E+03 -0.86289147057E+03  0.10592542546E+04  0.50400001928E-02 0.  1.
       -1    1    3    3    0  502  0.54547943467E+03 -0.28264831899E+03  0.48453884590E+03  0.78244218898E+03  0.50400001928E-02 0. -1.
</event>
<event>
 5   0  0.3531266E-04  0.1799004E+04  0.7818609E-02  0.8706829E-01
        2   -1    0    0  501    0  0.00000000000E+00  0.00000000000E+00  0.11969025824E+04  0.11969025824E+04  0.25500000920E-02 0. -1.
       -2   -1    0    0    0  501  0.00000000000E+00  0.00000000000E+00 -0.67599784772E+03  0.67599784772E+03  0.25500000920E-02 0.  1.
    10030    2    1    2    0    0  0.00000000000E+00  0.00000000000E+00  0.52090473464E+03  0.18729004301E+04  0.17990036905E+04 0.  0.
        3    1    3    3  502    0 -0.17854582011E+03  0.82858514207E+03 -0.53033743000E+02  0.84926117045E+03  0.10100000352E+00 0.  1.
       -3    1    3    3    0  502  0.17854582011E+03 -0.82858514207E+03  0.57393847764E+03  0.10236392596E+04  0.10100000352E+00 0. -1.
</event>
<event>
 5   0  0.1825253E-04  0.1810793E+04  0.7818609E-02  0.8700581E-01
       -1   -1    0    0    0  501  0.00000000000E+00  0.00000000000E+00  0.48549971680E+03  0.48549971683E+03  0.50400001928E-02 0.  1.
        1   -1    0    0  501    0  0.00000000000E+00  0.00000000000E+00 -0.16884509106E+04  0.16884509106E+04  0.50400001928E-02 0. -1.
    10030    2    1    2    0    0  0.00000000000E+00  0.00000000000E+00 -0.12029511938E+04  0.21739506275E+04  0.18107925767E+04 0.  0.
        4    1    3    3  502    0 -0.10456632478E+03 -0.41844102194E+03  0.35423755083E+03  0.55813337155E+03  0.12699999809E+01 0.  1.
       -4    1    3    3    0  502  0.10456632478E+03  0.41844102194E+03 -0.15571887446E+04  0.16158172559E+04  0.12699999809E+01 0. -1.
</event>
<event>
 5   0  0.3575091E-04  0.1776253E+04  0.7818609E-02  0.8719031E-01
       -2   -1    0    0    0  501  0.00000000000E+00  0.00000000000E+00  0.68716441642E+03  0.68716441642E+03  0.25500000920E-02 0.  1.
        2   -1    0    0  501    0  0.00000000000E+00  0.00000000000E+00 -0.11478607852E+04  0.11478607852E+04  0.25500000920E-02 0. -1.
    10030    2    1    2    0    0  0.00000000000E+00  0.00000000000E+00 -0.46069636877E+03  0.18350252016E+04  0.17762534578E+04 0.  0.
        5    1    3    3  502    0 -0.19039431363E+03  0.50065058277E+03  0.50150223897E+03  0.73377625090E+03  0.46999998093E+01 0.  1.
       -5    1    3    3    0  502  0.19039431363E+03 -0.50065058277E+03 -0.96219860775E+03  0.11012489507E+04  0.46999998093E+01 0. -1.
</event>
<event>
 5   0  0.3628581E-04  0.1804371E+04  0.7818609E-02  0.8703979E-01
        2   -1    0    0  501    0  0.00000000000E+00  0.00000000000E+00  0.14682328166E+04  0.14682328166E+04  0.25500000920E-02 0. -1.
       -2   -1    0    0    0  501  0.00000000000E+00  0.00000000000E+00 -0.55436612574E+03  0.55436612574E+03  0.25500000920E-02 0.  1.
    10030    2    1    2    0    0  0.00000000000E+00  0.00000000000E+00  0.91386669086E+03  0.20225989423E+04  0.18043708468E+04 0.  0.
        2    1    3    3  502    0 -0.32046991663E+03 -0.62884438615E+03  0.10868524040E+04  0.12959144947E+04  0.25500000920E-02 0. -1.
       -2    1    3    3    0  502  0.32046991663E+03  0.62884438615E+03 -0.17298571317E+03  0.72668444763E+03  0.25500000920E-02 0.  1.
</event>
<event>
 5   0  0.3628581E-04  0.1790850E+04  0.7818609E-02  0.8711180E-01
        2   -1    0    0  501    0  0.00000000000E+00  0.00000000000E+00  0.10944485755E+04  0.10944485755E+04  0.25500000920E-02 0. -1.
       -2   -1    0    0    0  501  0.00000000000E+00  0.00000000000E+00 -0.73259390128E+03  0.73259390129E+03  0.25500000920E-02 0.  1.
    10030    2    1    2    0    0  0.00000000000E+00  0.00000000000E+00  0.36185467426E+03  0.18270424768E+04  0.17908504703E+04 0.  0.
        2    1    3    3  502    0  0.45774312275E+03  0.31184245621E+03  0.89871687608E+03  0.10556829577E+04  0.25500000920E-02 0. -1.
       -2    1    3    3    0  502 -0.45774312275E+03 -0.31184245621E+03 -0.53686220182E+03  0.77135951908E+03  0.25500000920E-02 0.  1.
</event>
<event>
 5   0  0.1818778E-04  0.1818286E+04  0.7818609E-02  0.8696635E-01
       -1   -1    0    0    0  501  0.00000000000E+00  0.00000000000E+00  0.84928177726E+03  0.84928177727E+03  0.50400001928E-02 0.  1.
        1   -1    0    0  501    0  0.00000000000E+00  0.00000000000E+00 -0.97322354777E+03  0.97322354778E+03  0.50400001928E-02 0. -1.
    10030    2    1    2    0    0  0.00000000000E+00  0.00000000000E+00 -0.12394177051E+03  0.18225053251E+04  0.18182860329E+04 0.  0.
        3    1    3    3  502    0  0.64347491155E+03 -0.62376047603E+03  0.91367510039E+02  0.90082469179E+03  0.10100000352E+00 0. -1.
       -3    1    3    3    0  502 -0.64347491155E+03  0.62376047603E+03 -0.21530928055E+03  0.92168063326E+03  0.10100000352E+00 0.  1.
</event>
<event>
 5   0  0.1835421E-04  0.1517396E+04  0.7818609E-02  0.8872967E-01
        1   -1    0    0  501    0  0.00000000000E+00  0.00000000000E+00  0.93348870153E+03  0.93348870154E+03  0.50400001928E-02 0. -1.
       -1   -1    0    0    0  501  0.00000000000E+00  0.00000000000E+00 -0.61663567837E+03  0.61663567839E+03  0.50400001928E-02 0.  1.
    10030    2    1    2    0    0  0.00000000000E+00  0.00000000000E+00  0.31685302315E+03  0.15501243799E+04  0.15173957147E+04 0.  0.
        2    1    3    3  502    0 -0.13168705816E+03 -0.50844772093E+03 -0.40088774589E+03  0.66073561355E+03  0.25500000920E-02 0.  1.
       -2    1    3    3    0  502  0.13168705816E+03  0.50844772093E+03  0.71774076904E+03  0.88938876638E+03  0.25500000920E-02 0. -1.
</event>
<event>
 5   0  0.3568870E-04  0.1620955E+04  0.7818609E-02  0.8807777E-01
        2   -1    0    0  501    0  0.00000000000E+00  0.00000000000E+00  0.14792003313E+04  0.14792003313E+04  0.25500000920E-02 0.  1.
       -2   -1    0    0    0  501  0.00000000000E+00  0.00000000000E+00 -0.44407372931E+03  0.44407372931E+03  0.25500000920E-02 0. -1.
    10030    2    1    2    0    0  0.00000000000E+00  0.00000000000E+00  0.10351266020E+04  0.19232740606E+04  0.16209552832E+04 0.  0.
        1    1    3    3  502    0  0.76595085601E+03 -0.25429089164E+03  0.42933446256E+03  0.91415132892E+03  0.50400001928E-02 0. -1.
       -1    1    3    3    0  502 -0.76595085601E+03  0.25429089164E+03  0.60579213942E+03  0.10091227317E+04  0.50400001928E-02 0.  1.
</event>
<event>
 5   0  0.1330125E-04  0.1546674E+04  0.7818609E-02  0.8853995E-01
        4   -1    0    0  501    0  0.00000000000E+00  0.00000000000E+00  0.66987722254E+03  0.66987842641E+03  0.12699999809E+01 0.  1.
       -4   -1    0    0    0  501  0.00000000000E+00  0.00000000000E+00 -0.89277284497E+03  0.89277374828E+03  0.12699999809E+01 0. -1.
    10030    2    1    2    0    0  0.00000000000E+00  0.00000000000E+00 -0.22289562244E+03  0.15626521747E+04  0.15466736439E+04 0.  0.
        4    1    3    3  502    0 -0.13751296785E+03 -0.27533036946E+03  0.60534020122E+03  0.67908394238E+03  0.12699999809E+01 0.  1.
       -4    1    3    3    0  502  0.13751296785E+03  0.27533036946E+03 -0.82823582366E+03  0.88356823232E+03  0.12699999809E+01 0. -1.
</event>
<event>
 5   0  0.1883959E-04  0.1828033E+04  0.7818609E-02  0.8691532E-01
        1   -1    0    0  501    0  0.00000000000E+00  0.00000000000E+00  0.13983025842E+04  0.13983025843E+04  0.50400001928E-02 0. -1.
       -1   -1    0    0    0  501  0.00000000000E+00  0.00000000000E+00 -0.59745739200E+03  0.59745739202E+03  0.50400001928E-02 0.  1.
    10030    2    1    2    0    0  0.00000000000E+00  0.00000000000E+00  0.80084519225E+03  0.19957599763E+04  0.18280330580E+04 0.  0.
        5    1    3    3  502    0 -0.24260256521E+03 -0.82764414504E+03  0.73076265425E+03  0.11304366335E+04  0.46999998093E+01 0. -1.
       -5    1    3    3    0  502  0.24260256521E+03  0.82764414504E+03  0.70082537995E+02  0.86532334280E+03  0.46999998093E+01 0.  1.
</event>
<event>
 5   0  0.3575091E-04  0.1826678E+04  0.7818609E-02  0.8692240E-01
       -2   -1    0    0    0  501  0.00000000000E+00  0.00000000000E+00  0.99442352931E+03  0.99442352932E+03  0.25500000920E-02 0. -1.
        2   -1    0    0  501    0  0.00000000000E+00  0.00000000000E+00 -0.83886560612E+03  0.83886560613E+03  0.25500000920E-02 0.  1.
    10030    2    1    2    0    0  0.00000000000E+00  0.00000000000E+00  0.15555792319E+03  0.18332891354E+04  0.18266775267E+04 0.  0.
        5    1    3    3  502    0  0.73967813172E+03 -0.11577088086E+03 -0.44721952741E+03  0.87209748944E+03  0.46999998093E+01 0.  1.
       -5    1    3    3    0  502 -0.73967813172E+03  0.11577088086E+03  0.60277745060E+03  0.96119164600E+03  0.46999998093E+01 0. -1.
</event>
<event>
 5   0  0.1330125E-04  0.1805679E+04  0.7818609E-02  0.8703285E-01
        4   -1    0    0  501    0  0.00000000000E+00  0.00000000000E+00  0.13876313124E+04  0.13876318936E+04  0.12699999809E+01 0. -1.
       -4   -1    0    0    0  501  0.00000000000E+00  0.00000000000E+00 -0.58741655818E+03  0.58741793105E+03  0.12699999809E+01 0.  1.
    10030    2    1    2    0    0  0.00000000000E+00  0.00000000000E+00  0.80021475424E+03  0.19750498246E+04  0.18056794170E+04 0.  0.
        5    1    3    3  502    0 -0.82812364358E+03  0.24653775634E+03  0.68644001244E+03  0.11035359600E+04  0.46999998093E+01 0.  1.
       -5    1    3    3    0  502  0.82812364358E+03 -0.24653775634E+03  0.11377474180E+03  0.87151386462E+03  0.46999998093E+01 0. -1.
</event>
<event>
 5   0  0.1818778E-04  0.1771565E+04  0.7818609E-02  0.8721569E-01
        1   -1    0    0  501    0  0.00000000000E+00  0.00000000000E+00  0.15424014724E+04  0.15424014724E+04  0.50400001928E-02 0.  1.
       -1   -1    0    0    0  501  0.00000000000E+00  0.00000000000E+00 -0.50869393443E+03  0.50869393446E+03  0.50400001928E-02 0. -1.
    10030    2    1    2    0    0  0.00000000000E+00  0.00000000000E+00  0.10337075379E+04  0.20510954068E+04  0.17715645893E+04 0.  0.
        3    1    3    3  502    0 -0.77715306073E+02  0.85510957315E+03  0.76881082294E+03  0.11525285864E+04  0.10100000352E+00 0.  1.
       -3    1    3    3    0  502  0.77715306073E+02 -0.85510957315E+03  0.26489671500E+03  0.89856682039E+03  0.10100000352E+00 0. -1.
</event>
<event>
 5   0  0.1818778E-04  0.1787717E+04  0.7818609E-02  0.8712859E-01
        1   -1    0    0  501    0  0.00000000000E+00  0.00000000000E+00  0.72564518729E+03  0.72564518731E+03  0.50400001928E-02 0.  1.
       -1   -1    0    0    0  501  0.00000000000E+00  0.00000000000E+00 -0.11010659056E+04  0.11010659056E+04  0.50400001928E-02 0. -1.
    10030    2    1    2    0    0  0.00000000000E+00  0.00000000000E+00 -0.37542071831E+03  0.18267110929E+04  0.17877171760E+04 0.  0.
        3    1    3    3  502    0  0.36195794550E+03 -0.48800958903E+01  0.64739575537E+03  0.74172679871E+03  0.10100000352E+00 0.  1.
       -3    1    3    3    0  502 -0.36195794550E+03  0.48800958903E+01 -0.10228164737E+04  0.10849842942E+04  0.10100000352E+00 0. -1.
</event>
<event>
 5   0  0.3628581E-04  0.1740948E+04  0.7818609E-02  0.8738348E-01
        2   -1    0    0  501    0  0.00000000000E+00  0.00000000000E+00  0.12735602057E+04  0.12735602057E+04  0.25500000920E-02 0.  1.
       -2   -1    0    0    0  501  0.00000000000E+00  0.00000000000E+00 -0.59496629719E+03  0.59496629719E+03  0.25500000920E-02 0. -1.
    10030    2    1    2    0    0  0.00000000000E+00  0.00000000000E+00  0.67859390850E+03  0.18685265029E+04  0.17409484769E+04 0.  0.
        2    1    3    3  502    0  0.54448746148E+03 -0.63265143633E+03  0.60440156927E+03  0.10305414560E+04  0.25500000920E-02 0.  1.
       -2    1    3    3    0  502 -0.54448746148E+03  0.63265143633E+03  0.74192339226E+02  0.83798504688E+03  0.25500000920E-02 0. -1.
</event>
<event>
 5   0  0.3568870E-04  0.1835760E+04  0.7818609E-02  0.8687511E-01
       -2   -1    0    0    0  501  0.00000000000E+00  0.00000000000E+00  0.10499687957E+04  0.10499687957E+04  0.25500000920E-02 0.  1.
        2   -1    0    0  501    0  0.00000000000E+00  0.00000000000E+00 -0.80240803624E+03  0.80240803624E+03  0.25500000920E-02 0. -1.
    10030    2    1    2    0    0  0.00000000000E+00  0.00000000000E+00  0.24756075944E+03  0.18523768319E+04  0.18357596787E+04 0.  0.
        1    1    3    3  502    0  0.62531543334E+03  0.24004976851E+02  0.80135537878E+03  0.10167428747E+04  0.50400001928E-02 0.  1.
       -1    1    3    3    0  502 -0.62531543334E+03 -0.24004976851E+02 -0.55379461934E+03  0.83563395725E+03  0.50400001928E-02 0. -1.
</event>
<event>
 5   0  0.1837313E-04  0.1476376E+04  0.7818609E-02  0.8900316E-01
       -1   -1    0    0    0  501  0.00000000000E+00  0.00000000000E+00  0.71815749476E+03  0.71815749477E+03  0.50400001928E-02 0.  1.
        1   -1    0    0  501    0  0.00000000000E+00  0.00000000000E+00 -0.75877733806E+03  0.75877733807E+03  0.50400001928E-02 0. -1.
    10030    2    1    2    0    0  0.00000000000E+00  0.00000000000E+00 -0.40619843300E+02  0.14769348328E+04  0.14763761475E+04 0.  0.
        1    1    3    3  502    0 -0.11363818070E+03  0.15069134939E+03 -0.73423263564E+03  0.75810229003E+03  0.50400001928E-02 0. -1.
       -1    1    3    3    0  502  0.11363818070E+03 -0.15069134939E+03  0.69361279234E+03  0.71883254282E+03  0.50400001928E-02 0.  1.
</event>
<event>
 5   0  0.3568870E-04  0.1773149E+04  0.7818609E-02  0.8720710E-01
        2   -1    0    0  501    0  0.00000000000E+00  0.00000000000E+00  0.10901405502E+04  0.10901405502E+04  0.25500000920E-02 0.  1.
       -2   -1    0    0    0  501  0.00000000000E+00  0.00000000000E+00 -0.72102111237E+03  0.72102111237E+03  0.25500000920E-02 0. -1.
    10030    2    1    2    0    0  0.00000000000E+00  0.00000000000E+00  0.36911943785E+03  0.18111616626E+04  0.17731490091E+04 0.  0.
        1    1    3    3  502    0  0.40397047001E+02  0.25494867658E+03  0.10509074661E+04  0.10821447461E+04  0.50400001928E-02 0.  1.
       -1    1    3    3    0  502 -0.40397047001E+02 -0.25494867658E+03 -0.68178802825E+03  0.72901691653E+03  0.50400001928E-02 0. -1.
</event>
<event>
 5   0  0.3568870E-04  0.1574304E+04  0.7818609E-02  0.8836491E-01
        2   -1    0    0  501    0  0.00000000000E+00  0.00000000000E+00  0.14124049386E+04  0.14124049386E+04  0.25500000920E-02 0.  1.
       -2   -1    0    0    0  501  0.00000000000E+00  0.00000000000E+00 -0.43869041464E+03  0.43869041464E+03  0.25500000920E-02 0. -1.
    10030    2    1    2    0    0  0.00000000000E+00  0.00000000000E+00  0.97371452396E+03  0.18510953532E+04  0.15743043011E+04 0.  0.
        1    1    3    3  502    0 -0.12297268444E+03  0.71028825339E+03  0.85864047554E+03  0.11211133530E+04  0.50400001928E-02 0. -1.
       -1    1    3    3    0  502  0.12297268444E+03 -0.71028825339E+03  0.11507404841E+03  0.72998200023E+03  0.50400001928E-02 0.  1.
</event>
<event>
 5   0  0.3575091E-04  0.1669147E+04  0.7818609E-02  0.8779159E-01
       -2   -1    0    0    0  501  0.00000000000E+00  0.00000000000E+00  0.77575852902E+03  0.77575852902E+03  0.25500000920E-02 0. -1.
        2   -1    0    0  501    0  0.00000000000E+00  0.00000000000E+00 -0.89784760295E+03  0.89784760296E+03  0.25500000920E-02 0.  1.
    10030    2    1    2    0    0  0.00000000000E+00  0.00000000000E+00 -0.12208907394E+03  0.16736061320E+04  0.16691470106E+04 0.  0.
        5    1    3    3  502    0  0.70849799545E+03 -0.44101821389E+03 -0.56094627726E+02  0.83644197157E+03  0.46999998093E+01 0. -1.
       -5    1    3    3    0  502 -0.70849799545E+03  0.44101821389E+03 -0.65994446212E+02  0.83716416041E+03  0.46999998093E+01 0.  1.
</event>
<event>
 5   0  0.3568870E-04  0.1802862E+04  0.7818609E-02  0.8704779E-01
       -2   -1    0    0    0  501  0.00000000000E+00  0.00000000000E+00  0.41733508048E+03  0.41733508049E+03  0.25500000920E-02 0. -1.
        2   -1    0    0  501    0  0.00000000000E+00  0.00000000000E+00 -0.19470623057E+04  0.19470623057E+04  0.25500000920E-02 0.  1.
    10030    2    1    2    0    0  0.00000000000E+00  0.00000000000E+00 -0.15297272252E+04  0.23643973862E+04  0.18028615078E+04 0.  0.
        1    1    3    3  502    0 -0.25160753663E+02 -0.89814730467E+03 -0.66960580005E+03  0.11205684146E+04  0.50400001928E-02 0. -1.
       -1    1    3    3    0  502  0.25160753663E+02  0.89814730467E+03 -0.86012142518E+03  0.12438289716E+04  0.50400001928E-02 0.  1.
</event>
<event>
 5   0  0.1825253E-04  0.1788815E+04  0.7818609E-02  0.8712270E-01
        1   -1    0    0  501    0  0.00000000000E+00  0.00000000000E+00  0.12136146689E+04  0.12136146689E+04  0.50400001928E-02 0. -1.
       -1   -1    0    0    0  501  0.00000000000E+00  0.00000000000E+00 -0.65915874602E+03  0.65915874604E+03  0.50400001928E-02 0.  1.
    10030    2    1    2    0    0  0.00000000000E+00  0.00000000000E+00  0.55445592284E+03  0.18727734149E+04  0.17888149410E+04 0.  0.
        4    1    3    3  502    0  0.15739578113E+03  0.48439493854E+03 -0.49250174680E+03  0.70849945088E+03  0.12699999809E+01 0.  1.
       -4    1    3    3    0  502 -0.15739578113E+03 -0.48439493854E+03  0.10469576696E+04  0.11642739640E+04  0.12699999809E+01 0. -1.
</event>
<event>
 5   0  0.1837313E-04  0.1802734E+04  0.7818609E-02  0.8704847E-01
       -1   -1    0    0    0  501  0.00000000000E+00  0.00000000000E+00  0.75194109755E+03  0.75194109756E+03  0.50400001928E-02 0. -1.
        1   -1    0    0  501    0  0.00000000000E+00  0.00000000000E+00 -0.10804872222E+04  0.10804872222E+04  0.50400001928E-02 0.  1.
    10030    2    1    2    0    0  0.00000000000E+00  0.00000000000E+00 -0.32854612465E+03  0.18324283198E+04  0.18027343096E+04 0.  0.
        1    1    3    3  502    0 -0.72886443330E+03  0.51347132110E+03 -0.29550920419E+02  0.89205908809E+03  0.50400001928E-02 0. -1.
       -1    1    3    3    0  502  0.72886443330E+03 -0.51347132110E+03 -0.29899520423E+03  0.94036923169E+03  0.50400001928E-02 0.  1.
</event>
<event>
 5   0  0.1837313E-04  0.1814765E+04  0.7818609E-02  0.8698487E-01
        1   -1    0    0  501    0  0.00000000000E+00  0.00000000000E+00  0.24610788280E+04  0.24610788280E+04  0.50400001928E-02 0. -1.
       -1   -1    0    0    0  501  0.00000000000E+00  0.00000000000E+00 -0.33454543803E+03  0.33454543807E+03  0.50400001928E-02 0.  1.
    10030    2    1    2    0    0  0.00000000000E+00  0.00000000000E+00  0.21265333899E+04  0.27956242661E+04  0.18147646620E+04 0.  0.
        1    1    3    3  502    0 -0.64592583382E+03  0.63426640876E+03  0.11585859066E+04  0.14703181163E+04  0.50400001928E-02 0. -1.
       -1    1    3    3    0  502  0.64592583382E+03 -0.63426640876E+03  0.96794748339E+03  0.13253061498E+04  0.50400001928E-02 0.  1.
</event>
<event>
 5   0  0.3575091E-04  0.1793806E+04  0.7818609E-02  0.8709600E-01
        2   -1    0    0  501    0  0.00000000000E+00  0.00000000000E+00  0.14631442315E+04  0.14631442315E+04  0.25500000920E-02 0.  1.
       -2   -1    0    0    0  501  0.00000000000E+00  0.00000000000E+00 -0.54979896082E+03  0.54979896083E+03  0.25500000920E-02 0. -1.
    10030    2    1    2    0    0  0.00000000000E+00  0.00000000000E+00  0.91334527068E+03  0.20129431923E+04  0.17938062081E+04 0.  0.
        5    1    3    3  502    0  0.85127115158E+03  0.16829704413E+03  0.20219478682E+03  0.89100577461E+03  0.46999998093E+01 0.  1.
       -5    1    3    3    0  502 -0.85127115158E+03 -0.16829704413E+03  0.71115048387E+03  0.11219374177E+04  0.46999998093E+01 0. -1.
</event>
<event>
 5   0  0.3568870E-04  0.1831350E+04  0.7818609E-02  0.8689803E-01
       -2   -1    0    0    0  501  0.00000000000E+00  0.00000000000E+00  0.55937623744E+03  0.55937623745E+03  0.25500000920E-02 0.  1.
        2   -1    0    0  501    0  0.00000000000E+00  0.00000000000E+00 -0.14989211732E+04  0.14989211732E+04  0.25500000920E-02 0. -1.
    10030    2    1    2    0    0  0.00000000000E+00  0.00000000000E+00 -0.93954493575E+03  0.20582974106E+04  0.18313501971E+04 0.  0.
        1    1    3    3  502    0  0.38207446207E+02  0.38471742892E+03 -0.14026922772E+04  0.14549958534E+04  0.50400001928E-02 0. -1.
       -1    1    3    3    0  502 -0.38207446207E+02 -0.38471742892E+03  0.46314734141E+03  0.60330155722E+03  0.50400001928E-02 0.  1.
</event>
<event>
 5   0  0.1818778E-04  0.1808360E+04  0.7818609E-02  0.8701866E-01
        1   -1    0    0  501    0  0.00000000000E+00  0.00000000000E+00  0.84644356564E+03  0.84644356565E+03  0.50400001928E-02 0. -1.
       -1   -1    0    0    0  501  0.00000000000E+00  0.00000000000E+00 -0.96585515523E+03  0.96585515524E+03  0.50400001928E-02 0.  1.
    10030    2    1    2    0    0  0.00000000000E+00  0.00000000000E+00 -0.11941158959E+03  0.18122987209E+04  0.18083604525E+04 0.  0.
        3    1    3    3  502    0  0.19709737442E+03 -0.76428843995E+03  0.38234173609E+03  0.87702303722E+03  0.10100000352E+00 0.  1.
       -3    1    3    3    0  502 -0.19709737442E+03  0.76428843995E+03 -0.50175332568E+03  0.93527568368E+03  0.10100000352E+00 0. -1.
</event>
<event>
 5   0  0.1818778E-04  0.1790469E+04  0.7818609E-02  0.8711384E-01
        1   -1    0    0  501    0  0.00000000000E+00  0.00000000000E+00  0.11054420586E+04  0.11054420586E+04  0.50400001928E-02 0.  1.
       -1   -1    0    0    0  501  0.00000000000E+00  0.00000000000E+00 -0.72499942728E+03  0.72499942730E+03  0.50400001928E-02 0. -1.
    10030    2    1    2    0    0  0.00000000000E+00  0.00000000000E+00  0.38044263129E+03  0.18304414859E+04  0.17904690552E+04 0.  0.
        3    1    3    3  502    0 -0.57771021281E+03  0.52669969034E+03 -0.25573184748E+03  0.82253294269E+03  0.10100000352E+00 0. -1.
       -3    1    3    3    0  502  0.57771021281E+03 -0.52669969034E+03  0.63617447877E+03  0.10079085432E+04  0.10100000352E+00 0.  1.
</event>
<event>
 5   0  0.3568870E-04  0.1906848E+04  0.7818609E-02  0.8651455E-01
       -2   -1    0    0    0  501  0.00000000000E+00  0.00000000000E+00  0.90283284807E+03  0.90283284807E+03  0.25500000920E-02 0.  1.
        2   -1    0    0  501    0  0.00000000000E+00  0.00000000000E+00 -0.10068502530E+04  0.10068502530E+04  0.25500000920E-02 0. -1.
    10030    2    1    2    0    0  0.00000000000E+00  0.00000000000E+00 -0.10401740490E+03  0.19096831010E+04  0.19068481654E+04 0.  0.
        1    1    3    3  502    0 -0.16038506545E+03  0.91523346513E+03 -0.26596577752E+03  0.96649545252E+03  0.50400001928E-02 0. -1.
       -1    1    3    3    0  502  0.16038506545E+03 -0.91523346513E+03  0.16194837261E+03  0.94318764852E+03  0.50400001928E-02 0.  1.
</event>
<event>
 5   0  0.1837313E-04  0.1776998E+04  0.7818609E-02  0.8718628E-01
        1   -1    0    0  501    0  0.00000000000E+00  0.00000000000E+00  0.11182031494E+04  0.11182031494E+04  0.50400001928E-02 0. -1.
       -1   -1    0    0    0  501  0.00000000000E+00  0.00000000000E+00 -0.70598108305E+03  0.70598108307E+03  0.50400001928E-02 0.  1.
    10030    2    1    2    0    0  0.00000000000E+00  0.00000000000E+00  0.41222206630E+03  0.18241842324E+04  0.17769977721E+04 0.  0.
        1    1    3    3  502    0 -0.47099473584E+03 -0.59303594148E+03  0.68310265596E+03  0.10198808301E+04  0.50400001928E-02 0. -1.
       -1    1    3    3    0  502  0.47099473584E+03  0.59303594148E+03 -0.27088058966E+03  0.80430340230E+03  0.50400001928E-02 0.  1.
</event>
<event>
 5   0  0.1835421E-04  0.1833295E+04  0.7818609E-02  0.8688791E-01
        1   -1    0    0  501    0  0.00000000000E+00  0.00000000000E+00  0.13010433320E+04  0.13010433320E+04  0.50400001928E-02 0.  1.
       -1   -1    0    0    0  501  0.00000000000E+00  0.00000000000E+00 -0.64582196634E+03  0.64582196636E+03  0.50400001928E-02 0. -1.
    10030    2    1    2    0    0  0.00000000000E+00  0.00000000000E+00  0.65522136563E+03  0.19468652983E+04  0.18332946986E+04 0.  0.
        2    1    3    3  502    0  0.24914837244E+03  0.67098781884E+03  0.93574942390E+03  0.11781029449E+04  0.25500000920E-02 0.  1.
       -2    1    3    3    0  502 -0.24914837244E+03 -0.67098781884E+03 -0.28052805827E+03  0.76876235340E+03  0.25500000920E-02 0. -1.
</event>
<event>
 5   0  0.1825253E-04  0.1786469E+04  0.7818609E-02  0.8713528E-01
        1   -1    0    0  501    0  0.00000000000E+00  0.00000000000E+00  0.11063365842E+04  0.11063365842E+04  0.50400001928E-02 0.  1.
       -1   -1    0    0    0  501  0.00000000000E+00  0.00000000000E+00 -0.72118021542E+03  0.72118021544E+03  0.50400001928E-02 0. -1.
    10030    2    1    2    0    0  0.00000000000E+00  0.00000000000E+00  0.38515636879E+03  0.18275167997E+04  0.17864692062E+04 0.  0.
        4    1    3    3  502    0  0.20949228416E+03  0.32456615737E+03 -0.63130653238E+03  0.74012144838E+03  0.12699999809E+01 0. -1.
       -4    1    3    3    0  502 -0.20949228416E+03 -0.32456615737E+03  0.10164629012E+04  0.10873953513E+04  0.12699999809E+01 0.  1.
</event>
<event>
 5   0  0.1835421E-04  0.1818423E+04  0.7818609E-02  0.8696563E-01
       -1   -1    0    0    0  501  0.00000000000E+00  0.00000000000E+00  0.60700625858E+03  0.60700625860E+03  0.50400001928E-02 0.  1.
        1   -1    0    0  501    0  0.00000000000E+00  0.00000000000E+00 -0.13618729529E+04  0.13618729529E+04  0.50400001928E-02 0. -1.
    10030    2    1    2    0    0  0.00000000000E+00  0.00000000000E+00 -0.75486669427E+03  0.19688792115E+04  0.18184228395E+04 0.  0.
        2    1    3    3  502    0 -0.26590668926E+03  0.50065788449E+03  0.39222707559E+03  0.68935242331E+03  0.25500000920E-02 0.  1.
       -2    1    3    3    0  502  0.26590668926E+03 -0.50065788449E+03 -0.11470937699E+04  0.12795267881E+04  0.25500000920E-02 0. -1.
</event>
<event>
 5   0  0.1837313E-04  0.1772093E+04  0.7818609E-02  0.8721282E-01
       -1   -1    0    0    0  501  0.00000000000E+00  0.00000000000E+00  0.42836690101E+03  0.42836690103E+03  0.50400001928E-02 0.  1.
        1   -1    0    0  501    0  0.00000000000E+00  0.00000000000E+00 -0.18327241285E+04  0.18327241285E+04  0.50400001928E-02 0. -1.
    10030    2    1    2    0    0  0.00000000000E+00  0.00000000000E+00 -0.14043572275E+04  0.22610910295E+04  0.17720929494E+04 0.  0.
        1    1    3    3  502    0 -0.76249714899E+02  0.22797122974E+03  0.38596542937E+03  0.45470233484E+03  0.50400001928E-02 0.  1.
       -1    1    3    3    0  502  0.76249714899E+02 -0.22797122974E+03 -0.17903226568E+04  0.18063886947E+04  0.50400001928E-02 0. -1.
</event>
<event>
 5   0  0.1818778E-04  0.1767592E+04  0.7818609E-02  0.8723726E-01
        1   -1    0    0  501    0  0.00000000000E+00  0.00000000000E+00  0.11929421177E+04  0.11929421177E+04  0.50400001928E-02 0.  1.
       -1   -1    0    0    0  501  0.00000000000E+00  0.00000000000E+00 -0.65476395532E+03  0.65476395534E+03  0.50400001928E-02 0. -1.
    10030    2    1    2    0    0  0.00000000000E+00  0.00000000000E+00  0.53817816235E+03  0.18477060730E+04  0.17675921469E+04 0.  0.
        3    1    3    3  502    0  0.62999211658E+02 -0.71321427561E+03 -0.27251774974E+03  0.76610014862E+03  0.10100000352E+00 0. -1.
       -3    1    3    3    0  502 -0.62999211658E+02  0.71321427561E+03  0.81069591209E+03  0.10816059244E+04  0.10100000352E+00 0.  1.
</event>
<event>
 5   0  0.1825253E-04  0.1795913E+04  0.7818609E-02  0.8708476E-01
        1   -1    0    0  501    0  0.00000000000E+00  0.00000000000E+00  0.92251025388E+03  0.92251025389E+03  0.50400001928E-02 0. -1.
       -1   -1    0    0    0  501  0.00000000000E+00  0.00000000000E+00 -0.87405592863E+03  0.87405592865E+03  0.50400001928E-02 0.  1.
    10030    2    1    2    0    0  0.00000000000E+00  0.00000000000E+00  0.48454325250E+02  0.17965661825E+04  0.17959126445E+04 0.  0.
        4    1    3    3  502    0 -0.12046388013E+03  0.25398230556E+03  0.87735952011E+03  0.92129251510E+03  0.12699999809E+01 0. -1.
       -4    1    3    3    0  502  0.12046388013E+03 -0.25398230556E+03 -0.82890519486E+03  0.87527366744E+03  0.12699999809E+01 0.  1.
</event>
<event>
 5   0  0.3531266E-04  0.1803476E+04  0.7818609E-02  0.8704453E-01
       -2   -1    0    0    0  501  0.00000000000E+00  0.00000000000E+00  0.45041812799E+03  0.45041812800E+03  0.25500000920E-02 0.  1.
        2   -1    0    0  501    0  0.00000000000E+00  0.00000000000E+00 -0.18052821969E+04  0.18052821969E+04  0.25500000920E-02 0. -1.
    10030    2    1    2    0    0  0.00000000000E+00  0.00000000000E+00 -0.13548640689E+04  0.22557003249E+04  0.18034764513E+04 0.  0.
        3    1    3    3  502    0  0.67053072943E+03  0.29997271150E+03 -0.13315841527E+04  0.15207601562E+04  0.10100000352E+00 0. -1.
       -3    1    3    3    0  502 -0.67053072943E+03 -0.29997271150E+03 -0.23279916121E+02  0.73494016862E+03  0.10100000352E+00 0.  1.
</event>
<event>
 5   0  0.1835421E-04  0.1939966E+04  0.7818609E-02  0.8635214E-01
        1   -1    0    0  501    0  0.00000000000E+00  0.00000000000E+00  0.96162701217E+03  0.96162701218E+03  0.50400001928E-02 0. -1.
       -1   -1    0    0    0  501  0.00000000000E+00  0.00000000000E+00 -0.97841192069E+03  0.97841192070E+03  0.50400001928E-02 0.  1.
    10030    2    1    2    0    0  0.00000000000E+00  0.00000000000E+00 -0.16784908523E+02  0.19400389329E+04  0.19399663213E+04 0.  0.
        2    1    3    3  502    0 -0.50611468862E+03 -0.39746715735E+03 -0.73418481034E+03  0.97629890656E+03  0.25500000920E-02 0.  1.
       -2    1    3    3    0  502  0.50611468862E+03  0.39746715735E+03  0.71739990182E+03  0.96374002633E+03  0.25500000920E-02 0. -1.
</event>
<event>
 5   0  0.1818778E-04  0.1807714E+04  0.7818609E-02  0.8702208E-01
        1   -1    0    0  501    0  0.00000000000E+00  0.00000000000E+00  0.15049158899E+04  0.15049158900E+04  0.50400001928E-02 0. -1.
       -1   -1    0    0    0  501  0.00000000000E+00  0.00000000000E+00 -0.54285945973E+03  0.54285945975E+03  0.50400001928E-02 0.  1.
    10030    2    1    2    0    0  0.00000000000E+00  0.00000000000E+00  0.96205643022E+03  0.20477753497E+04  0.18077143878E+04 0.  0.
        3    1    3    3  502    0  0.88046924223E+03 -0.10356830364E+03  0.68049506199E+03  0.11175983266E+04  0.10100000352E+00 0.  1.
       -3    1    3    3    0  502 -0.88046924223E+03  0.10356830364E+03  0.28156136823E+03  0.93017702310E+03  0.10100000352E+00 0. -1.
</event>
<event>
 5   0  0.1330125E-04  0.1757255E+04  0.7818609E-02  0.8729367E-01
       -4   -1    0    0    0  501  0.00000000000E+00  0.00000000000E+00  0.13801352178E+04  0.13801358021E+04  0.12699999809E+01 0. -1.
        4   -1    0    0  501    0  0.00000000000E+00  0.00000000000E+00 -0.55935421825E+03  0.55935566000E+03  0.12699999809E+01 0.  1.
    10030    2    1    2    0    0  0.00000000000E+00  0.00000000000E+00  0.82078099954E+03  0.19394914621E+04  0.17572551558E+04 0.  0.
        5    1    3    3  502    0 -0.67854818464E+03  0.46711094262E+03  0.74759734873E+03  0.11124496202E+04  0.46999998093E+01 0. -1.
       -5    1    3    3    0  502  0.67854818464E+03 -0.46711094262E+03  0.73183650817E+02  0.82704184195E+03  0.46999998093E+01 0.  1.
</event>
<event>
 5   0  0.3568870E-04  0.1802594E+04  0.7818609E-02  0.8704921E-01
       -2   -1    0    0    0  501  0.00000000000E+00  0.00000000000E+00  0.87062427605E+03  0.87062427605E+03  0.25500000920E-02 0.  1.
        2   -1    0    0  501    0  0.00000000000E+00  0.00000000000E+00 -0.93305085357E+03  0.93305085358E+03  0.25500000920E-02 0. -1.
    10030    2    1    2    0    0  0.00000000000E+00  0.00000000000E+00 -0.62426577527E+02  0.18036751296E+04  0.18025944901E+04 0.  0.
        1    1    3    3  502    0 -0.80974904406E+03  0.27068875028E+03 -0.32012642469E+03  0.91183706970E+03  0.50400001928E-02 0. -1.
       -1    1    3    3    0  502  0.80974904406E+03 -0.27068875028E+03  0.25769984716E+03  0.89183805992E+03  0.50400001928E-02 0.  1.
</event>
<event>
 5   0  0.1837313E-04  0.1794454E+04  0.7818609E-02  0.8709254E-01
       -1   -1    0    0    0  501  0.00000000000E+00  0.00000000000E+00  0.70729822636E+03  0.70729822638E+03  0.50400001928E-02 0.  1.
        1   -1    0    0  501    0  0.00000000000E+00  0.00000000000E+00 -0.11381569569E+04  0.11381569569E+04  0.50400001928E-02 0. -1.
    10030    2    1    2    0    0  0.00000000000E+00  0.00000000000E+00 -0.43085873053E+03  0.18454551833E+04  0.17944541197E+04 0.  0.
        1    1    3    3  502    0 -0.14686218480E+02 -0.10148325351E+03  0.70125242334E+03  0.70870974102E+03  0.50400001928E-02 0.  1.
       -1    1    3    3    0  502  0.14686218480E+02  0.10148325351E+03 -0.11321111539E+04  0.11367454423E+04  0.50400001928E-02 0. -1.
</event>
<event>
 5   0  0.3628581E-04  0.1783937E+04  0.7818609E-02  0.8714889E-01
       -2   -1    0    0    0  501  0.00000000000E+00  0.00000000000E+00  0.93818156425E+03  0.93818156425E+03  0.25500000920E-02 0.  1.
        2   -1    0    0  501    0  0.00000000000E+00  0.00000000000E+00 -0.84803155226E+03  0.84803155227E+03  0.25500000920E-02 0. -1.
    10030    2    1    2    0    0  0.00000000000E+00  0.00000000000E+00  0.90150011983E+02  0.17862131165E+04  0.17839367346E+04 0.  0.
        2    1    3    3  502    0 -0.61211008016E+03 -0.60429478489E+03  0.28150473675E+03  0.90503914506E+03  0.25500000920E-02 0. -1.
       -2    1    3    3    0  502  0.61211008016E+03  0.60429478489E+03 -0.19135472476E+03  0.88117397146E+03  0.25500000920E-02 0.  1.
</event>
<event>
 5   0  0.1883959E-04  0.1786052E+04  0.7818609E-02  0.8713752E-01
       -1   -1    0    0    0  501  0.00000000000E+00  0.00000000000E+00  0.78341194716E+03  0.78341194718E+03  0.50400001928E-02 0. -1.
        1   -1    0    0  501    0  0.00000000000E+00  0.00000000000E+00 -0.10179776601E+04  0.10179776601E+04  0.50400001928E-02 0.  1.
    10030    2    1    2    0    0  0.00000000000E+00  0.00000000000E+00 -0.23456571295E+03  0.18013896073E+04  0.17860524750E+04 0.  0.
        5    1    3    3  502    0  0.54539825729E+03 -0.13694442586E+03  0.58240390011E+03  0.80958596066E+03  0.46999998093E+01 0. -1.
       -5    1    3    3    0  502 -0.54539825729E+03  0.13694442586E+03 -0.81696961306E+03  0.99180364664E+03  0.46999998093E+01 0.  1.
</event>
<event>
 5   0  0.1825253E-04  0.1788758E+04  0.7818609E-02  0.8712301E-01
        1   -1    0    0  501    0  0.00000000000E+00  0.00000000000E+00  0.12067133156E+04  0.12067133156E+04  0.50400001928E-02 0. -1.
       -1   -1    0    0    0  501  0.00000000000E+00  0.00000000000E+00 -0.66288608629E+03  0.66288608631E+03  0.50400001928E-02 0.  1.
    10030    2    1    2    0    0  0.00000000000E+00  0.00000000000E+00  0.54382722935E+03  0.18695994020E+04  0.17887576327E+04 0.  0.
        4    1    3    3  502    0 -0.14023700089E+03  0.81953847294E+03  0.61635571628E+03  0.10349906796E+04  0.12699999809E+01 0. -1.
       -4    1    3    3    0  502  0.14023700089E+03 -0.81953847294E+03 -0.72528486934E+02  0.83460872232E+03  0.12699999809E+01 0.  1.
</event>
<event>
 5   0  0.1818778E-04  0.1777469E+04  0.7818609E-02  0.8718374E-01
        1   -1    0    0  501    0  0.00000000000E+00  0.00000000000E+00  0.18948260877E+04  0.18948260877E+04  0.50400001928E-02 0.  1.
       -1   -1    0    0    0  501  0.00000000000E+00  0.00000000000E+00 -0.41684535471E+03  0.41684535474E+03  0.50400001928E-02 0. -1.
    10030    2    1    2    0    0  0.00000000000E+00  0.00000000000E+00  0.14779807330E+04  0.23116714425E+04  0.17774694964E+04 0.  0.
        3    1    3    3  502    0 -0.38789075325E+03  0.16075226005E+03 -0.27971489297E+03  0.50452052200E+03  0.10100000352E+00 0. -1.
       -3    1    3    3    0  502  0.38789075325E+03 -0.16075226005E+03  0.17576956260E+04  0.18071509205E+04  0.10100000352E+00 0.  1.
</event>
<event>
 5   0  0.1330125E-04  0.1822568E+04  0.7818609E-02  0.8694389E-01
       -3   -1    0    0    0  501  0.00000000000E+00  0.00000000000E+00  0.11231922980E+04  0.11231923026E+04  0.10100000352E+00 0.  1.
        3   -1    0    0  501    0  0.00000000000E+00  0.00000000000E+00 -0.73935545598E+03  0.73935546288E+03  0.10100000352E+00 0. -1.
    10030    2    1    2    0    0  0.00000000000E+00  0.00000000000E+00  0.38383684206E+03  0.18625477655E+04  0.18225678197E+04 0.  0.
        3    1    3    3  502    0  0.29368815144E+03 -0.14428921351E+03  0.10610846453E+04  0.11103930575E+04  0.10100000352E+00 0.  1.
       -3    1    3    3    0  502 -0.29368815144E+03  0.14428921351E+03 -0.67724780328E+03  0.75215470794E+03  0.10100000352E+00 0. -1.
</event>
<event>
 5   0  0.3531266E-04  0.1813870E+04  0.7818609E-02  0.8698958E-01
       -2   -1    0    0    0  501  0.00000000000E+00  0.00000000000E+00  0.15945250707E+04  0.15945250707E+04  0.25500000920E-02 0. -1.
        2   -1    0    0  501    0  0.00000000000E+00  0.00000000000E+00 -0.51584703501E+03  0.51584703502E+03  0.25500000920E-02 0.  1.
    10030    2    1    2    0    0  0.00000000000E+00  0.00000000000E+00  0.10786780357E+04  0.21103721057E+04  0.18138699292E+04 0.  0.
        3    1    3    3  502    0  0.88953440827E+03  0.93542312435E+02  0.36478301845E+03  0.96596495198E+03  0.10100000352E+00 0.  1.
       -3    1    3    3    0  502 -0.88953440827E+03 -0.93542312435E+02  0.71389501725E+03  0.11444071538E+04  0.10100000352E+00 0. -1.
</event>
<event>
 5   0  0.3582186E-04  0.1787164E+04  0.7818609E-02  0.8713155E-01
        2   -1    0    0  501    0  0.00000000000E+00  0.00000000000E+00  0.47975236265E+03  0.47975236265E+03  0.25500000920E-02 0. -1.
       -2   -1    0    0    0  501  0.00000000000E+00  0.00000000000E+00 -0.16643774326E+04  0.16643774326E+04  0.25500000920E-02 0.  1.
    10030    2    1    2    0    0  0.00000000000E+00  0.00000000000E+00 -0.11846250699E+04  0.21441297952E+04  0.17871642405E+04 0.  0.
        4    1    3    3  502    0  0.66906840715E+03 -0.53574515760E+03 -0.89537889601E+03  0.12395081233E+04  0.12699999809E+01 0.  1.
       -4    1    3    3    0  502 -0.66906840715E+03  0.53574515760E+03 -0.28924617390E+03  0.90462167195E+03  0.12699999809E+01 0. -1.
</event>
<event>
 5   0  0.1825253E-04  0.1841684E+04  0.7818609E-02  0.8684441E-01
       -1   -1    0    0    0  501  0.00000000000E+00  0.00000000000E+00  0.65924026048E+03  0.65924026050E+03  0.50400001928E-02 0. -1.
        1   -1    0    0  501    0  0.00000000000E+00  0.00000000000E+00 -0.12862535161E+04  0.12862535161E+04  0.50400001928E-02 0.  1.
    10030    2    1    2    0    0  0.00000000000E+00  0.00000000000E+00 -0.62701325561E+03  0.19454937766E+04  0.18416841239E+04 0.  0.
        4    1    3    3  502    0  0.41358695808E+03 -0.13852206970E+02  0.55548095563E+03  0.69268085040E+03  0.12699999809E+01 0. -1.
       -4    1    3    3    0  502 -0.41358695808E+03  0.13852206970E+02 -0.11824942112E+04  0.12528129262E+04  0.12699999809E+01 0.  1.
</event>
<event>
 5   0  0.1883959E-04  0.1712513E+04  0.7818609E-02  0.8754260E-01
       -1   -1    0    0    0  501  0.00000000000E+00  0.00000000000E+00  0.34112839390E+03  0.34112839394E+03  0.50400001928E-02 0.  1.
        1   -1    0    0  501    0  0.00000000000E+00  0.00000000000E+00 -0.21492641781E+04  0.21492641781E+04  0.50400001928E-02 0. -1.
    10030    2    1    2    0    0  0.00000000000E+00  0.00000000000E+00 -0.18081357842E+04  0.24903925720E+04  0.17125128171E+04 0.  0.
        5    1    3    3  502    0 -0.61617314248E+01  0.44781363880E+03 -0.19653370971E+04  0.20157249359E+04  0.46999998093E+01 0. -1.
       -5    1    3    3    0  502  0.61617314248E+01 -0.44781363880E+03  0.15720131289E+03  0.47466763614E+03  0.46999998093E+01 0.  1.
</event>
<event>
 5   0  0.3531266E-04  0.1755012E+04  0.7818609E-02  0.8730596E-01
       -2   -1    0    0    0  501  0.00000000000E+00  0.00000000000E+00  0.69373596526E+03  0.69373596527E+03  0.25500000920E-02 0. -1.
        2   -1    0    0  501    0  0.00000000000E+00  0.00000000000E+00 -0.11099570510E+04  0.11099570510E+04  0.25500000920E-02 0.  1.
    10030    2    1    2    0    0  0.00000000000E+00  0.00000000000E+00 -0.41622108574E+03  0.18036930163E+04  0.17550123945E+04 0.  0.
        3    1    3    3  502    0 -0.25869113046E+03  0.80927894607E+03  0.17438982373E+02  0.84979858898E+03  0.10100000352E+00 0. -1.
       -3    1    3    3    0  502  0.25869113046E+03 -0.80927894607E+03 -0.43366006811E+03  0.95389442728E+03  0.10100000352E+00 0.  1.
</event>
<event>
 5   0  0.1825253E-04  0.1765658E+04  0.7818609E-02  0.8724778E-01
       -1   -1    0    0    0  501  0.00000000000E+00  0.00000000000E+00  0.82150510693E+03  0.82150510694E+03  0.50400001928E-02 0.  1.
        1   -1    0    0  501    0  0.00000000000E+00  0.00000000000E+00 -0.94873050146E+03  0.94873050148E+03  0.50400001928E-02 0. -1.
    10030    2    1    2    0    0  0.00000000000E+00  0.00000000000E+00 -0.12722539454E+03  0.17702356084E+04  0.17656578967E+04 0.  0.
        4    1    3    3  502    0 -0.27019453067E+03 -0.73876102483E+03 -0.46541650783E+03  0.91399511754E+03  0.12699999809E+01 0. -1.
       -4    1    3    3    0  502  0.27019453067E+03  0.73876102483E+03  0.33819111329E+03  0.85624049088E+03  0.12699999809E+01 0.  1.
</event>
<event>
 5   0  0.3531266E-04  0.1679884E+04  0.7818609E-02  0.8772921E-01
       -2   -1    0    0    0  501  0.00000000000E+00  0.00000000000E+00  0.40433030589E+03  0.40433030590E+03  0.25500000920E-02 0. -1.
        2   -1    0    0  501    0  0.00000000000E+00  0.00000000000E+00 -0.17448676199E+04  0.17448676199E+04  0.25500000920E-02 0.  1.
    10030    2    1    2    0    0  0.00000000000E+00  0.00000000000E+00 -0.13405373140E+04  0.21491979258E+04  0.16798843514E+04 0.  0.
        3    1    3    3  502    0  0.36304204937E+02 -0.32619179365E+02  0.40251466720E+03  0.40546278951E+03  0.10100000352E+00 0. -1.
       -3    1    3    3    0  502 -0.36304204937E+02  0.32619179365E+02 -0.17430519812E+04  0.17437351363E+04  0.10100000352E+00 0.  1.
</event>
<event>
 5   0  0.1883959E-04  0.1824512E+04  0.7818609E-02  0.8693372E-01
        1   -1    0    0  501    0  0.00000000000E+00  0.00000000000E+00  0.10828445767E+04  0.10828445767E+04  0.50400001928E-02 0.  1.
       -1   -1    0    0    0  501  0.00000000000E+00  0.00000000000E+00 -0.76854192347E+03  0.76854192349E+03  0.50400001928E-02 0. -1.
    10030    2    1    2    0    0  0.00000000000E+00  0.00000000000E+00  0.31430265323E+03  0.18513865002E+04  0.18245124870E+04 0.  0.
        5    1    3    3  502    0  0.14981744359E+03  0.83625784474E+03 -0.18003352571E+03  0.86845069502E+03  0.46999998093E+01 0. -1.
       -5    1    3    3    0  502 -0.14981744359E+03 -0.83625784474E+03  0.49433617894E+03  0.98293580518E+03  0.46999998093E+01 0.  1.
</event>
<event>
 5   0  0.1835421E-04  0.1959092E+04  0.7818609E-02  0.8625989E-01
        1   -1    0    0  501    0  0.00000000000E+00  0.00000000000E+00  0.10360086608E+04  0.10360086608E+04  0.50400001928E-02 0.  1.
       -1   -1    0    0    0  501  0.00000000000E+00  0.00000000000E+00 -0.92616061704E+03  0.92616061705E+03  0.50400001928E-02 0. -1.
    10030    2    1    2    0    0  0.00000000000E+00  0.00000000000E+00  0.10984804372E+03  0.19621692778E+04  0.19590920555E+04 0.  0.
        2    1    3    3  502    0  0.56065836572E+03 -0.43277397422E+03  0.73265468529E+03  0.10190260074E+04  0.25500000920E-02 0.  1.
       -2    1    3    3    0  502 -0.56065836572E+03  0.43277397422E+03 -0.62280664157E+03  0.94314327045E+03  0.25500000920E-02 0. -1.
</event>
<event>
 5   0  0.3575091E-04  0.1828842E+04  0.7818609E-02  0.8691110E-01
       -2   -1    0    0    0  501  0.00000000000E+00  0.00000000000E+00  0.93847867775E+03  0.93847867776E+03  0.25500000920E-02 0. -1.
        2   -1    0    0  501    0  0.00000000000E+00  0.00000000000E+00 -0.89098041698E+03  0.89098041699E+03  0.25500000920E-02 0.  1.
    10030    2    1    2    0    0  0.00000000000E+00  0.00000000000E+00  0.47498260770E+02  0.18294590947E+04  0.18288423919E+04 0.  0.
        5    1    3    3  502    0  0.52825696193E+03 -0.31138734602E+03 -0.65480588348E+03  0.89711221825E+03  0.46999998093E+01 0.  1.
       -5    1    3    3    0  502 -0.52825696193E+03  0.31138734602E+03  0.70230414425E+03  0.93234687650E+03  0.46999998093E+01 0. -1.
</event>
<event>
 5   0  0.1837313E-04  0.1795233E+04  0.7818609E-02  0.8708838E-01
        1   -1    0    0  501    0  0.00000000000E+00  0.00000000000E+00  0.17069291020E+04  0.17069291020E+04  0.50400001928E-02 0. -1.
       -1   -1    0    0    0  501  0.00000000000E+00  0.00000000000E+00 -0.47202640885E+03  0.47202640888E+03  0.50400001928E-02 0.  1.
    10030    2    1    2    0    0  0.00000000000E+00  0.00000000000E+00  0.12349026932E+04  0.21789555109E+04  0.17952332598E+04 0.  0.
        1    1    3    3  502    0  0.37241048395E+03  0.51990797916E+02 -0.37182385487E+03  0.52881527087E+03  0.50400001928E-02 0.  1.
       -1    1    3    3    0  502 -0.37241048395E+03 -0.51990797916E+02  0.16067265480E+04  0.16501402400E+04  0.50400001928E-02 0. -1.
</event>
<event>
 5   0  0.1837313E-04  0.1815774E+04  0.7818609E-02  0.8697956E-01
        1   -1    0    0  501    0  0.00000000000E+00  0.00000000000E+00  0.15886445743E+04  0.15886445743E+04  0.50400001928E-02 0. -1.
       -1   -1    0    0    0  501  0.00000000000E+00  0.00000000000E+00 -0.51884414998E+03  0.51884415000E+03  0.50400001928E-02 0.  1.
    10030    2    1    2    0    0  0.00000000000E+00  0.00000000000E+00  0.10698004243E+04  0.21074887243E+04  0.18157741531E+04 0.  0.
        1    1    3    3  502    0  0.75276127987E+02  0.26430545526E+02 -0.51476766739E+03  0.52091344828E+03  0.50400001928E-02 0.  1.
       -1    1    3    3    0  502 -0.75276127987E+02 -0.26430545526E+02  0.15845680917E+04  0.15865752760E+04  0.50400001928E-02 0. -1.
</event>
<event>
 5   0  0.3531266E-04  0.1801507E+04  0.7818609E-02  0.8705498E-01
       -2   -1    0    0    0  501  0.00000000000E+00  0.00000000000E+00  0.53965852536E+03  0.53965852537E+03  0.25500000920E-02 0.  1.
        2   -1    0    0  501    0  0.00000000000E+00  0.00000000000E+00 -0.15034637829E+04  0.15034637829E+04  0.25500000920E-02 0. -1.
    10030    2    1    2    0    0  0.00000000000E+00  0.00000000000E+00 -0.96380525755E+03  0.20431223083E+04  0.18015072001E+04 0.  0.
        3    1    3    3  502    0 -0.64417029473E+03 -0.46026748733E+03  0.53137400078E+01  0.79172582030E+03  0.10100000352E+00 0. -1.
       -3    1    3    3    0  502  0.64417029473E+03  0.46026748733E+03 -0.96911899756E+03  0.12513964880E+04  0.10100000352E+00 0.  1.
</event>
<event>
 5   0  0.1825253E-04  0.1767620E+04  0.7818609E-02  0.8723711E-01
        1   -1    0    0  501    0  0.00000000000E+00  0.00000000000E+00  0.13995908106E+04  0.13995908107E+04  0.50400001928E-02 0. -1.
       -1   -1    0    0    0  501  0.00000000000E+00  0.00000000000E+00 -0.55810605722E+03  0.55810605724E+03  0.50400001928E-02 0.  1.
    10030    2    1    2    0    0  0.00000000000E+00  0.00000000000E+00  0.84148475342E+03  0.19576968679E+04  0.17676199921E+04 0.  0.
        4    1    3    3  502    0 -0.36687220882E+03  0.38282155569E+03 -0.36237871370E+03  0.64223633201E+03  0.12699999809E+01 0.  1.
       -4    1    3    3    0  502  0.36687220882E+03 -0.38282155569E+03  0.12038634671E+04  0.13154605359E+04  0.12699999809E+01 0. -1.
</event>
<event>
 5   0  0.1837313E-04  0.1757644E+04  0.7818609E-02  0.8729154E-01
        1   -1    0    0  501    0  0.00000000000E+00  0.00000000000E+00  0.78765482382E+03  0.78765482384E+03  0.50400001928E-02 0. -1.
       -1   -1    0    0    0  501  0.00000000000E+00  0.00000000000E+00 -0.98054122431E+03  0.98054122432E+03  0.50400001928E-02 0.  1.
    10030    2    1    2    0    0  0.00000000000E+00  0.00000000000E+00 -0.19288640048E+03  0.17681960482E+04  0.17576439063E+04 0.  0.
        1    1    3    3  502    0  0.81494870431E+03  0.65679674476E+02  0.22778476697E+03  0.84872911485E+03  0.50400001928E-02 0. -1.
       -1    1    3    3    0  502 -0.81494870431E+03 -0.65679674476E+02 -0.42067116746E+03  0.91946693331E+03  0.50400001928E-02 0.  1.
</event>
<event>
 5   0  0.3575091E-04  0.1791046E+04  0.7818609E-02  0.8711075E-01
        2   -1    0    0  501    0  0.00000000000E+00  0.00000000000E+00  0.15484889078E+04  0.15484889078E+04  0.25500000920E-02 0.  1.
       -2   -1    0    0    0  501  0.00000000000E+00  0.00000000000E+00 -0.51789959277E+03  0.51789959278E+03  0.25500000920E-02 0. -1.
    10030    2    1    2    0    0  0.00000000000E+00  0.00000000000E+00  0.10305893150E+04  0.20663885006E+04  0.17910463699E+04 0.  0.
        5    1    3    3  502    0 -0.55413719051E+03  0.69239344523E+03  0.37182776695E+03  0.96164166256E+03  0.46999998093E+01 0.  1.
       -5    1    3    3    0  502  0.55413719051E+03 -0.69239344523E+03  0.65876154809E+03  0.11047468380E+04  0.46999998093E+01 0. -1.
</event>
<event>
 5   0  0.1883959E-04  0.1699724E+04  0.7818609E-02  0.8761522E-01
        1   -1    0    0  501    0  0.00000000000E+00  0.00000000000E+00  0.24695162279E+04  0.24695162279E+04  0.50400001928E-02 0.  1.
       -1   -1    0    0    0  501  0.00000000000E+00  0.00000000000E+00 -0.29247228387E+03  0.29247228391E+03  0.50400001928E-02 0. -1.
    10030    2    1    2    0    0  0.00000000000E+00  0.00000000000E+00  0.21770439441E+04  0.27619885119E+04  0.16997235673E+04 0.  0.
        5    1    3    3  502    0  0.46359818862E+03  0.53586781307E+03  0.18509837443E+04  0.19819789366E+04  0.46999998093E+01 0. -1.
       -5    1    3    3    0  502 -0.46359818862E+03 -0.53586781307E+03  0.32606019978E+03  0.78000957524E+03  0.46999998093E+01 0.  1.
</event>
<event>
 5   0  0.3531266E-04  0.1775982E+04  0.7818609E-02  0.8719177E-01
        2   -1    0    0  501    0  0.00000000000E+00  0.00000000000E+00  0.44761602715E+03  0.44761602716E+03  0.25500000920E-02 0.  1.
       -2   -1    0    0    0  501  0.00000000000E+00  0.00000000000E+00 -0.17616168708E+04  0.17616168708E+04  0.25500000920E-02 0. -1.
    10030    2    1    2    0    0  0.00000000000E+00  0.00000000000E+00 -0.13140008436E+04  0.22092328979E+04  0.17759819200E+04 0.  0.
        3    1    3    3  502    0 -0.79761429951E+03  0.13238947785E+03 -0.20026166451E+03  0.83295875595E+03  0.10100000352E+00 0.  1.
       -3    1    3    3    0  502  0.79761429951E+03 -0.13238947785E+03 -0.11137391791E+04  0.13762741420E+04  0.10100000352E+00 0. -1.
</event>
<event>
 5   0  0.1835421E-04  0.1824932E+04  0.7818609E-02  0.8693152E-01
        1   -1    0    0  501    0  0.00000000000E+00  0.00000000000E+00  0.22148781266E+04  0.22148781266E+04  0.50400001928E-02 0.  1.
       -1   -1    0    0    0  501  0.00000000000E+00  0.00000000000E+00 -0.37590956344E+03  0.37590956347E+03  0.50400001928E-02 0. -1.
    10030    2    1    2    0    0  0.00000000000E+00  0.00000000000E+00  0.18389685631E+04  0.25907876900E+04  0.18249316367E+04 0.  0.
        2    1    3    3  502    0 -0.61850450086E+02  0.90224351153E+03  0.10917557787E+04  0.14176739796E+04  0.25500000920E-02 0. -1.
       -2    1    3    3    0  502  0.61850450086E+02 -0.90224351153E+03  0.74721278447E+03  0.11731137104E+04  0.25500000920E-02 0.  1.
</event>
<event>
 5   0  0.1825253E-04  0.1801124E+04  0.7818609E-02  0.8705702E-01
       -1   -1    0    0    0  501  0.00000000000E+00  0.00000000000E+00  0.71977153797E+03  0.71977153799E+03  0.50400001928E-02 0. -1.
        1   -1    0    0  501    0  0.00000000000E+00  0.00000000000E+00 -0.11267633496E+04  0.11267633496E+04  0.50400001928E-02 0.  1.
    10030    2    1    2    0    0  0.00000000000E+00  0.00000000000E+00 -0.40699181160E+03  0.18465348876E+04  0.18011243034E+04 0.  0.
        4    1    3    3  502    0  0.16899529510E+02 -0.25654118429E+03 -0.10883388670E+04  0.11182942706E+04  0.12699999809E+01 0.  1.
       -4    1    3    3    0  502 -0.16899529510E+02  0.25654118429E+03  0.68134705542E+03  0.72824061695E+03  0.12699999809E+01 0. -1.
</event>
<event>
 5   0  0.1837313E-04  0.1789461E+04  0.7818609E-02  0.8711924E-01
        1   -1    0    0  501    0  0.00000000000E+00  0.00000000000E+00  0.87416767638E+03  0.87416767640E+03  0.50400001928E-02 0.  1.
       -1   -1    0    0    0  501  0.00000000000E+00  0.00000000000E+00 -0.91577655017E+03  0.91577655018E+03  0.50400001928E-02 0. -1.
    10030    2    1    2    0    0  0.00000000000E+00  0.00000000000E+00 -0.41608873786E+02  0.17899442266E+04  0.17894605433E+04 0.  0.
        1    1    3    3  502    0 -0.39902099114E+02 -0.76506564949E+03  0.44151594185E+03  0.88422505760E+03  0.50400001928E-02 0.  1.
       -1    1    3    3    0  502  0.39902099114E+02  0.76506564949E+03 -0.48312481564E+03  0.90571916898E+03  0.50400001928E-02 0. -1.
</event>
<event>
 5   0  0.1825253E-04  0.1797793E+04  0.7818609E-02  0.8707474E-01
        1   -1    0    0  501    0  0.00000000000E+00  0.00000000000E+00  0.17804006311E+04  0.17804006311E+04  0.50400001928E-02 0.  1.
       -1   -1    0    0    0  501  0.00000000000E+00  0.00000000000E+00 -0.45383867087E+03  0.45383867090E+03  0.50400001928E-02 0. -1.
    10030    2    1    2    0    0  0.00000000000E+00  0.00000000000E+00  0.13265619603E+04  0.22342393020E+04  0.17977927089E+04 0.  0.
        4    1    3    3  502    0 -0.78541005642E+03  0.28139411722E+03  0.24744285433E+03  0.87021904426E+03  0.12699999809E+01 0. -1.
       -4    1    3    3    0  502  0.78541005642E+03 -0.28139411722E+03  0.10791191059E+04  0.13640202578E+04  0.12699999809E+01 0.  1.
</event>
<event>
 5   0  0.3628581E-04  0.1792649E+04  0.7818609E-02  0.8710219E-01
       -2   -1    0    0    0  501  0.00000000000E+00  0.00000000000E+00  0.49037084585E+03  0.49037084586E+03  0.25500000920E-02 0.  1.
        2   -1    0    0  501    0  0.00000000000E+00  0.00000000000E+00 -0.16383466307E+04  0.16383466307E+04  0.25500000920E-02 0. -1.
    10030    2    1    2    0    0  0.00000000000E+00  0.00000000000E+00 -0.11479757848E+04  0.21287174765E+04  0.17926487923E+04 0.  0.
        2    1    3    3  502    0 -0.57504284162E+03 -0.61806852152E+03 -0.93164022621E+03  0.12572336609E+04  0.25500000920E-02 0. -1.
       -2    1    3    3    0  502  0.57504284162E+03  0.61806852152E+03 -0.21633555862E+03  0.87148381564E+03  0.25500000920E-02 0.  1.
</event>
<event>
 5   0  0.3568870E-04  0.1797691E+04  0.7818609E-02  0.8707528E-01
       -2   -1    0    0    0  501  0.00000000000E+00  0.00000000000E+00  0.79247150822E+03  0.79247150823E+03  0.25500000920E-02 0. -1.
        2   -1    0    0  501    0  0.00000000000E+00  0.00000000000E+00 -0.10194986635E+04  0.10194986635E+04  0.25500000920E-02 0.  1.
    10030    2    1    2    0    0  0.00000000000E+00  0.00000000000E+00 -0.22702715527E+03  0.18119701717E+04  0.17976914568E+04 0.  0.
        1    1    3    3  502    0  0.28515055340E+03 -0.53651597669E+03 -0.78116701949E+03  0.98963737991E+03  0.50400001928E-02 0.  1.
       -1    1    3    3    0  502 -0.28515055340E+03  0.53651597669E+03  0.55413986422E+03  0.82233279181E+03  0.50400001928E-02 0. -1.
</event>
<event>
 5   0  0.3531266E-04  0.1823170E+04  0.7818609E-02  0.8694074E-01
       -2   -1    0    0    0  501  0.00000000000E+00  0.00000000000E+00  0.81874422559E+03  0.81874422560E+03  0.25500000920E-02 0.  1.
        2   -1    0    0  501    0  0.00000000000E+00  0.00000000000E+00 -0.10149530111E+04  0.10149530111E+04  0.25500000920E-02 0. -1.
    10030    2    1    2    0    0  0.00000000000E+00  0.00000000000E+00 -0.19620878552E+03  0.18336972367E+04  0.18231696763E+04 0.  0.
        3    1    3    3  502    0 -0.81907217963E+02 -0.48636386413E+03 -0.86916558508E+03  0.99935350361E+03  0.10100000352E+00 0. -1.
       -3    1    3    3    0  502  0.81907217963E+02  0.48636386413E+03  0.67295679957E+03  0.83434373310E+03  0.10100000352E+00 0.  1.
</event>
<event>
 5   0  0.3568870E-04  0.1840902E+04  0.7818609E-02  0.8684846E-01
       -2   -1    0    0    0  501  0.00000000000E+00  0.00000000000E+00  0.35506127987E+03  0.35506127988E+03  0.25500000920E-02 0.  1.
        2   -1    0    0  501    0  0.00000000000E+00  0.00000000000E+00 -0.23861522488E+04  0.23861522488E+04  0.25500000920E-02 0. -1.
    10030    2    1    2    0    0  0.00000000000E+00  0.00000000000E+00 -0.20310909689E+04  0.27412135286E+04  0.18409022477E+04 0.  0.
        1    1    3    3  502    0  0.37690087201E+03  0.30053148917E+03  0.15206809889E+03  0.50546824829E+03  0.50400001928E-02 0.  1.
       -1    1    3    3    0  502 -0.37690087201E+03 -0.30053148917E+03 -0.21831590678E+04  0.22357452804E+04  0.50400001928E-02 0. -1.
</event>
<event>
 5   0  0.3582186E-04  0.1773353E+04  0.7818609E-02  0.8720600E-01
        2   -1    0    0  501    0  0.00000000000E+00  0.00000000000E+00  0.22824361835E+04  0.22824361835E+04  0.25500000920E-02 0.  1.
       -2   -1    0    0    0  501  0.00000000000E+00  0.00000000000E+00 -0.34445424745E+03  0.34445424746E+03  0.25500000920E-02 0. -1.
    10030    2    1    2    0    0  0.00000000000E+00  0.00000000000E+00  0.19379819361E+04  0.26268904310E+04  0.17733525740E+04 0.  0.
        4    1    3    3  502    0 -0.44041150502E+03 -0.24575758301E+03  0.20492675852E+04  0.21104166253E+04  0.12699999809E+01 0.  1.
       -4    1    3    3    0  502  0.44041150502E+03  0.24575758301E+03 -0.11128564919E+03  0.51647380570E+03  0.12699999809E+01 0. -1.
</event>
<event>
 5   0  0.1818778E-04  0.1539007E+04  0.7818609E-02  0.8858920E-01
        1   -1    0    0  501    0  0.00000000000E+00  0.00000000000E+00  0.57636288485E+03  0.57636288487E+03  0.50400001928E-02 0.  1.
       -1   -1    0    0    0  501  0.00000000000E+00  0.00000000000E+00 -0.10273653606E+04  0.10273653606E+04  0.50400001928E-02 0. -1.
    10030    2    1    2    0    0  0.00000000000E+00  0.00000000000E+00 -0.45100247572E+03  0.16037282455E+04  0.15390065147E+04 0.  0.
        3    1    3    3  502    0 -0.31159543183E+03 -0.37073118090E+03  0.39764538796E+03  0.62662204429E+03  0.10100000352E+00 0.  1.
       -3    1    3    3    0  502  0.31159543183E+03  0.37073118090E+03 -0.84864786367E+03  0.97710620116E+03  0.10100000352E+00 0. -1.
</event>
<event>
 5   0  0.1837313E-04  0.1684933E+04  0.7818609E-02  0.8770004E-01
       -1   -1    0    0    0  501  0.00000000000E+00  0.00000000000E+00  0.32375169635E+03  0.32375169639E+03  0.50400001928E-02 0. -1.
        1   -1    0    0  501    0  0.00000000000E+00  0.00000000000E+00 -0.21922668119E+04  0.21922668119E+04  0.50400001928E-02 0.  1.
    10030    2    1    2    0    0  0.00000000000E+00  0.00000000000E+00 -0.18685151155E+04  0.25160185083E+04  0.16849333509E+04 0.  0.
        1    1    3    3  502    0 -0.82618045110E+03 -0.16283219282E+03 -0.97266730701E+03  0.12865341624E+04  0.50400001928E-02 0.  1.
       -1    1    3    3    0  502  0.82618045110E+03  0.16283219282E+03 -0.89584780852E+03  0.12294843459E+04  0.50400001928E-02 0. -1.
</event>
<event>
 5   0  0.1883959E-04  0.1877662E+04  0.7818609E-02  0.8666056E-01
       -1   -1    0    0    0  501  0.00000000000E+00  0.00000000000E+00  0.33618529762E+03  0.33618529766E+03  0.50400001928E-02 0. -1.
        1   -1    0    0  501    0  0.00000000000E+00  0.00000000000E+00 -0.26217806613E+04  0.26217806613E+04  0.50400001928E-02 0.  1.
    10030    2    1    2    0    0  0.00000000000E+00  0.00000000000E+00 -0.22855953637E+04  0.29579659589E+04  0.18776624957E+04 0.  0.
        5    1    3    3  502    0 -0.70308681891E+03 -0.28336922714E+03 -0.20153067063E+04  0.21531633483E+04  0.46999998093E+01 0.  1.
       -5    1    3    3    0  502  0.70308681891E+03  0.28336922714E+03 -0.27028865732E+03  0.80480261064E+03  0.46999998093E+01 0. -1.
</event>
<event>
 5   0  0.1837313E-04  0.1737455E+04  0.7818609E-02  0.8740286E-01
       -1   -1    0    0    0  501  0.00000000000E+00  0.00000000000E+00  0.49914232727E+03  0.49914232729E+03  0.50400001928E-02 0. -1.
        1   -1    0    0  501    0  0.00000000000E+00  0.00000000000E+00 -0.15119678899E+04  0.15119678899E+04  0.50400001928E-02 0.  1.
    10030    2    1    2    0    0  0.00000000000E+00  0.00000000000E+00 -0.10128255626E+04  0.20111102172E+04  0.17374546571E+04 0.  0.
        1    1    3    3  502    0  0.61578192610E+03  0.31673867873E+03  0.10078193731E+03  0.69976265264E+03  0.50400001928E-02 0. -1.
       -1    1    3    3    0  502 -0.61578192610E+03 -0.31673867873E+03 -0.11136074999E+04  0.13113475645E+04  0.50400001928E-02 0.  1.
</event>
<event>
 5   0  0.1825253E-04  0.1947742E+04  0.7818609E-02  0.8631450E-01
       -1   -1    0    0    0  501  0.00000000000E+00  0.00000000000E+00  0.49162175238E+03  0.49162175241E+03  0.50400001928E-02 0. -1.
        1   -1    0    0  501    0  0.00000000000E+00  0.00000000000E+00 -0.19291754953E+04  0.19291754953E+04  0.50400001928E-02 0.  1.
    10030    2    1    2    0    0  0.00000000000E+00  0.00000000000E+00 -0.14375537429E+04  0.24207972477E+04  0.19477419107E+04 0.  0.
        4    1    3    3  502    0  0.49474918292E+03 -0.64754181953E+03 -0.56037414594E+02  0.81684084544E+03  0.12699999809E+01 0. -1.
       -4    1    3    3    0  502 -0.49474918292E+03  0.64754181953E+03 -0.13815163283E+04  0.16039564022E+04  0.12699999809E+01 0.  1.
</event>
<event>
 5   0  0.1818778E-04  0.1579364E+04  0.7818609E-02  0.8833327E-01
        1   -1    0    0  501    0  0.00000000000E+00  0.00000000000E+00  0.94700320224E+03  0.94700320225E+03  0.50400001928E-02 0.  1.
       -1   -1    0    0    0  501  0.00000000000E+00  0.00000000000E+00 -0.65849550685E+03  0.65849550687E+03  0.50400001928E-02 0. -1.
    10030    2    1    2    0    0  0.00000000000E+00  0.00000000000E+00  0.28850769539E+03  0.16054987091E+04  0.15793636107E+04 0.  0.
        3    1    3    3  502    0 -0.26841322614E+03 -0.22531189233E+02  0.89886111554E+03  0.93835208195E+03  0.10100000352E+00 0.  1.
       -3    1    3    3    0  502  0.26841322614E+03  0.22531189233E+02 -0.61035342016E+03  0.66714662718E+03  0.10100000352E+00 0. -1.
</event>
<event>
 5   0  0.3582186E-04  0.1880940E+04  0.7818609E-02  0.8664403E-01
       -2   -1    0    0    0  501  0.00000000000E+00  0.00000000000E+00  0.75540442744E+03  0.75540442745E+03  0.25500000920E-02 0.  1.
        2   -1    0    0  501    0  0.00000000000E+00  0.00000000000E+00 -0.11708740403E+04  0.11708740403E+04  0.25500000920E-02 0. -1.
    10030    2    1    2    0    0  0.00000000000E+00  0.00000000000E+00 -0.41546961282E+03  0.19262784677E+04  0.18809395886E+04 0.  0.
        4    1    3    3  502    0  0.38264670986E+03  0.72226717706E+03 -0.68412879177E+03  0.10658903303E+04  0.12699999809E+01 0. -1.
       -4    1    3    3    0  502 -0.38264670986E+03 -0.72226717706E+03  0.26865917896E+03  0.86038813739E+03  0.12699999809E+01 0.  1.
</event>
<event>
 5   0  0.1835421E-04  0.1796794E+04  0.7818609E-02  0.8708006E-01
       -1   -1    0    0    0  501  0.00000000000E+00  0.00000000000E+00  0.56925697436E+03  0.56925697438E+03  0.50400001928E-02 0.  1.
        1   -1    0    0  501    0  0.00000000000E+00  0.00000000000E+00 -0.14178438517E+04  0.14178438517E+04  0.50400001928E-02 0. -1.
    10030    2    1    2    0    0  0.00000000000E+00  0.00000000000E+00 -0.84858687732E+03  0.19871008261E+04  0.17967943690E+04 0.  0.
        2    1    3    3  502    0 -0.20479620185E+03  0.71035039549E+03 -0.98882818367E+03  0.12346336888E+04  0.25500000920E-02 0. -1.
       -2    1    3    3    0  502  0.20479620185E+03 -0.71035039549E+03  0.14024130636E+03  0.75246713727E+03  0.25500000920E-02 0.  1.
</event>
<event>
 5   0  0.1818778E-04  0.1767646E+04  0.7818609E-02  0.8723697E-01
        1   -1    0    0  501    0  0.00000000000E+00  0.00000000000E+00  0.13835340482E+04  0.13835340482E+04  0.50400001928E-02 0. -1.
       -1   -1    0    0    0  501  0.00000000000E+00  0.00000000000E+00 -0.56459983094E+03  0.56459983096E+03  0.50400001928E-02 0.  1.
    10030    2    1    2    0    0  0.00000000000E+00  0.00000000000E+00  0.81893421730E+03  0.19481338792E+04  0.17676459937E+04 0.  0.
        3    1    3    3  502    0  0.43271017294E+03  0.70478131878E+03  0.75304914594E+03  0.11184980230E+04  0.10100000352E+00 0. -1.
       -3    1    3    3    0  502 -0.43271017294E+03 -0.70478131878E+03  0.65885071364E+02  0.82963585621E+03  0.10100000352E+00 0.  1.
</event>
<event>
 5   0  0.3575091E-04  0.1809626E+04  0.7818609E-02  0.8701197E-01
       -2   -1    0    0    0  501  0.00000000000E+00  0.00000000000E+00  0.11494609768E+04  0.11494609769E+04  0.25500000920E-02 0.  1.
        2   -1    0    0  501    0  0.00000000000E+00  0.00000000000E+00 -0.71223513258E+03  0.71223513258E+03  0.25500000920E-02 0. -1.
    10030    2    1    2    0    0  0.00000000000E+00  0.00000000000E+00  0.43722584427E+03  0.18616961094E+04  0.18096259185E+04 0.  0.
        5    1    3    3  502    0 -0.33294125298E+03  0.18291753268E+02  0.10839335305E+04  0.11340716268E+04  0.46999998093E+01 0.  1.
       -5    1    3    3    0  502  0.33294125298E+03 -0.18291753268E+02 -0.64670768628E+03  0.72762448259E+03  0.46999998093E+01 0. -1.
</event>
<event>
 5   0  0.1835421E-04  0.1366367E+04  0.7818609E-02  0.8978530E-01
       -1   -1    0    0    0  501  0.00000000000E+00  0.00000000000E+00  0.36849614110E+03  0.36849614114E+03  0.50400001928E-02 0.  1.
        1   -1    0    0  501    0  0.00000000000E+00  0.00000000000E+00 -0.12666065770E+04  0.12666065771E+04  0.50400001928E-02 0. -1.
    10030    2    1    2    0    0  0.00000000000E+00  0.00000000000E+00 -0.89811043594E+03  0.16351027182E+04  0.13663669141E+04 0.  0.
        2    1    3    3  502    0 -0.10264111455E+02  0.26112036561E+03  0.30632369663E+03  0.40264550717E+03  0.25500000920E-02 0.  1.
       -2    1    3    3    0  502  0.10264111455E+02 -0.26112036561E+03 -0.12044341326E+04  0.12324572110E+04  0.25500000920E-02 0. -1.
</event>
<event>
 5   0  0.1818778E-04  0.1740277E+04  0.7818609E-02  0.8738721E-01
       -1   -1    0    0    0  501  0.00000000000E+00  0.00000000000E+00  0.12946451424E+04  0.12946451424E+04  0.50400001928E-02 0. -1.
        1   -1    0    0  501    0  0.00000000000E+00  0.00000000000E+00 -0.58482516104E+03  0.58482516106E+03  0.50400001928E-02 0.  1.
    10030    2    1    2    0    0  0.00000000000E+00  0.00000000000E+00  0.70981998137E+03  0.18794703035E+04  0.17402770514E+04 0.  0.
        3    1    3    3  502    0 -0.10128815138E+02  0.41015448585E+02 -0.58371685048E+03  0.58524373696E+03  0.10100000352E+00 0.  1.
       -3    1    3    3    0  502  0.10128815138E+02 -0.41015448585E+02  0.12935368319E+04  0.12942265665E+04  0.10100000352E+00 0. -1.
</event>
<event>
 5   0  0.1883959E-04  0.1775031E+04  0.7818609E-02  0.8719692E-01
       -1   -1    0    0    0  501  0.00000000000E+00  0.00000000000E+00  0.56272492495E+03  0.56272492497E+03  0.50400001928E-02 0. -1.
        1   -1    0    0  501    0  0.00000000000E+00  0.00000000000E+00 -0.13997666020E+04  0.13997666020E+04  0.50400001928E-02 0.  1.
    10030    2    1    2    0    0  0.00000000000E+00  0.00000000000E+00 -0.83704167708E+03  0.19624915270E+04  0.17750307672E+04 0.  0.
        5    1    3    3  502    0  0.47207857707E+02  0.75033894821E+03  0.10290562325E+03  0.75884700456E+03  0.46999998093E+01 0. -1.
       -5    1    3    3    0  502 -0.47207857707E+02 -0.75033894821E+03 -0.93994730033E+03  0.12036445224E+04  0.46999998093E+01 0.  1.
</event>
<event>
 5   0  0.3628581E-04  0.1790926E+04  0.7818609E-02  0.8711140E-01
       -2   -1    0    0    0  501  0.00000000000E+00  0.00000000000E+00  0.11543687996E+04  0.11543687996E+04  0.25500000920E-02 0. -1.
        2   -1    0    0  501    0  0.00000000000E+00  0.00000000000E+00 -0.69462557491E+03  0.69462557491E+03  0.25500000920E-02 0.  1.
    10030    2    1    2    0    0  0.00000000000E+00  0.00000000000E+00  0.45974322467E+03  0.18489943745E+04  0.17909261192E+04 0.  0.
        2    1    3    3  502    0 -0.17828232138E+03 -0.52937007805E+03 -0.49270455874E+03  0.74483222799E+03  0.25500000920E-02 0.  1.
       -2    1    3    3    0  502  0.17828232138E+03  0.52937007805E+03  0.95244778340E+03  0.11041621465E+04  0.25500000920E-02 0. -1.
</event>
<event>
 5   0  0.3628581E-04  0.1909396E+04  0.7818609E-02  0.8650194E-01
        2   -1    0    0  501    0  0.00000000000E+00  0.00000000000E+00  0.82871436720E+03  0.82871436721E+03  0.25500000920E-02 0.  1.
       -2   -1    0    0    0  501  0.00000000000E+00  0.00000000000E+00 -0.10998335251E+04  0.10998335251E+04  0.25500000920E-02 0. -1.
    10030    2    1    2    0    0  0.00000000000E+00  0.00000000000E+00 -0.27111915793E+03  0.19285478923E+04  0.19093955523E+04 0.  0.
        2    1    3    3  502    0 -0.41391375923E+03 -0.82678139990E+03  0.10464038899E+03  0.93050614953E+03  0.25500000920E-02 0.  1.
       -2    1    3    3    0  502  0.41391375923E+03  0.82678139990E+03 -0.37575954692E+03  0.99804174282E+03  0.25500000920E-02 0. -1.
</event>
<event>
 5   0  0.3531266E-04  0.1797153E+04  0.7818609E-02  0.8707815E-01
       -2   -1    0    0    0  501  0.00000000000E+00  0.00000000000E+00  0.35378904742E+03  0.35378904742E+03  0.25500000920E-02 0.  1.
        2   -1    0    0  501    0  0.00000000000E+00  0.00000000000E+00 -0.22822621822E+04  0.22822621822E+04  0.25500000920E-02 0. -1.
    10030    2    1    2    0    0  0.00000000000E+00  0.00000000000E+00 -0.19284731348E+04  0.26360512296E+04  0.17971525961E+04 0.  0.
        3    1    3    3  502    0 -0.22720619977E+03 -0.98670622581E+02  0.30272028490E+03  0.39114975401E+03  0.10100000352E+00 0.  1.
       -3    1    3    3    0  502  0.22720619977E+03  0.98670622581E+02 -0.22311934197E+04  0.22449014756E+04  0.10100000352E+00 0. -1.
</event>
<event>
 5   0  0.3582186E-04  0.1556170E+04  0.7818609E-02  0.8847936E-01
       -2   -1    0    0    0  501  0.00000000000E+00  0.00000000000E+00  0.55674893005E+03  0.55674893005E+03  0.25500000920E-02 0. -1.
        2   -1    0    0  501    0  0.00000000000E+00  0.00000000000E+00 -0.10874136035E+04  0.10874136035E+04  0.25500000920E-02 0.  1.
    10030    2    1    2    0    0  0.00000000000E+00  0.00000000000E+00 -0.53066467348E+03  0.16441625336E+04  0.15561701196E+04 0.  0.
        4    1    3    3  502    0 -0.16457721187E+03  0.12292443985E+03  0.52758186607E+03  0.56616279892E+03  0.12699999809E+01 0. -1.
       -4    1    3    3    0  502  0.16457721187E+03 -0.12292443985E+03 -0.10582465395E+04  0.10779997347E+04  0.12699999809E+01 0.  1.
</event>
<event>
 5   0  0.1837313E-04  0.1497018E+04  0.7818609E-02  0.8886439E-01
       -1   -1    0    0    0  501  0.00000000000E+00  0.00000000000E+00  0.10227045965E+04  0.10227045965E+04  0.50400001928E-02 0.  1.
        1   -1    0    0  501    0  0.00000000000E+00  0.00000000000E+00 -0.54782732185E+03  0.54782732187E+03  0.50400001928E-02 0. -1.
    10030    2    1    2    0    0  0.00000000000E+00  0.00000000000E+00  0.47487727462E+03  0.15705319183E+04  0.14970177289E+04 0.  0.
        1    1    3    3  502    0 -0.13175528471E+03  0.42323580390E+03 -0.39531951912E+03  0.59394067294E+03  0.50400001928E-02 0. -1.
       -1    1    3    3    0  502  0.13175528471E+03 -0.42323580390E+03  0.87019679373E+03  0.97659124540E+03  0.50400001928E-02 0.  1.
</event>
<event>
 5   0  0.3582186E-04  0.1794411E+04  0.7818609E-02  0.8709277E-01
       -2   -1    0    0    0  501  0.00000000000E+00  0.00000000000E+00  0.37961528075E+03  0.37961528076E+03  0.25500000920E-02 0. -1.
        2   -1    0    0  501    0  0.00000000000E+00  0.00000000000E+00 -0.21205086346E+04  0.21205086346E+04  0.25500000920E-02 0.  1.
    10030    2    1    2    0    0  0.00000000000E+00  0.00000000000E+00 -0.17408933538E+04  0.25001239153E+04  0.17944107452E+04 0.  0.
        4    1    3    3  502    0 -0.82470862350E+03  0.79695334801E+02 -0.13500283480E+04  0.15840056229E+04  0.12699999809E+01 0.  1.
       -4    1    3    3    0  502  0.82470862350E+03 -0.79695334801E+02 -0.39086500584E+03  0.91611829244E+03  0.12699999809E+01 0. -1.
</event>
<event>
 5   0  0.1825253E-04  0.1716146E+04  0.7818609E-02  0.8752209E-01
        1   -1    0    0  501    0  0.00000000000E+00  0.00000000000E+00  0.16878101981E+04  0.16878101981E+04  0.50400001928E-02 0. -1.
       -1   -1    0    0    0  501  0.00000000000E+00  0.00000000000E+00 -0.43623923522E+03  0.43623923525E+03  0.50400001928E-02 0.  1.
    10030    2    1    2    0    0  0.00000000000E+00  0.00000000000E+00  0.12515709629E+04  0.21240494334E+04  0.17161457165E+04 0.  0.
        4    1    3    3  502    0 -0.77645520362E+03 -0.15860767211E+03  0.10329979641E+04  0.13019698475E+04  0.12699999809E+01 0.  1.
       -4    1    3    3    0  502  0.77645520362E+03  0.15860767211E+03  0.21857299875E+03  0.82207958591E+03  0.12699999809E+01 0. -1.
</event>
<event>
 5   0  0.3568870E-04  0.1655645E+04  0.7818609E-02  0.8787074E-01
       -2   -1    0    0    0  501  0.00000000000E+00  0.00000000000E+00  0.58609495914E+03  0.58609495914E+03  0.25500000920E-02 0. -1.
        2   -1    0    0  501    0  0.00000000000E+00  0.00000000000E+00 -0.11692482006E+04  0.11692482006E+04  0.25500000920E-02 0.  1.
    10030    2    1    2    0    0  0.00000000000E+00  0.00000000000E+00 -0.58315324143E+03  0.17553431597E+04  0.16556454649E+04 0.  0.
        1    1    3    3  502    0  0.24929207691E+03 -0.88146662109E+02 -0.11232720124E+04  0.11539741711E+04  0.50400001928E-02 0.  1.
       -1    1    3    3    0  502 -0.24929207691E+03  0.88146662109E+02  0.54011877100E+03  0.60136898861E+03  0.50400001928E-02 0. -1.
</event>
<event>
 5   0  0.1818778E-04  0.1699293E+04  0.7818609E-02  0.8761767E-01
        1   -1    0    0  501    0  0.00000000000E+00  0.00000000000E+00  0.16072293478E+04  0.16072293478E+04  0.50400001928E-02 0. -1.
       -1   -1    0    0    0  501  0.00000000000E+00  0.00000000000E+00 -0.44915771073E+03  0.44915771076E+03  0.50400001928E-02 0.  1.
    10030    2    1    2    0    0  0.00000000000E+00  0.00000000000E+00  0.11580716370E+04  0.20563870585E+04  0.16992933290E+04 0.  0.
        3    1    3    3  502    0  0.34223276663E+03 -0.58498587982E+03  0.11991292886E+04  0.13774043731E+04  0.10100000352E+00 0. -1.
       -3    1    3    3    0  502 -0.34223276663E+03  0.58498587982E+03 -0.41057651544E+02  0.67898268542E+03  0.10100000352E+00 0.  1.
</event>
<event>
 5   0  0.3531266E-04  0.1494103E+04  0.7818609E-02  0.8888384E-01
       -2   -1    0    0    0  501  0.00000000000E+00  0.00000000000E+00  0.41784803467E+03  0.41784803468E+03  0.25500000920E-02 0. -1.
        2   -1    0    0  501    0  0.00000000000E+00  0.00000000000E+00 -0.13356188817E+04  0.13356188817E+04  0.25500000920E-02 0.  1.
    10030    2    1    2    0    0  0.00000000000E+00  0.00000000000E+00 -0.91777084707E+03  0.17534669164E+04  0.14941027071E+04 0.  0.
        3    1    3    3  502    0  0.49648422584E+03 -0.40499821414E+03 -0.90971214564E+03  0.11126977748E+04  0.10100000352E+00 0.  1.
       -3    1    3    3    0  502 -0.49648422584E+03  0.40499821414E+03 -0.80587014368E+01  0.64076914161E+03  0.10100000352E+00 0. -1.
</event>
<event>
 5   0  0.1883959E-04  0.1858199E+04  0.7818609E-02  0.8675948E-01
        1   -1    0    0  501    0  0.00000000000E+00  0.00000000000E+00  0.77137780061E+03  0.77137780062E+03  0.50400001928E-02 0. -1.
       -1   -1    0    0    0  501  0.00000000000E+00  0.00000000000E+00 -0.11190702945E+04  0.11190702945E+04  0.50400001928E-02 0.  1.
    10030    2    1    2    0    0  0.00000000000E+00  0.00000000000E+00 -0.34769249388E+03  0.18904480951E+04  0.18581991094E+04 0.  0.
        5    1    3    3  502    0 -0.32339861293E+03 -0.86894193819E+03 -0.11316942158E+03  0.93406432475E+03  0.46999998093E+01 0.  1.
       -5    1    3    3    0  502  0.32339861293E+03  0.86894193819E+03 -0.23452307229E+03  0.95638377037E+03  0.46999998093E+01 0. -1.
</event>
<event>
 5   0  0.3568870E-04  0.1813798E+04  0.7818609E-02  0.8698996E-01
        2   -1    0    0  501    0  0.00000000000E+00  0.00000000000E+00  0.54874328753E+03  0.54874328753E+03  0.25500000920E-02 0.  1.
       -2   -1    0    0    0  501  0.00000000000E+00  0.00000000000E+00 -0.14988168829E+04  0.14988168829E+04  0.25500000920E-02 0. -1.
    10030    2    1    2    0    0  0.00000000000E+00  0.00000000000E+00 -0.95007359536E+03  0.20475601704E+04  0.18137978980E+04 0.  0.
        1    1    3    3  502    0  0.32125018245E+02  0.83571936854E+03 -0.87096130162E+03  0.12074901526E+04  0.50400001928E-02 0. -1.
       -1    1    3    3    0  502 -0.32125018245E+02 -0.83571936854E+03 -0.79112293742E+02  0.84007001779E+03  0.50400001928E-02 0.  1.
</event>
<event>
 5   0  0.3531266E-04  0.1725314E+04  0.7818609E-02  0.8747057E-01
        2   -1    0    0  501    0  0.00000000000E+00  0.00000000000E+00  0.12122079679E+04  0.12122079679E+04  0.25500000920E-02 0. -1.
       -2   -1    0    0    0  501  0.00000000000E+00  0.00000000000E+00 -0.61390230965E+03  0.61390230966E+03  0.25500000920E-02 0.  1.
    10030    2    1    2    0    0  0.00000000000E+00  0.00000000000E+00  0.59830565824E+03  0.18261102776E+04  0.17253141989E+04 0.  0.
        3    1    3    3  502    0  0.95862735625E+02 -0.34158656474E+03  0.11314158730E+04  0.11857372952E+04  0.10100000352E+00 0. -1.
       -3    1    3    3    0  502 -0.95862735625E+02  0.34158656474E+03 -0.53311021475E+03  0.64037298238E+03  0.10100000352E+00 0.  1.
</event>
<event>
 5   0  0.1883959E-04  0.1798166E+04  0.7818609E-02  0.8707275E-01
       -1   -1    0    0    0  501  0.00000000000E+00  0.00000000000E+00  0.78638833732E+03  0.78638833734E+03  0.50400001928E-02 0.  1.
        1   -1    0    0  501    0  0.00000000000E+00  0.00000000000E+00 -0.10279276861E+04  0.10279276861E+04  0.50400001928E-02 0. -1.
    10030    2    1    2    0    0  0.00000000000E+00  0.00000000000E+00 -0.24153934881E+03  0.18143160235E+04  0.17981661147E+04 0.  0.
        5    1    3    3  502    0  0.42553191607E+03  0.76812021873E+03 -0.31548522072E+03  0.93308043410E+03  0.46999998093E+01 0. -1.
       -5    1    3    3    0  502 -0.42553191607E+03 -0.76812021873E+03  0.73945871904E+02  0.88123558938E+03  0.46999998093E+01 0.  1.
</event>
<event>
 5   0  0.1825253E-04  0.1787128E+04  0.7818609E-02  0.8713175E-01
       -1   -1    0    0    0  501  0.00000000000E+00  0.00000000000E+00  0.49787229565E+03  0.49787229568E+03  0.50400001928E-02 0.  1.
        1   -1    0    0  501    0  0.00000000000E+00  0.00000000000E+00 -0.16037373075E+04  0.16037373075E+04  0.50400001928E-02 0. -1.
    10030    2    1    2    0    0  0.00000000000E+00  0.00000000000E+00 -0.11058650119E+04  0.21016096032E+04  0.17871277234E+04 0.  0.
        4    1    3    3  502    0  0.34723265674E+03 -0.50393284819E+03  0.21274619185E+03  0.64790538541E+03  0.12699999809E+01 0.  1.
       -4    1    3    3    0  502 -0.34723265674E+03  0.50393284819E+03 -0.13186112037E+04  0.14537042178E+04  0.12699999809E+01 0. -1.
</event>
<event>
 5   0  0.1835421E-04  0.1762680E+04  0.7818609E-02  0.8726401E-01
        1   -1    0    0  501    0  0.00000000000E+00  0.00000000000E+00  0.72503729938E+03  0.72503729940E+03  0.50400001928E-02 0.  1.
       -1   -1    0    0    0  501  0.00000000000E+00  0.00000000000E+00 -0.10713387142E+04  0.10713387142E+04  0.50400001928E-02 0. -1.
    10030    2    1    2    0    0  0.00000000000E+00  0.00000000000E+00 -0.34630141483E+03  0.17963760136E+04  0.17626803773E+04 0.  0.
        2    1    3    3  502    0  0.30079714210E+03 -0.23568176288E+03  0.63621982577E+03  0.74215933651E+03  0.25500000920E-02 0.  1.
       -2    1    3    3    0  502 -0.30079714210E+03  0.23568176288E+03 -0.98252124061E+03  0.10542166771E+04  0.25500000920E-02 0. -1.
</event>
<event>
 5   0  0.3582186E-04  0.1802616E+04  0.7818609E-02  0.8704909E-01
        2   -1    0    0  501    0  0.00000000000E+00  0.00000000000E+00  0.18597446167E+04  0.18597446167E+04  0.25500000920E-02 0.  1.
       -2   -1    0    0    0  501  0.00000000000E+00  0.00000000000E+00 -0.43681065629E+03  0.43681065630E+03  0.25500000920E-02 0. -1.
    10030    2    1    2    0    0  0.00000000000E+00  0.00000000000E+00  0.14229339604E+04  0.22965552730E+04  0.18026161727E+04 0.  0.
        4    1    3    3  502    0 -0.16986250202E+03  0.33985778648E+02  0.18383353008E+04  0.18464795135E+04  0.12699999809E+01 0.  1.
       -4    1    3    3    0  502  0.16986250202E+03 -0.33985778648E+02 -0.41540134042E+03  0.45007575947E+03  0.12699999809E+01 0. -1.
</event>
<event>
 5   0  0.3568870E-04  0.1804024E+04  0.7818609E-02  0.8704163E-01
        2   -1    0    0  501    0  0.00000000000E+00  0.00000000000E+00  0.58160179134E+03  0.58160179135E+03  0.25500000920E-02 0.  1.
       -2   -1    0    0    0  501  0.00000000000E+00  0.00000000000E+00 -0.13989387103E+04  0.13989387103E+04  0.25500000920E-02 0. -1.
    10030    2    1    2    0    0  0.00000000000E+00  0.00000000000E+00 -0.81733691894E+03  0.19805405016E+04  0.18040235696E+04 0.  0.
        1    1    3    3  502    0 -0.68986199717E+03  0.51859947144E+03 -0.69656861186E+03  0.11090819708E+04  0.50400001928E-02 0. -1.
       -1    1    3    3    0  502  0.68986199717E+03 -0.51859947144E+03 -0.12076830708E+03  0.87145853082E+03  0.50400001928E-02 0.  1.
</event>
<event>
 5   0  0.1837313E-04  0.1785911E+04  0.7818609E-02  0.8713828E-01
       -1   -1    0    0    0  501  0.00000000000E+00  0.00000000000E+00  0.74586709302E+03  0.74586709303E+03  0.50400001928E-02 0.  1.
        1   -1    0    0  501    0  0.00000000000E+00  0.00000000000E+00 -0.10690498592E+04  0.10690498592E+04  0.50400001928E-02 0. -1.
    10030    2    1    2    0    0  0.00000000000E+00  0.00000000000E+00 -0.32318276619E+03  0.18149169523E+04  0.17859105362E+04 0.  0.
        1    1    3    3  502    0 -0.30939077793E+03  0.17569782042E+03  0.67072041876E+03  0.75924848221E+03  0.50400001928E-02 0.  1.
       -1    1    3    3    0  502  0.30939077793E+03 -0.17569782042E+03 -0.99390318495E+03  0.10556684700E+04  0.50400001928E-02 0. -1.
</event>
<event>
 5   0  0.3575091E-04  0.1799054E+04  0.7818609E-02  0.8706803E-01
       -2   -1    0    0    0  501  0.00000000000E+00  0.00000000000E+00  0.59876659227E+03  0.59876659227E+03  0.25500000920E-02 0. -1.
        2   -1    0    0  501    0  0.00000000000E+00  0.00000000000E+00 -0.13513591847E+04  0.13513591847E+04  0.25500000920E-02 0.  1.
    10030    2    1    2    0    0  0.00000000000E+00  0.00000000000E+00 -0.75259259240E+03  0.19501257769E+04  0.17990539002E+04 0.  0.
        5    1    3    3  502    0 -0.84606223750E+03  0.26197709332E+03 -0.20602854846E+03  0.90935315468E+03  0.46999998093E+01 0. -1.
       -5    1    3    3    0  502  0.84606223750E+03 -0.26197709332E+03 -0.54656404394E+03  0.10407726223E+04  0.46999998093E+01 0.  1.
</event>
<event>
 5   0  0.1825253E-04  0.1802447E+04  0.7818609E-02  0.8704999E-01
        1   -1    0    0  501    0  0.00000000000E+00  0.00000000000E+00  0.15136861858E+04  0.15136861858E+04  0.50400001928E-02 0. -1.
       -1   -1    0    0    0  501  0.00000000000E+00  0.00000000000E+00 -0.53657361095E+03  0.53657361097E+03  0.50400001928E-02 0.  1.
    10030    2    1    2    0    0  0.00000000000E+00  0.00000000000E+00  0.97711257481E+03  0.20502597967E+04  0.18024472947E+04 0.  0.
        4    1    3    3  502    0 -0.52497037964E+03  0.58787890140E+03  0.98568735352E+03  0.12620525639E+04  0.12699999809E+01 0. -1.
       -4    1    3    3    0  502  0.52497037964E+03 -0.58787890140E+03 -0.85747787146E+01  0.78820723286E+03  0.12699999809E+01 0.  1.
</event>
<event>
 5   0  0.1818778E-04  0.1794173E+04  0.7818609E-02  0.8709404E-01
        1   -1    0    0  501    0  0.00000000000E+00  0.00000000000E+00  0.10038208049E+04  0.10038208050E+04  0.50400001928E-02 0.  1.
       -1   -1    0    0    0  501  0.00000000000E+00  0.00000000000E+00 -0.80170124283E+03  0.80170124285E+03  0.50400001928E-02 0. -1.
    10030    2    1    2    0    0  0.00000000000E+00  0.00000000000E+00  0.20211956211E+03  0.18055220478E+04  0.17941732212E+04 0.  0.
        3    1    3    3  502    0 -0.47613898354E+03 -0.37348134096E+03 -0.56537363276E+03  0.82815698905E+03  0.10100000352E+00 0. -1.
       -3    1    3    3    0  502  0.47613898354E+03  0.37348134096E+03  0.76749319487E+03  0.97736505875E+03  0.10100000352E+00 0.  1.
</event>
<event>
 5   0  0.1330125E-04  0.1781379E+04  0.7818609E-02  0.8716265E-01
       -3   -1    0    0    0  501  0.00000000000E+00  0.00000000000E+00  0.95407551688E+03  0.95407552223E+03  0.10100000352E+00 0.  1.
        3   -1    0    0  501    0  0.00000000000E+00  0.00000000000E+00 -0.83151478934E+03  0.83151479548E+03  0.10100000352E+00 0. -1.
    10030    2    1    2    0    0  0.00000000000E+00  0.00000000000E+00  0.12256072754E+03  0.17855903177E+04  0.17813791429E+04 0.  0.
        3    1    3    3  502    0 -0.53223789568E+02  0.47565094653E+03  0.81422275054E+03  0.94447620002E+03  0.10100000352E+00 0.  1.
       -3    1    3    3    0  502  0.53223789568E+02 -0.47565094653E+03 -0.69166202300E+03  0.84111411768E+03  0.10100000352E+00 0. -1.
</event>
<event>
 5   0  0.1835421E-04  0.1790323E+04  0.7818609E-02  0.8711463E-01
       -1   -1    0    0    0  501  0.00000000000E+00  0.00000000000E+00  0.89915257761E+03  0.89915257763E+03  0.50400001928E-02 0.  1.
        1   -1    0    0  501    0  0.00000000000E+00  0.00000000000E+00 -0.89118810294E+03  0.89118810295E+03  0.50400001928E-02 0. -1.
    10030    2    1    2    0    0  0.00000000000E+00  0.00000000000E+00  0.79644746767E+01  0.17903406806E+04  0.17903229652E+04 0.  0.
        2    1    3    3  502    0  0.57929020636E+03 -0.15638209824E+03 -0.66031461585E+03  0.89221516225E+03  0.25500000920E-02 0. -1.
       -2    1    3    3    0  502 -0.57929020636E+03  0.15638209824E+03  0.66827909053E+03  0.89812551833E+03  0.25500000920E-02 0.  1.
</event>
<event>
 5   0  0.3582186E-04  0.1805355E+04  0.7818609E-02  0.8703457E-01
        2   -1    0    0  501    0  0.00000000000E+00  0.00000000000E+00  0.74560090291E+03  0.74560090292E+03  0.25500000920E-02 0.  1.
       -2   -1    0    0    0  501  0.00000000000E+00  0.00000000000E+00 -0.10928453470E+04  0.10928453470E+04  0.25500000920E-02 0. -1.
    10030    2    1    2    0    0  0.00000000000E+00  0.00000000000E+00 -0.34724444411E+03  0.18384462499E+04  0.18053547878E+04 0.  0.
        4    1    3    3  502    0  0.37101111424E+03 -0.46018588101E+03 -0.86833245815E+03  0.10504395093E+04  0.12699999809E+01 0. -1.
       -4    1    3    3    0  502 -0.37101111424E+03  0.46018588101E+03  0.52108801404E+03  0.78800674061E+03  0.12699999809E+01 0.  1.
</event>
<event>
 5   0  0.1837313E-04  0.1814998E+04  0.7818609E-02  0.8698364E-01
        1   -1    0    0  501    0  0.00000000000E+00  0.00000000000E+00  0.96897080640E+03  0.96897080641E+03  0.50400001928E-02 0.  1.
       -1   -1    0    0    0  501  0.00000000000E+00  0.00000000000E+00 -0.84992702334E+03  0.84992702336E+03  0.50400001928E-02 0. -1.
    10030    2    1    2    0    0  0.00000000000E+00  0.00000000000E+00  0.11904378306E+03  0.18188978298E+04  0.18149980421E+04 0.  0.
        1    1    3    3  502    0  0.33332342491E+03 -0.87022670015E+02  0.90089537495E+03  0.96451538469E+03  0.50400001928E-02 0.  1.
       -1    1    3    3    0  502 -0.33332342491E+03  0.87022670015E+02 -0.78185159189E+03  0.85438244507E+03  0.50400001928E-02 0. -1.
</event>
<event>
 5   0  0.1818778E-04  0.1817923E+04  0.7818609E-02  0.8696826E-01
        1   -1    0    0  501    0  0.00000000000E+00  0.00000000000E+00  0.10284547413E+04  0.10284547413E+04  0.50400001928E-02 0.  1.
       -1   -1    0    0    0  501  0.00000000000E+00  0.00000000000E+00 -0.80335148431E+03  0.80335148433E+03  0.50400001928E-02 0. -1.
    10030    2    1    2    0    0  0.00000000000E+00  0.00000000000E+00  0.22510325694E+03  0.18318062256E+04  0.18179225979E+04 0.  0.
        3    1    3    3  502    0 -0.26124318299E+03 -0.20511498816E+03  0.96511649964E+03  0.10206713610E+04  0.10100000352E+00 0.  1.
       -3    1    3    3    0  502  0.26124318299E+03  0.20511498816E+03 -0.74001324270E+03  0.81113486462E+03  0.10100000352E+00 0. -1.
</event>
<event>
 5   0  0.3628581E-04  0.1808089E+04  0.7818609E-02  0.8702009E-01
        2   -1    0    0  501    0  0.00000000000E+00  0.00000000000E+00  0.11206358304E+04  0.11206358304E+04  0.25500000920E-02 0. -1.
       -2   -1    0    0    0  501  0.00000000000E+00  0.00000000000E+00 -0.72931532547E+03  0.72931532547E+03  0.25500000920E-02 0.  1.
    10030    2    1    2    0    0  0.00000000000E+00  0.00000000000E+00  0.39132050494E+03  0.18499511559E+04  0.18080894728E+04 0.  0.
        2    1    3    3  502    0 -0.36616014409E+03 -0.48323697882E+03 -0.49046676293E+03  0.77983900541E+03  0.25500000920E-02 0.  1.
       -2    1    3    3    0  502  0.36616014409E+03  0.48323697882E+03  0.88178726787E+03  0.10701121505E+04  0.25500000920E-02 0. -1.
</event>
<event>
 5   0  0.3582186E-04  0.1768248E+04  0.7818609E-02  0.8723369E-01
       -2   -1    0    0    0  501  0.00000000000E+00  0.00000000000E+00  0.45755052239E+03  0.45755052240E+03  0.25500000920E-02 0. -1.
        2   -1    0    0  501    0  0.00000000000E+00  0.00000000000E+00 -0.17083918801E+04  0.17083918801E+04  0.25500000920E-02 0.  1.
    10030    2    1    2    0    0  0.00000000000E+00  0.00000000000E+00 -0.12508413577E+04  0.21659424025E+04  0.17682483957E+04 0.  0.
        4    1    3    3  502    0 -0.42014126238E+03  0.77648768724E+03 -0.68316280993E+03  0.11163175384E+04  0.12699999809E+01 0.  1.
       -4    1    3    3    0  502  0.42014126238E+03 -0.77648768724E+03 -0.56767854778E+03  0.10496248641E+04  0.12699999809E+01 0. -1.
</event>
<event>
 5   0  0.1883959E-04  0.1593936E+04  0.7818609E-02  0.8824282E-01
        1   -1    0    0  501    0  0.00000000000E+00  0.00000000000E+00  0.20071022297E+04  0.20071022297E+04  0.50400001928E-02 0. -1.
       -1   -1    0    0    0  501  0.00000000000E+00  0.00000000000E+00 -0.31645512559E+03  0.31645512563E+03  0.50400001928E-02 0.  1.
    10030    2    1    2    0    0  0.00000000000E+00  0.00000000000E+00  0.16906471041E+04  0.23235573554E+04  0.15939357430E+04 0.  0.
        5    1    3    3  502    0 -0.75300752840E+03  0.64503866278E+01  0.12256639308E+04  0.14385187196E+04  0.46999998093E+01 0. -1.
       -5    1    3    3    0  502  0.75300752840E+03 -0.64503866278E+01  0.46498317331E+03  0.88503863575E+03  0.46999998093E+01 0.  1.
</event>
<event>
 5   0  0.3582186E-04  0.1813983E+04  0.7818609E-02  0.8698899E-01
        2   -1    0    0  501    0  0.00000000000E+00  0.00000000000E+00  0.25398999425E+04  0.25398999425E+04  0.25500000920E-02 0. -1.
       -2   -1    0    0    0  501  0.00000000000E+00  0.00000000000E+00 -0.32388432726E+03  0.32388432727E+03  0.25500000920E-02 0.  1.
    10030    2    1    2    0    0  0.00000000000E+00  0.00000000000E+00  0.22160156153E+04  0.28637842698E+04  0.18139832240E+04 0.  0.
        4    1    3    3  502    0  0.45900895732E+02  0.49431902735E+03 -0.90342669502E+02  0.50460043982E+03  0.12699999809E+01 0.  1.
       -4    1    3    3    0  502 -0.45900895732E+02 -0.49431902735E+03  0.23063582848E+04  0.23591838300E+04  0.12699999809E+01 0. -1.
</event>
<event>
 5   0  0.1835421E-04  0.1786677E+04  0.7818609E-02  0.8713417E-01
        1   -1    0    0  501    0  0.00000000000E+00  0.00000000000E+00  0.14568805768E+04  0.14568805768E+04  0.50400001928E-02 0. -1.
       -1   -1    0    0    0  501  0.00000000000E+00  0.00000000000E+00 -0.54778222463E+03  0.54778222466E+03  0.50400001928E-02 0.  1.
    10030    2    1    2    0    0  0.00000000000E+00  0.00000000000E+00  0.90909835217E+03  0.20046628015E+04  0.17866765610E+04 0.  0.
        2    1    3    3  502    0  0.36618640246E+03  0.57682565534E+03 -0.19119748309E+03  0.70949051829E+03  0.25500000920E-02 0.  1.
       -2    1    3    3    0  502 -0.36618640246E+03 -0.57682565534E+03  0.11002958353E+04  0.12951722832E+04  0.25500000920E-02 0. -1.
</event>
<event>
 5   0  0.3575091E-04  0.1780563E+04  0.7818609E-02  0.8716705E-01
        2   -1    0    0  501    0  0.00000000000E+00  0.00000000000E+00  0.23305222114E+04  0.23305222114E+04  0.25500000920E-02 0.  1.
       -2   -1    0    0    0  501  0.00000000000E+00  0.00000000000E+00 -0.34009575927E+03  0.34009575928E+03  0.25500000920E-02 0. -1.
    10030    2    1    2    0    0  0.00000000000E+00  0.00000000000E+00  0.19904264522E+04  0.26706179707E+04  0.17805625190E+04 0.  0.
        5    1    3    3  502    0 -0.18290614071E+02 -0.84446410036E+03  0.57331282290E+03  0.10208642644E+04  0.46999998093E+01 0. -1.
       -5    1    3    3    0  502  0.18290614071E+02  0.84446410036E+03  0.14171136293E+04  0.16497537064E+04  0.46999998093E+01 0.  1.
</event>
<event>
 5   0  0.1835421E-04  0.1796919E+04  0.7818609E-02  0.8707939E-01
       -1   -1    0    0    0  501  0.00000000000E+00  0.00000000000E+00  0.70596126605E+03  0.70596126606E+03  0.50400001928E-02 0. -1.
        1   -1    0    0  501    0  0.00000000000E+00  0.00000000000E+00 -0.11434477508E+04  0.11434477508E+04  0.50400001928E-02 0.  1.
    10030    2    1    2    0    0  0.00000000000E+00  0.00000000000E+00 -0.43748648475E+03  0.18494090169E+04  0.17969193881E+04 0.  0.
        2    1    3    3  502    0  0.75200193029E+03  0.22046633472E+03 -0.67103139006E+03  0.10316954174E+04  0.25500000920E-02 0.  1.
       -2    1    3    3    0  502 -0.75200193029E+03 -0.22046633472E+03  0.23354490531E+03  0.81771359944E+03  0.25500000920E-02 0. -1.
</event>
<event>
 5   0  0.3531266E-04  0.1827405E+04  0.7818609E-02  0.8691860E-01
        2   -1    0    0  501    0  0.00000000000E+00  0.00000000000E+00  0.20701421423E+04  0.20701421423E+04  0.25500000920E-02 0. -1.
       -2   -1    0    0    0  501  0.00000000000E+00  0.00000000000E+00 -0.40328277398E+03  0.40328277399E+03  0.25500000920E-02 0.  1.
    10030    2    1    2    0    0  0.00000000000E+00  0.00000000000E+00  0.16668593684E+04  0.24734249163E+04  0.18274054457E+04 0.  0.
        3    1    3    3  502    0  0.38027656908E+03  0.24435484998E+03 -0.24134581955E+03  0.51241328682E+03  0.10100000352E+00 0.  1.
       -3    1    3    3    0  502 -0.38027656908E+03 -0.24435484998E+03  0.19082051879E+04  0.19610116295E+04  0.10100000352E+00 0. -1.
</event>
<event>
 5   0  0.3575091E-04  0.1787536E+04  0.7818609E-02  0.8712956E-01
       -2   -1    0    0    0  501  0.00000000000E+00  0.00000000000E+00  0.91525527337E+03  0.91525527337E+03  0.25500000920E-02 0.  1.
        2   -1    0    0  501    0  0.00000000000E+00  0.00000000000E+00 -0.87278472611E+03  0.87278472611E+03  0.25500000920E-02 0. -1.
    10030    2    1    2    0    0  0.00000000000E+00  0.00000000000E+00  0.42470547263E+02  0.17880399995E+04  0.17875355360E+04 0.  0.
        5    1    3    3  502    0  0.85663507108E+03  0.14935280220E+03 -0.18538736610E+03  0.88911218079E+03  0.46999998093E+01 0. -1.
       -5    1    3    3    0  502 -0.85663507108E+03 -0.14935280220E+03  0.22785791336E+03  0.89892781869E+03  0.46999998093E+01 0.  1.
</event>
<event>
 5   0  0.3628581E-04  0.1832260E+04  0.7818609E-02  0.8689330E-01
       -2   -1    0    0    0  501  0.00000000000E+00  0.00000000000E+00  0.43259103183E+03  0.43259103184E+03  0.25500000920E-02 0.  1.
        2   -1    0    0  501    0  0.00000000000E+00  0.00000000000E+00 -0.19401552191E+04  0.19401552191E+04  0.25500000920E-02 0. -1.
    10030    2    1    2    0    0  0.00000000000E+00  0.00000000000E+00 -0.15075641873E+04  0.23727462510E+04  0.18322595320E+04 0.  0.
        2    1    3    3  502    0 -0.62389514891E+03 -0.11225486761E+03  0.10271766287E+03  0.64218161793E+03  0.25500000920E-02 0.  1.
       -2    1    3    3    0  502  0.62389514891E+03  0.11225486761E+03 -0.16102818501E+04  0.17305646330E+04  0.25500000920E-02 0. -1.
</event>
<event>
 5   0  0.1330125E-04  0.1849886E+04  0.7818609E-02  0.8680211E-01
        3   -1    0    0  501    0  0.00000000000E+00  0.00000000000E+00  0.51821881817E+03  0.51821882801E+03  0.10100000352E+00 0.  1.
       -3   -1    0    0    0  501  0.00000000000E+00  0.00000000000E+00 -0.16508855765E+04  0.16508855796E+04  0.10100000352E+00 0. -1.
    10030    2    1    2    0    0  0.00000000000E+00  0.00000000000E+00 -0.11326667583E+04  0.21691044076E+04  0.18498864683E+04 0.  0.
        2    1    3    3  502    0 -0.62349789496E+03  0.48510894262E+03 -0.11304310243E+04  0.13791137053E+04  0.25500000920E-02 0. -1.
       -2    1    3    3    0  502  0.62349789496E+03 -0.48510894262E+03 -0.22357339517E+01  0.78999070231E+03  0.25500000920E-02 0.  1.
</event>
<event>
 5   0  0.3582186E-04  0.1786763E+04  0.7818609E-02  0.8713371E-01
       -2   -1    0    0    0  501  0.00000000000E+00  0.00000000000E+00  0.45652672158E+03  0.45652672159E+03  0.25500000920E-02 0.  1.
        2   -1    0    0  501    0  0.00000000000E+00  0.00000000000E+00 -0.17482660796E+04  0.17482660796E+04  0.25500000920E-02 0. -1.
    10030    2    1    2    0    0  0.00000000000E+00  0.00000000000E+00 -0.12917393580E+04  0.22047928011E+04  0.17867626387E+04 0.  0.
        4    1    3    3  502    0 -0.15254502142E+03  0.54556155778E+03 -0.14983036934E+04  0.16018186438E+04  0.12699999809E+01 0. -1.
       -4    1    3    3    0  502  0.15254502142E+03 -0.54556155778E+03  0.20656433545E+03  0.60297415738E+03  0.12699999809E+01 0.  1.
</event>
<event>
 5   0  0.3575091E-04  0.1829840E+04  0.7818609E-02  0.8690590E-01
        2   -1    0    0  501    0  0.00000000000E+00  0.00000000000E+00  0.12427087977E+04  0.12427087977E+04  0.25500000920E-02 0.  1.
       -2   -1    0    0    0  501  0.00000000000E+00  0.00000000000E+00 -0.67359191060E+03  0.67359191060E+03  0.25500000920E-02 0. -1.
    10030    2    1    2    0    0  0.00000000000E+00  0.00000000000E+00  0.56911688710E+03  0.19163007083E+04  0.18298399858E+04 0.  0.
        5    1    3    3  502    0 -0.72031291464E+03  0.23132555777E+03  0.82335255023E+03  0.11181653369E+04  0.46999998093E+01 0.  1.
       -5    1    3    3    0  502  0.72031291464E+03 -0.23132555777E+03 -0.25423566313E+03  0.79813537140E+03  0.46999998093E+01 0. -1.
</event>
<event>
 5   0  0.1825253E-04  0.1804235E+04  0.7818609E-02  0.8704051E-01
        1   -1    0    0  501    0  0.00000000000E+00  0.00000000000E+00  0.13876096293E+04  0.13876096293E+04  0.50400001928E-02 0. -1.
       -1   -1    0    0    0  501  0.00000000000E+00  0.00000000000E+00 -0.58648760595E+03  0.58648760598E+03  0.50400001928E-02 0.  1.
    10030    2    1    2    0    0  0.00000000000E+00  0.00000000000E+00  0.80112202339E+03  0.19740972353E+04  0.18042348512E+04 0.  0.
        4    1    3    3  502    0  0.46912533902E+03  0.74712858503E+03  0.19430777967E+03  0.90334757011E+03  0.12699999809E+01 0.  1.
       -4    1    3    3    0  502 -0.46912533902E+03 -0.74712858503E+03  0.60681424372E+03  0.10707496652E+04  0.12699999809E+01 0. -1.
</event>
<event>
 5   0  0.1330125E-04  0.1800997E+04  0.7818609E-02  0.8705769E-01
       -4   -1    0    0    0  501  0.00000000000E+00  0.00000000000E+00  0.75677354127E+03  0.75677460691E+03  0.12699999809E+01 0. -1.
        4   -1    0    0  501    0  0.00000000000E+00  0.00000000000E+00 -0.10715173251E+04  0.10715180777E+04  0.12699999809E+01 0.  1.
    10030    2    1    2    0    0  0.00000000000E+00  0.00000000000E+00 -0.31474378378E+03  0.18282926846E+04  0.18009970825E+04 0.  0.
        4    1    3    3  502    0  0.55871592090E+03  0.63771657564E+03  0.15062394175E+03  0.86112432078E+03  0.12699999809E+01 0.  1.
       -4    1    3    3    0  502 -0.55871592090E+03 -0.63771657564E+03 -0.46536772554E+03  0.96716836382E+03  0.12699999809E+01 0. -1.
</event>
<event>
 5   0  0.3575091E-04  0.1472267E+04  0.7818609E-02  0.8903107E-01
        2   -1    0    0  501    0  0.00000000000E+00  0.00000000000E+00  0.10432561465E+04  0.10432561465E+04  0.25500000920E-02 0.  1.
       -2   -1    0    0    0  501  0.00000000000E+00  0.00000000000E+00 -0.51942433179E+03  0.51942433180E+03  0.25500000920E-02 0. -1.
    10030    2    1    2    0    0  0.00000000000E+00  0.00000000000E+00  0.52383181467E+03  0.15626804783E+04  0.14722671317E+04 0.  0.
        5    1    3    3  502    0  0.69482679618E+02 -0.70947102690E+03  0.67085385143E+02  0.71603039019E+03  0.46999998093E+01 0. -1.
       -5    1    3    3    0  502 -0.69482679618E+02  0.70947102690E+03  0.45674642953E+03  0.84665008809E+03  0.46999998093E+01 0.  1.
</event>
<event>
 5   0  0.1818778E-04  0.1811830E+04  0.7818609E-02  0.8700034E-01
        1   -1    0    0  501    0  0.00000000000E+00  0.00000000000E+00  0.13273040647E+04  0.13273040647E+04  0.50400001928E-02 0.  1.
       -1   -1    0    0    0  501  0.00000000000E+00  0.00000000000E+00 -0.61830756702E+03  0.61830756704E+03  0.50400001928E-02 0. -1.
    10030    2    1    2    0    0  0.00000000000E+00  0.00000000000E+00  0.70899649766E+03  0.19456116317E+04  0.18118301763E+04 0.  0.
        3    1    3    3  502    0 -0.58382408695E+03  0.34025368450E+03 -0.29342647569E+03  0.73669684481E+03  0.10100000352E+00 0. -1.
       -3    1    3    3    0  502  0.58382408695E+03 -0.34025368450E+03  0.10024229734E+04  0.12089147869E+04  0.10100000352E+00 0.  1.
</event>
<event>
 5   0  0.3568870E-04  0.1840789E+04  0.7818609E-02  0.8684904E-01
       -2   -1    0    0    0  501  0.00000000000E+00  0.00000000000E+00  0.35524091668E+03  0.35524091668E+03  0.25500000920E-02 0. -1.
        2   -1    0    0  501    0  0.00000000000E+00  0.00000000000E+00 -0.23846534403E+04  0.23846534403E+04  0.25500000920E-02 0.  1.
    10030    2    1    2    0    0  0.00000000000E+00  0.00000000000E+00 -0.20294125236E+04  0.27398943569E+04  0.18407894764E+04 0.  0.
        1    1    3    3  502    0  0.84302693826E+03 -0.19763501680E+03 -0.14791656611E+04  0.17139676402E+04  0.50400001928E-02 0.  1.
       -1    1    3    3    0  502 -0.84302693826E+03  0.19763501680E+03 -0.55024686245E+03  0.10259267168E+04  0.50400001928E-02 0. -1.
</event>
<event>
 5   0  0.1837313E-04  0.1756354E+04  0.7818609E-02  0.8729861E-01
       -1   -1    0    0    0  501  0.00000000000E+00  0.00000000000E+00  0.82079446520E+03  0.82079446521E+03  0.50400001928E-02 0. -1.
        1   -1    0    0  501    0  0.00000000000E+00  0.00000000000E+00 -0.93957093186E+03  0.93957093187E+03  0.50400001928E-02 0.  1.
    10030    2    1    2    0    0  0.00000000000E+00  0.00000000000E+00 -0.11877646666E+03  0.17603653971E+04  0.17563537463E+04 0.  0.
        1    1    3    3  502    0  0.64638785604E+03 -0.58539077581E+03  0.44264610074E+02  0.87318896956E+03  0.50400001928E-02 0. -1.
       -1    1    3    3    0  502 -0.64638785604E+03  0.58539077581E+03 -0.16304107674E+03  0.88717642753E+03  0.50400001928E-02 0.  1.
</event>
<event>
 5   0  0.3568870E-04  0.1818448E+04  0.7818609E-02  0.8696550E-01
       -2   -1    0    0    0  501  0.00000000000E+00  0.00000000000E+00  0.85983920721E+03  0.85983920722E+03  0.25500000920E-02 0.  1.
        2   -1    0    0  501    0  0.00000000000E+00  0.00000000000E+00 -0.96144524620E+03  0.96144524621E+03  0.25500000920E-02 0. -1.
    10030    2    1    2    0    0  0.00000000000E+00  0.00000000000E+00 -0.10160603899E+03  0.18212844534E+04  0.18184480397E+04 0.  0.
        1    1    3    3  502    0  0.76068888532E+02 -0.79019739993E+03 -0.49476626037E+03  0.93541010209E+03  0.50400001928E-02 0. -1.
       -1    1    3    3    0  502 -0.76068888532E+02  0.79019739993E+03  0.39316022138E+03  0.88587435134E+03  0.50400001928E-02 0.  1.
</event>
<event>
 5   0  0.3568870E-04  0.1376592E+04  0.7818609E-02  0.8970939E-01
       -2   -1    0    0    0  501  0.00000000000E+00  0.00000000000E+00  0.88958109575E+03  0.88958109576E+03  0.25500000920E-02 0. -1.
        2   -1    0    0  501    0  0.00000000000E+00  0.00000000000E+00 -0.53255537554E+03  0.53255537555E+03  0.25500000920E-02 0.  1.
    10030    2    1    2    0    0  0.00000000000E+00  0.00000000000E+00  0.35702572021E+03  0.14221364713E+04  0.13765917253E+04 0.  0.
        1    1    3    3  502    0  0.37505756008E+02  0.67520418487E+03  0.46036771590E+02  0.67781026649E+03  0.50400001928E-02 0. -1.
       -1    1    3    3    0  502 -0.37505756008E+02 -0.67520418487E+03  0.31098894862E+03  0.74432620482E+03  0.50400001928E-02 0.  1.
</event>
<event>
 5   0  0.3575091E-04  0.1801237E+04  0.7818609E-02  0.8705642E-01
       -2   -1    0    0    0  501  0.00000000000E+00  0.00000000000E+00  0.83354415855E+03  0.83354415855E+03  0.25500000920E-02 0.  1.
        2   -1    0    0  501    0  0.00000000000E+00  0.00000000000E+00 -0.97309020876E+03  0.97309020876E+03  0.25500000920E-02 0. -1.
    10030    2    1    2    0    0  0.00000000000E+00  0.00000000000E+00 -0.13954605021E+03  0.18066343673E+04  0.18012369741E+04 0.  0.
        5    1    3    3  502    0 -0.87749807222E+02 -0.69122663077E+02  0.82655662862E+03  0.83408388160E+03  0.46999998093E+01 0.  1.
       -5    1    3    3    0  502  0.87749807222E+02  0.69122663077E+02 -0.96610267884E+03  0.97255048572E+03  0.46999998093E+01 0. -1.
</event>
<event>
 5   0  0.3531266E-04  0.1489346E+04  0.7818609E-02  0.8891569E-01
        2   -1    0    0  501    0  0.00000000000E+00  0.00000000000E+00  0.14717138277E+04  0.14717138278E+04  0.25500000920E-02 0. -1.
       -2   -1    0    0    0  501  0.00000000000E+00  0.00000000000E+00 -0.37679746410E+03  0.37679746411E+03  0.25500000920E-02 0.  1.
    10030    2    1    2    0    0  0.00000000000E+00  0.00000000000E+00  0.10949163637E+04  0.18485112919E+04  0.14893462165E+04 0.  0.
        3    1    3    3  502    0  0.12183837453E+03  0.14563957116E+03  0.14411617979E+04  0.14536171477E+04  0.10100000352E+00 0. -1.
       -3    1    3    3    0  502 -0.12183837453E+03 -0.14563957116E+03 -0.34624543421E+03  0.39489414418E+03  0.10100000352E+00 0.  1.
</event>
<event>
 5   0  0.1835421E-04  0.1811146E+04  0.7818609E-02  0.8700394E-01
        1   -1    0    0  501    0  0.00000000000E+00  0.00000000000E+00  0.29406495231E+03  0.29406495235E+03  0.50400001928E-02 0. -1.
       -1   -1    0    0    0  501  0.00000000000E+00  0.00000000000E+00 -0.27887128593E+04  0.27887128593E+04  0.50400001928E-02 0.  1.
    10030    2    1    2    0    0  0.00000000000E+00  0.00000000000E+00 -0.24946479070E+04  0.30827778116E+04  0.18111462824E+04 0.  0.
        2    1    3    3  502    0  0.89394903379E+03  0.12849192634E+03 -0.11343201839E+04  0.14499439058E+04  0.25500000920E-02 0.  1.
       -2    1    3    3    0  502 -0.89394903379E+03 -0.12849192634E+03 -0.13603277230E+04  0.16328339059E+04  0.25500000920E-02 0. -1.
</event>
<event>
 5   0  0.1818778E-04  0.1688264E+04  0.7818609E-02  0.8768087E-01
       -1   -1    0    0    0  501  0.00000000000E+00  0.00000000000E+00  0.48675322599E+03  0.48675322601E+03  0.50400001928E-02 0.  1.
        1   -1    0    0  501    0  0.00000000000E+00  0.00000000000E+00 -0.14639008601E+04  0.14639008602E+04  0.50400001928E-02 0. -1.
    10030    2    1    2    0    0  0.00000000000E+00  0.00000000000E+00 -0.97714763416E+03  0.19506540862E+04  0.16882635650E+04 0.  0.
        3    1    3    3  502    0  0.15853183648E+03  0.10017957136E+03 -0.14395277037E+04  0.14516915339E+04  0.10100000352E+00 0. -1.
       -3    1    3    3    0  502 -0.15853183648E+03 -0.10017957136E+03  0.46238006952E+03  0.49896255229E+03  0.10100000352E+00 0.  1.
</event>
<event>
 5   0  0.1330125E-04  0.1925636E+04  0.7818609E-02  0.8642200E-01
       -3   -1    0    0    0  501  0.00000000000E+00  0.00000000000E+00  0.10436571002E+04  0.10436571050E+04  0.10100000352E+00 0.  1.
        3   -1    0    0  501    0  0.00000000000E+00  0.00000000000E+00 -0.88824049579E+03  0.88824050153E+03  0.10100000352E+00 0. -1.
    10030    2    1    2    0    0  0.00000000000E+00  0.00000000000E+00  0.15541660436E+03  0.19318976066E+04  0.19256360096E+04 0.  0.
        4    1    3    3  502    0  0.41196382114E+02  0.39118007283E+03 -0.80395412723E+03  0.89502114102E+03  0.12699999809E+01 0. -1.
       -4    1    3    3    0  502 -0.41196382114E+02 -0.39118007283E+03  0.95937073159E+03  0.10368764656E+04  0.12699999809E+01 0.  1.
</event>
<event>
 5   0  0.1835421E-04  0.1810796E+04  0.7818609E-02  0.8700579E-01
       -1   -1    0    0    0  501  0.00000000000E+00  0.00000000000E+00  0.33242736293E+03  0.33242736297E+03  0.50400001928E-02 0.  1.
        1   -1    0    0  501    0  0.00000000000E+00  0.00000000000E+00 -0.24659384188E+04  0.24659384188E+04  0.50400001928E-02 0. -1.
    10030    2    1    2    0    0  0.00000000000E+00  0.00000000000E+00 -0.21335110558E+04  0.27983657818E+04  0.18107958535E+04 0.  0.
        2    1    3    3  502    0 -0.13574273930E+03  0.70674916336E+03 -0.19157650241E+04  0.20464789515E+04  0.25500000920E-02 0. -1.
       -2    1    3    3    0  502  0.13574273930E+03 -0.70674916336E+03 -0.21774603169E+03  0.75188683025E+03  0.25500000920E-02 0.  1.
</event>
<event>
 5   0  0.1837313E-04  0.1802796E+04  0.7818609E-02  0.8704814E-01
        1   -1    0    0  501    0  0.00000000000E+00  0.00000000000E+00  0.15628660958E+04  0.15628660958E+04  0.50400001928E-02 0.  1.
       -1   -1    0    0    0  501  0.00000000000E+00  0.00000000000E+00 -0.51989011040E+03  0.51989011043E+03  0.50400001928E-02 0. -1.
    10030    2    1    2    0    0  0.00000000000E+00  0.00000000000E+00  0.10429759854E+04  0.20827562062E+04  0.18027963025E+04 0.  0.
        1    1    3    3  502    0 -0.13231078667E+03 -0.67882349902E+03 -0.14639785267E+03  0.70692278106E+03  0.50400001928E-02 0. -1.
       -1    1    3    3    0  502  0.13231078667E+03  0.67882349902E+03  0.11893738381E+04  0.13758334251E+04  0.50400001928E-02 0.  1.
</event>
<event>
 5   0  0.3582186E-04  0.1804294E+04  0.7818609E-02  0.8704019E-01
        2   -1    0    0  501    0  0.00000000000E+00  0.00000000000E+00  0.12753370251E+04  0.12753370251E+04  0.25500000920E-02 0.  1.
       -2   -1    0    0    0  501  0.00000000000E+00  0.00000000000E+00 -0.63816016385E+03  0.63816016385E+03  0.25500000920E-02 0. -1.
    10030    2    1    2    0    0  0.00000000000E+00  0.00000000000E+00  0.63717686129E+03  0.19134971890E+04  0.18042940835E+04 0.  0.
        4    1    3    3  502    0 -0.61505472683E+03 -0.41789859550E+03  0.86032431349E+03  0.11371416316E+04  0.12699999809E+01 0.  1.
       -4    1    3    3    0  502  0.61505472683E+03  0.41789859550E+03 -0.22314745221E+03  0.77635555736E+03  0.12699999809E+01 0. -1.
</event>
<event>
 5   0  0.1818778E-04  0.1808174E+04  0.7818609E-02  0.8701964E-01
        1   -1    0    0  501    0  0.00000000000E+00  0.00000000000E+00  0.10433069385E+04  0.10433069386E+04  0.50400001928E-02 0. -1.
       -1   -1    0    0    0  501  0.00000000000E+00  0.00000000000E+00 -0.78344511114E+03  0.78344511116E+03  0.50400001928E-02 0.  1.
    10030    2    1    2    0    0  0.00000000000E+00  0.00000000000E+00  0.25986182741E+03  0.18267520497E+04  0.18081744611E+04 0.  0.
        3    1    3    3  502    0 -0.63990343095E+03  0.63539503160E+03  0.64688290287E+02  0.90409503495E+03  0.10100000352E+00 0.  1.
       -3    1    3    3    0  502  0.63990343095E+03 -0.63539503160E+03  0.19517353712E+03  0.92265701477E+03  0.10100000352E+00 0. -1.
</event>
<event>
 5   0  0.3628581E-04  0.1792391E+04  0.7818609E-02  0.8710356E-01
       -2   -1    0    0    0  501  0.00000000000E+00  0.00000000000E+00  0.74710045652E+03  0.74710045652E+03  0.25500000920E-02 0.  1.
        2   -1    0    0  501    0  0.00000000000E+00  0.00000000000E+00 -0.10750445088E+04  0.10750445088E+04  0.25500000920E-02 0. -1.
    10030    2    1    2    0    0  0.00000000000E+00  0.00000000000E+00 -0.32794405228E+03  0.18221449653E+04  0.17923908539E+04 0.  0.
        2    1    3    3  502    0  0.10807898876E+03  0.72046252464E+03  0.36662992728E+03  0.81557637337E+03  0.25500000920E-02 0.  1.
       -2    1    3    3    0  502 -0.10807898876E+03 -0.72046252464E+03 -0.69457397956E+03  0.10065685920E+04  0.25500000920E-02 0. -1.
</event>
<event>
 5   0  0.1883959E-04  0.1939202E+04  0.7818609E-02  0.8635586E-01
       -1   -1    0    0    0  501  0.00000000000E+00  0.00000000000E+00  0.91193790887E+03  0.91193790889E+03  0.50400001928E-02 0.  1.
        1   -1    0    0  501    0  0.00000000000E+00  0.00000000000E+00 -0.10309099237E+04  0.10309099237E+04  0.50400001928E-02 0. -1.
    10030    2    1    2    0    0  0.00000000000E+00  0.00000000000E+00 -0.11897201486E+03  0.19428478326E+04  0.19392017328E+04 0.  0.
        5    1    3    3  502    0 -0.66346610482E+03  0.22144356469E+03 -0.73222392938E+03  0.10126196213E+04  0.46999998093E+01 0. -1.
       -5    1    3    3    0  502  0.66346610482E+03 -0.22144356469E+03  0.61325191452E+03  0.93022821138E+03  0.46999998093E+01 0.  1.
</event>
<event>
 5   0  0.3582186E-04  0.1804342E+04  0.7818609E-02  0.8703994E-01
       -2   -1    0    0    0  501  0.00000000000E+00  0.00000000000E+00  0.69694731061E+03  0.69694731062E+03  0.25500000920E-02 0. -1.
        2   -1    0    0  501    0  0.00000000000E+00  0.00000000000E+00 -0.11678250879E+04  0.11678250879E+04  0.25500000920E-02 0.  1.
    10030    2    1    2    0    0  0.00000000000E+00  0.00000000000E+00 -0.47087777729E+03  0.18647723985E+04  0.18043420455E+04 0.  0.
        4    1    3    3  502    0  0.70826269667E+03  0.82235511464E+02 -0.80668236329E+03  0.10766321447E+04  0.12699999809E+01 0.  1.
       -4    1    3    3    0  502 -0.70826269667E+03 -0.82235511464E+02  0.33580458600E+03  0.78814025383E+03  0.12699999809E+01 0. -1.
</event>
<event>
 5   0  0.3568870E-04  0.1777351E+04  0.7818609E-02  0.8718437E-01
       -2   -1    0    0    0  501  0.00000000000E+00  0.00000000000E+00  0.13368699198E+04  0.13368699198E+04  0.25500000920E-02 0. -1.
        2   -1    0    0  501    0  0.00000000000E+00  0.00000000000E+00 -0.59074125784E+03  0.59074125784E+03  0.25500000920E-02 0.  1.
    10030    2    1    2    0    0  0.00000000000E+00  0.00000000000E+00  0.74612866193E+03  0.19276111776E+04  0.17773510829E+04 0.  0.
        1    1    3    3  502    0  0.31305264355E+03  0.80800796725E+03  0.15925448487E+03  0.88104530176E+03  0.50400001928E-02 0. -1.
       -1    1    3    3    0  502 -0.31305264355E+03 -0.80800796725E+03  0.58687417706E+03  0.10465658759E+04  0.50400001928E-02 0.  1.
</event>
<event>
 5   0  0.3568870E-04  0.1791292E+04  0.7818609E-02  0.8710944E-01
       -2   -1    0    0    0  501  0.00000000000E+00  0.00000000000E+00  0.56361583252E+03  0.56361583253E+03  0.25500000920E-02 0.  1.
        2   -1    0    0  501    0  0.00000000000E+00  0.00000000000E+00 -0.14232774241E+04  0.14232774241E+04  0.25500000920E-02 0. -1.
    10030    2    1    2    0    0  0.00000000000E+00  0.00000000000E+00 -0.85966159155E+03  0.19868932566E+04  0.17912919252E+04 0.  0.
        1    1    3    3  502    0  0.50804182597E+02  0.87084517129E+03 -0.65505300613E+03  0.10908926703E+04  0.50400001928E-02 0. -1.
       -1    1    3    3    0  502 -0.50804182597E+02 -0.87084517129E+03 -0.20460858542E+03  0.89600058627E+03  0.50400001928E-02 0.  1.
</event>
<event>
 5   0  0.1825253E-04  0.1873695E+04  0.7818609E-02  0.8668062E-01
       -1   -1    0    0    0  501  0.00000000000E+00  0.00000000000E+00  0.35134856529E+03  0.35134856532E+03  0.50400001928E-02 0.  1.
        1   -1    0    0  501    0  0.00000000000E+00  0.00000000000E+00 -0.24980419075E+04  0.24980419075E+04  0.50400001928E-02 0. -1.
    10030    2    1    2    0    0  0.00000000000E+00  0.00000000000E+00 -0.21466933422E+04  0.28493904728E+04  0.18736952156E+04 0.  0.
        4    1    3    3  502    0  0.21163540004E+03 -0.15740501479E+03  0.29372051281E+03  0.39476478285E+03  0.12699999809E+01 0.  1.
       -4    1    3    3    0  502 -0.21163540004E+03  0.15740501479E+03 -0.24404138550E+04  0.24546256900E+04  0.12699999809E+01 0. -1.
</event>
<event>
 5   0  0.3582186E-04  0.1841549E+04  0.7818609E-02  0.8684511E-01
       -2   -1    0    0    0  501  0.00000000000E+00  0.00000000000E+00  0.10035722641E+04  0.10035722641E+04  0.25500000920E-02 0.  1.
        2   -1    0    0  501    0  0.00000000000E+00  0.00000000000E+00 -0.84480750584E+03  0.84480750584E+03  0.25500000920E-02 0. -1.
    10030    2    1    2    0    0  0.00000000000E+00  0.00000000000E+00  0.15876475828E+03  0.18483797700E+04  0.18415486758E+04 0.  0.
        4    1    3    3  502    0  0.25919209591E+03 -0.83276690616E+03 -0.21691173631E+03  0.89873999401E+03  0.12699999809E+01 0. -1.
       -4    1    3    3    0  502 -0.25919209591E+03  0.83276690616E+03  0.37567649459E+03  0.94963977595E+03  0.12699999809E+01 0.  1.
</event>
<event>
 5   0  0.3582186E-04  0.1796596E+04  0.7818609E-02  0.8708112E-01
        2   -1    0    0  501    0  0.00000000000E+00  0.00000000000E+00  0.12141352955E+04  0.12141352955E+04  0.25500000920E-02 0. -1.
       -2   -1    0    0    0  501  0.00000000000E+00  0.00000000000E+00 -0.66462080874E+03  0.66462080875E+03  0.25500000920E-02 0.  1.
    10030    2    1    2    0    0  0.00000000000E+00  0.00000000000E+00  0.54951448673E+03  0.18787561042E+04  0.17965963175E+04 0.  0.
        4    1    3    3  502    0 -0.20751387816E+03  0.56421988997E+03 -0.42324897210E+03  0.73521928644E+03  0.12699999809E+01 0.  1.
       -4    1    3    3    0  502  0.20751387816E+03 -0.56421988997E+03  0.97276345884E+03  0.11435368178E+04  0.12699999809E+01 0. -1.
</event>
<event>
 5   0  0.1330125E-04  0.1805322E+04  0.7818609E-02  0.8703475E-01
        4   -1    0    0  501    0  0.00000000000E+00  0.00000000000E+00  0.10154247878E+04  0.10154255820E+04  0.12699999809E+01 0.  1.
       -4   -1    0    0    0  501  0.00000000000E+00  0.00000000000E+00 -0.80241791244E+03  0.80241891747E+03  0.12699999809E+01 0. -1.
    10030    2    1    2    0    0  0.00000000000E+00  0.00000000000E+00  0.21300687536E+03  0.18178444995E+04  0.18053217706E+04 0.  0.
        4    1    3    3  502    0 -0.67198990728E+03  0.59390893295E+03  0.20966803121E+03  0.92101061467E+03  0.12699999809E+01 0.  1.
       -4    1    3    3    0  502  0.67198990728E+03 -0.59390893295E+03  0.33388441423E+01  0.89683388479E+03  0.12699999809E+01 0. -1.
</event>
<event>
 5   0  0.3582186E-04  0.1835096E+04  0.7818609E-02  0.8687855E-01
       -2   -1    0    0    0  501  0.00000000000E+00  0.00000000000E+00  0.57735948743E+03  0.57735948743E+03  0.25500000920E-02 0. -1.
        2   -1    0    0  501    0  0.00000000000E+00  0.00000000000E+00 -0.14581810722E+04  0.14581810722E+04  0.25500000920E-02 0.  1.
    10030    2    1    2    0    0  0.00000000000E+00  0.00000000000E+00 -0.88082158477E+03  0.20355405596E+04  0.18350963750E+04 0.  0.
        4    1    3    3  502    0  0.77161048259E+03  0.33538680214E+03 -0.84649438538E+03  0.11934912657E+04  0.12699999809E+01 0.  1.
       -4    1    3    3    0  502 -0.77161048259E+03 -0.33538680214E+03 -0.34327199389E+02  0.84204929394E+03  0.12699999809E+01 0. -1.
</event>
<event>
 5   0  0.1818778E-04  0.1830394E+04  0.7818609E-02  0.8690301E-01
        1   -1    0    0  501    0  0.00000000000E+00  0.00000000000E+00  0.86091515919E+03  0.86091515921E+03  0.50400001928E-02 0.  1.
       -1   -1    0    0    0  501  0.00000000000E+00  0.00000000000E+00 -0.97290170513E+03  0.97290170515E+03  0.50400001928E-02 0. -1.
    10030    2    1    2    0    0  0.00000000000E+00  0.00000000000E+00 -0.11198654594E+03  0.18338168644E+04  0.18303943033E+04 0.  0.
        3    1    3    3  502    0  0.10856793984E+03  0.90866971344E+03 -0.66884224677E+02  0.91757351498E+03  0.10100000352E+00 0. -1.
       -3    1    3    3    0  502 -0.10856793984E+03 -0.90866971344E+03 -0.45102321261E+02  0.91624334937E+03  0.10100000352E+00 0.  1.
</event>
<event>
 5   0  0.1883959E-04  0.1728105E+04  0.7818609E-02  0.8745495E-01
        1   -1    0    0  501    0  0.00000000000E+00  0.00000000000E+00  0.90637452214E+03  0.90637452215E+03  0.50400001928E-02 0. -1.
       -1   -1    0    0    0  501  0.00000000000E+00  0.00000000000E+00 -0.82370680188E+03  0.82370680190E+03  0.50400001928E-02 0.  1.
    10030    2    1    2    0    0  0.00000000000E+00  0.00000000000E+00  0.82667720256E+02  0.17300813240E+04  0.17281051576E+04 0.  0.
        5    1    3    3  502    0 -0.98336683016E+02  0.48261535039E+03 -0.66939139590E+03  0.83108038754E+03  0.46999998093E+01 0.  1.
       -5    1    3    3    0  502  0.98336683016E+02 -0.48261535039E+03  0.75205911615E+03  0.89900093651E+03  0.46999998093E+01 0. -1.
</event>
<event>
 5   0  0.1883959E-04  0.1784856E+04  0.7818609E-02  0.8714394E-01
       -1   -1    0    0    0  501  0.00000000000E+00  0.00000000000E+00  0.10582252351E+04  0.10582252351E+04  0.50400001928E-02 0. -1.
        1   -1    0    0  501    0  0.00000000000E+00  0.00000000000E+00 -0.75260719446E+03  0.75260719448E+03  0.50400001928E-02 0.  1.
    10030    2    1    2    0    0  0.00000000000E+00  0.00000000000E+00  0.30561804065E+03  0.18108324296E+04  0.17848562131E+04 0.  0.
        5    1    3    3  502    0 -0.84929853143E+03 -0.27180903926E+03  0.18821223435E+03  0.91139129054E+03  0.46999998093E+01 0. -1.
       -5    1    3    3    0  502  0.84929853143E+03  0.27180903926E+03  0.11740580630E+03  0.89944113907E+03  0.46999998093E+01 0.  1.
</event>
<event>
 5   0  0.1835421E-04  0.1486798E+04  0.7818609E-02  0.8893280E-01
        1   -1    0    0  501    0  0.00000000000E+00  0.00000000000E+00  0.66861925621E+03  0.66861925623E+03  0.50400001928E-02 0.  1.
       -1   -1    0    0    0  501  0.00000000000E+00  0.00000000000E+00 -0.82654249883E+03  0.82654249884E+03  0.50400001928E-02 0. -1.
    10030    2    1    2    0    0  0.00000000000E+00  0.00000000000E+00 -0.15792324262E+03  0.14951617551E+04  0.14867982120E+04 0.  0.
        2    1    3    3  502    0  0.41475156654E+02  0.13645915256E+03  0.65473203960E+03  0.67008606360E+03  0.25500000920E-02 0.  1.
       -2    1    3    3    0  502 -0.41475156654E+02 -0.13645915256E+03 -0.81265528222E+03  0.82507569148E+03  0.25500000920E-02 0. -1.
</event>
<event>
 5   0  0.3531266E-04  0.1809570E+04  0.7818609E-02  0.8701227E-01
        2   -1    0    0  501    0  0.00000000000E+00  0.00000000000E+00  0.51038129785E+03  0.51038129786E+03  0.25500000920E-02 0.  1.
       -2   -1    0    0    0  501  0.00000000000E+00  0.00000000000E+00 -0.16039695281E+04  0.16039695281E+04  0.25500000920E-02 0. -1.
    10030    2    1    2    0    0  0.00000000000E+00  0.00000000000E+00 -0.10935882303E+04  0.21143508260E+04  0.18095701694E+04 0.  0.
        3    1    3    3  502    0 -0.36211235446E+03 -0.46277504084E+03  0.25708877692E+03  0.64138969831E+03  0.10100000352E+00 0.  1.
       -3    1    3    3    0  502  0.36211235446E+03  0.46277504084E+03 -0.13506770072E+04  0.14729611277E+04  0.10100000352E+00 0. -1.
</event>
<event>
 5   0  0.3575091E-04  0.1817610E+04  0.7818609E-02  0.8696990E-01
        2   -1    0    0  501    0  0.00000000000E+00  0.00000000000E+00  0.14034545124E+04  0.14034545124E+04  0.25500000920E-02 0.  1.
       -2   -1    0    0    0  501  0.00000000000E+00  0.00000000000E+00 -0.58849543511E+03  0.58849543511E+03  0.25500000920E-02 0. -1.
    10030    2    1    2    0    0  0.00000000000E+00  0.00000000000E+00  0.81495907726E+03  0.19919499475E+04  0.18176100505E+04 0.  0.
        5    1    3    3  502    0  0.18826286277E+03  0.59494975554E+03 -0.31656956905E+03  0.69974745385E+03  0.46999998093E+01 0. -1.
       -5    1    3    3    0  502 -0.18826286277E+03 -0.59494975554E+03  0.11315286463E+04  0.12922024936E+04  0.46999998093E+01 0.  1.
</event>
<event>
 5   0  0.3628581E-04  0.1396738E+04  0.7818609E-02  0.8956183E-01
        2   -1    0    0  501    0  0.00000000000E+00  0.00000000000E+00  0.21944476659E+04  0.21944476659E+04  0.25500000920E-02 0.  1.
       -2   -1    0    0    0  501  0.00000000000E+00  0.00000000000E+00 -0.22225158090E+03  0.22225158092E+03  0.25500000920E-02 0. -1.
    10030    2    1    2    0    0  0.00000000000E+00  0.00000000000E+00  0.19721960850E+04  0.24166992468E+04  0.13967382904E+04 0.  0.
        2    1    3    3  502    0 -0.56928219947E+03 -0.55116626829E+02  0.16794911555E+04  0.17742070360E+04  0.25500000920E-02 0.  1.
       -2    1    3    3    0  502  0.56928219947E+03  0.55116626829E+02  0.29270492949E+03  0.64249221081E+03  0.25500000920E-02 0. -1.
</event>
<event>
 5   0  0.1835421E-04  0.1783185E+04  0.7818609E-02  0.8715293E-01
       -1   -1    0    0    0  501  0.00000000000E+00  0.00000000000E+00  0.66395857030E+03  0.66395857032E+03  0.50400001928E-02 0.  1.
        1   -1    0    0  501    0  0.00000000000E+00  0.00000000000E+00 -0.11972686930E+04  0.11972686930E+04  0.50400001928E-02 0. -1.
    10030    2    1    2    0    0  0.00000000000E+00  0.00000000000E+00 -0.53331012266E+03  0.18612272633E+04  0.17831845779E+04 0.  0.
        2    1    3    3  502    0 -0.28159596012E+02 -0.64194543991E+03 -0.91180869941E+03  0.11154738970E+04  0.25500000920E-02 0. -1.
       -2    1    3    3    0  502  0.28159596012E+02  0.64194543991E+03  0.37849857675E+03  0.74575336625E+03  0.25500000920E-02 0.  1.
</event>
<event>
 5   0  0.3568870E-04  0.1791601E+04  0.7818609E-02  0.8710779E-01
       -2   -1    0    0    0  501  0.00000000000E+00  0.00000000000E+00  0.62148505515E+03  0.62148505516E+03  0.25500000920E-02 0. -1.
        2   -1    0    0  501    0  0.00000000000E+00  0.00000000000E+00 -0.12911954572E+04  0.12911954572E+04  0.25500000920E-02 0.  1.
    10030    2    1    2    0    0  0.00000000000E+00  0.00000000000E+00 -0.66971040201E+03  0.19126805123E+04  0.17916011609E+04 0.  0.
        1    1    3    3  502    0  0.37390054359E+03 -0.81371055139E+03 -0.31022662370E+03  0.94771674883E+03  0.50400001928E-02 0.  1.
       -1    1    3    3    0  502 -0.37390054359E+03  0.81371055139E+03 -0.35948377831E+03  0.96496376348E+03  0.50400001928E-02 0. -1.
</event>
<event>
 5   0  0.1330125E-04  0.1839741E+04  0.7818609E-02  0.8685446E-01
       -3   -1    0    0    0  501  0.00000000000E+00  0.00000000000E+00  0.66722088898E+03  0.66722089662E+03  0.10100000352E+00 0. -1.
        3   -1    0    0  501    0  0.00000000000E+00  0.00000000000E+00 -0.12681885061E+04  0.12681885102E+04  0.10100000352E+00 0.  1.
    10030    2    1    2    0    0  0.00000000000E+00  0.00000000000E+00 -0.60096761717E+03  0.19354094068E+04  0.18397411489E+04 0.  0.
        1    1    3    3  502    0 -0.10407402697E+03 -0.97164216348E+02  0.65555851834E+03  0.67084220128E+03  0.50400001928E-02 0. -1.
       -1    1    3    3    0  502  0.10407402697E+03  0.97164216348E+02 -0.12565261355E+04  0.12645672055E+04  0.50400001928E-02 0.  1.
</event>
<event>
 5   0  0.1330125E-04  0.1868029E+04  0.7818609E-02  0.8670936E-01
       -4   -1    0    0    0  501  0.00000000000E+00  0.00000000000E+00  0.43621147464E+03  0.43621332340E+03  0.12699999809E+01 0. -1.
        4   -1    0    0  501    0  0.00000000000E+00  0.00000000000E+00 -0.19999029539E+04  0.19999033572E+04  0.12699999809E+01 0.  1.
    10030    2    1    2    0    0  0.00000000000E+00  0.00000000000E+00 -0.15636914793E+04  0.24361166806E+04  0.18680292929E+04 0.  0.
        2    1    3    3  502    0  0.68187280788E+03  0.11714827930E+03  0.36434639383E+02  0.69282157041E+03  0.25500000920E-02 0. -1.
       -2    1    3    3    0  502 -0.68187280788E+03 -0.11714827930E+03 -0.16001261187E+04  0.17432951102E+04  0.25500000920E-02 0.  1.
</event>
<event>
 5   0  0.1837313E-04  0.1786686E+04  0.7818609E-02  0.8713412E-01
        1   -1    0    0  501    0  0.00000000000E+00  0.00000000000E+00  0.78557423215E+03  0.78557423217E+03  0.50400001928E-02 0.  1.
       -1   -1    0    0    0  501  0.00000000000E+00  0.00000000000E+00 -0.10158962106E+04  0.10158962106E+04  0.50400001928E-02 0. -1.
    10030    2    1    2    0    0  0.00000000000E+00  0.00000000000E+00 -0.23032197846E+03  0.18014704428E+04  0.17866861903E+04 0.  0.
        1    1    3    3  502    0  0.95093933426E+02 -0.45824128183E+03 -0.88240035378E+03  0.99882847022E+03  0.50400001928E-02 0. -1.
       -1    1    3    3    0  502 -0.95093933426E+02  0.45824128183E+03  0.65207837532E+03  0.80264197257E+03  0.50400001928E-02 0.  1.
</event>
<event>
 5   0  0.1818778E-04  0.2013667E+04  0.7818609E-02  0.8600257E-01
       -1   -1    0    0    0  501  0.00000000000E+00  0.00000000000E+00  0.78319273042E+03  0.78319273044E+03  0.50400001928E-02 0. -1.
        1   -1    0    0  501    0  0.00000000000E+00  0.00000000000E+00 -0.12943347401E+04  0.12943347401E+04  0.50400001928E-02 0.  1.
    10030    2    1    2    0    0  0.00000000000E+00  0.00000000000E+00 -0.51114200963E+03  0.20775274705E+04  0.20136668634E+04 0.  0.
        3    1    3    3  502    0 -0.26795522905E+03  0.71300330380E+03  0.42374782773E+03  0.87162833118E+03  0.10100000352E+00 0. -1.
       -3    1    3    3    0  502  0.26795522905E+03 -0.71300330380E+03 -0.93488983737E+03  0.12058991393E+04  0.10100000352E+00 0.  1.
</event>
<event>
 5   0  0.1835421E-04  0.1844711E+04  0.7818609E-02  0.8682878E-01
        1   -1    0    0  501    0  0.00000000000E+00  0.00000000000E+00  0.11389914212E+04  0.11389914212E+04  0.50400001928E-02 0.  1.
       -1   -1    0    0    0  501  0.00000000000E+00  0.00000000000E+00 -0.74692339284E+03  0.74692339286E+03  0.50400001928E-02 0. -1.
    10030    2    1    2    0    0  0.00000000000E+00  0.00000000000E+00  0.39206802832E+03  0.18859148140E+04  0.18447106404E+04 0.  0.
        2    1    3    3  502    0  0.52080918974E+03 -0.70357512663E+03 -0.10111112310E+03  0.88118308549E+03  0.25500000920E-02 0. -1.
       -2    1    3    3    0  502 -0.52080918974E+03  0.70357512663E+03  0.49317915142E+03  0.10047317285E+04  0.25500000920E-02 0.  1.
</event>
<event>
 5   0  0.1818778E-04  0.1821879E+04  0.7818609E-02  0.8694750E-01
       -1   -1    0    0    0  501  0.00000000000E+00  0.00000000000E+00  0.67010224371E+03  0.67010224373E+03  0.50400001928E-02 0. -1.
        1   -1    0    0  501    0  0.00000000000E+00  0.00000000000E+00 -0.12383345246E+04  0.12383345246E+04  0.50400001928E-02 0.  1.
    10030    2    1    2    0    0  0.00000000000E+00  0.00000000000E+00 -0.56823228091E+03  0.19084367684E+04  0.18218789679E+04 0.  0.
        3    1    3    3  502    0 -0.37210938487E+02 -0.35915820657E+03  0.59193777466E+03  0.69337551915E+03  0.10100000352E+00 0. -1.
       -3    1    3    3    0  502  0.37210938487E+02  0.35915820657E+03 -0.11601700556E+04  0.12150612492E+04  0.10100000352E+00 0.  1.
</event>
<event>
 5   0  0.1825253E-04  0.1810831E+04  0.7818609E-02  0.8700561E-01
       -1   -1    0    0    0  501  0.00000000000E+00  0.00000000000E+00  0.80240980414E+03  0.80240980416E+03  0.50400001928E-02 0. -1.
        1   -1    0    0  501    0  0.00000000000E+00  0.00000000000E+00 -0.10216439401E+04  0.10216439401E+04  0.50400001928E-02 0.  1.
    10030    2    1    2    0    0  0.00000000000E+00  0.00000000000E+00 -0.21923413599E+03  0.18240537443E+04  0.18108308744E+04 0.  0.
        4    1    3    3  502    0  0.90973627862E+02 -0.20269836541E+03 -0.99375790174E+03  0.10182923001E+04  0.12699999809E+01 0.  1.
       -4    1    3    3    0  502 -0.90973627862E+02  0.20269836541E+03  0.77452376575E+03  0.80576144418E+03  0.12699999809E+01 0. -1.
</event>
<event>
 5   0  0.1835421E-04  0.2003201E+04  0.7818609E-02  0.8605126E-01
       -1   -1    0    0    0  501  0.00000000000E+00  0.00000000000E+00  0.11326319494E+04  0.11326319494E+04  0.50400001928E-02 0. -1.
        1   -1    0    0  501    0  0.00000000000E+00  0.00000000000E+00 -0.88572773515E+03  0.88572773517E+03  0.50400001928E-02 0.  1.
    10030    2    1    2    0    0  0.00000000000E+00  0.00000000000E+00  0.24690421427E+03  0.20183596846E+04  0.20032009698E+04 0.  0.
        2    1    3    3  502    0 -0.49161436564E+03  0.33579311300E+03 -0.68810051792E+03  0.90990330366E+03  0.25500000920E-02 0.  1.
       -2    1    3    3    0  502  0.49161436564E+03 -0.33579311300E+03  0.93500473219E+03  0.11084563809E+04  0.25500000920E-02 0. -1.
</event>
<event>
 5   0  0.3628581E-04  0.1813037E+04  0.7818609E-02  0.8699397E-01
       -2   -1    0    0    0  501  0.00000000000E+00  0.00000000000E+00  0.80008770264E+03  0.80008770264E+03  0.25500000920E-02 0.  1.
        2   -1    0    0  501    0  0.00000000000E+00  0.00000000000E+00 -0.10271074151E+04  0.10271074151E+04  0.25500000920E-02 0. -1.
    10030    2    1    2    0    0  0.00000000000E+00  0.00000000000E+00 -0.22701971250E+03  0.18271951178E+04  0.18130372441E+04 0.  0.
        2    1    3    3  502    0 -0.52000804407E+03 -0.31014302263E+03  0.56642810103E+03  0.82911872131E+03  0.25500000920E-02 0.  1.
       -2    1    3    3    0  502  0.52000804407E+03  0.31014302263E+03 -0.79344781353E+03  0.99807639647E+03  0.25500000920E-02 0. -1.
</event>
<event>
 5   0  0.1835421E-04  0.1775739E+04  0.7818609E-02  0.8719309E-01
       -1   -1    0    0    0  501  0.00000000000E+00  0.00000000000E+00  0.13398785152E+04  0.13398785153E+04  0.50400001928E-02 0. -1.
        1   -1    0    0  501    0  0.00000000000E+00  0.00000000000E+00 -0.58834591257E+03  0.58834591259E+03  0.50400001928E-02 0.  1.
    10030    2    1    2    0    0  0.00000000000E+00  0.00000000000E+00  0.75153260267E+03  0.19282244278E+04  0.17757387734E+04 0.  0.
        2    1    3    3  502    0  0.63038698764E+03  0.16374667313E+03 -0.27946644481E+03  0.70873282761E+03  0.25500000920E-02 0.  1.
       -2    1    3    3    0  502 -0.63038698764E+03 -0.16374667313E+03  0.10309990475E+04  0.12194916002E+04  0.25500000920E-02 0. -1.
</event>
<event>
 5   0  0.1883959E-04  0.1424842E+04  0.7818609E-02  0.8936031E-01
       -1   -1    0    0    0  501  0.00000000000E+00  0.00000000000E+00  0.50165219744E+03  0.50165219747E+03  0.50400001928E-02 0. -1.
        1   -1    0    0  501    0  0.00000000000E+00  0.00000000000E+00 -0.10117438058E+04  0.10117438058E+04  0.50400001928E-02 0.  1.
    10030    2    1    2    0    0  0.00000000000E+00  0.00000000000E+00 -0.51009160836E+03  0.15133960033E+04  0.14248417505E+04 0.  0.
        5    1    3    3  502    0 -0.70110874969E+03 -0.12127523590E+03 -0.29275216339E+03  0.76940696702E+03  0.46999998093E+01 0.  1.
       -5    1    3    3    0  502  0.70110874969E+03  0.12127523590E+03 -0.21733944497E+03  0.74398903626E+03  0.46999998093E+01 0. -1.
</event>
<event>
 5   0  0.1330125E-04  0.1811306E+04  0.7818609E-02  0.8700310E-01
       -3   -1    0    0    0  501  0.00000000000E+00  0.00000000000E+00  0.96619157171E+03  0.96619157699E+03  0.10100000352E+00 0.  1.
        3   -1    0    0  501    0  0.00000000000E+00  0.00000000000E+00 -0.84890761647E+03  0.84890762248E+03  0.10100000352E+00 0. -1.
    10030    2    1    2    0    0  0.00000000000E+00  0.00000000000E+00  0.11728395524E+03  0.18150991995E+04  0.18113060420E+04 0.  0.
        2    1    3    3  502    0 -0.78339880574E+03 -0.44213409905E+03 -0.46511769078E+02  0.90075501389E+03  0.25500000920E-02 0.  1.
       -2    1    3    3    0  502  0.78339880574E+03  0.44213409905E+03  0.16379572432E+03  0.91434418557E+03  0.25500000920E-02 0. -1.
</event>
<event>
 5   0  0.3531266E-04  0.1800596E+04  0.7818609E-02  0.8705983E-01
       -2   -1    0    0    0  501  0.00000000000E+00  0.00000000000E+00  0.89012765455E+03  0.89012765455E+03  0.25500000920E-02 0. -1.
        2   -1    0    0  501    0  0.00000000000E+00  0.00000000000E+00 -0.91058431946E+03  0.91058431946E+03  0.25500000920E-02 0.  1.
    10030    2    1    2    0    0  0.00000000000E+00  0.00000000000E+00 -0.20456664909E+02  0.18007119740E+04  0.18005957731E+04 0.  0.
        3    1    3    3  502    0 -0.63194102447E+03 -0.16087098244E+03  0.61054302315E+03  0.89330382553E+03  0.10100000352E+00 0.  1.
       -3    1    3    3    0  502  0.63194102447E+03  0.16087098244E+03 -0.63099968805E+03  0.90740814848E+03  0.10100000352E+00 0. -1.
</event>
<event>
 5   0  0.3531266E-04  0.1785151E+04  0.7818609E-02  0.8714236E-01
        2   -1    0    0  501    0  0.00000000000E+00  0.00000000000E+00  0.78244619989E+03  0.78244619989E+03  0.25500000920E-02 0. -1.
       -2   -1    0    0    0  501  0.00000000000E+00  0.00000000000E+00 -0.10182049636E+04  0.10182049636E+04  0.25500000920E-02 0.  1.
    10030    2    1    2    0    0  0.00000000000E+00  0.00000000000E+00 -0.23575876374E+03  0.18006511635E+04  0.17851505309E+04 0.  0.
        3    1    3    3  502    0  0.76226352925E+03 -0.12173560529E+03  0.33414723407E+03  0.84114186072E+03  0.10100000352E+00 0. -1.
       -3    1    3    3    0  502 -0.76226352925E+03  0.12173560529E+03 -0.56990599781E+03  0.95950930280E+03  0.10100000352E+00 0.  1.
</event>
<event>
 5   0  0.3582186E-04  0.1810034E+04  0.7818609E-02  0.8700981E-01
       -2   -1    0    0    0  501  0.00000000000E+00  0.00000000000E+00  0.70802049282E+03  0.70802049282E+03  0.25500000920E-02 0.  1.
        2   -1    0    0  501    0  0.00000000000E+00  0.00000000000E+00 -0.11568253079E+04  0.11568253079E+04  0.25500000920E-02 0. -1.
    10030    2    1    2    0    0  0.00000000000E+00  0.00000000000E+00 -0.44880481513E+03  0.18648458008E+04  0.18100342810E+04 0.  0.
        4    1    3    3  502    0  0.85810665860E+02  0.72350706508E+03 -0.77752903201E+03  0.10655416238E+04  0.12699999809E+01 0. -1.
       -4    1    3    3    0  502 -0.85810665860E+02 -0.72350706508E+03  0.32872421689E+03  0.79930417693E+03  0.12699999809E+01 0.  1.
</event>
<event>
 5   0  0.3531266E-04  0.1793453E+04  0.7818609E-02  0.8709789E-01
       -2   -1    0    0    0  501  0.00000000000E+00  0.00000000000E+00  0.96918974046E+03  0.96918974046E+03  0.25500000920E-02 0.  1.
        2   -1    0    0  501    0  0.00000000000E+00  0.00000000000E+00 -0.82968117376E+03  0.82968117376E+03  0.25500000920E-02 0. -1.
    10030    2    1    2    0    0  0.00000000000E+00  0.00000000000E+00  0.13950856670E+03  0.17988709142E+04  0.17934530732E+04 0.  0.
        3    1    3    3  502    0 -0.22274041193E+03 -0.37494681957E+03  0.85565176170E+03  0.96038448348E+03  0.10100000352E+00 0.  1.
       -3    1    3    3    0  502  0.22274041193E+03  0.37494681957E+03 -0.71614319499E+03  0.83848643075E+03  0.10100000352E+00 0. -1.
</event>
<event>
 5   0  0.3568870E-04  0.1810407E+04  0.7818609E-02  0.8700784E-01
        2   -1    0    0  501    0  0.00000000000E+00  0.00000000000E+00  0.70184146927E+03  0.70184146928E+03  0.25500000920E-02 0.  1.
       -2   -1    0    0    0  501  0.00000000000E+00  0.00000000000E+00 -0.11674911897E+04  0.11674911897E+04  0.25500000920E-02 0. -1.
    10030    2    1    2    0    0  0.00000000000E+00  0.00000000000E+00 -0.46564972045E+03  0.18693326590E+04  0.18104073928E+04 0.  0.
        1    1    3    3  502    0 -0.18570238457E+03  0.38275831941E+03 -0.10578329812E+04  0.11401753913E+04  0.50400001928E-02 0. -1.
       -1    1    3    3    0  502  0.18570238457E+03 -0.38275831941E+03  0.59218326076E+03  0.72915726772E+03  0.50400001928E-02 0.  1.
</event>
<event>
 5   0  0.3531266E-04  0.1803732E+04  0.7818609E-02  0.8704317E-01
       -2   -1    0    0    0  501  0.00000000000E+00  0.00000000000E+00  0.87569815710E+03  0.87569815711E+03  0.25500000920E-02 0. -1.
        2   -1    0    0  501    0  0.00000000000E+00  0.00000000000E+00 -0.92881600144E+03  0.92881600145E+03  0.25500000920E-02 0.  1.
    10030    2    1    2    0    0  0.00000000000E+00  0.00000000000E+00 -0.53117844340E+02  0.18045141586E+04  0.18037321983E+04 0.  0.
        3    1    3    3  502    0  0.24949681302E+02  0.32423651962E+03 -0.86811956050E+03  0.92702933544E+03  0.10100000352E+00 0.  1.
       -3    1    3    3    0  502 -0.24949681302E+02 -0.32423651962E+03  0.81500171616E+03  0.87748482311E+03  0.10100000352E+00 0. -1.
</event>
<event>
 5   0  0.3575091E-04  0.1802042E+04  0.7818609E-02  0.8705214E-01
        2   -1    0    0  501    0  0.00000000000E+00  0.00000000000E+00  0.27900347835E+04  0.27900347835E+04  0.25500000920E-02 0. -1.
       -2   -1    0    0    0  501  0.00000000000E+00  0.00000000000E+00 -0.29097809042E+03  0.29097809043E+03  0.25500000920E-02 0.  1.
    10030    2    1    2    0    0  0.00000000000E+00  0.00000000000E+00  0.24990566931E+04  0.30810128740E+04  0.18020421677E+04 0.  0.
        5    1    3    3  502    0  0.36371978236E+03  0.59467780045E+03  0.22255501240E+04  0.23321726375E+04  0.46999998093E+01 0. -1.
       -5    1    3    3    0  502 -0.36371978236E+03 -0.59467780045E+03  0.27350656908E+03  0.74884023647E+03  0.46999998093E+01 0.  1.
</event>
<event>
 5   0  0.1818778E-04  0.1836734E+04  0.7818609E-02  0.8687005E-01
       -1   -1    0    0    0  501  0.00000000000E+00  0.00000000000E+00  0.26417230763E+04  0.26417230763E+04  0.50400001928E-02 0. -1.
        1   -1    0    0  501    0  0.00000000000E+00  0.00000000000E+00 -0.31926056301E+03  0.31926056305E+03  0.50400001928E-02 0.  1.
    10030    2    1    2    0    0  0.00000000000E+00  0.00000000000E+00  0.23224625133E+04  0.29609836394E+04  0.18367340545E+04 0.  0.
        3    1    3    3  502    0  0.11046047453E+03  0.87932319585E+03  0.77303105974E+03  0.11760050292E+04  0.10100000352E+00 0. -1.
       -3    1    3    3    0  502 -0.11046047453E+03 -0.87932319585E+03  0.15494314536E+04  0.17849786102E+04  0.10100000352E+00 0.  1.
</event>
<event>
 5   0  0.1837313E-04  0.1817500E+04  0.7818609E-02  0.8697048E-01
       -1   -1    0    0    0  501  0.00000000000E+00  0.00000000000E+00  0.17504345718E+04  0.17504345718E+04  0.50400001928E-02 0. -1.
        1   -1    0    0  501    0  0.00000000000E+00  0.00000000000E+00 -0.47178383727E+03  0.47178383729E+03  0.50400001928E-02 0.  1.
    10030    2    1    2    0    0  0.00000000000E+00  0.00000000000E+00  0.12786507345E+04  0.22222184091E+04  0.18175001944E+04 0.  0.
        1    1    3    3  502    0  0.87555912248E+03  0.19507183549E+03  0.81722379135E+03  0.12134708580E+04  0.50400001928E-02 0.  1.
       -1    1    3    3    0  502 -0.87555912248E+03 -0.19507183549E+03  0.46142694314E+03  0.10087475511E+04  0.50400001928E-02 0. -1.
</event>
<event>
 5   0  0.1818778E-04  0.1713881E+04  0.7818609E-02  0.8753487E-01
       -1   -1    0    0    0  501  0.00000000000E+00  0.00000000000E+00  0.34281783605E+03  0.34281783609E+03  0.50400001928E-02 0. -1.
        1   -1    0    0  501    0  0.00000000000E+00  0.00000000000E+00 -0.21420905754E+04  0.21420905754E+04  0.50400001928E-02 0.  1.
    10030    2    1    2    0    0  0.00000000000E+00  0.00000000000E+00 -0.17992727394E+04  0.24849084115E+04  0.17138808077E+04 0.  0.
        3    1    3    3  502    0 -0.85876774529E+02  0.85176098022E+03 -0.84394810072E+03  0.12021314382E+04  0.10100000352E+00 0.  1.
       -3    1    3    3    0  502  0.85876774529E+02 -0.85176098022E+03 -0.95532463866E+03  0.12827769733E+04  0.10100000352E+00 0. -1.
</event>
<event>
 5   0  0.1825253E-04  0.1872911E+04  0.7818609E-02  0.8668459E-01
        1   -1    0    0  501    0  0.00000000000E+00  0.00000000000E+00  0.59678277575E+03  0.59678277577E+03  0.50400001928E-02 0.  1.
       -1   -1    0    0    0  501  0.00000000000E+00  0.00000000000E+00 -0.14694611203E+04  0.14694611203E+04  0.50400001928E-02 0. -1.
    10030    2    1    2    0    0  0.00000000000E+00  0.00000000000E+00 -0.87267834454E+03  0.20662438961E+04  0.18729111952E+04 0.  0.
        4    1    3    3  502    0 -0.15027430727E+03 -0.89677403049E+03 -0.68342589768E+03  0.11374790546E+04  0.12699999809E+01 0. -1.
       -4    1    3    3    0  502  0.15027430727E+03  0.89677403049E+03 -0.18925244686E+03  0.92876484145E+03  0.12699999809E+01 0.  1.
</event>
<event>
 5   0  0.1825253E-04  0.1800950E+04  0.7818609E-02  0.8705795E-01
       -1   -1    0    0    0  501  0.00000000000E+00  0.00000000000E+00  0.76308785212E+03  0.76308785214E+03  0.50400001928E-02 0.  1.
        1   -1    0    0  501    0  0.00000000000E+00  0.00000000000E+00 -0.10625973057E+04  0.10625973058E+04  0.50400001928E-02 0. -1.
    10030    2    1    2    0    0  0.00000000000E+00  0.00000000000E+00 -0.29950945361E+03  0.18256851579E+04  0.18009498558E+04 0.  0.
        4    1    3    3  502    0 -0.58535483741E+02 -0.83165538702E+03 -0.49468735661E+03  0.96942987333E+03  0.12699999809E+01 0. -1.
       -4    1    3    3    0  502  0.58535483741E+02  0.83165538702E+03  0.19517790299E+03  0.85625528456E+03  0.12699999809E+01 0.  1.
</event>
<event>
 5   0  0.3582186E-04  0.1789193E+04  0.7818609E-02  0.8712068E-01
       -2   -1    0    0    0  501  0.00000000000E+00  0.00000000000E+00  0.38220639430E+03  0.38220639430E+03  0.25500000920E-02 0. -1.
        2   -1    0    0  501    0  0.00000000000E+00  0.00000000000E+00 -0.20939021478E+04  0.20939021478E+04  0.25500000920E-02 0.  1.
    10030    2    1    2    0    0  0.00000000000E+00  0.00000000000E+00 -0.17116957535E+04  0.24761085421E+04  0.17891928794E+04 0.  0.
        4    1    3    3  502    0 -0.59631750232E+03 -0.59251114621E+03 -0.43236425128E+03  0.94530655379E+03  0.12699999809E+01 0. -1.
       -4    1    3    3    0  502  0.59631750232E+03  0.59251114621E+03 -0.12793315023E+04  0.15308019883E+04  0.12699999809E+01 0.  1.
</event>
<event>
 5   0  0.3575091E-04  0.1797545E+04  0.7818609E-02  0.8707606E-01
       -2   -1    0    0    0  501  0.00000000000E+00  0.00000000000E+00  0.33481059035E+03  0.33481059036E+03  0.25500000920E-02 0. -1.
        2   -1    0    0  501    0  0.00000000000E+00  0.00000000000E+00 -0.24126840876E+04  0.24126840876E+04  0.25500000920E-02 0.  1.
    10030    2    1    2    0    0  0.00000000000E+00  0.00000000000E+00 -0.20778734972E+04  0.27474946780E+04  0.17975451969E+04 0.  0.
        5    1    3    3  502    0  0.65409402873E+03 -0.52465990839E+03 -0.15334225066E+04  0.17477167080E+04  0.46999998093E+01 0. -1.
       -5    1    3    3    0  502 -0.65409402873E+03  0.52465990839E+03 -0.54445099068E+03  0.99977796993E+03  0.46999998093E+01 0.  1.
</event>
<event>
 5   0  0.1825253E-04  0.1752756E+04  0.7818609E-02  0.8731835E-01
        1   -1    0    0  501    0  0.00000000000E+00  0.00000000000E+00  0.19953651764E+04  0.19953651765E+04  0.50400001928E-02 0.  1.
       -1   -1    0    0    0  501  0.00000000000E+00  0.00000000000E+00 -0.38491128140E+03  0.38491128143E+03  0.50400001928E-02 0. -1.
    10030    2    1    2    0    0  0.00000000000E+00  0.00000000000E+00  0.16104538950E+04  0.23802764579E+04  0.17527561918E+04 0.  0.
        4    1    3    3  502    0  0.69446691124E+03 -0.11284876162E+03  0.95646910510E+02  0.71004864495E+03  0.12699999809E+01 0. -1.
       -4    1    3    3    0  502 -0.69446691124E+03  0.11284876162E+03  0.15148069845E+04  0.16702278129E+04  0.12699999809E+01 0.  1.
</event>
<event>
 5   0  0.3531266E-04  0.1762658E+04  0.7818609E-02  0.8726413E-01
        2   -1    0    0  501    0  0.00000000000E+00  0.00000000000E+00  0.62701647466E+03  0.62701647467E+03  0.25500000920E-02 0.  1.
       -2   -1    0    0    0  501  0.00000000000E+00  0.00000000000E+00 -0.12387890439E+04  0.12387890439E+04  0.25500000920E-02 0. -1.
    10030    2    1    2    0    0  0.00000000000E+00  0.00000000000E+00 -0.61177256924E+03  0.18658055186E+04  0.17626583778E+04 0.  0.
        3    1    3    3  502    0 -0.36017800766E+03  0.70377146278E+03  0.10641788122E+03  0.79771376111E+03  0.10100000352E+00 0. -1.
       -3    1    3    3    0  502  0.36017800766E+03 -0.70377146278E+03 -0.71819045046E+03  0.10680917575E+04  0.10100000352E+00 0.  1.
</event>
<event>
 5   0  0.3568870E-04  0.1784144E+04  0.7818609E-02  0.8714777E-01
       -2   -1    0    0    0  501  0.00000000000E+00  0.00000000000E+00  0.51043387768E+03  0.51043387768E+03  0.25500000920E-02 0. -1.
        2   -1    0    0  501    0  0.00000000000E+00  0.00000000000E+00 -0.15590512007E+04  0.15590512007E+04  0.25500000920E-02 0.  1.
    10030    2    1    2    0    0  0.00000000000E+00  0.00000000000E+00 -0.10486173230E+04  0.20694850784E+04  0.17841441084E+04 0.  0.
        1    1    3    3  502    0  0.49440585983E+03 -0.13997843013E+03 -0.13701536645E+04  0.14633359763E+04  0.50400001928E-02 0.  1.
       -1    1    3    3    0  502 -0.49440585983E+03  0.13997843013E+03  0.32153634144E+03  0.60614910214E+03  0.50400001928E-02 0. -1.
</event>
<event>
 5   0  0.3628581E-04  0.1618136E+04  0.7818609E-02  0.8809483E-01
       -2   -1    0    0    0  501  0.00000000000E+00  0.00000000000E+00  0.74502428385E+03  0.74502428385E+03  0.25500000920E-02 0. -1.
        2   -1    0    0  501    0  0.00000000000E+00  0.00000000000E+00 -0.87861656934E+03  0.87861656935E+03  0.25500000920E-02 0.  1.
    10030    2    1    2    0    0  0.00000000000E+00  0.00000000000E+00 -0.13359228550E+03  0.16236408532E+04  0.16181355695E+04 0.  0.
        2    1    3    3  502    0 -0.29757028762E+03  0.24495845296E+03  0.64698753744E+03  0.75309069398E+03  0.25500000920E-02 0. -1.
       -2    1    3    3    0  502  0.29757028762E+03 -0.24495845296E+03 -0.78057982293E+03  0.87055015922E+03  0.25500000920E-02 0.  1.
</event>
<event>
 5   0  0.1330125E-04  0.1811204E+04  0.7818609E-02  0.8700364E-01
        4   -1    0    0  501    0  0.00000000000E+00  0.00000000000E+00  0.10195121437E+04  0.10195129347E+04  0.12699999809E+01 0. -1.
       -4   -1    0    0    0  501  0.00000000000E+00  0.00000000000E+00 -0.80441736534E+03  0.80441836787E+03  0.12699999809E+01 0.  1.
    10030    2    1    2    0    0  0.00000000000E+00  0.00000000000E+00  0.21509477831E+03  0.18239313025E+04  0.18112039180E+04 0.  0.
        4    1    3    3  502    0 -0.61869206448E+03  0.31198214676E+03  0.69474049376E+03  0.98121287044E+03  0.12699999809E+01 0. -1.
       -4    1    3    3    0  502  0.61869206448E+03 -0.31198214676E+03 -0.47964571545E+03  0.84271843210E+03  0.12699999809E+01 0.  1.
</event>
<event>
 5   0  0.1825253E-04  0.1781075E+04  0.7818609E-02  0.8716429E-01
       -1   -1    0    0    0  501  0.00000000000E+00  0.00000000000E+00  0.13423407053E+04  0.13423407053E+04  0.50400001928E-02 0.  1.
        1   -1    0    0  501    0  0.00000000000E+00  0.00000000000E+00 -0.59080147148E+03  0.59080147151E+03  0.50400001928E-02 0. -1.
    10030    2    1    2    0    0  0.00000000000E+00  0.00000000000E+00  0.75153923382E+03  0.19331421768E+04  0.17810748035E+04 0.  0.
        4    1    3    3  502    0 -0.19381859549E+03  0.23707864317E+03 -0.53185908482E+03  0.61371624552E+03  0.12699999809E+01 0. -1.
       -4    1    3    3    0  502  0.19381859549E+03 -0.23707864317E+03  0.12833983186E+04  0.13194259313E+04  0.12699999809E+01 0.  1.
</event>
<event>
 5   0  0.3575091E-04  0.1771947E+04  0.7818609E-02  0.8721361E-01
        2   -1    0    0  501    0  0.00000000000E+00  0.00000000000E+00  0.98615290529E+03  0.98615290530E+03  0.25500000920E-02 0. -1.
       -2   -1    0    0    0  501  0.00000000000E+00  0.00000000000E+00 -0.79597117294E+03  0.79597117295E+03  0.25500000920E-02 0.  1.
    10030    2    1    2    0    0  0.00000000000E+00  0.00000000000E+00  0.19018173235E+03  0.17821240782E+04  0.17719472732E+04 0.  0.
        5    1    3    3  502    0  0.86173616917E+03 -0.37652285295E+02 -0.10835853437E+03  0.86935066677E+03  0.46999998093E+01 0. -1.
       -5    1    3    3    0  502 -0.86173616917E+03  0.37652285295E+02  0.29854026672E+03  0.91277341148E+03  0.46999998093E+01 0.  1.
</event>
<event>
 5   0  0.3575091E-04  0.1811739E+04  0.7818609E-02  0.8700081E-01
        2   -1    0    0  501    0  0.00000000000E+00  0.00000000000E+00  0.21798397829E+04  0.21798397829E+04  0.25500000920E-02 0. -1.
       -2   -1    0    0    0  501  0.00000000000E+00  0.00000000000E+00 -0.37644967757E+03  0.37644967758E+03  0.25500000920E-02 0.  1.
    10030    2    1    2    0    0  0.00000000000E+00  0.00000000000E+00  0.18033901054E+04  0.25562894605E+04  0.18117394774E+04 0.  0.
        5    1    3    3  502    0 -0.16716395042E+03  0.86438652308E+03  0.60082637455E+03  0.10658903649E+04  0.46999998093E+01 0.  1.
       -5    1    3    3    0  502  0.16716395042E+03 -0.86438652308E+03  0.12025637308E+04  0.14903990956E+04  0.46999998093E+01 0. -1.
</event>
<event>
 5   0  0.1883959E-04  0.1799669E+04  0.7818609E-02  0.8706476E-01
        1   -1    0    0  501    0  0.00000000000E+00  0.00000000000E+00  0.83821417451E+03  0.83821417453E+03  0.50400001928E-02 0. -1.
       -1   -1    0    0    0  501  0.00000000000E+00  0.00000000000E+00 -0.96598473258E+03  0.96598473260E+03  0.50400001928E-02 0.  1.
    10030    2    1    2    0    0  0.00000000000E+00  0.00000000000E+00 -0.12777055807E+03  0.18041989071E+04  0.17996689643E+04 0.  0.
        5    1    3    3  502    0  0.57282089850E+03 -0.68523050481E+03  0.46005314995E+02  0.89431717276E+03  0.46999998093E+01 0. -1.
       -5    1    3    3    0  502 -0.57282089850E+03  0.68523050481E+03 -0.17377587307E+03  0.90988173437E+03  0.46999998093E+01 0.  1.
</event>
<event>
 5   0  0.1825253E-04  0.1774097E+04  0.7818609E-02  0.8720197E-01
        1   -1    0    0  501    0  0.00000000000E+00  0.00000000000E+00  0.13346368433E+04  0.13346368433E+04  0.50400001928E-02 0. -1.
       -1   -1    0    0    0  501  0.00000000000E+00  0.00000000000E+00 -0.58956522705E+03  0.58956522707E+03  0.50400001928E-02 0.  1.
    10030    2    1    2    0    0  0.00000000000E+00  0.00000000000E+00  0.74507161624E+03  0.19242020704E+04  0.17740974873E+04 0.  0.
        4    1    3    3  502    0 -0.66968355675E+03  0.44389163066E+03 -0.35222379455E+02  0.80421270499E+03  0.12699999809E+01 0.  1.
       -4    1    3    3    0  502  0.66968355675E+03 -0.44389163066E+03  0.78029399570E+03  0.11199893654E+04  0.12699999809E+01 0. -1.
</event>
<event>
 5   0  0.1818778E-04  0.1805795E+04  0.7818609E-02  0.8703224E-01
       -1   -1    0    0    0  501  0.00000000000E+00  0.00000000000E+00  0.82022727829E+03  0.82022727831E+03  0.50400001928E-02 0. -1.
        1   -1    0    0  501    0  0.00000000000E+00  0.00000000000E+00 -0.99390005230E+03  0.99390005231E+03  0.50400001928E-02 0.  1.
    10030    2    1    2    0    0  0.00000000000E+00  0.00000000000E+00 -0.17367277400E+03  0.18141273306E+04  0.18057950435E+04 0.  0.
        3    1    3    3  502    0  0.50857494750E+03 -0.74272690245E+03 -0.15739003313E+03  0.91381801338E+03  0.10100000352E+00 0.  1.
       -3    1    3    3    0  502 -0.50857494750E+03  0.74272690245E+03 -0.16282740877E+02  0.90030931724E+03  0.10100000352E+00 0. -1.
</event>
<event>
 5   0  0.1330125E-04  0.1790039E+04  0.7818609E-02  0.8711615E-01
       -3   -1    0    0    0  501  0.00000000000E+00  0.00000000000E+00  0.15275242184E+04  0.15275242217E+04  0.10100000352E+00 0.  1.
        3   -1    0    0  501    0  0.00000000000E+00  0.00000000000E+00 -0.52441722228E+03  0.52441723201E+03  0.10100000352E+00 0. -1.
    10030    2    1    2    0    0  0.00000000000E+00  0.00000000000E+00  0.10031069961E+04  0.20519414537E+04  0.17900391291E+04 0.  0.
        5    1    3    3  502    0 -0.81829981454E+03 -0.28631268445E+03  0.75645859767E+03  0.11505829999E+04  0.46999998093E+01 0. -1.
       -5    1    3    3    0  502  0.81829981454E+03  0.28631268445E+03  0.24664839839E+03  0.90135845377E+03  0.46999998093E+01 0.  1.
</event>
<event>
 5   0  0.1883959E-04  0.1838069E+04  0.7818609E-02  0.8686313E-01
       -1   -1    0    0    0  501  0.00000000000E+00  0.00000000000E+00  0.77375915659E+03  0.77375915661E+03  0.50400001928E-02 0.  1.
        1   -1    0    0  501    0  0.00000000000E+00  0.00000000000E+00 -0.10915857506E+04  0.10915857506E+04  0.50400001928E-02 0. -1.
    10030    2    1    2    0    0  0.00000000000E+00  0.00000000000E+00 -0.31782659400E+03  0.18653449072E+04  0.18380690626E+04 0.  0.
        5    1    3    3  502    0  0.51048550219E+03  0.35586074041E+03  0.52741386817E+03  0.81573267242E+03  0.46999998093E+01 0.  1.
       -5    1    3    3    0  502 -0.51048550219E+03 -0.35586074041E+03 -0.84524046218E+03  0.10496122348E+04  0.46999998093E+01 0. -1.
</event>
<event>
 5   0  0.1837313E-04  0.1801996E+04  0.7818609E-02  0.8705239E-01
        1   -1    0    0  501    0  0.00000000000E+00  0.00000000000E+00  0.12582440238E+04  0.12582440238E+04  0.50400001928E-02 0. -1.
       -1   -1    0    0    0  501  0.00000000000E+00  0.00000000000E+00 -0.64518295819E+03  0.64518295821E+03  0.50400001928E-02 0.  1.
    10030    2    1    2    0    0  0.00000000000E+00  0.00000000000E+00  0.61306106560E+03  0.19034269820E+04  0.18019962280E+04 0.  0.
        1    1    3    3  502    0 -0.44656204111E+02 -0.80338653402E+03 -0.12172033087E+03  0.81378125967E+03  0.50400001928E-02 0.  1.
       -1    1    3    3    0  502  0.44656204111E+02  0.80338653402E+03  0.73478139647E+03  0.10896457223E+04  0.50400001928E-02 0. -1.
</event>
<event>
 5   0  0.1330125E-04  0.1642745E+04  0.7818609E-02  0.8794710E-01
       -3   -1    0    0    0  501  0.00000000000E+00  0.00000000000E+00  0.44906962593E+03  0.44906963728E+03  0.10100000352E+00 0.  1.
        3   -1    0    0  501    0  0.00000000000E+00  0.00000000000E+00 -0.15023347238E+04  0.15023347272E+04  0.10100000352E+00 0. -1.
    10030    2    1    2    0    0  0.00000000000E+00  0.00000000000E+00 -0.10532650979E+04  0.19514043645E+04  0.16427451499E+04 0.  0.
        4    1    3    3  502    0 -0.64478043728E+03 -0.21804807980E+02 -0.11305143339E+04  0.13016457022E+04  0.12699999809E+01 0. -1.
       -4    1    3    3    0  502  0.64478043728E+03  0.21804807980E+02  0.77249235963E+02  0.64975866236E+03  0.12699999809E+01 0.  1.
</event>
<event>
 5   0  0.3568870E-04  0.1810226E+04  0.7818609E-02  0.8700880E-01
        2   -1    0    0  501    0  0.00000000000E+00  0.00000000000E+00  0.22621577450E+04  0.22621577450E+04  0.25500000920E-02 0. -1.
       -2   -1    0    0    0  501  0.00000000000E+00  0.00000000000E+00 -0.36214508406E+03  0.36214508407E+03  0.25500000920E-02 0.  1.
    10030    2    1    2    0    0  0.00000000000E+00  0.00000000000E+00  0.19000126610E+04  0.26243028291E+04  0.18102257392E+04 0.  0.
        1    1    3    3  502    0 -0.13511773445E+02  0.81781010279E+03  0.38809935427E+03  0.90532703541E+03  0.50400001928E-02 0.  1.
       -1    1    3    3    0  502  0.13511773445E+02 -0.81781010279E+03  0.15119133067E+04  0.17189757937E+04  0.50400001928E-02 0. -1.
</event>
<event>
 5   0  0.1837313E-04  0.1798652E+04  0.7818609E-02  0.8707017E-01
       -1   -1    0    0    0  501  0.00000000000E+00  0.00000000000E+00  0.90173379658E+03  0.90173379660E+03  0.50400001928E-02 0.  1.
        1   -1    0    0  501    0  0.00000000000E+00  0.00000000000E+00 -0.89692465957E+03  0.89692465959E+03  0.50400001928E-02 0. -1.
    10030    2    1    2    0    0  0.00000000000E+00  0.00000000000E+00  0.48091370067E+01  0.17986584562E+04  0.17986520270E+04 0.  0.
        1    1    3    3  502    0  0.36436952928E+03 -0.48651037720E+02  0.82317251201E+03  0.90152374450E+03  0.50400001928E-02 0.  1.
       -1    1    3    3    0  502 -0.36436952928E+03  0.48651037720E+02 -0.81836337500E+03  0.89713471169E+03  0.50400001928E-02 0. -1.
</event>
<event>
 5   0  0.3582186E-04  0.1808353E+04  0.7818609E-02  0.8701870E-01
       -2   -1    0    0    0  501  0.00000000000E+00  0.00000000000E+00  0.58132142618E+03  0.58132142618E+03  0.25500000920E-02 0.  1.
        2   -1    0    0  501    0  0.00000000000E+00  0.00000000000E+00 -0.14063395527E+04  0.14063395527E+04  0.25500000920E-02 0. -1.
    10030    2    1    2    0    0  0.00000000000E+00  0.00000000000E+00 -0.82501812651E+03  0.19876609789E+04  0.18083531895E+04 0.  0.
        4    1    3    3  502    0  0.24060101259E+02 -0.35139157705E+03 -0.13278347315E+04  0.13737545690E+04  0.12699999809E+01 0. -1.
       -4    1    3    3    0  502 -0.24060101259E+02  0.35139157705E+03  0.50281660498E+03  0.61390640984E+03  0.12699999809E+01 0.  1.
</event>
<event>
 5   0  0.3575091E-04  0.1803622E+04  0.7818609E-02  0.8704376E-01
       -2   -1    0    0    0  501  0.00000000000E+00  0.00000000000E+00  0.11091111850E+04  0.11091111850E+04  0.25500000920E-02 0.  1.
        2   -1    0    0  501    0  0.00000000000E+00  0.00000000000E+00 -0.73325684140E+03  0.73325684141E+03  0.25500000920E-02 0. -1.
    10030    2    1    2    0    0  0.00000000000E+00  0.00000000000E+00  0.37585434359E+03  0.18423680264E+04  0.18036223155E+04 0.  0.
        5    1    3    3  502    0  0.34743827582E+03 -0.59140948728E+03 -0.41010918770E+03  0.79918093883E+03  0.46999998093E+01 0. -1.
       -5    1    3    3    0  502 -0.34743827582E+03  0.59140948728E+03  0.78596353129E+03  0.10431870876E+04  0.46999998093E+01 0.  1.
</event>
<event>
 5   0  0.1835421E-04  0.1791043E+04  0.7818609E-02  0.8711077E-01
       -1   -1    0    0    0  501  0.00000000000E+00  0.00000000000E+00  0.72100221844E+03  0.72100221845E+03  0.50400001928E-02 0. -1.
        1   -1    0    0  501    0  0.00000000000E+00  0.00000000000E+00 -0.11122831778E+04  0.11122831778E+04  0.50400001928E-02 0.  1.
    10030    2    1    2    0    0  0.00000000000E+00  0.00000000000E+00 -0.39128095938E+03  0.18332853963E+04  0.17910428680E+04 0.  0.
        2    1    3    3  502    0  0.14068837149E+03 -0.32266691477E+03  0.64721949998E+03  0.73674977905E+03  0.25500000920E-02 0. -1.
       -2    1    3    3    0  502 -0.14068837149E+03  0.32266691477E+03 -0.10385004594E+04  0.10965356172E+04  0.25500000920E-02 0.  1.
</event>
<event>
 5   0  0.1837313E-04  0.1721174E+04  0.7818609E-02  0.8749379E-01
        1   -1    0    0  501    0  0.00000000000E+00  0.00000000000E+00  0.22182645534E+04  0.22182645534E+04  0.50400001928E-02 0. -1.
       -1   -1    0    0    0  501  0.00000000000E+00  0.00000000000E+00 -0.33386901610E+03  0.33386901614E+03  0.50400001928E-02 0.  1.
    10030    2    1    2    0    0  0.00000000000E+00  0.00000000000E+00  0.18843955373E+04  0.25521335695E+04  0.17211737901E+04 0.  0.
        1    1    3    3  502    0 -0.11133039431E+03 -0.50098450594E+03 -0.82138349363E+02  0.51973708772E+03  0.50400001928E-02 0.  1.
       -1    1    3    3    0  502  0.11133039431E+03  0.50098450594E+03  0.19665338866E+04  0.20323964818E+04  0.50400001928E-02 0. -1.
</event>
<event>
 5   0  0.3628581E-04  0.1784258E+04  0.7818609E-02  0.8714716E-01
        2   -1    0    0  501    0  0.00000000000E+00  0.00000000000E+00  0.94490627281E+03  0.94490627282E+03  0.25500000920E-02 0. -1.
       -2   -1    0    0    0  501  0.00000000000E+00  0.00000000000E+00 -0.84229992730E+03  0.84229992730E+03  0.25500000920E-02 0.  1.
    10030    2    1    2    0    0  0.00000000000E+00  0.00000000000E+00  0.10260634551E+03  0.17872062001E+04  0.17842583724E+04 0.  0.
        2    1    3    3  502    0 -0.20089735061E+03 -0.48382166212E+03  0.77461207863E+03  0.93512941275E+03  0.25500000920E-02 0. -1.
       -2    1    3    3    0  502  0.20089735061E+03  0.48382166212E+03 -0.67200573312E+03  0.85207678737E+03  0.25500000920E-02 0.  1.
</event>
<event>
 5   0  0.1818778E-04  0.1787016E+04  0.7818609E-02  0.8713235E-01
        1   -1    0    0  501    0  0.00000000000E+00  0.00000000000E+00  0.15044517330E+04  0.15044517330E+04  0.50400001928E-02 0. -1.
       -1   -1    0    0    0  501  0.00000000000E+00  0.00000000000E+00 -0.53066254475E+03  0.53066254477E+03  0.50400001928E-02 0.  1.
    10030    2    1    2    0    0  0.00000000000E+00  0.00000000000E+00  0.97378918820E+03  0.20351142777E+04  0.17870155960E+04 0.  0.
        3    1    3    3  502    0 -0.11447649270E+03  0.64664358535E+02 -0.51958596206E+03  0.53596261886E+03  0.10100000352E+00 0.  1.
       -3    1    3    3    0  502  0.11447649270E+03 -0.64664358535E+02  0.14933751503E+04  0.14991516589E+04  0.10100000352E+00 0. -1.
</event>
<event>
 5   0  0.1818778E-04  0.1809976E+04  0.7818609E-02  0.8701012E-01
        1   -1    0    0  501    0  0.00000000000E+00  0.00000000000E+00  0.42241842342E+03  0.42241842345E+03  0.50400001928E-02 0. -1.
       -1   -1    0    0    0  501  0.00000000000E+00  0.00000000000E+00 -0.19388442135E+04  0.19388442136E+04  0.50400001928E-02 0.  1.
    10030    2    1    2    0    0  0.00000000000E+00  0.00000000000E+00 -0.15164257901E+04  0.23612626370E+04  0.18099762606E+04 0.  0.
        3    1    3    3  502    0  0.31042104709E+03 -0.19873802525E+03  0.32005832814E+03  0.48815507041E+03  0.10100000352E+00 0. -1.
       -3    1    3    3    0  502 -0.31042104709E+03  0.19873802525E+03 -0.18364841183E+04  0.18731075666E+04  0.10100000352E+00 0.  1.
</event>
<event>
 5   0  0.3628581E-04  0.1788011E+04  0.7818609E-02  0.8712701E-01
       -2   -1    0    0    0  501  0.00000000000E+00  0.00000000000E+00  0.83618490820E+03  0.83618490821E+03  0.25500000920E-02 0. -1.
        2   -1    0    0  501    0  0.00000000000E+00  0.00000000000E+00 -0.95582450999E+03  0.95582450999E+03  0.25500000920E-02 0.  1.
    10030    2    1    2    0    0  0.00000000000E+00  0.00000000000E+00 -0.11963960179E+03  0.17920094182E+04  0.17880112194E+04 0.  0.
        2    1    3    3  502    0  0.52783786384E+03  0.59935062244E+03  0.34283976990E+03  0.86912202075E+03  0.25500000920E-02 0. -1.
       -2    1    3    3    0  502 -0.52783786384E+03 -0.59935062244E+03 -0.46247937168E+03  0.92288739745E+03  0.25500000920E-02 0.  1.
</event>
<event>
 5   0  0.1818778E-04  0.1808094E+04  0.7818609E-02  0.8702007E-01
        1   -1    0    0  501    0  0.00000000000E+00  0.00000000000E+00  0.65983389549E+03  0.65983389551E+03  0.50400001928E-02 0. -1.
       -1   -1    0    0    0  501  0.00000000000E+00  0.00000000000E+00 -0.12386465324E+04  0.12386465325E+04  0.50400001928E-02 0.  1.
    10030    2    1    2    0    0  0.00000000000E+00  0.00000000000E+00 -0.57881263695E+03  0.18984804280E+04  0.18080939872E+04 0.  0.
        3    1    3    3  502    0 -0.34716688148E+03  0.45276996898E+03  0.44691699692E+03  0.72474843963E+03  0.10100000352E+00 0. -1.
       -3    1    3    3    0  502  0.34716688148E+03 -0.45276996898E+03 -0.10257296339E+04  0.11737319883E+04  0.10100000352E+00 0.  1.
</event>
<event>
 5   0  0.3531266E-04  0.1773303E+04  0.7818609E-02  0.8720627E-01
       -2   -1    0    0    0  501  0.00000000000E+00  0.00000000000E+00  0.77395076396E+03  0.77395076397E+03  0.25500000920E-02 0.  1.
        2   -1    0    0  501    0  0.00000000000E+00  0.00000000000E+00 -0.10157631231E+04  0.10157631232E+04  0.25500000920E-02 0. -1.
    10030    2    1    2    0    0  0.00000000000E+00  0.00000000000E+00 -0.24181235918E+03  0.17897138871E+04  0.17733027324E+04 0.  0.
        3    1    3    3  502    0 -0.78591449543E+02 -0.11941042455E+03  0.76224357015E+03  0.77553254985E+03  0.10100000352E+00 0.  1.
       -3    1    3    3    0  502  0.78591449543E+02  0.11941042455E+03 -0.10040559293E+04  0.10141813373E+04  0.10100000352E+00 0. -1.
</event>
<event>
 5   0  0.3531266E-04  0.1824170E+04  0.7818609E-02  0.8693551E-01
        2   -1    0    0  501    0  0.00000000000E+00  0.00000000000E+00  0.11823683179E+04  0.11823683179E+04  0.25500000920E-02 0. -1.
       -2   -1    0    0    0  501  0.00000000000E+00  0.00000000000E+00 -0.70358727868E+03  0.70358727869E+03  0.25500000920E-02 0.  1.
    10030    2    1    2    0    0  0.00000000000E+00  0.00000000000E+00  0.47878103918E+03  0.18859555966E+04  0.18241702850E+04 0.  0.
        3    1    3    3  502    0  0.83923357551E+03 -0.24061624384E+03  0.51232079344E+03  0.10122656651E+04  0.10100000352E+00 0.  1.
       -3    1    3    3    0  502 -0.83923357551E+03  0.24061624384E+03 -0.33539754268E+02  0.87368993149E+03  0.10100000352E+00 0. -1.
</event>
<event>
 5   0  0.3628581E-04  0.1771103E+04  0.7818609E-02  0.8721819E-01
        2   -1    0    0  501    0  0.00000000000E+00  0.00000000000E+00  0.59003843873E+03  0.59003843874E+03  0.25500000920E-02 0.  1.
       -2   -1    0    0    0  501  0.00000000000E+00  0.00000000000E+00 -0.13290684285E+04  0.13290684285E+04  0.25500000920E-02 0. -1.
    10030    2    1    2    0    0  0.00000000000E+00  0.00000000000E+00 -0.73902998979E+03  0.19191068673E+04  0.17711030016E+04 0.  0.
        2    1    3    3  502    0 -0.28261272335E+03 -0.83863966384E+03 -0.40403678934E+03  0.97284745171E+03  0.25500000920E-02 0.  1.
       -2    1    3    3    0  502  0.28261272335E+03  0.83863966384E+03 -0.33499320046E+03  0.94625941555E+03  0.25500000920E-02 0. -1.
</event>
<event>
 5   0  0.1825253E-04  0.1809660E+04  0.7818609E-02  0.8701179E-01
       -1   -1    0    0    0  501  0.00000000000E+00  0.00000000000E+00  0.13377567179E+04  0.13377567179E+04  0.50400001928E-02 0. -1.
        1   -1    0    0  501    0  0.00000000000E+00  0.00000000000E+00 -0.61200783276E+03  0.61200783278E+03  0.50400001928E-02 0.  1.
    10030    2    1    2    0    0  0.00000000000E+00  0.00000000000E+00  0.72574888517E+03  0.19497645507E+04  0.18096602883E+04 0.  0.
        4    1    3    3  502    0 -0.87722947325E+03  0.18079820722E+03  0.22449225815E+03  0.92337312466E+03  0.12699999809E+01 0. -1.
       -4    1    3    3    0  502  0.87722947325E+03 -0.18079820722E+03  0.50125662701E+03  0.10263914261E+04  0.12699999809E+01 0.  1.
</event>
<event>
 5   0  0.3568870E-04  0.1778771E+04  0.7818609E-02  0.8717671E-01
        2   -1    0    0  501    0  0.00000000000E+00  0.00000000000E+00  0.99231090538E+03  0.99231090538E+03  0.25500000920E-02 0. -1.
       -2   -1    0    0    0  501  0.00000000000E+00  0.00000000000E+00 -0.79713538810E+03  0.79713538811E+03  0.25500000920E-02 0.  1.
    10030    2    1    2    0    0  0.00000000000E+00  0.00000000000E+00  0.19517551727E+03  0.17894462935E+04  0.17787705177E+04 0.  0.
        1    1    3    3  502    0  0.61079566975E+03 -0.44300797169E+02  0.74641774634E+03  0.96549125470E+03  0.50400001928E-02 0. -1.
       -1    1    3    3    0  502 -0.61079566975E+03  0.44300797169E+02 -0.55124222907E+03  0.82395503879E+03  0.50400001928E-02 0.  1.
</event>
<event>
 5   0  0.3628581E-04  0.1826886E+04  0.7818609E-02  0.8692131E-01
       -2   -1    0    0    0  501  0.00000000000E+00  0.00000000000E+00  0.85518408952E+03  0.85518408952E+03  0.25500000920E-02 0.  1.
        2   -1    0    0  501    0  0.00000000000E+00  0.00000000000E+00 -0.97567125231E+03  0.97567125231E+03  0.25500000920E-02 0. -1.
    10030    2    1    2    0    0  0.00000000000E+00  0.00000000000E+00 -0.12048716279E+03  0.18308553418E+04  0.18268864569E+04 0.  0.
        2    1    3    3  502    0 -0.45807421719E+03 -0.38397323314E+03 -0.75247647961E+03  0.96098297831E+03  0.25500000920E-02 0. -1.
       -2    1    3    3    0  502  0.45807421719E+03  0.38397323314E+03  0.63198931683E+03  0.86987236352E+03  0.25500000920E-02 0.  1.
</event>
<event>
 5   0  0.3568870E-04  0.1815113E+04  0.7818609E-02  0.8698304E-01
        2   -1    0    0  501    0  0.00000000000E+00  0.00000000000E+00  0.64210291532E+03  0.64210291532E+03  0.25500000920E-02 0. -1.
       -2   -1    0    0    0  501  0.00000000000E+00  0.00000000000E+00 -0.12827517675E+04  0.12827517675E+04  0.25500000920E-02 0.  1.
    10030    2    1    2    0    0  0.00000000000E+00  0.00000000000E+00 -0.64064885217E+03  0.19248546828E+04  0.18151128335E+04 0.  0.
        1    1    3    3  502    0 -0.85199297062E+03 -0.29856726066E+03 -0.41880582143E+03  0.99520487700E+03  0.50400001928E-02 0.  1.
       -1    1    3    3    0  502  0.85199297062E+03  0.29856726066E+03 -0.22184303074E+03  0.92964980581E+03  0.50400001928E-02 0. -1.
</event>
<event>
 5   0  0.3531266E-04  0.1868261E+04  0.7818609E-02  0.8670818E-01
       -2   -1    0    0    0  501  0.00000000000E+00  0.00000000000E+00  0.71281025912E+03  0.71281025912E+03  0.25500000920E-02 0.  1.
        2   -1    0    0  501    0  0.00000000000E+00  0.00000000000E+00 -0.12241685980E+04  0.12241685980E+04  0.25500000920E-02 0. -1.
    10030    2    1    2    0    0  0.00000000000E+00  0.00000000000E+00 -0.51135833892E+03  0.19369788572E+04  0.18682611547E+04 0.  0.
        3    1    3    3  502    0 -0.77162666388E+03 -0.48776780295E+03 -0.50211158136E+02  0.91424630632E+03  0.10100000352E+00 0.  1.
       -3    1    3    3    0  502  0.77162666388E+03  0.48776780295E+03 -0.46114718079E+03  0.10227325508E+04  0.10100000352E+00 0. -1.
</event>
<event>
 5   0  0.1330125E-04  0.1919199E+04  0.7818609E-02  0.8645359E-01
       -4   -1    0    0    0  501  0.00000000000E+00  0.00000000000E+00  0.10763372345E+04  0.10763379838E+04  0.12699999809E+01 0. -1.
        4   -1    0    0  501    0  0.00000000000E+00  0.00000000000E+00 -0.85552110669E+03  0.85552204934E+03  0.12699999809E+01 0.  1.
    10030    2    1    2    0    0  0.00000000000E+00  0.00000000000E+00  0.22081612784E+03  0.19318600331E+04  0.19191986414E+04 0.  0.
        5    1    3    3  502    0  0.56505352211E+03 -0.12605601007E+03  0.88072343181E+03  0.10539788678E+04  0.46999998093E+01 0. -1.
       -5    1    3    3    0  502 -0.56505352211E+03  0.12605601007E+03 -0.65990730397E+03  0.87788116528E+03  0.46999998093E+01 0.  1.
</event>
<event>
 5   0  0.3568870E-04  0.2006614E+04  0.7818609E-02  0.8603534E-01
        2   -1    0    0  501    0  0.00000000000E+00  0.00000000000E+00  0.15618674564E+04  0.15618674564E+04  0.25500000920E-02 0.  1.
       -2   -1    0    0    0  501  0.00000000000E+00  0.00000000000E+00 -0.64450114685E+03  0.64450114686E+03  0.25500000920E-02 0. -1.
    10030    2    1    2    0    0  0.00000000000E+00  0.00000000000E+00  0.91736630957E+03  0.22063686033E+04  0.20066144292E+04 0.  0.
        1    1    3    3  502    0 -0.85136122084E+03  0.50493767292E+03  0.27852035043E+03  0.10282760172E+04  0.50400001928E-02 0. -1.
       -1    1    3    3    0  502  0.85136122084E+03 -0.50493767292E+03  0.63884595914E+03  0.11780925861E+04  0.50400001928E-02 0.  1.
</event>
<event>
 5   0  0.3582186E-04  0.1843963E+04  0.7818609E-02  0.8683264E-01
        2   -1    0    0  501    0  0.00000000000E+00  0.00000000000E+00  0.98063344433E+03  0.98063344434E+03  0.25500000920E-02 0.  1.
       -2   -1    0    0    0  501  0.00000000000E+00  0.00000000000E+00 -0.86683731282E+03  0.86683731283E+03  0.25500000920E-02 0. -1.
    10030    2    1    2    0    0  0.00000000000E+00  0.00000000000E+00  0.11379613151E+03  0.18474707572E+04  0.18439627542E+04 0.  0.
        4    1    3    3  502    0 -0.25930467130E+03 -0.64467602179E+03  0.66402279711E+03  0.96113161098E+03  0.12699999809E+01 0.  1.
       -4    1    3    3    0  502  0.25930467130E+03  0.64467602179E+03 -0.55022666560E+03  0.88633914619E+03  0.12699999809E+01 0. -1.
</event>
<event>
 5   0  0.1837313E-04  0.1785152E+04  0.7818609E-02  0.8714236E-01
        1   -1    0    0  501    0  0.00000000000E+00  0.00000000000E+00  0.10312240958E+04  0.10312240958E+04  0.50400001928E-02 0.  1.
       -1   -1    0    0    0  501  0.00000000000E+00  0.00000000000E+00 -0.77256902821E+03  0.77256902823E+03  0.50400001928E-02 0. -1.
    10030    2    1    2    0    0  0.00000000000E+00  0.00000000000E+00  0.25865506759E+03  0.18037931240E+04  0.17851518676E+04 0.  0.
        1    1    3    3  502    0  0.12415045929E+03 -0.17443393817E+03 -0.74623771500E+03  0.77634480911E+03  0.50400001928E-02 0. -1.
       -1    1    3    3    0  502 -0.12415045929E+03  0.17443393817E+03  0.10048927826E+04  0.10274483149E+04  0.50400001928E-02 0.  1.
</event>
<event>
 5   0  0.1835421E-04  0.1737141E+04  0.7818609E-02  0.8740460E-01
       -1   -1    0    0    0  501  0.00000000000E+00  0.00000000000E+00  0.73006042656E+03  0.73006042658E+03  0.50400001928E-02 0. -1.
        1   -1    0    0  501    0  0.00000000000E+00  0.00000000000E+00 -0.10333595251E+04  0.10333595251E+04  0.50400001928E-02 0.  1.
    10030    2    1    2    0    0  0.00000000000E+00  0.00000000000E+00 -0.30329909851E+03  0.17634199517E+04  0.17371412098E+04 0.  0.
        2    1    3    3  502    0  0.53075538606E+03 -0.47050108407E+03 -0.66057416698E+03  0.96924237424E+03  0.25500000920E-02 0.  1.
       -2    1    3    3    0  502 -0.53075538606E+03  0.47050108407E+03  0.35727506847E+03  0.79417757743E+03  0.25500000920E-02 0. -1.
</event>
<event>
 5   0  0.1883959E-04  0.1788663E+04  0.7818609E-02  0.8712352E-01
        1   -1    0    0  501    0  0.00000000000E+00  0.00000000000E+00  0.13372460514E+04  0.13372460514E+04  0.50400001928E-02 0.  1.
       -1   -1    0    0    0  501  0.00000000000E+00  0.00000000000E+00 -0.59811652750E+03  0.59811652752E+03  0.50400001928E-02 0. -1.
    10030    2    1    2    0    0  0.00000000000E+00  0.00000000000E+00  0.73912952387E+03  0.19353625789E+04  0.17886631485E+04 0.  0.
        5    1    3    3  502    0 -0.38200523625E+03 -0.80103842899E+03  0.24997230370E+03  0.92200803025E+03  0.46999998093E+01 0. -1.
       -5    1    3    3    0  502  0.38200523625E+03  0.80103842899E+03  0.48915722018E+03  0.10133545487E+04  0.46999998093E+01 0.  1.
</event>
<event>
 5   0  0.1330125E-04  0.1672375E+04  0.7818609E-02  0.8777279E-01
       -3   -1    0    0    0  501  0.00000000000E+00  0.00000000000E+00  0.40415636596E+03  0.40415637858E+03  0.10100000352E+00 0. -1.
        3   -1    0    0  501    0  0.00000000000E+00  0.00000000000E+00 -0.17300472693E+04  0.17300472722E+04  0.10100000352E+00 0.  1.
    10030    2    1    2    0    0  0.00000000000E+00  0.00000000000E+00 -0.13258909033E+04  0.21342036508E+04  0.16723751181E+04 0.  0.
        2    1    3    3  502    0  0.60386146133E+03 -0.52199938423E+03 -0.34498752009E+03  0.86956794481E+03  0.25500000920E-02 0. -1.
       -2    1    3    3    0  502 -0.60386146133E+03  0.52199938423E+03 -0.98090338321E+03  0.12646357060E+04  0.25500000920E-02 0.  1.
</event>
<event>
 5   0  0.1818778E-04  0.1790069E+04  0.7818609E-02  0.8711599E-01
        1   -1    0    0  501    0  0.00000000000E+00  0.00000000000E+00  0.94125035251E+03  0.94125035253E+03  0.50400001928E-02 0.  1.
       -1   -1    0    0    0  501  0.00000000000E+00  0.00000000000E+00 -0.85108752318E+03  0.85108752319E+03  0.50400001928E-02 0. -1.
    10030    2    1    2    0    0  0.00000000000E+00  0.00000000000E+00  0.90162829338E+02  0.17923378757E+04  0.17900686369E+04 0.  0.
        3    1    3    3  502    0  0.84874324538E+03  0.27997842070E+03  0.93448016720E+02  0.89860200014E+03  0.10100000352E+00 0.  1.
       -3    1    3    3    0  502 -0.84874324538E+03 -0.27997842070E+03 -0.32851873822E+01  0.89373587557E+03  0.10100000352E+00 0. -1.
</event>
<event>
 5   0  0.3582186E-04  0.1793225E+04  0.7818609E-02  0.8709911E-01
       -2   -1    0    0    0  501  0.00000000000E+00  0.00000000000E+00  0.13095274443E+04  0.13095274443E+04  0.25500000920E-02 0.  1.
        2   -1    0    0  501    0  0.00000000000E+00  0.00000000000E+00 -0.61389641825E+03  0.61389641826E+03  0.25500000920E-02 0. -1.
    10030    2    1    2    0    0  0.00000000000E+00  0.00000000000E+00  0.69563102603E+03  0.19234238625E+04  0.17932252593E+04 0.  0.
        4    1    3    3  502    0  0.26192790500E+03  0.31776025070E+03 -0.50646287129E+03  0.65275114496E+03  0.12699999809E+01 0. -1.
       -4    1    3    3    0  502 -0.26192790500E+03 -0.31776025070E+03  0.12020938973E+04  0.12706727176E+04  0.12699999809E+01 0.  1.
</event>
<event>
 5   0  0.1837313E-04  0.1775077E+04  0.7818609E-02  0.8719667E-01
        1   -1    0    0  501    0  0.00000000000E+00  0.00000000000E+00  0.10924694702E+04  0.10924694702E+04  0.50400001928E-02 0.  1.
       -1   -1    0    0    0  501  0.00000000000E+00  0.00000000000E+00 -0.72104923345E+03  0.72104923347E+03  0.50400001928E-02 0. -1.
    10030    2    1    2    0    0  0.00000000000E+00  0.00000000000E+00  0.37142023677E+03  0.18135187037E+04  0.17750766452E+04 0.  0.
        1    1    3    3  502    0 -0.48517150642E+03  0.71435798345E+03  0.39515109644E+03  0.94965420454E+03  0.50400001928E-02 0.  1.
       -1    1    3    3    0  502  0.48517150642E+03 -0.71435798345E+03 -0.23730859677E+02  0.86386449915E+03  0.50400001928E-02 0. -1.
</event>
<event>
 5   0  0.3575091E-04  0.1809657E+04  0.7818609E-02  0.8701181E-01
        2   -1    0    0  501    0  0.00000000000E+00  0.00000000000E+00  0.17733725592E+04  0.17733725592E+04  0.25500000920E-02 0. -1.
       -2   -1    0    0    0  501  0.00000000000E+00  0.00000000000E+00 -0.46167100935E+03  0.46167100936E+03  0.25500000920E-02 0.  1.
    10030    2    1    2    0    0  0.00000000000E+00  0.00000000000E+00  0.13117015499E+04  0.22350435686E+04  0.18096570939E+04 0.  0.
        5    1    3    3  502    0 -0.25489136702E+03  0.11937722602E+03  0.17179145445E+04  0.17408253799E+04  0.46999998093E+01 0. -1.
       -5    1    3    3    0  502  0.25489136702E+03 -0.11937722602E+03 -0.40621299460E+03  0.49421818871E+03  0.46999998093E+01 0.  1.
</event>
<event>
 5   0  0.3575091E-04  0.1786461E+04  0.7818609E-02  0.8713532E-01
        2   -1    0    0  501    0  0.00000000000E+00  0.00000000000E+00  0.70348185982E+03  0.70348185983E+03  0.25500000920E-02 0.  1.
       -2   -1    0    0    0  501  0.00000000000E+00  0.00000000000E+00 -0.11341602387E+04  0.11341602387E+04  0.25500000920E-02 0. -1.
    10030    2    1    2    0    0  0.00000000000E+00  0.00000000000E+00 -0.43067837889E+03  0.18376420985E+04  0.17864614791E+04 0.  0.
        5    1    3    3  502    0 -0.16542150772E+03  0.82501751101E+03 -0.52362672463E+03  0.99107275486E+03  0.46999998093E+01 0. -1.
       -5    1    3    3    0  502  0.16542150772E+03 -0.82501751101E+03  0.92948345738E+02  0.84656934368E+03  0.46999998093E+01 0.  1.
</event>
<event>
 5   0  0.3575091E-04  0.1810808E+04  0.7818609E-02  0.8700573E-01
        2   -1    0    0  501    0  0.00000000000E+00  0.00000000000E+00  0.92849041936E+03  0.92849041937E+03  0.25500000920E-02 0. -1.
       -2   -1    0    0    0  501  0.00000000000E+00  0.00000000000E+00 -0.88289203314E+03  0.88289203315E+03  0.25500000920E-02 0.  1.
    10030    2    1    2    0    0  0.00000000000E+00  0.00000000000E+00  0.45598386219E+02  0.18113824525E+04  0.18108084317E+04 0.  0.
        5    1    3    3  502    0 -0.89465690067E+03 -0.35472419654E+02 -0.11165115768E+03  0.90230667375E+03  0.46999998093E+01 0.  1.
       -5    1    3    3    0  502  0.89465690067E+03  0.35472419654E+02  0.15724954390E+03  0.90907577876E+03  0.46999998093E+01 0. -1.
</event>
<event>
 5   0  0.3628581E-04  0.1779551E+04  0.7818609E-02  0.8717250E-01
        2   -1    0    0  501    0  0.00000000000E+00  0.00000000000E+00  0.77423761803E+03  0.77423761803E+03  0.25500000920E-02 0. -1.
       -2   -1    0    0    0  501  0.00000000000E+00  0.00000000000E+00 -0.10225543954E+04  0.10225543954E+04  0.25500000920E-02 0.  1.
    10030    2    1    2    0    0  0.00000000000E+00  0.00000000000E+00 -0.24831677735E+03  0.17967920134E+04  0.17795505943E+04 0.  0.
        2    1    3    3  502    0  0.44579884765E+03 -0.14744881292E+03  0.63895671782E+03  0.79293344756E+03  0.25500000920E-02 0. -1.
       -2    1    3    3    0  502 -0.44579884765E+03  0.14744881292E+03 -0.88727349518E+03  0.10038585659E+04  0.25500000920E-02 0.  1.
</event>
<event>
 5   0  0.1825253E-04  0.1797762E+04  0.7818609E-02  0.8707490E-01
       -1   -1    0    0    0  501  0.00000000000E+00  0.00000000000E+00  0.10552397208E+04  0.10552397209E+04  0.50400001928E-02 0. -1.
        1   -1    0    0  501    0  0.00000000000E+00  0.00000000000E+00 -0.76569084169E+03  0.76569084171E+03  0.50400001928E-02 0.  1.
    10030    2    1    2    0    0  0.00000000000E+00  0.00000000000E+00  0.28954887915E+03  0.18209305626E+04  0.17977623759E+04 0.  0.
        4    1    3    3  502    0  0.42148590092E+03  0.40945388831E+03 -0.54419956285E+03  0.80091049964E+03  0.12699999809E+01 0.  1.
       -4    1    3    3    0  502 -0.42148590092E+03 -0.40945388831E+03  0.83374844200E+03  0.10200200629E+04  0.12699999809E+01 0. -1.
</event>
<event>
 5   0  0.3568870E-04  0.1792009E+04  0.7818609E-02  0.8710561E-01
       -2   -1    0    0    0  501  0.00000000000E+00  0.00000000000E+00  0.13977221565E+04  0.13977221565E+04  0.25500000920E-02 0.  1.
        2   -1    0    0  501    0  0.00000000000E+00  0.00000000000E+00 -0.57438016911E+03  0.57438016912E+03  0.25500000920E-02 0. -1.
    10030    2    1    2    0    0  0.00000000000E+00  0.00000000000E+00  0.82334198738E+03  0.19721023256E+04  0.17920088042E+04 0.  0.
        1    1    3    3  502    0  0.11564773653E+03 -0.63544398487E+03 -0.27175555838E+03  0.70072429700E+03  0.50400001928E-02 0. -1.
       -1    1    3    3    0  502 -0.11564773653E+03  0.63544398487E+03  0.10950975458E+04  0.12713780286E+04  0.50400001928E-02 0.  1.
</event>
<event>
 5   0  0.3575091E-04  0.1803568E+04  0.7818609E-02  0.8704405E-01
        2   -1    0    0  501    0  0.00000000000E+00  0.00000000000E+00  0.81650796810E+03  0.81650796811E+03  0.25500000920E-02 0.  1.
       -2   -1    0    0    0  501  0.00000000000E+00  0.00000000000E+00 -0.99596573464E+03  0.99596573464E+03  0.25500000920E-02 0. -1.
    10030    2    1    2    0    0  0.00000000000E+00  0.00000000000E+00 -0.17945776653E+03  0.18124737027E+04  0.18035675294E+04 0.  0.
        5    1    3    3  502    0  0.47352260207E+03 -0.20242013990E+03  0.65419298783E+03  0.83257919926E+03  0.46999998093E+01 0.  1.
       -5    1    3    3    0  502 -0.47352260207E+03  0.20242013990E+03 -0.83365075437E+03  0.97989450349E+03  0.46999998093E+01 0. -1.
</event>
<event>
 5   0  0.3582186E-04  0.1784416E+04  0.7818609E-02  0.8714631E-01
       -2   -1    0    0    0  501  0.00000000000E+00  0.00000000000E+00  0.67391925451E+03  0.67391925452E+03  0.25500000920E-02 0.  1.
        2   -1    0    0  501    0  0.00000000000E+00  0.00000000000E+00 -0.11812020776E+04  0.11812020776E+04  0.25500000920E-02 0. -1.
    10030    2    1    2    0    0  0.00000000000E+00  0.00000000000E+00 -0.50728282306E+03  0.18551213321E+04  0.17844156730E+04 0.  0.
        4    1    3    3  502    0 -0.85545084963E+03  0.23986405034E+03 -0.16852996754E+03  0.90428694651E+03  0.12699999809E+01 0.  1.
       -4    1    3    3    0  502  0.85545084963E+03 -0.23986405034E+03 -0.33875285552E+03  0.95083438558E+03  0.12699999809E+01 0. -1.
</event>
<event>
 5   0  0.3531266E-04  0.1854429E+04  0.7818609E-02  0.8677879E-01
        2   -1    0    0  501    0  0.00000000000E+00  0.00000000000E+00  0.11519397053E+04  0.11519397053E+04  0.25500000920E-02 0. -1.
       -2   -1    0    0    0  501  0.00000000000E+00  0.00000000000E+00 -0.74632938277E+03  0.74632938278E+03  0.25500000920E-02 0.  1.
    10030    2    1    2    0    0  0.00000000000E+00  0.00000000000E+00  0.40561032252E+03  0.18982690881E+04  0.18544286983E+04 0.  0.
        3    1    3    3  502    0  0.68727166909E+03  0.27280311252E+03 -0.36985085068E+03  0.82677297203E+03  0.10100000352E+00 0.  1.
       -3    1    3    3    0  502 -0.68727166909E+03 -0.27280311252E+03  0.77546117319E+03  0.10714961160E+04  0.10100000352E+00 0. -1.
</event>
<event>
 5   0  0.3575091E-04  0.1797332E+04  0.7818609E-02  0.8707719E-01
        2   -1    0    0  501    0  0.00000000000E+00  0.00000000000E+00  0.63138953959E+03  0.63138953960E+03  0.25500000920E-02 0.  1.
       -2   -1    0    0    0  501  0.00000000000E+00  0.00000000000E+00 -0.12790850142E+04  0.12790850142E+04  0.25500000920E-02 0. -1.
    10030    2    1    2    0    0  0.00000000000E+00  0.00000000000E+00 -0.64769547456E+03  0.19104745538E+04  0.17973323546E+04 0.  0.
        5    1    3    3  502    0 -0.66194559742E+02  0.85632269359E+03 -0.42801380890E+02  0.85995600091E+03  0.46999998093E+01 0. -1.
       -5    1    3    3    0  502  0.66194559742E+02 -0.85632269359E+03 -0.60489409367E+03  0.10505185528E+04  0.46999998093E+01 0.  1.
</event>
<event>
 5   0  0.1825253E-04  0.1821877E+04  0.7818609E-02  0.8694751E-01
        1   -1    0    0  501    0  0.00000000000E+00  0.00000000000E+00  0.66796046808E+03  0.66796046810E+03  0.50400001928E-02 0.  1.
       -1   -1    0    0    0  501  0.00000000000E+00  0.00000000000E+00 -0.12423027518E+04  0.12423027518E+04  0.50400001928E-02 0. -1.
    10030    2    1    2    0    0  0.00000000000E+00  0.00000000000E+00 -0.57434228371E+03  0.19102632199E+04  0.18218771941E+04 0.  0.
        4    1    3    3  502    0 -0.23555853277E+03  0.20082677802E+03  0.61112323748E+03  0.68504922555E+03  0.12699999809E+01 0.  1.
       -4    1    3    3    0  502  0.23555853277E+03 -0.20082677802E+03 -0.11854655212E+04  0.12252139944E+04  0.12699999809E+01 0. -1.
</event>
<event>
 5   0  0.1818778E-04  0.1736774E+04  0.7818609E-02  0.8740664E-01
        1   -1    0    0  501    0  0.00000000000E+00  0.00000000000E+00  0.15052691901E+04  0.15052691901E+04  0.50400001928E-02 0.  1.
       -1   -1    0    0    0  501  0.00000000000E+00  0.00000000000E+00 -0.50097095654E+03  0.50097095657E+03  0.50400001928E-02 0. -1.
    10030    2    1    2    0    0  0.00000000000E+00  0.00000000000E+00  0.10042982335E+04  0.20062401467E+04  0.17367741892E+04 0.  0.
        3    1    3    3  502    0 -0.30379658651E+03  0.66369099328E+03 -0.41286330973E+02  0.73108321816E+03  0.10100000352E+00 0. -1.
       -3    1    3    3    0  502  0.30379658651E+03 -0.66369099328E+03  0.10455845645E+04  0.12751569285E+04  0.10100000352E+00 0.  1.
</event>
<event>
 5   0  0.1883959E-04  0.1783008E+04  0.7818609E-02  0.8715388E-01
       -1   -1    0    0    0  501  0.00000000000E+00  0.00000000000E+00  0.88873784896E+03  0.88873784897E+03  0.50400001928E-02 0.  1.
        1   -1    0    0  501    0  0.00000000000E+00  0.00000000000E+00 -0.89427845477E+03  0.89427845478E+03  0.50400001928E-02 0. -1.
    10030    2    1    2    0    0  0.00000000000E+00  0.00000000000E+00 -0.55406058087E+01  0.17830163038E+04  0.17830076952E+04 0.  0.
        5    1    3    3  502    0 -0.35526533413E+02  0.88966550148E+03 -0.47381965223E+02  0.89164677968E+03  0.46999998093E+01 0.  1.
       -5    1    3    3    0  502  0.35526533413E+02 -0.88966550148E+03  0.41841359414E+02  0.89136952407E+03  0.46999998093E+01 0. -1.
</event>
<event>
 5   0  0.3568870E-04  0.1815341E+04  0.7818609E-02  0.8698183E-01
        2   -1    0    0  501    0  0.00000000000E+00  0.00000000000E+00  0.92656253770E+03  0.92656253770E+03  0.25500000920E-02 0.  1.
       -2   -1    0    0    0  501  0.00000000000E+00  0.00000000000E+00 -0.88916388390E+03  0.88916388390E+03  0.25500000920E-02 0. -1.
    10030    2    1    2    0    0  0.00000000000E+00  0.00000000000E+00  0.37398653799E+02  0.18157264216E+04  0.18153412293E+04 0.  0.
        1    1    3    3  502    0  0.13936546218E+03  0.62699109801E+03 -0.62278329187E+03  0.89465054501E+03  0.50400001928E-02 0. -1.
       -1    1    3    3    0  502 -0.13936546218E+03 -0.62699109801E+03  0.66018194567E+03  0.92107587659E+03  0.50400001928E-02 0.  1.
</event>
<event>
 5   0  0.3575091E-04  0.1795440E+04  0.7818609E-02  0.8708728E-01
       -2   -1    0    0    0  501  0.00000000000E+00  0.00000000000E+00  0.49554447423E+03  0.49554447424E+03  0.25500000920E-02 0.  1.
        2   -1    0    0  501    0  0.00000000000E+00  0.00000000000E+00 -0.16262938881E+04  0.16262938881E+04  0.25500000920E-02 0. -1.
    10030    2    1    2    0    0  0.00000000000E+00  0.00000000000E+00 -0.11307494138E+04  0.21218383623E+04  0.17954397230E+04 0.  0.
        5    1    3    3  502    0  0.29270447053E+03  0.41245088898E+03  0.31113603726E+03  0.59381762063E+03  0.46999998093E+01 0.  1.
       -5    1    3    3    0  502 -0.29270447053E+03 -0.41245088898E+03 -0.14418854511E+04  0.15280207417E+04  0.46999998093E+01 0. -1.
</event>
<event>
 5   0  0.1883959E-04  0.1832183E+04  0.7818609E-02  0.8689370E-01
       -1   -1    0    0    0  501  0.00000000000E+00  0.00000000000E+00  0.44815567454E+03  0.44815567457E+03  0.50400001928E-02 0. -1.
        1   -1    0    0  501    0  0.00000000000E+00  0.00000000000E+00 -0.18726155432E+04  0.18726155432E+04  0.50400001928E-02 0.  1.
    10030    2    1    2    0    0  0.00000000000E+00  0.00000000000E+00 -0.14244598686E+04  0.23207712177E+04  0.18321826131E+04 0.  0.
        5    1    3    3  502    0 -0.21933297023E+03 -0.90010893763E+02 -0.18330665549E+04  0.18483408770E+04  0.46999998093E+01 0.  1.
       -5    1    3    3    0  502  0.21933297023E+03  0.90010893763E+02  0.40860668627E+03  0.47243034078E+03  0.46999998093E+01 0. -1.
</event>
<event>
 5   0  0.1837313E-04  0.1824536E+04  0.7818609E-02  0.8693359E-01
       -1   -1    0    0    0  501  0.00000000000E+00  0.00000000000E+00  0.57274726359E+03  0.57274726361E+03  0.50400001928E-02 0. -1.
        1   -1    0    0  501    0  0.00000000000E+00  0.00000000000E+00 -0.14530538774E+04  0.14530538774E+04  0.50400001928E-02 0.  1.
    10030    2    1    2    0    0  0.00000000000E+00  0.00000000000E+00 -0.88030661381E+03  0.20258011410E+04  0.18245357022E+04 0.  0.
        1    1    3    3  502    0 -0.25478785590E+03 -0.66121611524E+03  0.19777687101E+03  0.73568967187E+03  0.50400001928E-02 0. -1.
       -1    1    3    3    0  502  0.25478785590E+03  0.66121611524E+03 -0.10780834848E+04  0.12901114691E+04  0.50400001928E-02 0.  1.
</event>
<event>
 5   0  0.3582186E-04  0.1815255E+04  0.7818609E-02  0.8698229E-01
        2   -1    0    0  501    0  0.00000000000E+00  0.00000000000E+00  0.75776712942E+03  0.75776712943E+03  0.25500000920E-02 0. -1.
       -2   -1    0    0    0  501  0.00000000000E+00  0.00000000000E+00 -0.10871253093E+04  0.10871253093E+04  0.25500000920E-02 0.  1.
    10030    2    1    2    0    0  0.00000000000E+00  0.00000000000E+00 -0.32935817988E+03  0.18448924387E+04  0.18152551611E+04 0.  0.
        4    1    3    3  502    0  0.37391345397E+03 -0.75948913411E+03 -0.49736306539E+03  0.98183840198E+03  0.12699999809E+01 0. -1.
       -4    1    3    3    0  502 -0.37391345397E+03  0.75948913411E+03  0.16800488551E+03  0.86305403675E+03  0.12699999809E+01 0.  1.
</event>
<event>
 5   0  0.1837313E-04  0.1796619E+04  0.7818609E-02  0.8708100E-01
        1   -1    0    0  501    0  0.00000000000E+00  0.00000000000E+00  0.85264051039E+03  0.85264051040E+03  0.50400001928E-02 0. -1.
       -1   -1    0    0    0  501  0.00000000000E+00  0.00000000000E+00 -0.94642412663E+03  0.94642412664E+03  0.50400001928E-02 0.  1.
    10030    2    1    2    0    0  0.00000000000E+00  0.00000000000E+00 -0.93783616244E+02  0.17990646370E+04  0.17966185465E+04 0.  0.
        1    1    3    3  502    0 -0.85566256439E+03  0.11533688635E+03  0.20143479743E+03  0.88658727664E+03  0.50400001928E-02 0.  1.
       -1    1    3    3    0  502  0.85566256439E+03 -0.11533688635E+03 -0.29521841368E+03  0.91247736041E+03  0.50400001928E-02 0. -1.
</event>
<event>
 5   0  0.3582186E-04  0.1728398E+04  0.7818609E-02  0.8745331E-01
        2   -1    0    0  501    0  0.00000000000E+00  0.00000000000E+00  0.11627407602E+04  0.11627407602E+04  0.25500000920E-02 0.  1.
       -2   -1    0    0    0  501  0.00000000000E+00  0.00000000000E+00 -0.64231014726E+03  0.64231014727E+03  0.25500000920E-02 0. -1.
    10030    2    1    2    0    0  0.00000000000E+00  0.00000000000E+00  0.52043061297E+03  0.18050509075E+04  0.17283983209E+04 0.  0.
        4    1    3    3  502    0 -0.11208513145E+03  0.78546768673E+03 -0.97489079673E+02  0.79939245502E+03  0.12699999809E+01 0. -1.
       -4    1    3    3    0  502  0.11208513145E+03 -0.78546768673E+03  0.61791969265E+03  0.10056584525E+04  0.12699999809E+01 0.  1.
</event>
<event>
 5   0  0.3568870E-04  0.1801514E+04  0.7818609E-02  0.8705495E-01
        2   -1    0    0  501    0  0.00000000000E+00  0.00000000000E+00  0.61293571811E+03  0.61293571811E+03  0.25500000920E-02 0. -1.
       -2   -1    0    0    0  501  0.00000000000E+00  0.00000000000E+00 -0.13237325704E+04  0.13237325704E+04  0.25500000920E-02 0.  1.
    10030    2    1    2    0    0  0.00000000000E+00  0.00000000000E+00 -0.71079685226E+03  0.19366682885E+04  0.18015137786E+04 0.  0.
        1    1    3    3  502    0  0.47619381177E+03 -0.52805512406E+03  0.23904172990E+03  0.75016245512E+03  0.50400001928E-02 0. -1.
       -1    1    3    3    0  502 -0.47619381177E+03  0.52805512406E+03 -0.94983858216E+03  0.11865058334E+04  0.50400001928E-02 0.  1.
</event>
<event>
 5   0  0.3575091E-04  0.1895698E+04  0.7818609E-02  0.8657000E-01
        2   -1    0    0  501    0  0.00000000000E+00  0.00000000000E+00  0.16380131688E+04  0.16380131688E+04  0.25500000920E-02 0.  1.
       -2   -1    0    0    0  501  0.00000000000E+00  0.00000000000E+00 -0.54848043449E+03  0.54848043450E+03  0.25500000920E-02 0. -1.
    10030    2    1    2    0    0  0.00000000000E+00  0.00000000000E+00  0.10895327343E+04  0.21864936033E+04  0.18956984724E+04 0.  0.
        5    1    3    3  502    0  0.70510381836E+03 -0.61125182573E+03  0.73636887803E+03  0.11887225932E+04  0.46999998093E+01 0. -1.
       -5    1    3    3    0  502 -0.70510381836E+03  0.61125182573E+03  0.35316385625E+03  0.99777101005E+03  0.46999998093E+01 0.  1.
</event>
<event>
 5   0  0.1837313E-04  0.1792074E+04  0.7818609E-02  0.8710526E-01
       -1   -1    0    0    0  501  0.00000000000E+00  0.00000000000E+00  0.11469755926E+04  0.11469755926E+04  0.50400001928E-02 0. -1.
        1   -1    0    0  501    0  0.00000000000E+00  0.00000000000E+00 -0.69999941112E+03  0.69999941114E+03  0.50400001928E-02 0.  1.
    10030    2    1    2    0    0  0.00000000000E+00  0.00000000000E+00  0.44697618146E+03  0.18469750037E+04  0.17920739264E+04 0.  0.
        1    1    3    3  502    0  0.22696072191E+03 -0.73736707336E+03 -0.24617067292E+03  0.80982798816E+03  0.50400001928E-02 0.  1.
       -1    1    3    3    0  502 -0.22696072191E+03  0.73736707336E+03  0.69314685438E+03  0.10371470156E+04  0.50400001928E-02 0. -1.
</event>
<event>
 5   0  0.1883959E-04  0.1863629E+04  0.7818609E-02  0.8673175E-01
        1   -1    0    0  501    0  0.00000000000E+00  0.00000000000E+00  0.96250701253E+03  0.96250701254E+03  0.50400001928E-02 0. -1.
       -1   -1    0    0    0  501  0.00000000000E+00  0.00000000000E+00 -0.90210069559E+03  0.90210069560E+03  0.50400001928E-02 0.  1.
    10030    2    1    2    0    0  0.00000000000E+00  0.00000000000E+00  0.60406316944E+02  0.18646077081E+04  0.18636289819E+04 0.  0.
        5    1    3    3  502    0  0.58471167516E+03 -0.51862278974E+03 -0.47740815233E+03  0.91585914584E+03  0.46999998093E+01 0.  1.
       -5    1    3    3    0  502 -0.58471167516E+03  0.51862278974E+03  0.53781446927E+03  0.94874856230E+03  0.46999998093E+01 0. -1.
</event>
<event>
 5   0  0.3582186E-04  0.1773095E+04  0.7818609E-02  0.8720740E-01
        2   -1    0    0  501    0  0.00000000000E+00  0.00000000000E+00  0.10362435332E+04  0.10362435332E+04  0.25500000920E-02 0. -1.
       -2   -1    0    0    0  501  0.00000000000E+00  0.00000000000E+00 -0.75847648257E+03  0.75847648258E+03  0.25500000920E-02 0.  1.
    10030    2    1    2    0    0  0.00000000000E+00  0.00000000000E+00  0.27776705067E+03  0.17947200158E+04  0.17730948651E+04 0.  0.
        4    1    3    3  502    0  0.90244563003E+02  0.56468599563E+03  0.82460476615E+03  0.10034884095E+04  0.12699999809E+01 0. -1.
       -4    1    3    3    0  502 -0.90244563003E+02 -0.56468599563E+03 -0.54683771548E+03  0.79123160629E+03  0.12699999809E+01 0.  1.
</event>
<event>
 5   0  0.1825253E-04  0.1365508E+04  0.7818609E-02  0.8979171E-01
       -1   -1    0    0    0  501  0.00000000000E+00  0.00000000000E+00  0.14832493288E+04  0.14832493288E+04  0.50400001928E-02 0.  1.
        1   -1    0    0  501    0  0.00000000000E+00  0.00000000000E+00 -0.31427828386E+03  0.31427828390E+03  0.50400001928E-02 0. -1.
    10030    2    1    2    0    0  0.00000000000E+00  0.00000000000E+00  0.11689710450E+04  0.17975276127E+04  0.13655080427E+04 0.  0.
        4    1    3    3  502    0  0.12750791965E+03  0.55030045083E+03  0.79670342485E+02  0.57047158749E+03  0.12699999809E+01 0. -1.
       -4    1    3    3    0  502 -0.12750791965E+03 -0.55030045083E+03  0.10893007025E+04  0.12270560253E+04  0.12699999809E+01 0.  1.
</event>
<event>
 5   0  0.3582186E-04  0.1797122E+04  0.7818609E-02  0.8707831E-01
        2   -1    0    0  501    0  0.00000000000E+00  0.00000000000E+00  0.19447666374E+04  0.19447666374E+04  0.25500000920E-02 0. -1.
       -2   -1    0    0    0  501  0.00000000000E+00  0.00000000000E+00 -0.41517175388E+03  0.41517175389E+03  0.25500000920E-02 0.  1.
    10030    2    1    2    0    0  0.00000000000E+00  0.00000000000E+00  0.15295948835E+04  0.23599383912E+04  0.17971223394E+04 0.  0.
        4    1    3    3  502    0 -0.53355710830E+02  0.12192081056E+03  0.19317516904E+04  0.19363309950E+04  0.12699999809E+01 0. -1.
       -4    1    3    3    0  502  0.53355710830E+02 -0.12192081056E+03 -0.40215680691E+03  0.42360739626E+03  0.12699999809E+01 0.  1.
</event>
<event>
 5   0  0.1835421E-04  0.1904841E+04  0.7818609E-02  0.8652450E-01
       -1   -1    0    0    0  501  0.00000000000E+00  0.00000000000E+00  0.75796616087E+03  0.75796616089E+03  0.50400001928E-02 0. -1.
        1   -1    0    0  501    0  0.00000000000E+00  0.00000000000E+00 -0.11967620766E+04  0.11967620766E+04  0.50400001928E-02 0.  1.
    10030    2    1    2    0    0  0.00000000000E+00  0.00000000000E+00 -0.43879591570E+03  0.19547282375E+04  0.19048413652E+04 0.  0.
        2    1    3    3  502    0 -0.79662616227E+02 -0.30042225746E+03  0.70446074441E+03  0.76997701629E+03  0.25500000920E-02 0. -1.
       -2    1    3    3    0  502  0.79662616227E+02  0.30042225746E+03 -0.11432566601E+04  0.11847512212E+04  0.25500000920E-02 0.  1.
</event>
<event>
 5   0  0.3568870E-04  0.1803713E+04  0.7818609E-02  0.8704327E-01
        2   -1    0    0  501    0  0.00000000000E+00  0.00000000000E+00  0.64600522207E+03  0.64600522208E+03  0.25500000920E-02 0. -1.
       -2   -1    0    0    0  501  0.00000000000E+00  0.00000000000E+00 -0.12590379291E+04  0.12590379291E+04  0.25500000920E-02 0.  1.
    10030    2    1    2    0    0  0.00000000000E+00  0.00000000000E+00 -0.61303270702E+03  0.19050431512E+04  0.18037129228E+04 0.  0.
        1    1    3    3  502    0  0.57831175420E+03  0.23824410614E+03  0.37970752669E+03  0.73169839757E+03  0.50400001928E-02 0. -1.
       -1    1    3    3    0  502 -0.57831175420E+03 -0.23824410614E+03 -0.99274023371E+03  0.11733447536E+04  0.50400001928E-02 0.  1.
</event>
<event>
 5   0  0.1837313E-04  0.1799540E+04  0.7818609E-02  0.8706544E-01
        1   -1    0    0  501    0  0.00000000000E+00  0.00000000000E+00  0.24101337589E+04  0.24101337590E+04  0.50400001928E-02 0. -1.
       -1   -1    0    0    0  501  0.00000000000E+00  0.00000000000E+00 -0.33590935278E+03  0.33590935282E+03  0.50400001928E-02 0.  1.
    10030    2    1    2    0    0  0.00000000000E+00  0.00000000000E+00  0.20742244062E+04  0.27460431118E+04  0.17995404648E+04 0.  0.
        1    1    3    3  502    0 -0.69621281466E+03 -0.56793457293E+03  0.11106839928E+04  0.14285940271E+04  0.50400001928E-02 0. -1.
       -1    1    3    3    0  502  0.69621281466E+03  0.56793457293E+03  0.96354041336E+03  0.13174490846E+04  0.50400001928E-02 0.  1.
</event>
<event>
 5   0  0.1837313E-04  0.1770710E+04  0.7818609E-02  0.8722033E-01
       -1   -1    0    0    0  501  0.00000000000E+00  0.00000000000E+00  0.46719962171E+03  0.46719962174E+03  0.50400001928E-02 0.  1.
        1   -1    0    0  501    0  0.00000000000E+00  0.00000000000E+00 -0.16777696244E+04  0.16777696244E+04  0.50400001928E-02 0. -1.
    10030    2    1    2    0    0  0.00000000000E+00  0.00000000000E+00 -0.12105700026E+04  0.21449692461E+04  0.17707098394E+04 0.  0.
        1    1    3    3  502    0  0.75559261194E+03 -0.60245085512E+02 -0.51090657270E+02  0.75971041906E+03  0.50400001928E-02 0.  1.
       -1    1    3    3    0  502 -0.75559261194E+03  0.60245085512E+02 -0.11594793454E+04  0.13852588270E+04  0.50400001928E-02 0. -1.
</event>
<event>
 5   0  0.1818778E-04  0.1667957E+04  0.7818609E-02  0.8779854E-01
       -1   -1    0    0    0  501  0.00000000000E+00  0.00000000000E+00  0.16393972541E+04  0.16393972541E+04  0.50400001928E-02 0.  1.
        1   -1    0    0  501    0  0.00000000000E+00  0.00000000000E+00 -0.42425351647E+03  0.42425351650E+03  0.50400001928E-02 0. -1.
    10030    2    1    2    0    0  0.00000000000E+00  0.00000000000E+00  0.12151437376E+04  0.20636507706E+04  0.16679568939E+04 0.  0.
        3    1    3    3  502    0 -0.48406867491E+03  0.66330230281E+03  0.78783294539E+03  0.11379688866E+04  0.10100000352E+00 0.  1.
       -3    1    3    3    0  502  0.48406867491E+03 -0.66330230281E+03  0.42731079225E+03  0.92568188397E+03  0.10100000352E+00 0. -1.
</event>
<event>
 5   0  0.3531266E-04  0.1661612E+04  0.7818609E-02  0.8783566E-01
        2   -1    0    0  501    0  0.00000000000E+00  0.00000000000E+00  0.10440784860E+04  0.10440784860E+04  0.25500000920E-02 0. -1.
       -2   -1    0    0    0  501  0.00000000000E+00  0.00000000000E+00 -0.66109869360E+03  0.66109869360E+03  0.25500000920E-02 0.  1.
    10030    2    1    2    0    0  0.00000000000E+00  0.00000000000E+00  0.38297979236E+03  0.17051771796E+04  0.16616123773E+04 0.  0.
        3    1    3    3  502    0  0.40545724641E+03 -0.19926851598E+03  0.90700435401E+03  0.10132918773E+04  0.10100000352E+00 0. -1.
       -3    1    3    3    0  502 -0.40545724641E+03  0.19926851598E+03 -0.52402456165E+03  0.69188530230E+03  0.10100000352E+00 0.  1.
</event>
<event>
 5   0  0.3628581E-04  0.1815781E+04  0.7818609E-02  0.8697952E-01
        2   -1    0    0  501    0  0.00000000000E+00  0.00000000000E+00  0.13839817948E+04  0.13839817948E+04  0.25500000920E-02 0.  1.
       -2   -1    0    0    0  501  0.00000000000E+00  0.00000000000E+00 -0.59557546253E+03  0.59557546253E+03  0.25500000920E-02 0. -1.
    10030    2    1    2    0    0  0.00000000000E+00  0.00000000000E+00  0.78840633223E+03  0.19795572573E+04  0.18157814819E+04 0.  0.
        2    1    3    3  502    0  0.22832079881E+03 -0.45198352339E+03 -0.42731999286E+03  0.66258725379E+03  0.25500000920E-02 0. -1.
       -2    1    3    3    0  502 -0.22832079881E+03  0.45198352339E+03  0.12157263251E+04  0.13169700035E+04  0.25500000920E-02 0.  1.
</event>
<event>
 5   0  0.1835421E-04  0.1787812E+04  0.7818609E-02  0.8712808E-01
       -1   -1    0    0    0  501  0.00000000000E+00  0.00000000000E+00  0.10187286731E+04  0.10187286731E+04  0.50400001928E-02 0.  1.
        1   -1    0    0  501    0  0.00000000000E+00  0.00000000000E+00 -0.78437757652E+03  0.78437757653E+03  0.50400001928E-02 0. -1.
    10030    2    1    2    0    0  0.00000000000E+00  0.00000000000E+00  0.23435109659E+03  0.18031062497E+04  0.17878119899E+04 0.  0.
        2    1    3    3  502    0  0.37706126947E+03  0.30994094046E+03 -0.63811636728E+03  0.80338725762E+03  0.25500000920E-02 0. -1.
       -2    1    3    3    0  502 -0.37706126947E+03 -0.30994094046E+03  0.87246746387E+03  0.99971899203E+03  0.25500000920E-02 0.  1.
</event>
<event>
 5   0  0.3568870E-04  0.1767456E+04  0.7818609E-02  0.8723800E-01
        2   -1    0    0  501    0  0.00000000000E+00  0.00000000000E+00  0.81853644125E+03  0.81853644125E+03  0.25500000920E-02 0. -1.
       -2   -1    0    0    0  501  0.00000000000E+00  0.00000000000E+00 -0.95411134559E+03  0.95411134559E+03  0.25500000920E-02 0.  1.
    10030    2    1    2    0    0  0.00000000000E+00  0.00000000000E+00 -0.13557490434E+03  0.17726477868E+04  0.17674556915E+04 0.  0.
        1    1    3    3  502    0  0.65642573533E+03  0.39985703062E+03  0.36960663819E+03  0.85287130211E+03  0.50400001928E-02 0.  1.
       -1    1    3    3    0  502 -0.65642573533E+03 -0.39985703062E+03 -0.50518154253E+03  0.91977648474E+03  0.50400001928E-02 0. -1.
</event>
<event>
 5   0  0.3575091E-04  0.1799771E+04  0.7818609E-02  0.8706421E-01
        2   -1    0    0  501    0  0.00000000000E+00  0.00000000000E+00  0.93526975926E+03  0.93526975926E+03  0.25500000920E-02 0.  1.
       -2   -1    0    0    0  501  0.00000000000E+00  0.00000000000E+00 -0.86583964334E+03  0.86583964334E+03  0.25500000920E-02 0. -1.
    10030    2    1    2    0    0  0.00000000000E+00  0.00000000000E+00  0.69430115916E+02  0.18011094026E+04  0.17997706907E+04 0.  0.
        5    1    3    3  502    0  0.78211639699E+02 -0.86143683352E+02 -0.85826797964E+03  0.86613151983E+03  0.46999998093E+01 0. -1.
       -5    1    3    3    0  502 -0.78211639699E+02  0.86143683352E+02  0.92769809556E+03  0.93497788277E+03  0.46999998093E+01 0.  1.
</event>
<event>
 5   0  0.1825253E-04  0.1802147E+04  0.7818609E-02  0.8705159E-01
        1   -1    0    0  501    0  0.00000000000E+00  0.00000000000E+00  0.13331311121E+04  0.13331311121E+04  0.50400001928E-02 0.  1.
       -1   -1    0    0    0  501  0.00000000000E+00  0.00000000000E+00 -0.60904235837E+03  0.60904235839E+03  0.50400001928E-02 0. -1.
    10030    2    1    2    0    0  0.00000000000E+00  0.00000000000E+00  0.72408875372E+03  0.19421734705E+04  0.18021468492E+04 0.  0.
        4    1    3    3  502    0  0.44655951344E+03  0.75726030609E+03  0.14901624404E+03  0.89166474872E+03  0.12699999809E+01 0. -1.
       -4    1    3    3    0  502 -0.44655951344E+03 -0.75726030609E+03  0.57507250969E+03  0.10505087218E+04  0.12699999809E+01 0.  1.
</event>
<event>
 5   0  0.3568870E-04  0.1809127E+04  0.7818609E-02  0.8701461E-01
       -2   -1    0    0    0  501  0.00000000000E+00  0.00000000000E+00  0.53159166438E+03  0.53159166439E+03  0.25500000920E-02 0.  1.
        2   -1    0    0  501    0  0.00000000000E+00  0.00000000000E+00 -0.15392169903E+04  0.15392169903E+04  0.25500000920E-02 0. -1.
    10030    2    1    2    0    0  0.00000000000E+00  0.00000000000E+00 -0.10076253259E+04  0.20708086547E+04  0.18091267747E+04 0.  0.
        1    1    3    3  502    0 -0.26513791921E+03 -0.75317322996E+03 -0.17281955532E+02  0.79866557240E+03  0.50400001928E-02 0.  1.
       -1    1    3    3    0  502  0.26513791921E+03  0.75317322996E+03 -0.99034337041E+03  0.12721430823E+04  0.50400001928E-02 0. -1.
</event>
<event>
 5   0  0.1837313E-04  0.1816596E+04  0.7818609E-02  0.8697523E-01
       -1   -1    0    0    0  501  0.00000000000E+00  0.00000000000E+00  0.90866597749E+03  0.90866597750E+03  0.50400001928E-02 0. -1.
        1   -1    0    0  501    0  0.00000000000E+00  0.00000000000E+00 -0.90792993900E+03  0.90792993901E+03  0.50400001928E-02 0.  1.
    10030    2    1    2    0    0  0.00000000000E+00  0.00000000000E+00  0.73603848792E+00  0.18165959165E+04  0.18165957674E+04 0.  0.
        1    1    3    3  502    0 -0.54068617294E+03  0.18485365240E+03  0.70640818590E+03  0.90858402779E+03  0.50400001928E-02 0. -1.
       -1    1    3    3    0  502  0.54068617294E+03 -0.18485365240E+03 -0.70567214741E+03  0.90801188873E+03  0.50400001928E-02 0.  1.
</event>
<event>
 5   0  0.3568870E-04  0.1772426E+04  0.7818609E-02  0.8721102E-01
        2   -1    0    0  501    0  0.00000000000E+00  0.00000000000E+00  0.22578392210E+04  0.22578392210E+04  0.25500000920E-02 0. -1.
       -2   -1    0    0    0  501  0.00000000000E+00  0.00000000000E+00 -0.34784307399E+03  0.34784307400E+03  0.25500000920E-02 0.  1.
    10030    2    1    2    0    0  0.00000000000E+00  0.00000000000E+00  0.19099961470E+04  0.26056822950E+04  0.17724262864E+04 0.  0.
        1    1    3    3  502    0 -0.48357810407E+03  0.50484536878E+03  0.17557180392E+04  0.18897784162E+04  0.50400001928E-02 0. -1.
       -1    1    3    3    0  502  0.48357810407E+03 -0.50484536878E+03  0.15427810782E+03  0.71590387881E+03  0.50400001928E-02 0.  1.
</event>
<event>
 5   0  0.1825253E-04  0.1817824E+04  0.7818609E-02  0.8696878E-01
        1   -1    0    0  501    0  0.00000000000E+00  0.00000000000E+00  0.66933481416E+03  0.66933481418E+03  0.50400001928E-02 0. -1.
       -1   -1    0    0    0  501  0.00000000000E+00  0.00000000000E+00 -0.12342412538E+04  0.12342412538E+04  0.50400001928E-02 0.  1.
    10030    2    1    2    0    0  0.00000000000E+00  0.00000000000E+00 -0.56490643965E+03  0.19035760680E+04  0.18178235781E+04 0.  0.
        4    1    3    3  502    0  0.40676723124E+03 -0.81250527837E+03 -0.30574239769E+03  0.95869934517E+03  0.12699999809E+01 0.  1.
       -4    1    3    3    0  502 -0.40676723124E+03  0.81250527837E+03 -0.25916404196E+03  0.94487672282E+03  0.12699999809E+01 0. -1.
</event>
<event>
 5   0  0.3628581E-04  0.1638849E+04  0.7818609E-02  0.8797031E-01
        2   -1    0    0  501    0  0.00000000000E+00  0.00000000000E+00  0.11881402920E+04  0.11881402920E+04  0.25500000920E-02 0. -1.
       -2   -1    0    0    0  501  0.00000000000E+00  0.00000000000E+00 -0.56513242982E+03  0.56513242982E+03  0.25500000920E-02 0.  1.
    10030    2    1    2    0    0  0.00000000000E+00  0.00000000000E+00  0.62300786214E+03  0.17532727218E+04  0.16388491208E+04 0.  0.
        2    1    3    3  502    0  0.21300869472E+03  0.79053221397E+03  0.34766833669E+03  0.88948701941E+03  0.25500000920E-02 0.  1.
       -2    1    3    3    0  502 -0.21300869472E+03 -0.79053221397E+03  0.27533952545E+03  0.86378570238E+03  0.25500000920E-02 0. -1.
</event>
<event>
 5   0  0.3628581E-04  0.1734711E+04  0.7818609E-02  0.8741811E-01
       -2   -1    0    0    0  501  0.00000000000E+00  0.00000000000E+00  0.68903582539E+03  0.68903582540E+03  0.25500000920E-02 0. -1.
        2   -1    0    0  501    0  0.00000000000E+00  0.00000000000E+00 -0.10918240226E+04  0.10918240226E+04  0.25500000920E-02 0.  1.
    10030    2    1    2    0    0  0.00000000000E+00  0.00000000000E+00 -0.40278819717E+03  0.17808598480E+04  0.17347113496E+04 0.  0.
        2    1    3    3  502    0 -0.32024017345E+03 -0.73937495257E+03  0.12820266491E+03  0.81588296493E+03  0.25500000920E-02 0. -1.
       -2    1    3    3    0  502  0.32024017345E+03  0.73937495257E+03 -0.53099086208E+03  0.96497688304E+03  0.25500000920E-02 0.  1.
</event>
<event>
 5   0  0.1825253E-04  0.1689092E+04  0.7818609E-02  0.8767610E-01
       -1   -1    0    0    0  501  0.00000000000E+00  0.00000000000E+00  0.32095293228E+03  0.32095293232E+03  0.50400001928E-02 0. -1.
        1   -1    0    0  501    0  0.00000000000E+00  0.00000000000E+00 -0.22223138905E+04  0.22223138905E+04  0.50400001928E-02 0.  1.
    10030    2    1    2    0    0  0.00000000000E+00  0.00000000000E+00 -0.19013609582E+04  0.25432668228E+04  0.16890922528E+04 0.  0.
        4    1    3    3  502    0  0.43174033157E+03  0.58876877089E+03 -0.31149663274E+03  0.79377587806E+03  0.12699999809E+01 0. -1.
       -4    1    3    3    0  502 -0.43174033157E+03 -0.58876877089E+03 -0.15898643254E+04  0.17494909447E+04  0.12699999809E+01 0.  1.
</event>
<event>
 5   0  0.1883959E-04  0.1833132E+04  0.7818609E-02  0.8688876E-01
        1   -1    0    0  501    0  0.00000000000E+00  0.00000000000E+00  0.13134987608E+04  0.13134987608E+04  0.50400001928E-02 0.  1.
       -1   -1    0    0    0  501  0.00000000000E+00  0.00000000000E+00 -0.63958427474E+03  0.63958427476E+03  0.50400001928E-02 0. -1.
    10030    2    1    2    0    0  0.00000000000E+00  0.00000000000E+00  0.67391448608E+03  0.19530830356E+04  0.18331319127E+04 0.  0.
        5    1    3    3  502    0 -0.44693827017E+03 -0.26329857417E+03 -0.46812762036E+03  0.69874567293E+03  0.46999998093E+01 0. -1.
       -5    1    3    3    0  502  0.44693827017E+03  0.26329857417E+03  0.11420421064E+04  0.12543373627E+04  0.46999998093E+01 0.  1.
</event>
<event>
 5   0  0.1330125E-04  0.1844172E+04  0.7818609E-02  0.8683156E-01
        4   -1    0    0  501    0  0.00000000000E+00  0.00000000000E+00  0.94362255020E+03  0.94362340483E+03  0.12699999809E+01 0. -1.
       -4   -1    0    0    0  501  0.00000000000E+00  0.00000000000E+00 -0.90103956583E+03  0.90104046085E+03  0.12699999809E+01 0.  1.
    10030    2    1    2    0    0  0.00000000000E+00  0.00000000000E+00  0.42582984371E+02  0.18446638657E+04  0.18441722986E+04 0.  0.
        5    1    3    3  502    0  0.35733047502E+03 -0.72831115435E+03 -0.41711584443E+03  0.91221155638E+03  0.46999998093E+01 0.  1.
       -5    1    3    3    0  502 -0.35733047502E+03  0.72831115435E+03  0.45969882880E+03  0.93245230930E+03  0.46999998093E+01 0. -1.
</event>
<event>
 5   0  0.3531266E-04  0.1789180E+04  0.7818609E-02  0.8712074E-01
       -2   -1    0    0    0  501  0.00000000000E+00  0.00000000000E+00  0.80148084924E+03  0.80148084924E+03  0.25500000920E-02 0.  1.
        2   -1    0    0  501    0  0.00000000000E+00  0.00000000000E+00 -0.99851629339E+03  0.99851629339E+03  0.25500000920E-02 0. -1.
    10030    2    1    2    0    0  0.00000000000E+00  0.00000000000E+00 -0.19703544415E+03  0.17999971426E+04  0.17891804680E+04 0.  0.
        3    1    3    3  502    0  0.48759768176E+03 -0.16931643823E+03  0.63656512456E+03  0.81953323516E+03  0.10100000352E+00 0.  1.
       -3    1    3    3    0  502 -0.48759768176E+03  0.16931643823E+03 -0.83360056871E+03  0.98046390748E+03  0.10100000352E+00 0. -1.
</event>
<event>
 5   0  0.1835421E-04  0.1792500E+04  0.7818609E-02  0.8710298E-01
       -1   -1    0    0    0  501  0.00000000000E+00  0.00000000000E+00  0.75075168624E+03  0.75075168626E+03  0.50400001928E-02 0.  1.
        1   -1    0    0  501    0  0.00000000000E+00  0.00000000000E+00 -0.10699460573E+04  0.10699460574E+04  0.50400001928E-02 0. -1.
    10030    2    1    2    0    0  0.00000000000E+00  0.00000000000E+00 -0.31919437110E+03  0.18206977436E+04  0.17924997147E+04 0.  0.
        2    1    3    3  502    0 -0.77963484344E+03  0.16923227642E+03  0.25523137626E+03  0.83762348817E+03  0.25500000920E-02 0.  1.
       -2    1    3    3    0  502  0.77963484344E+03 -0.16923227642E+03 -0.57442574736E+03  0.98307425545E+03  0.25500000920E-02 0. -1.
</event>
<event>
 5   0  0.1837313E-04  0.1792152E+04  0.7818609E-02  0.8710484E-01
       -1   -1    0    0    0  501  0.00000000000E+00  0.00000000000E+00  0.70264108027E+03  0.70264108029E+03  0.50400001928E-02 0. -1.
        1   -1    0    0  501    0  0.00000000000E+00  0.00000000000E+00 -0.11427629517E+04  0.11427629517E+04  0.50400001928E-02 0.  1.
    10030    2    1    2    0    0  0.00000000000E+00  0.00000000000E+00 -0.44012187141E+03  0.18454040320E+04  0.17921519968E+04 0.  0.
        1    1    3    3  502    0 -0.70787664186E+03 -0.41921956956E+03  0.14562211413E+03  0.83548799377E+03  0.50400001928E-02 0.  1.
       -1    1    3    3    0  502  0.70787664186E+03  0.41921956956E+03 -0.58574398554E+03  0.10099160382E+04  0.50400001928E-02 0. -1.
</event>
<event>
 5   0  0.3568870E-04  0.1731831E+04  0.7818609E-02  0.8743416E-01
        2   -1    0    0  501    0  0.00000000000E+00  0.00000000000E+00  0.21743578931E+04  0.21743578931E+04  0.25500000920E-02 0. -1.
       -2   -1    0    0    0  501  0.00000000000E+00  0.00000000000E+00 -0.34484170700E+03  0.34484170701E+03  0.25500000920E-02 0.  1.
    10030    2    1    2    0    0  0.00000000000E+00  0.00000000000E+00  0.18295161861E+04  0.25191996001E+04  0.17318305777E+04 0.  0.
        1    1    3    3  502    0  0.53293471865E+03 -0.64985538482E+03  0.12180712260E+04  0.14798746390E+04  0.50400001928E-02 0.  1.
       -1    1    3    3    0  502 -0.53293471865E+03  0.64985538482E+03  0.61144496011E+03  0.10393249611E+04  0.50400001928E-02 0. -1.
</event>
<event>
 5   0  0.1883959E-04  0.1802835E+04  0.7818609E-02  0.8704793E-01
       -1   -1    0    0    0  501  0.00000000000E+00  0.00000000000E+00  0.87827814059E+03  0.87827814060E+03  0.50400001928E-02 0. -1.
        1   -1    0    0  501    0  0.00000000000E+00  0.00000000000E+00 -0.92516655549E+03  0.92516655550E+03  0.50400001928E-02 0.  1.
    10030    2    1    2    0    0  0.00000000000E+00  0.00000000000E+00 -0.46888414905E+02  0.18034446961E+04  0.18028350586E+04 0.  0.
        5    1    3    3  502    0  0.71393944095E+02 -0.71245732170E+03 -0.57120488505E+03  0.91596377723E+03  0.46999998093E+01 0.  1.
       -5    1    3    3    0  502 -0.71393944095E+02  0.71245732170E+03  0.52431647015E+03  0.88748091887E+03  0.46999998093E+01 0. -1.
</event>
<event>
 5   0  0.1883959E-04  0.1804343E+04  0.7818609E-02  0.8703993E-01
        1   -1    0    0  501    0  0.00000000000E+00  0.00000000000E+00  0.12358990657E+04  0.12358990657E+04  0.50400001928E-02 0. -1.
       -1   -1    0    0    0  501  0.00000000000E+00  0.00000000000E+00 -0.65855977851E+03  0.65855977853E+03  0.50400001928E-02 0.  1.
    10030    2    1    2    0    0  0.00000000000E+00  0.00000000000E+00  0.57733928715E+03  0.18944588442E+04  0.18043429995E+04 0.  0.
        5    1    3    3  502    0  0.11514802216E+03  0.59372436438E+03  0.99152345149E+03  0.11614252162E+04  0.46999998093E+01 0. -1.
       -5    1    3    3    0  502 -0.11514802216E+03 -0.59372436438E+03 -0.41418416434E+03  0.73303362805E+03  0.46999998093E+01 0.  1.
</event>
<event>
 5   0  0.3628581E-04  0.1808482E+04  0.7818609E-02  0.8701802E-01
       -2   -1    0    0    0  501  0.00000000000E+00  0.00000000000E+00  0.14758335993E+04  0.14758335993E+04  0.25500000920E-02 0. -1.
        2   -1    0    0  501    0  0.00000000000E+00  0.00000000000E+00 -0.55402684412E+03  0.55402684413E+03  0.25500000920E-02 0.  1.
    10030    2    1    2    0    0  0.00000000000E+00  0.00000000000E+00  0.92180675514E+03  0.20298604434E+04  0.18084816078E+04 0.  0.
        2    1    3    3  502    0  0.46661561367E+03 -0.17944097644E+02 -0.40822243055E+03  0.62024001352E+03  0.25500000920E-02 0.  1.
       -2    1    3    3    0  502 -0.46661561367E+03  0.17944097644E+02  0.13300291857E+04  0.14096204299E+04  0.25500000920E-02 0. -1.
</event>
<event>
 5   0  0.3628581E-04  0.1763695E+04  0.7818609E-02  0.8725848E-01
       -2   -1    0    0    0  501  0.00000000000E+00  0.00000000000E+00  0.45183082077E+03  0.45183082077E+03  0.25500000920E-02 0. -1.
        2   -1    0    0  501    0  0.00000000000E+00  0.00000000000E+00 -0.17211205509E+04  0.17211205509E+04  0.25500000920E-02 0.  1.
    10030    2    1    2    0    0  0.00000000000E+00  0.00000000000E+00 -0.12692897302E+04  0.21729513717E+04  0.17636953378E+04 0.  0.
        2    1    3    3  502    0  0.13215540067E+03 -0.59104313147E+03  0.15507390647E+03  0.62517593497E+03  0.25500000920E-02 0. -1.
       -2    1    3    3    0  502 -0.13215540067E+03  0.59104313147E+03 -0.14243636366E+04  0.15477754367E+04  0.25500000920E-02 0.  1.
</event>
<event>
 5   0  0.1818778E-04  0.1810495E+04  0.7818609E-02  0.8700738E-01
        1   -1    0    0  501    0  0.00000000000E+00  0.00000000000E+00  0.17360601948E+04  0.17360601948E+04  0.50400001928E-02 0.  1.
       -1   -1    0    0    0  501  0.00000000000E+00  0.00000000000E+00 -0.47203007102E+03  0.47203007105E+03  0.50400001928E-02 0. -1.
    10030    2    1    2    0    0  0.00000000000E+00  0.00000000000E+00  0.12640301238E+04  0.22080902659E+04  0.18104945370E+04 0.  0.
        3    1    3    3  502    0 -0.65958163235E+03 -0.59362475814E+03  0.85030181666E+03  0.12290042607E+04  0.10100000352E+00 0. -1.
       -3    1    3    3    0  502  0.65958163235E+03  0.59362475814E+03  0.41372830715E+03  0.97908600519E+03  0.10100000352E+00 0.  1.
</event>
<event>
 5   0  0.3575091E-04  0.1820821E+04  0.7818609E-02  0.8695305E-01
        2   -1    0    0  501    0  0.00000000000E+00  0.00000000000E+00  0.11450469989E+04  0.11450469989E+04  0.25500000920E-02 0. -1.
       -2   -1    0    0    0  501  0.00000000000E+00  0.00000000000E+00 -0.72385452462E+03  0.72385452462E+03  0.25500000920E-02 0.  1.
    10030    2    1    2    0    0  0.00000000000E+00  0.00000000000E+00  0.42119247432E+03  0.18689015236E+04  0.18208211896E+04 0.  0.
        5    1    3    3  502    0  0.52643512336E+03  0.50213993599E+03 -0.35116470286E+03  0.80784725843E+03  0.46999998093E+01 0.  1.
       -5    1    3    3    0  502 -0.52643512336E+03 -0.50213993599E+03  0.77235717717E+03  0.10610542651E+04  0.46999998093E+01 0. -1.
</event>
<event>
 5   0  0.1825253E-04  0.1793513E+04  0.7818609E-02  0.8709757E-01
       -1   -1    0    0    0  501  0.00000000000E+00  0.00000000000E+00  0.52250455123E+03  0.52250455125E+03  0.50400001928E-02 0.  1.
        1   -1    0    0  501    0  0.00000000000E+00  0.00000000000E+00 -0.15390724538E+04  0.15390724538E+04  0.50400001928E-02 0. -1.
    10030    2    1    2    0    0  0.00000000000E+00  0.00000000000E+00 -0.10165679026E+04  0.20615770051E+04  0.17935131578E+04 0.  0.
        4    1    3    3  502    0  0.41316452373E+03  0.79376093138E+03 -0.57540126258E+03  0.10638841881E+04  0.12699999809E+01 0.  1.
       -4    1    3    3    0  502 -0.41316452373E+03 -0.79376093138E+03 -0.44116664001E+03  0.99769281696E+03  0.12699999809E+01 0. -1.
</event>
<event>
 5   0  0.3628581E-04  0.1799138E+04  0.7818609E-02  0.8706758E-01
       -2   -1    0    0    0  501  0.00000000000E+00  0.00000000000E+00  0.49645964417E+03  0.49645964418E+03  0.25500000920E-02 0.  1.
        2   -1    0    0  501    0  0.00000000000E+00  0.00000000000E+00 -0.16299895050E+04  0.16299895050E+04  0.25500000920E-02 0. -1.
    10030    2    1    2    0    0  0.00000000000E+00  0.00000000000E+00 -0.11335298608E+04  0.21264491491E+04  0.17991375819E+04 0.  0.
        2    1    3    3  502    0  0.21915011898E+03 -0.48718503543E+03 -0.14222122332E+04  0.15192312759E+04  0.25500000920E-02 0. -1.
       -2    1    3    3    0  502 -0.21915011898E+03  0.48718503543E+03  0.28868237244E+03  0.60721787322E+03  0.25500000920E-02 0.  1.
</event>
<event>
 5   0  0.1818778E-04  0.1686960E+04  0.7818609E-02  0.8768837E-01
        1   -1    0    0  501    0  0.00000000000E+00  0.00000000000E+00  0.65508177708E+03  0.65508177710E+03  0.50400001928E-02 0.  1.
       -1   -1    0    0    0  501  0.00000000000E+00  0.00000000000E+00 -0.10860604051E+04  0.10860604052E+04  0.50400001928E-02 0. -1.
    10030    2    1    2    0    0  0.00000000000E+00  0.00000000000E+00 -0.43097862806E+03  0.17411421823E+04  0.16869598457E+04 0.  0.
        3    1    3    3  502    0  0.22877172885E+03  0.16741377374E+03 -0.10354191456E+04  0.10735253573E+04  0.10100000352E+00 0. -1.
       -3    1    3    3    0  502 -0.22877172885E+03 -0.16741377374E+03  0.60444051751E+03  0.66761682496E+03  0.10100000352E+00 0.  1.
</event>
<event>
 5   0  0.1883959E-04  0.1764519E+04  0.7818609E-02  0.8725399E-01
        1   -1    0    0  501    0  0.00000000000E+00  0.00000000000E+00  0.16974629365E+04  0.16974629365E+04  0.50400001928E-02 0.  1.
       -1   -1    0    0    0  501  0.00000000000E+00  0.00000000000E+00 -0.45855601976E+03  0.45855601979E+03  0.50400001928E-02 0. -1.
    10030    2    1    2    0    0  0.00000000000E+00  0.00000000000E+00  0.12389069167E+04  0.21560189563E+04  0.17645190256E+04 0.  0.
        5    1    3    3  502    0 -0.43498603418E+03 -0.34118001836E+02 -0.31747960799E+03  0.53962234893E+03  0.46999998093E+01 0. -1.
       -5    1    3    3    0  502  0.43498603418E+03  0.34118001836E+02  0.15563865247E+04  0.16163966074E+04  0.46999998093E+01 0.  1.
</event>
<event>
 5   0  0.1835421E-04  0.1796439E+04  0.7818609E-02  0.8708196E-01
        1   -1    0    0  501    0  0.00000000000E+00  0.00000000000E+00  0.80083699142E+03  0.80083699143E+03  0.50400001928E-02 0.  1.
       -1   -1    0    0    0  501  0.00000000000E+00  0.00000000000E+00 -0.10074435000E+04  0.10074435000E+04  0.50400001928E-02 0. -1.
    10030    2    1    2    0    0  0.00000000000E+00  0.00000000000E+00 -0.20660650857E+03  0.18082804914E+04  0.17964387232E+04 0.  0.
        2    1    3    3  502    0 -0.26518082095E+02 -0.62118521628E+03  0.54921652532E+03  0.82958608552E+03  0.25500000920E-02 0.  1.
       -2    1    3    3    0  502  0.26518082095E+02  0.62118521628E+03 -0.75582303389E+03  0.97869440591E+03  0.25500000920E-02 0. -1.
</event>
<event>
 5   0  0.1883959E-04  0.1832792E+04  0.7818609E-02  0.8689053E-01
        1   -1    0    0  501    0  0.00000000000E+00  0.00000000000E+00  0.11762900095E+04  0.11762900095E+04  0.50400001928E-02 0. -1.
       -1   -1    0    0    0  501  0.00000000000E+00  0.00000000000E+00 -0.71392407295E+03  0.71392407297E+03  0.50400001928E-02 0.  1.
    10030    2    1    2    0    0  0.00000000000E+00  0.00000000000E+00  0.46236593651E+03  0.18902140824E+04  0.18327921372E+04 0.  0.
        5    1    3    3  502    0 -0.58867593503E+03  0.29600240838E+03 -0.42563994941E+03  0.78444135459E+03  0.46999998093E+01 0.  1.
       -5    1    3    3    0  502  0.58867593503E+03 -0.29600240838E+03  0.88800588592E+03  0.11057727279E+04  0.46999998093E+01 0. -1.
</event>
<event>
 5   0  0.3628581E-04  0.1791323E+04  0.7818609E-02  0.8710927E-01
        2   -1    0    0  501    0  0.00000000000E+00  0.00000000000E+00  0.67498712497E+03  0.67498712498E+03  0.25500000920E-02 0.  1.
       -2   -1    0    0    0  501  0.00000000000E+00  0.00000000000E+00 -0.11884814902E+04  0.11884814902E+04  0.25500000920E-02 0. -1.
    10030    2    1    2    0    0  0.00000000000E+00  0.00000000000E+00 -0.51349436520E+03  0.18634686152E+04  0.17913232027E+04 0.  0.
        2    1    3    3  502    0  0.41286138434E+03  0.57421025580E+03  0.31496672146E+03  0.77419375881E+03  0.25500000920E-02 0.  1.
       -2    1    3    3    0  502 -0.41286138434E+03 -0.57421025580E+03 -0.82846108667E+03  0.10892748563E+04  0.25500000920E-02 0. -1.
</event>
<event>
 5   0  0.3628581E-04  0.1787195E+04  0.7818609E-02  0.8713139E-01
       -2   -1    0    0    0  501  0.00000000000E+00  0.00000000000E+00  0.30935309285E+03  0.30935309286E+03  0.25500000920E-02 0.  1.
        2   -1    0    0  501    0  0.00000000000E+00  0.00000000000E+00 -0.25812466252E+04  0.25812466252E+04  0.25500000920E-02 0. -1.
    10030    2    1    2    0    0  0.00000000000E+00  0.00000000000E+00 -0.22718935323E+04  0.28905997180E+04  0.17871951510E+04 0.  0.
        2    1    3    3  502    0  0.26013801738E+03  0.56405996895E+02 -0.25156357136E+04  0.25296791236E+04  0.25500000920E-02 0. -1.
       -2    1    3    3    0  502 -0.26013801738E+03 -0.56405996895E+02  0.24374218129E+03  0.36092059448E+03  0.25500000920E-02 0.  1.
</event>
<event>
 5   0  0.1835421E-04  0.1823829E+04  0.7818609E-02  0.8693729E-01
        1   -1    0    0  501    0  0.00000000000E+00  0.00000000000E+00  0.16666006404E+04  0.16666006404E+04  0.50400001928E-02 0.  1.
       -1   -1    0    0    0  501  0.00000000000E+00  0.00000000000E+00 -0.49897251601E+03  0.49897251603E+03  0.50400001928E-02 0. -1.
    10030    2    1    2    0    0  0.00000000000E+00  0.00000000000E+00  0.11676281244E+04  0.21655731564E+04  0.18238288459E+04 0.  0.
        2    1    3    3  502    0  0.31884854874E+03  0.25538625734E+02  0.15978032855E+04  0.16295066608E+04  0.25500000920E-02 0.  1.
       -2    1    3    3    0  502 -0.31884854874E+03 -0.25538625734E+02 -0.43017516114E+03  0.53606649560E+03  0.25500000920E-02 0. -1.
</event>
<event>
 5   0  0.3582186E-04  0.1799444E+04  0.7818609E-02  0.8706595E-01
       -2   -1    0    0    0  501  0.00000000000E+00  0.00000000000E+00  0.62091142449E+03  0.62091142450E+03  0.25500000920E-02 0.  1.
        2   -1    0    0  501    0  0.00000000000E+00  0.00000000000E+00 -0.13037281975E+04  0.13037281975E+04  0.25500000920E-02 0. -1.
    10030    2    1    2    0    0  0.00000000000E+00  0.00000000000E+00 -0.68281677296E+03  0.19246396220E+04  0.17994440611E+04 0.  0.
        4    1    3    3  502    0 -0.74558468219E+03  0.11906161512E+03 -0.86476373386E+03  0.11479939524E+04  0.12699999809E+01 0.  1.
       -4    1    3    3    0  502  0.74558468219E+03 -0.11906161512E+03  0.18194696090E+03  0.77664566953E+03  0.12699999809E+01 0. -1.
</event>
<event>
 5   0  0.1883959E-04  0.1815918E+04  0.7818609E-02  0.8697880E-01
       -1   -1    0    0    0  501  0.00000000000E+00  0.00000000000E+00  0.93259930294E+03  0.93259930296E+03  0.50400001928E-02 0.  1.
        1   -1    0    0  501    0  0.00000000000E+00  0.00000000000E+00 -0.88396937903E+03  0.88396937904E+03  0.50400001928E-02 0. -1.
    10030    2    1    2    0    0  0.00000000000E+00  0.00000000000E+00  0.48629923920E+02  0.18165686820E+04  0.18159176487E+04 0.  0.
        5    1    3    3  502    0 -0.65130744011E+03 -0.63164506909E+03 -0.10197579085E+02  0.90736043305E+03  0.46999998093E+01 0. -1.
       -5    1    3    3    0  502  0.65130744011E+03  0.63164506909E+03  0.58827503005E+02  0.90920824895E+03  0.46999998093E+01 0.  1.
</event>
<event>
 5   0  0.1883959E-04  0.1799442E+04  0.7818609E-02  0.8706596E-01
       -1   -1    0    0    0  501  0.00000000000E+00  0.00000000000E+00  0.10946994120E+04  0.10946994120E+04  0.50400001928E-02 0.  1.
        1   -1    0    0  501    0  0.00000000000E+00  0.00000000000E+00 -0.73947021318E+03  0.73947021320E+03  0.50400001928E-02 0. -1.
    10030    2    1    2    0    0  0.00000000000E+00  0.00000000000E+00  0.35522919884E+03  0.18341696252E+04  0.17994416996E+04 0.  0.
        5    1    3    3  502    0 -0.20564588080E+03  0.87364298008E+03  0.11368874587E+03  0.90470409852E+03  0.46999998093E+01 0. -1.
       -5    1    3    3    0  502  0.20564588080E+03 -0.87364298008E+03  0.24154045297E+03  0.92946552672E+03  0.46999998093E+01 0.  1.
</event>
<event>
 5   0  0.1818778E-04  0.1767051E+04  0.7818609E-02  0.8724021E-01
        1   -1    0    0  501    0  0.00000000000E+00  0.00000000000E+00  0.15358575224E+04  0.15358575224E+04  0.50400001928E-02 0. -1.
       -1   -1    0    0    0  501  0.00000000000E+00  0.00000000000E+00 -0.50826126323E+03  0.50826126326E+03  0.50400001928E-02 0.  1.
    10030    2    1    2    0    0  0.00000000000E+00  0.00000000000E+00  0.10275962592E+04  0.20441187857E+04  0.17670505194E+04 0.  0.
        3    1    3    3  502    0  0.80394308117E+03 -0.41360841612E+02  0.92587892238E+02  0.81031334987E+03  0.10100000352E+00 0.  1.
       -3    1    3    3    0  502 -0.80394308117E+03  0.41360841612E+02  0.93500836693E+03  0.12338054358E+04  0.10100000352E+00 0. -1.
</event>
<event>
 5   0  0.3628581E-04  0.1832994E+04  0.7818609E-02  0.8688948E-01
        2   -1    0    0  501    0  0.00000000000E+00  0.00000000000E+00  0.14312633336E+04  0.14312633336E+04  0.25500000920E-02 0.  1.
       -2   -1    0    0    0  501  0.00000000000E+00  0.00000000000E+00 -0.58687110075E+03  0.58687110076E+03  0.25500000920E-02 0. -1.
    10030    2    1    2    0    0  0.00000000000E+00  0.00000000000E+00  0.84439223287E+03  0.20181344344E+04  0.18329943678E+04 0.  0.
        2    1    3    3  502    0 -0.33887756932E+03 -0.84471339164E+03  0.54071841994E+03  0.10586572300E+04  0.25500000920E-02 0.  1.
       -2    1    3    3    0  502  0.33887756932E+03  0.84471339164E+03  0.30367381293E+03  0.95947720436E+03  0.25500000920E-02 0. -1.
</event>
<event>
 5   0  0.1837313E-04  0.1871298E+04  0.7818609E-02  0.8669277E-01
       -1   -1    0    0    0  501  0.00000000000E+00  0.00000000000E+00  0.66609138560E+03  0.66609138562E+03  0.50400001928E-02 0.  1.
        1   -1    0    0  501    0  0.00000000000E+00  0.00000000000E+00 -0.13142922985E+04  0.13142922985E+04  0.50400001928E-02 0. -1.
    10030    2    1    2    0    0  0.00000000000E+00  0.00000000000E+00 -0.64820091293E+03  0.19803836842E+04  0.18712977083E+04 0.  0.
        1    1    3    3  502    0  0.99215219637E+02  0.23885955938E+03 -0.12757072617E+04  0.13016630003E+04  0.50400001928E-02 0. -1.
       -1    1    3    3    0  502 -0.99215219637E+02 -0.23885955938E+03  0.62750634874E+03  0.67872068383E+03  0.50400001928E-02 0.  1.
</event>
<event>
 5   0  0.3628581E-04  0.1724245E+04  0.7818609E-02  0.8747656E-01
        2   -1    0    0  501    0  0.00000000000E+00  0.00000000000E+00  0.15809830636E+04  0.15809830636E+04  0.25500000920E-02 0.  1.
       -2   -1    0    0    0  501  0.00000000000E+00  0.00000000000E+00 -0.47012200046E+03  0.47012200046E+03  0.25500000920E-02 0. -1.
    10030    2    1    2    0    0  0.00000000000E+00  0.00000000000E+00  0.11108610631E+04  0.20511050641E+04  0.17242446701E+04 0.  0.
        2    1    3    3  502    0  0.15279400398E+03 -0.82225340905E+03  0.80441195095E+03  0.11603987518E+04  0.25500000920E-02 0.  1.
       -2    1    3    3    0  502 -0.15279400398E+03  0.82225340905E+03  0.30644911219E+03  0.89070631227E+03  0.25500000920E-02 0. -1.
</event>
<event>
 5   0  0.3628581E-04  0.1712025E+04  0.7818609E-02  0.8754536E-01
       -2   -1    0    0    0  501  0.00000000000E+00  0.00000000000E+00  0.57367933610E+03  0.57367933610E+03  0.25500000920E-02 0. -1.
        2   -1    0    0  501    0  0.00000000000E+00  0.00000000000E+00 -0.12772942819E+04  0.12772942819E+04  0.25500000920E-02 0.  1.
    10030    2    1    2    0    0  0.00000000000E+00  0.00000000000E+00 -0.70361494579E+03  0.18509736180E+04  0.17120249246E+04 0.  0.
        2    1    3    3  502    0  0.49517787241E+03  0.56378846657E+03 -0.79718623073E+03  0.10947896816E+04  0.25500000920E-02 0.  1.
       -2    1    3    3    0  502 -0.49517787241E+03 -0.56378846657E+03  0.93571284935E+02  0.75618393644E+03  0.25500000920E-02 0. -1.
</event>
<event>
 5   0  0.1818778E-04  0.1783926E+04  0.7818609E-02  0.8714894E-01
       -1   -1    0    0    0  501  0.00000000000E+00  0.00000000000E+00  0.14113888944E+04  0.14113888944E+04  0.50400001928E-02 0.  1.
        1   -1    0    0  501    0  0.00000000000E+00  0.00000000000E+00 -0.56369859493E+03  0.56369859496E+03  0.50400001928E-02 0. -1.
    10030    2    1    2    0    0  0.00000000000E+00  0.00000000000E+00  0.84769029946E+03  0.19750874894E+04  0.17839259365E+04 0.  0.
        3    1    3    3  502    0  0.61986322760E+03 -0.14519875162E+03 -0.26782710143E+03  0.69068405574E+03  0.10100000352E+00 0. -1.
       -3    1    3    3    0  502 -0.61986322760E+03  0.14519875162E+03  0.11155174009E+04  0.12844034336E+04  0.10100000352E+00 0.  1.
</event>
<event>
 5   0  0.1837313E-04  0.1813769E+04  0.7818609E-02  0.8699012E-01
       -1   -1    0    0    0  501  0.00000000000E+00  0.00000000000E+00  0.91982333184E+03  0.91982333186E+03  0.50400001928E-02 0. -1.
        1   -1    0    0  501    0  0.00000000000E+00  0.00000000000E+00 -0.89412731463E+03  0.89412731464E+03  0.50400001928E-02 0.  1.
    10030    2    1    2    0    0  0.00000000000E+00  0.00000000000E+00  0.25696017214E+02  0.18139506465E+04  0.18137686354E+04 0.  0.
        1    1    3    3  502    0 -0.34274031304E+03 -0.73348589880E+03 -0.39580856054E+03  0.90118638613E+03  0.50400001928E-02 0.  1.
       -1    1    3    3    0  502  0.34274031304E+03  0.73348589880E+03  0.42150457776E+03  0.91276426037E+03  0.50400001928E-02 0. -1.
</event>
<event>
 5   0  0.1818778E-04  0.1782963E+04  0.7818609E-02  0.8715412E-01
       -1   -1    0    0    0  501  0.00000000000E+00  0.00000000000E+00  0.62430370240E+03  0.62430370243E+03  0.50400001928E-02 0. -1.
        1   -1    0    0  501    0  0.00000000000E+00  0.00000000000E+00 -0.12730009090E+04  0.12730009090E+04  0.50400001928E-02 0.  1.
    10030    2    1    2    0    0  0.00000000000E+00  0.00000000000E+00 -0.64869720656E+03  0.18973046114E+04  0.17829629056E+04 0.  0.
        3    1    3    3  502    0 -0.15921978472E+03  0.81060901130E+03  0.32256104012E+02  0.82672750982E+03  0.10100000352E+00 0. -1.
       -3    1    3    3    0  502  0.15921978472E+03 -0.81060901130E+03 -0.68095331057E+03  0.10705771016E+04  0.10100000352E+00 0.  1.
</event>
<event>
 5   0  0.1883959E-04  0.1801014E+04  0.7818609E-02  0.8705760E-01
        1   -1    0    0  501    0  0.00000000000E+00  0.00000000000E+00  0.68720177690E+03  0.68720177692E+03  0.50400001928E-02 0.  1.
       -1   -1    0    0    0  501  0.00000000000E+00  0.00000000000E+00 -0.11800220301E+04  0.11800220301E+04  0.50400001928E-02 0. -1.
    10030    2    1    2    0    0  0.00000000000E+00  0.00000000000E+00 -0.49282025319E+03  0.18672238070E+04  0.18010144207E+04 0.  0.
        5    1    3    3  502    0 -0.13888096801E+03 -0.87340838393E+03 -0.42223540304E+03  0.98001783350E+03  0.46999998093E+01 0. -1.
       -5    1    3    3    0  502  0.13888096801E+03  0.87340838393E+03 -0.70584850145E+02  0.88720597353E+03  0.46999998093E+01 0.  1.
</event>
<event>
 5   0  0.1825253E-04  0.1819793E+04  0.7818609E-02  0.8695844E-01
       -1   -1    0    0    0  501  0.00000000000E+00  0.00000000000E+00  0.46752602168E+03  0.46752602170E+03  0.50400001928E-02 0.  1.
        1   -1    0    0  501    0  0.00000000000E+00  0.00000000000E+00 -0.17708363091E+04  0.17708363092E+04  0.50400001928E-02 0. -1.
    10030    2    1    2    0    0  0.00000000000E+00  0.00000000000E+00 -0.13033102875E+04  0.22383623309E+04  0.18197934550E+04 0.  0.
        4    1    3    3  502    0 -0.50083704319E+03  0.23640597991E+03  0.23632694648E+03  0.60214414362E+03  0.12699999809E+01 0.  1.
       -4    1    3    3    0  502  0.50083704319E+03 -0.23640597991E+03 -0.15396372339E+04  0.16362181872E+04  0.12699999809E+01 0. -1.
</event>
<event>
 5   0  0.1825253E-04  0.1773590E+04  0.7818609E-02  0.8720472E-01
       -1   -1    0    0    0  501  0.00000000000E+00  0.00000000000E+00  0.37965352479E+03  0.37965352482E+03  0.50400001928E-02 0. -1.
        1   -1    0    0  501    0  0.00000000000E+00  0.00000000000E+00 -0.20713761606E+04  0.20713761606E+04  0.50400001928E-02 0.  1.
    10030    2    1    2    0    0  0.00000000000E+00  0.00000000000E+00 -0.16917226358E+04  0.24510296855E+04  0.17735898743E+04 0.  0.
        4    1    3    3  502    0  0.33965237159E+03 -0.65825958972E+03 -0.17204546189E+03  0.76044110544E+03  0.12699999809E+01 0. -1.
       -4    1    3    3    0  502 -0.33965237159E+03  0.65825958972E+03 -0.15196771739E+04  0.16905885800E+04  0.12699999809E+01 0.  1.
</event>
<event>
 5   0  0.3568870E-04  0.1800062E+04  0.7818609E-02  0.8706266E-01
       -2   -1    0    0    0  501  0.00000000000E+00  0.00000000000E+00  0.59353019954E+03  0.59353019955E+03  0.25500000920E-02 0.  1.
        2   -1    0    0  501    0  0.00000000000E+00  0.00000000000E+00 -0.13648102487E+04  0.13648102487E+04  0.25500000920E-02 0. -1.
    10030    2    1    2    0    0  0.00000000000E+00  0.00000000000E+00 -0.77128004914E+03  0.19583404482E+04  0.18000623314E+04 0.  0.
        1    1    3    3  502    0  0.67403246056E+02 -0.88302550450E+03 -0.21096431961E+03  0.91037529807E+03  0.50400001928E-02 0.  1.
       -1    1    3    3    0  502 -0.67403246056E+02  0.88302550450E+03 -0.56031572953E+03  0.10479651502E+04  0.50400001928E-02 0. -1.
</event>
<event>
 5   0  0.3531266E-04  0.1809035E+04  0.7818609E-02  0.8701509E-01
        2   -1    0    0  501    0  0.00000000000E+00  0.00000000000E+00  0.58385645944E+03  0.58385645944E+03  0.25500000920E-02 0. -1.
       -2   -1    0    0    0  501  0.00000000000E+00  0.00000000000E+00 -0.14012894218E+04  0.14012894218E+04  0.25500000920E-02 0.  1.
    10030    2    1    2    0    0  0.00000000000E+00  0.00000000000E+00 -0.81743296240E+03  0.19851458813E+04  0.18090349698E+04 0.  0.
        3    1    3    3  502    0  0.28013360579E+03  0.78551886123E+03 -0.79300418888E+03  0.11508129180E+04  0.10100000352E+00 0.  1.
       -3    1    3    3    0  502 -0.28013360579E+03 -0.78551886123E+03 -0.24428773520E+02  0.83433296328E+03  0.10100000352E+00 0. -1.
</event>
<event>
 5   0  0.1883959E-04  0.1783279E+04  0.7818609E-02  0.8715242E-01
        1   -1    0    0  501    0  0.00000000000E+00  0.00000000000E+00  0.21697339435E+04  0.21697339435E+04  0.50400001928E-02 0.  1.
       -1   -1    0    0    0  501  0.00000000000E+00  0.00000000000E+00 -0.36641407173E+03  0.36641407176E+03  0.50400001928E-02 0. -1.
    10030    2    1    2    0    0  0.00000000000E+00  0.00000000000E+00  0.18033198718E+04  0.25361480153E+04  0.17832790571E+04 0.  0.
        5    1    3    3  502    0 -0.12145786952E+03  0.66292626227E+03  0.17318730827E+04  0.18583943897E+04  0.46999998093E+01 0.  1.
       -5    1    3    3    0  502  0.12145786952E+03 -0.66292626227E+03  0.71446789113E+02  0.67775362556E+03  0.46999998093E+01 0. -1.
</event>
<event>
 5   0  0.3628581E-04  0.1831481E+04  0.7818609E-02  0.8689735E-01
        2   -1    0    0  501    0  0.00000000000E+00  0.00000000000E+00  0.13369230804E+04  0.13369230804E+04  0.25500000920E-02 0.  1.
       -2   -1    0    0    0  501  0.00000000000E+00  0.00000000000E+00 -0.62724682084E+03  0.62724682085E+03  0.25500000920E-02 0. -1.
    10030    2    1    2    0    0  0.00000000000E+00  0.00000000000E+00  0.70967625956E+03  0.19641699012E+04  0.18314810967E+04 0.  0.
        2    1    3    3  502    0  0.35947267115E+03 -0.35378186808E+03  0.11745417345E+04  0.12782529083E+04  0.25500000920E-02 0.  1.
       -2    1    3    3    0  502 -0.35947267115E+03  0.35378186808E+03 -0.46486547491E+03  0.68591699298E+03  0.25500000920E-02 0. -1.
</event>
<event>
 5   0  0.3582186E-04  0.1827900E+04  0.7818609E-02  0.8691602E-01
        2   -1    0    0  501    0  0.00000000000E+00  0.00000000000E+00  0.14909472448E+04  0.14909472448E+04  0.25500000920E-02 0. -1.
       -2   -1    0    0    0  501  0.00000000000E+00  0.00000000000E+00 -0.56025065372E+03  0.56025065373E+03  0.25500000920E-02 0.  1.
    10030    2    1    2    0    0  0.00000000000E+00  0.00000000000E+00  0.93069659110E+03  0.20511978986E+04  0.18278995252E+04 0.  0.
        4    1    3    3  502    0  0.41210701041E+03  0.59405003665E+03 -0.16203407135E+03  0.74093473886E+03  0.12699999809E+01 0.  1.
       -4    1    3    3    0  502 -0.41210701041E+03 -0.59405003665E+03  0.10927306625E+04  0.13102631597E+04  0.12699999809E+01 0. -1.
</event>
<event>
 5   0  0.1825253E-04  0.1799221E+04  0.7818609E-02  0.8706714E-01
        1   -1    0    0  501    0  0.00000000000E+00  0.00000000000E+00  0.11682051964E+04  0.11682051964E+04  0.50400001928E-02 0. -1.
       -1   -1    0    0    0  501  0.00000000000E+00  0.00000000000E+00 -0.69277138338E+03  0.69277138340E+03  0.50400001928E-02 0.  1.
    10030    2    1    2    0    0  0.00000000000E+00  0.00000000000E+00  0.47543381305E+03  0.18609765798E+04  0.17992210871E+04 0.  0.
        4    1    3    3  502    0  0.63517540595E+03  0.21562019435E+03  0.85775707276E+03  0.10888933250E+04  0.12699999809E+01 0. -1.
       -4    1    3    3    0  502 -0.63517540595E+03 -0.21562019435E+03 -0.38232325972E+03  0.77208325481E+03  0.12699999809E+01 0.  1.
</event>
<event>
 5   0  0.3575091E-04  0.1774870E+04  0.7818609E-02  0.8719779E-01
       -2   -1    0    0    0  501  0.00000000000E+00  0.00000000000E+00  0.10991930889E+04  0.10991930890E+04  0.25500000920E-02 0. -1.
        2   -1    0    0  501    0  0.00000000000E+00  0.00000000000E+00 -0.71647144400E+03  0.71647144401E+03  0.25500000920E-02 0.  1.
    10030    2    1    2    0    0  0.00000000000E+00  0.00000000000E+00  0.38272164494E+03  0.18156645330E+04  0.17748695272E+04 0.  0.
        5    1    3    3  502    0  0.84519102890E+03 -0.25947322232E+03  0.11315672126E+03  0.89134772227E+03  0.46999998093E+01 0. -1.
       -5    1    3    3    0  502 -0.84519102890E+03  0.25947322232E+03  0.26956492368E+03  0.92431681069E+03  0.46999998093E+01 0.  1.
</event>
<event>
 5   0  0.3568870E-04  0.1787544E+04  0.7818609E-02  0.8712951E-01
       -2   -1    0    0    0  501  0.00000000000E+00  0.00000000000E+00  0.10461593117E+04  0.10461593117E+04  0.25500000920E-02 0. -1.
        2   -1    0    0  501    0  0.00000000000E+00  0.00000000000E+00 -0.76358231733E+03  0.76358231733E+03  0.25500000920E-02 0.  1.
    10030    2    1    2    0    0  0.00000000000E+00  0.00000000000E+00  0.28257699440E+03  0.18097416291E+04  0.17875444068E+04 0.  0.
        1    1    3    3  502    0  0.73384708596E+03  0.36910163588E+03 -0.21530851937E+03  0.84919098072E+03  0.50400001928E-02 0.  1.
       -1    1    3    3    0  502 -0.73384708596E+03 -0.36910163588E+03  0.49788551377E+03  0.96055064835E+03  0.50400001928E-02 0. -1.
</event>
<event>
 5   0  0.1825253E-04  0.1796292E+04  0.7818609E-02  0.8708274E-01
       -1   -1    0    0    0  501  0.00000000000E+00  0.00000000000E+00  0.69746433115E+03  0.69746433117E+03  0.50400001928E-02 0.  1.
        1   -1    0    0  501    0  0.00000000000E+00  0.00000000000E+00 -0.11565694864E+04  0.11565694864E+04  0.50400001928E-02 0. -1.
    10030    2    1    2    0    0  0.00000000000E+00  0.00000000000E+00 -0.45910515526E+03  0.18540338176E+04  0.17962916949E+04 0.  0.
        4    1    3    3  502    0  0.72118140128E+03  0.47377609176E+03 -0.48675758962E+03  0.99070730422E+03  0.12699999809E+01 0. -1.
       -4    1    3    3    0  502 -0.72118140128E+03 -0.47377609176E+03  0.27652434358E+02  0.86332651338E+03  0.12699999809E+01 0.  1.
</event>
<event>
 5   0  0.1837313E-04  0.1794796E+04  0.7818609E-02  0.8709072E-01
        1   -1    0    0  501    0  0.00000000000E+00  0.00000000000E+00  0.52624930273E+03  0.52624930276E+03  0.50400001928E-02 0. -1.
       -1   -1    0    0    0  501  0.00000000000E+00  0.00000000000E+00 -0.15303076554E+04  0.15303076554E+04  0.50400001928E-02 0.  1.
    10030    2    1    2    0    0  0.00000000000E+00  0.00000000000E+00 -0.10040583527E+04  0.20565569582E+04  0.17947961853E+04 0.  0.
        1    1    3    3  502    0  0.75882151540E+03  0.39196781530E+02 -0.10491345559E+04  0.12953878942E+04  0.50400001928E-02 0.  1.
       -1    1    3    3    0  502 -0.75882151540E+03 -0.39196781530E+02  0.45076203216E+02  0.76116906403E+03  0.50400001928E-02 0. -1.
</event>
<event>
 5   0  0.3582186E-04  0.1792131E+04  0.7818609E-02  0.8710495E-01
       -2   -1    0    0    0  501  0.00000000000E+00  0.00000000000E+00  0.31916957913E+03  0.31916957914E+03  0.25500000920E-02 0.  1.
        2   -1    0    0  501    0  0.00000000000E+00  0.00000000000E+00 -0.25156965171E+04  0.25156965171E+04  0.25500000920E-02 0. -1.
    10030    2    1    2    0    0  0.00000000000E+00  0.00000000000E+00 -0.21965269380E+04  0.28348660962E+04  0.17921314668E+04 0.  0.
        4    1    3    3  502    0 -0.12732056762E+03 -0.77117849889E+03 -0.40512598538E+03  0.88037235363E+03  0.12699999809E+01 0.  1.
       -4    1    3    3    0  502  0.12732056762E+03  0.77117849889E+03 -0.17914009526E+04  0.19544937426E+04  0.12699999809E+01 0. -1.
</event>
<event>
 5   0  0.3531266E-04  0.1667701E+04  0.7818609E-02  0.8780003E-01
        2   -1    0    0  501    0  0.00000000000E+00  0.00000000000E+00  0.17127431498E+04  0.17127431498E+04  0.25500000920E-02 0.  1.
       -2   -1    0    0    0  501  0.00000000000E+00  0.00000000000E+00 -0.40596061188E+03  0.40596061189E+03  0.25500000920E-02 0. -1.
    10030    2    1    2    0    0  0.00000000000E+00  0.00000000000E+00  0.13067825380E+04  0.21187037617E+04  0.16677005212E+04 0.  0.
        3    1    3    3  502    0 -0.31652824186E+03  0.33408291064E+03 -0.22999884697E+03  0.51449100953E+03  0.10100000352E+00 0. -1.
       -3    1    3    3    0  502  0.31652824186E+03 -0.33408291064E+03  0.15367813849E+04  0.16042127522E+04  0.10100000352E+00 0.  1.
</event>
<event>
 5   0  0.3628581E-04  0.1825214E+04  0.7818609E-02  0.8693005E-01
       -2   -1    0    0    0  501  0.00000000000E+00  0.00000000000E+00  0.45076468989E+03  0.45076468990E+03  0.25500000920E-02 0. -1.
        2   -1    0    0  501    0  0.00000000000E+00  0.00000000000E+00 -0.18476421172E+04  0.18476421173E+04  0.25500000920E-02 0.  1.
    10030    2    1    2    0    0  0.00000000000E+00  0.00000000000E+00 -0.13968774274E+04  0.22984068071E+04  0.18252143173E+04 0.  0.
        2    1    3    3  502    0 -0.43207568785E+03  0.71948536621E+03 -0.24702987245E+03  0.87485561672E+03  0.25500000920E-02 0. -1.
       -2    1    3    3    0  502  0.43207568785E+03 -0.71948536621E+03 -0.11498475549E+04  0.14235511904E+04  0.25500000920E-02 0.  1.
</event>
<event>
 5   0  0.3628581E-04  0.1788758E+04  0.7818609E-02  0.8712301E-01
       -2   -1    0    0    0  501  0.00000000000E+00  0.00000000000E+00  0.45289696613E+03  0.45289696613E+03  0.25500000920E-02 0. -1.
        2   -1    0    0  501    0  0.00000000000E+00  0.00000000000E+00 -0.17662165333E+04  0.17662165333E+04  0.25500000920E-02 0.  1.
    10030    2    1    2    0    0  0.00000000000E+00  0.00000000000E+00 -0.13133195672E+04  0.22191134995E+04  0.17887583509E+04 0.  0.
        2    1    3    3  502    0  0.83138367426E+03  0.29938390946E+03 -0.48527627278E+03  0.10081282657E+04  0.25500000920E-02 0.  1.
       -2    1    3    3    0  502 -0.83138367426E+03 -0.29938390946E+03 -0.82804329443E+03  0.12109852338E+04  0.25500000920E-02 0. -1.
</event>
<event>
 5   0  0.3582186E-04  0.1770199E+04  0.7818609E-02  0.8722310E-01
        2   -1    0    0  501    0  0.00000000000E+00  0.00000000000E+00  0.13235037746E+04  0.13235037746E+04  0.25500000920E-02 0. -1.
       -2   -1    0    0    0  501  0.00000000000E+00  0.00000000000E+00 -0.59191449720E+03  0.59191449721E+03  0.25500000920E-02 0.  1.
    10030    2    1    2    0    0  0.00000000000E+00  0.00000000000E+00  0.73158927740E+03  0.19154182718E+04  0.17701989394E+04 0.  0.
        4    1    3    3  502    0 -0.11040690196E+03 -0.31098656786E+03 -0.52285711542E+03  0.61829079359E+03  0.12699999809E+01 0.  1.
       -4    1    3    3    0  502  0.11040690196E+03  0.31098656786E+03  0.12544463928E+04  0.12971274782E+04  0.12699999809E+01 0. -1.
</event>
<event>
 5   0  0.3575091E-04  0.1757716E+04  0.7818609E-02  0.8729115E-01
       -2   -1    0    0    0  501  0.00000000000E+00  0.00000000000E+00  0.61322237686E+03  0.61322237687E+03  0.25500000920E-02 0. -1.
        2   -1    0    0  501    0  0.00000000000E+00  0.00000000000E+00 -0.12595615128E+04  0.12595615128E+04  0.25500000920E-02 0.  1.
    10030    2    1    2    0    0  0.00000000000E+00  0.00000000000E+00 -0.64633913598E+03  0.18727838897E+04  0.17577159096E+04 0.  0.
        5    1    3    3  502    0  0.34811389451E+03  0.70044024908E+03 -0.75011302076E+03  0.10837395720E+04  0.46999998093E+01 0.  1.
       -5    1    3    3    0  502 -0.34811389451E+03 -0.70044024908E+03  0.10377388479E+03  0.78904431767E+03  0.46999998093E+01 0. -1.
</event>
<event>
 5   0  0.3575091E-04  0.1807915E+04  0.7818609E-02  0.8702102E-01
        2   -1    0    0  501    0  0.00000000000E+00  0.00000000000E+00  0.11220420871E+04  0.11220420871E+04  0.25500000920E-02 0.  1.
       -2   -1    0    0    0  501  0.00000000000E+00  0.00000000000E+00 -0.72826032232E+03  0.72826032233E+03  0.25500000920E-02 0. -1.
    10030    2    1    2    0    0  0.00000000000E+00  0.00000000000E+00  0.39378176475E+03  0.18503024094E+04  0.18079145245E+04 0.  0.
        5    1    3    3  502    0 -0.16918454635E+03 -0.38939368856E+03 -0.61985843427E+03  0.75133043593E+03  0.46999998093E+01 0. -1.
       -5    1    3    3    0  502  0.16918454635E+03  0.38939368856E+03  0.10136401990E+04  0.10989719735E+04  0.46999998093E+01 0.  1.
</event>
<event>
 5   0  0.3531266E-04  0.1820617E+04  0.7818609E-02  0.8695412E-01
       -2   -1    0    0    0  501  0.00000000000E+00  0.00000000000E+00  0.47237353438E+03  0.47237353439E+03  0.25500000920E-02 0. -1.
        2   -1    0    0  501    0  0.00000000000E+00  0.00000000000E+00 -0.17542503656E+04  0.17542503656E+04  0.25500000920E-02 0.  1.
    10030    2    1    2    0    0  0.00000000000E+00  0.00000000000E+00 -0.12818768312E+04  0.22266239000E+04  0.18206168684E+04 0.  0.
        3    1    3    3  502    0  0.67359879210E+03  0.55558284823E+03 -0.32613915453E+03  0.93208067906E+03  0.10100000352E+00 0. -1.
       -3    1    3    3    0  502 -0.67359879210E+03 -0.55558284823E+03 -0.95573767666E+03  0.12945432209E+04  0.10100000352E+00 0.  1.
</event>
<event>
 5   0  0.1825253E-04  0.1775399E+04  0.7818609E-02  0.8719493E-01
       -1   -1    0    0    0  501  0.00000000000E+00  0.00000000000E+00  0.11504896873E+04  0.11504896873E+04  0.50400001928E-02 0. -1.
        1   -1    0    0  501    0  0.00000000000E+00  0.00000000000E+00 -0.68493451607E+03  0.68493451609E+03  0.50400001928E-02 0.  1.
    10030    2    1    2    0    0  0.00000000000E+00  0.00000000000E+00  0.46555517121E+03  0.18354242034E+04  0.17753986563E+04 0.  0.
        4    1    3    3  502    0 -0.76921068796E+03 -0.28624758984E+02  0.68988516139E+03  0.10336573940E+04  0.12699999809E+01 0.  1.
       -4    1    3    3    0  502  0.76921068796E+03  0.28624758984E+02 -0.22432999018E+03  0.80176680942E+03  0.12699999809E+01 0. -1.
</event>
<event>
 5   0  0.1837313E-04  0.2025458E+04  0.7818609E-02  0.8594810E-01
       -1   -1    0    0    0  501  0.00000000000E+00  0.00000000000E+00  0.86923965979E+03  0.86923965980E+03  0.50400001928E-02 0.  1.
        1   -1    0    0  501    0  0.00000000000E+00  0.00000000000E+00 -0.11799042531E+04  0.11799042531E+04  0.50400001928E-02 0. -1.
    10030    2    1    2    0    0  0.00000000000E+00  0.00000000000E+00 -0.31066459327E+03  0.20491439129E+04  0.20254575498E+04 0.  0.
        1    1    3    3  502    0  0.88484245993E+03 -0.44695399752E+03 -0.36489108707E+03  0.10563425393E+04  0.50400001928E-02 0. -1.
       -1    1    3    3    0  502 -0.88484245993E+03  0.44695399752E+03  0.54226493798E+02  0.99280137362E+03  0.50400001928E-02 0.  1.
</event>
<event>
 5   0  0.3628581E-04  0.1354233E+04  0.7818609E-02  0.8987630E-01
       -2   -1    0    0    0  501  0.00000000000E+00  0.00000000000E+00  0.10239072160E+04  0.10239072160E+04  0.25500000920E-02 0.  1.
        2   -1    0    0  501    0  0.00000000000E+00  0.00000000000E+00 -0.44778138850E+03  0.44778138851E+03  0.25500000920E-02 0. -1.
    10030    2    1    2    0    0  0.00000000000E+00  0.00000000000E+00  0.57612582747E+03  0.14716886045E+04  0.13542327641E+04 0.  0.
        2    1    3    3  502    0 -0.54233008508E+02 -0.24760416426E+03 -0.39427830329E+03  0.46872638268E+03  0.25500000920E-02 0. -1.
       -2    1    3    3    0  502  0.54233008508E+02  0.24760416426E+03  0.97040413076E+03  0.10029622218E+04  0.25500000920E-02 0.  1.
</event>
<event>
 5   0  0.3582186E-04  0.1790092E+04  0.7818609E-02  0.8711586E-01
        2   -1    0    0  501    0  0.00000000000E+00  0.00000000000E+00  0.18123612433E+04  0.18123612433E+04  0.25500000920E-02 0. -1.
       -2   -1    0    0    0  501  0.00000000000E+00  0.00000000000E+00 -0.44202404554E+03  0.44202404555E+03  0.25500000920E-02 0.  1.
    10030    2    1    2    0    0  0.00000000000E+00  0.00000000000E+00  0.13703371978E+04  0.22543852889E+04  0.17900918957E+04 0.  0.
        4    1    3    3  502    0  0.73137370214E+03  0.10542863447E+03  0.49115272756E+02  0.74056506268E+03  0.12699999809E+01 0.  1.
       -4    1    3    3    0  502 -0.73137370214E+03 -0.10542863447E+03  0.13212219251E+04  0.15138202262E+04  0.12699999809E+01 0. -1.
</event>
<event>
 5   0  0.1883959E-04  0.1802751E+04  0.7818609E-02  0.8704838E-01
       -1   -1    0    0    0  501  0.00000000000E+00  0.00000000000E+00  0.73373163137E+03  0.73373163139E+03  0.50400001928E-02 0.  1.
        1   -1    0    0  501    0  0.00000000000E+00  0.00000000000E+00 -0.11073225731E+04  0.11073225731E+04  0.50400001928E-02 0. -1.
    10030    2    1    2    0    0  0.00000000000E+00  0.00000000000E+00 -0.37359094174E+03  0.18410542045E+04  0.18027507848E+04 0.  0.
        5    1    3    3  502    0 -0.33265833948E+03 -0.36614494368E+03 -0.95628461811E+03  0.10766736049E+04  0.46999998093E+01 0. -1.
       -5    1    3    3    0  502  0.33265833948E+03  0.36614494368E+03  0.58269367637E+03  0.76438059963E+03  0.46999998093E+01 0.  1.
</event>
<event>
 5   0  0.1330125E-04  0.1894824E+04  0.7818609E-02  0.8657437E-01
        3   -1    0    0  501    0  0.00000000000E+00  0.00000000000E+00  0.94018964292E+03  0.94018964835E+03  0.10100000352E+00 0.  1.
       -3   -1    0    0    0  501  0.00000000000E+00  0.00000000000E+00 -0.95469020743E+03  0.95469021278E+03  0.10100000352E+00 0. -1.
    10030    2    1    2    0    0  0.00000000000E+00  0.00000000000E+00 -0.14500564513E+02  0.18948798611E+04  0.18948243775E+04 0.  0.
        1    1    3    3  502    0  0.87954952669E+03  0.12420023208E+03  0.32223893667E+03  0.94491851494E+03  0.50400001928E-02 0. -1.
       -1    1    3    3    0  502 -0.87954952669E+03 -0.12420023208E+03 -0.33673950119E+03  0.94996134618E+03  0.50400001928E-02 0.  1.
</event>
<event>
 5   0  0.3582186E-04  0.1802328E+04  0.7818609E-02  0.8705062E-01
       -2   -1    0    0    0  501  0.00000000000E+00  0.00000000000E+00  0.91999854728E+03  0.91999854729E+03  0.25500000920E-02 0. -1.
        2   -1    0    0  501    0  0.00000000000E+00  0.00000000000E+00 -0.88271529378E+03  0.88271529378E+03  0.25500000920E-02 0.  1.
    10030    2    1    2    0    0  0.00000000000E+00  0.00000000000E+00  0.37283253503E+02  0.18027138411E+04  0.18023282586E+04 0.  0.
        4    1    3    3  502    0 -0.66639402535E+03  0.60120037971E+03 -0.62445325675E+02  0.89967990151E+03  0.12699999809E+01 0.  1.
       -4    1    3    3    0  502  0.66639402535E+03 -0.60120037971E+03  0.99728579178E+02  0.90303393956E+03  0.12699999809E+01 0. -1.
</event>
<event>
 5   0  0.1883959E-04  0.1825588E+04  0.7818609E-02  0.8692809E-01
       -1   -1    0    0    0  501  0.00000000000E+00  0.00000000000E+00  0.56866365130E+03  0.56866365133E+03  0.50400001928E-02 0.  1.
        1   -1    0    0  501    0  0.00000000000E+00  0.00000000000E+00 -0.14651775144E+04  0.14651775144E+04  0.50400001928E-02 0. -1.
    10030    2    1    2    0    0  0.00000000000E+00  0.00000000000E+00 -0.89651386312E+03  0.20338411658E+04  0.18255883383E+04 0.  0.
        5    1    3    3  502    0  0.25909342935E+03  0.74450148590E+03 -0.96092393122E+03  0.12429033588E+04  0.46999998093E+01 0.  1.
       -5    1    3    3    0  502 -0.25909342935E+03 -0.74450148590E+03  0.64410068106E+02  0.79093780698E+03  0.46999998093E+01 0. -1.
</event>
<event>
 5   0  0.1825253E-04  0.1808395E+04  0.7818609E-02  0.8701848E-01
       -1   -1    0    0    0  501  0.00000000000E+00  0.00000000000E+00  0.84436486921E+03  0.84436486922E+03  0.50400001928E-02 0. -1.
        1   -1    0    0  501    0  0.00000000000E+00  0.00000000000E+00 -0.96827032691E+03  0.96827032693E+03  0.50400001928E-02 0.  1.
    10030    2    1    2    0    0  0.00000000000E+00  0.00000000000E+00 -0.12390545771E+03  0.18126351961E+04  0.18083953638E+04 0.  0.
        4    1    3    3  502    0 -0.37479846147E+03  0.62290437976E+03 -0.60088242826E+03  0.94315696389E+03  0.12699999809E+01 0.  1.
       -4    1    3    3    0  502  0.37479846147E+03 -0.62290437976E+03  0.47697697055E+03  0.86947823226E+03  0.12699999809E+01 0. -1.
</event>
<event>
 5   0  0.1825253E-04  0.2210538E+04  0.7818609E-02  0.8514055E-01
        1   -1    0    0  501    0  0.00000000000E+00  0.00000000000E+00  0.96778709489E+03  0.96778709490E+03  0.50400001928E-02 0. -1.
       -1   -1    0    0    0  501  0.00000000000E+00  0.00000000000E+00 -0.12622814981E+04  0.12622814981E+04  0.50400001928E-02 0.  1.
    10030    2    1    2    0    0  0.00000000000E+00  0.00000000000E+00 -0.29449440324E+03  0.22300685930E+04  0.22105381644E+04 0.  0.
        4    1    3    3  502    0 -0.51103097181E+03 -0.76960460118E+03  0.46488735964E+03  0.10341981272E+04  0.12699999809E+01 0. -1.
       -4    1    3    3    0  502  0.51103097181E+03  0.76960460118E+03 -0.75938176288E+03  0.11958704658E+04  0.12699999809E+01 0.  1.
</event>
<event>
 5   0  0.1837313E-04  0.1788352E+04  0.7818609E-02  0.8712518E-01
       -1   -1    0    0    0  501  0.00000000000E+00  0.00000000000E+00  0.11216011985E+04  0.11216011985E+04  0.50400001928E-02 0. -1.
        1   -1    0    0  501    0  0.00000000000E+00  0.00000000000E+00 -0.71286532871E+03  0.71286532873E+03  0.50400001928E-02 0.  1.
    10030    2    1    2    0    0  0.00000000000E+00  0.00000000000E+00  0.40873586982E+03  0.18344665273E+04  0.17883518749E+04 0.  0.
        1    1    3    3  502    0 -0.54516588026E+03  0.61920372832E+03  0.55812513603E+03  0.99605359377E+03  0.50400001928E-02 0. -1.
       -1    1    3    3    0  502  0.54516588026E+03 -0.61920372832E+03 -0.14938926621E+03  0.83841293349E+03  0.50400001928E-02 0.  1.
</event>
<event>
 5   0  0.1837313E-04  0.1799207E+04  0.7818609E-02  0.8706721E-01
       -1   -1    0    0    0  501  0.00000000000E+00  0.00000000000E+00  0.14550744877E+04  0.14550744877E+04  0.50400001928E-02 0.  1.
        1   -1    0    0  501    0  0.00000000000E+00  0.00000000000E+00 -0.55618240174E+03  0.55618240176E+03  0.50400001928E-02 0. -1.
    10030    2    1    2    0    0  0.00000000000E+00  0.00000000000E+00  0.89889208593E+03  0.20112568894E+04  0.17992074069E+04 0.  0.
        1    1    3    3  502    0 -0.23593443934E+02  0.83627682530E+03  0.79755883402E+02  0.84040262975E+03  0.50400001928E-02 0. -1.
       -1    1    3    3    0  502  0.23593443934E+02 -0.83627682530E+03  0.81913620253E+03  0.11708542597E+04  0.50400001928E-02 0.  1.
</event>
<event>
 5   0  0.1330125E-04  0.1801589E+04  0.7818609E-02  0.8705455E-01
        4   -1    0    0  501    0  0.00000000000E+00  0.00000000000E+00  0.14699374997E+04  0.14699380483E+04  0.12699999809E+01 0. -1.
       -4   -1    0    0    0  501  0.00000000000E+00  0.00000000000E+00 -0.55201603719E+03  0.55201749811E+03  0.12699999809E+01 0.  1.
    10030    2    1    2    0    0  0.00000000000E+00  0.00000000000E+00  0.91792146248E+03  0.20219555464E+04  0.18015894150E+04 0.  0.
        1    1    3    3  502    0 -0.24008268149E+03 -0.46420539406E+03 -0.36447535014E+03  0.63715667045E+03  0.50400001928E-02 0.  1.
       -1    1    3    3    0  502  0.24008268149E+03  0.46420539406E+03  0.12823968126E+04  0.13847988760E+04  0.50400001928E-02 0. -1.
</event>
<event>
 5   0  0.1883959E-04  0.1793804E+04  0.7818609E-02  0.8709602E-01
        1   -1    0    0  501    0  0.00000000000E+00  0.00000000000E+00  0.73255736459E+03  0.73255736460E+03  0.50400001928E-02 0.  1.
       -1   -1    0    0    0  501  0.00000000000E+00  0.00000000000E+00 -0.10981157729E+04  0.10981157729E+04  0.50400001928E-02 0. -1.
    10030    2    1    2    0    0  0.00000000000E+00  0.00000000000E+00 -0.36555840832E+03  0.18306731375E+04  0.17938035529E+04 0.  0.
        5    1    3    3  502    0  0.20129552016E+03  0.89558818392E+02  0.70449834865E+03  0.73816033599E+03  0.46999998093E+01 0.  1.
       -5    1    3    3    0  502 -0.20129552016E+03 -0.89558818392E+02 -0.10700567570E+04  0.10925128015E+04  0.46999998093E+01 0. -1.
</event>
<event>
 5   0  0.3531266E-04  0.1863752E+04  0.7818609E-02  0.8673112E-01
        2   -1    0    0  501    0  0.00000000000E+00  0.00000000000E+00  0.20432595578E+04  0.20432595578E+04  0.25500000920E-02 0. -1.
       -2   -1    0    0    0  501  0.00000000000E+00  0.00000000000E+00 -0.42500391870E+03  0.42500391870E+03  0.25500000920E-02 0.  1.
    10030    2    1    2    0    0  0.00000000000E+00  0.00000000000E+00  0.16182556391E+04  0.24682634765E+04  0.18637524717E+04 0.  0.
        3    1    3    3  502    0  0.24683937459E+03 -0.62313576191E+02  0.19963117783E+04  0.20124794123E+04  0.10100000352E+00 0. -1.
       -3    1    3    3    0  502 -0.24683937459E+03  0.62313576191E+02 -0.37805613917E+03  0.45578406421E+03  0.10100000352E+00 0.  1.
</event>
<event>
 5   0  0.1818778E-04  0.1695330E+04  0.7818609E-02  0.8764032E-01
        1   -1    0    0  501    0  0.00000000000E+00  0.00000000000E+00  0.59771080971E+03  0.59771080973E+03  0.50400001928E-02 0. -1.
       -1   -1    0    0    0  501  0.00000000000E+00  0.00000000000E+00 -0.12021467582E+04  0.12021467582E+04  0.50400001928E-02 0.  1.
    10030    2    1    2    0    0  0.00000000000E+00  0.00000000000E+00 -0.60443594848E+03  0.17998575679E+04  0.16953301888E+04 0.  0.
        3    1    3    3  502    0 -0.50206154203E+03  0.58715232007E+03 -0.67261646538E+03  0.10243176063E+04  0.10100000352E+00 0.  1.
       -3    1    3    3    0  502  0.50206154203E+03 -0.58715232007E+03  0.68180516898E+02  0.77553996160E+03  0.10100000352E+00 0. -1.
</event>
<event>
 5   0  0.1835421E-04  0.1761365E+04  0.7818609E-02  0.8727119E-01
       -1   -1    0    0    0  501  0.00000000000E+00  0.00000000000E+00  0.39912109204E+03  0.39912109207E+03  0.50400001928E-02 0. -1.
        1   -1    0    0  501    0  0.00000000000E+00  0.00000000000E+00 -0.19432742945E+04  0.19432742946E+04  0.50400001928E-02 0.  1.
    10030    2    1    2    0    0  0.00000000000E+00  0.00000000000E+00 -0.15441532025E+04  0.23423953866E+04  0.17613651054E+04 0.  0.
        2    1    3    3  502    0  0.58421726563E+03  0.60088510707E+03 -0.41220094801E+03  0.93396057031E+03  0.25500000920E-02 0. -1.
       -2    1    3    3    0  502 -0.58421726563E+03 -0.60088510707E+03 -0.11319522545E+04  0.14084348163E+04  0.25500000920E-02 0.  1.
</event>
<event>
 5   0  0.3575091E-04  0.1753350E+04  0.7818609E-02  0.8731508E-01
        2   -1    0    0  501    0  0.00000000000E+00  0.00000000000E+00  0.23187132402E+04  0.23187132402E+04  0.25500000920E-02 0.  1.
       -2   -1    0    0    0  501  0.00000000000E+00  0.00000000000E+00 -0.33145946403E+03  0.33145946404E+03  0.25500000920E-02 0. -1.
    10030    2    1    2    0    0  0.00000000000E+00  0.00000000000E+00  0.19872537761E+04  0.26501727042E+04  0.17533504474E+04 0.  0.
        5    1    3    3  502    0 -0.20622517658E+03 -0.21497998540E+02  0.22810996063E+04  0.22905083478E+04  0.46999998093E+01 0.  1.
       -5    1    3    3    0  502  0.20622517658E+03  0.21497998540E+02 -0.29384583015E+03  0.35966435644E+03  0.46999998093E+01 0. -1.
</event>
<event>
 5   0  0.3531266E-04  0.1754045E+04  0.7818609E-02  0.8731127E-01
       -2   -1    0    0    0  501  0.00000000000E+00  0.00000000000E+00  0.12718982413E+04  0.12718982413E+04  0.25500000920E-02 0.  1.
        2   -1    0    0  501    0  0.00000000000E+00  0.00000000000E+00 -0.60474055259E+03  0.60474055260E+03  0.25500000920E-02 0. -1.
    10030    2    1    2    0    0  0.00000000000E+00  0.00000000000E+00  0.66715768874E+03  0.18766387939E+04  0.17540449770E+04 0.  0.
        3    1    3    3  502    0 -0.36763225992E+03  0.44328053669E+03 -0.37410224536E+03  0.68673401905E+03  0.10100000352E+00 0. -1.
       -3    1    3    3    0  502  0.36763225992E+03 -0.44328053669E+03  0.10412599341E+04  0.11899047749E+04  0.10100000352E+00 0.  1.
</event>
<event>
 5   0  0.1837313E-04  0.1794633E+04  0.7818609E-02  0.8709159E-01
       -1   -1    0    0    0  501  0.00000000000E+00  0.00000000000E+00  0.56399241108E+03  0.56399241111E+03  0.50400001928E-02 0.  1.
        1   -1    0    0  501    0  0.00000000000E+00  0.00000000000E+00 -0.14276372569E+04  0.14276372569E+04  0.50400001928E-02 0. -1.
    10030    2    1    2    0    0  0.00000000000E+00  0.00000000000E+00 -0.86364484584E+03  0.19916296680E+04  0.17946326406E+04 0.  0.
        1    1    3    3  502    0  0.28315821325E+03 -0.73847593408E+03 -0.90220172832E+03  0.11997888304E+04  0.50400001928E-02 0. -1.
       -1    1    3    3    0  502 -0.28315821325E+03  0.73847593408E+03  0.38556882474E+02  0.79184083764E+03  0.50400001928E-02 0.  1.
</event>
<event>
 5   0  0.3582186E-04  0.1795503E+04  0.7818609E-02  0.8708694E-01
        2   -1    0    0  501    0  0.00000000000E+00  0.00000000000E+00  0.77576131694E+03  0.77576131695E+03  0.25500000920E-02 0.  1.
       -2   -1    0    0    0  501  0.00000000000E+00  0.00000000000E+00 -0.10389254507E+04  0.10389254507E+04  0.25500000920E-02 0. -1.
    10030    2    1    2    0    0  0.00000000000E+00  0.00000000000E+00 -0.26316413379E+03  0.18146867677E+04  0.17955034680E+04 0.  0.
        4    1    3    3  502    0 -0.52876730202E+03 -0.63905449975E+03 -0.47872085736E+03  0.95768511814E+03  0.12699999809E+01 0. -1.
       -4    1    3    3    0  502  0.52876730202E+03  0.63905449975E+03  0.21555672357E+03  0.85700164954E+03  0.12699999809E+01 0.  1.
</event>
<event>
 5   0  0.3568870E-04  0.1768527E+04  0.7818609E-02  0.8723218E-01
        2   -1    0    0  501    0  0.00000000000E+00  0.00000000000E+00  0.12724644958E+04  0.12724644958E+04  0.25500000920E-02 0.  1.
       -2   -1    0    0    0  501  0.00000000000E+00  0.00000000000E+00 -0.61449405534E+03  0.61449405534E+03  0.25500000920E-02 0. -1.
    10030    2    1    2    0    0  0.00000000000E+00  0.00000000000E+00  0.65797044043E+03  0.18869585511E+04  0.17685269218E+04 0.  0.
        1    1    3    3  502    0  0.19088771702E+03 -0.43252930792E+03  0.11262897369E+04  0.12214942875E+04  0.50400001928E-02 0.  1.
       -1    1    3    3    0  502 -0.19088771702E+03  0.43252930792E+03 -0.46831929650E+03  0.66546426367E+03  0.50400001928E-02 0. -1.
</event>
<event>
 5   0  0.3531266E-04  0.1846446E+04  0.7818609E-02  0.8681983E-01
        2   -1    0    0  501    0  0.00000000000E+00  0.00000000000E+00  0.15147140159E+04  0.15147140159E+04  0.25500000920E-02 0. -1.
       -2   -1    0    0    0  501  0.00000000000E+00  0.00000000000E+00 -0.56270720610E+03  0.56270720610E+03  0.25500000920E-02 0.  1.
    10030    2    1    2    0    0  0.00000000000E+00  0.00000000000E+00  0.95200680982E+03  0.20774212220E+04  0.18464457663E+04 0.  0.
        3    1    3    3  502    0 -0.89816435789E+03 -0.53125784742E+02  0.24319113940E+03  0.93202119250E+03  0.10100000352E+00 0.  1.
       -3    1    3    3    0  502  0.89816435789E+03  0.53125784742E+02  0.70881567042E+03  0.11454000295E+04  0.10100000352E+00 0. -1.
</event>
<event>
 5   0  0.1883959E-04  0.1763242E+04  0.7818609E-02  0.8726095E-01
        1   -1    0    0  501    0  0.00000000000E+00  0.00000000000E+00  0.84794854482E+03  0.84794854483E+03  0.50400001928E-02 0.  1.
       -1   -1    0    0    0  501  0.00000000000E+00  0.00000000000E+00 -0.91663012894E+03  0.91663012895E+03  0.50400001928E-02 0. -1.
    10030    2    1    2    0    0  0.00000000000E+00  0.00000000000E+00 -0.68681584124E+02  0.17645786738E+04  0.17632415422E+04 0.  0.
        5    1    3    3  502    0  0.67222178411E+03  0.46548825309E+03  0.29556303515E+03  0.86944869805E+03  0.46999998093E+01 0.  1.
       -5    1    3    3    0  502 -0.67222178411E+03 -0.46548825309E+03 -0.36424461927E+03  0.89512997574E+03  0.46999998093E+01 0. -1.
</event>
<event>
 5   0  0.1835421E-04  0.1794911E+04  0.7818609E-02  0.8709010E-01
        1   -1    0    0  501    0  0.00000000000E+00  0.00000000000E+00  0.68797699380E+03  0.68797699382E+03  0.50400001928E-02 0. -1.
       -1   -1    0    0    0  501  0.00000000000E+00  0.00000000000E+00 -0.11707171583E+04  0.11707171583E+04  0.50400001928E-02 0.  1.
    10030    2    1    2    0    0  0.00000000000E+00  0.00000000000E+00 -0.48274016451E+03  0.18586941521E+04  0.17949111078E+04 0.  0.
        2    1    3    3  502    0  0.31551203168E+03 -0.82075121461E+03 -0.55416991082E+02  0.88105132729E+03  0.25500000920E-02 0.  1.
       -2    1    3    3    0  502 -0.31551203168E+03  0.82075121461E+03 -0.42732317343E+03  0.97764282485E+03  0.25500000920E-02 0. -1.
</event>
<event>
 5   0  0.1837313E-04  0.1815111E+04  0.7818609E-02  0.8698305E-01
        1   -1    0    0  501    0  0.00000000000E+00  0.00000000000E+00  0.31237196232E+04  0.31237196232E+04  0.50400001928E-02 0.  1.
       -1   -1    0    0    0  501  0.00000000000E+00  0.00000000000E+00 -0.26367817037E+03  0.26367817042E+03  0.50400001928E-02 0. -1.
    10030    2    1    2    0    0  0.00000000000E+00  0.00000000000E+00  0.28600414528E+04  0.33873977936E+04  0.18151106579E+04 0.  0.
        1    1    3    3  502    0 -0.39651507480E+03  0.50373118285E+03  0.26288951087E+04  0.27059303024E+04  0.50400001928E-02 0.  1.
       -1    1    3    3    0  502  0.39651507480E+03 -0.50373118285E+03  0.23114634416E+03  0.68146749120E+03  0.50400001928E-02 0. -1.
</event>
<event>
 5   0  0.3628581E-04  0.1486237E+04  0.7818609E-02  0.8893657E-01
        2   -1    0    0  501    0  0.00000000000E+00  0.00000000000E+00  0.70687520571E+03  0.70687520572E+03  0.25500000920E-02 0.  1.
       -2   -1    0    0    0  501  0.00000000000E+00  0.00000000000E+00 -0.78122008198E+03  0.78122008198E+03  0.25500000920E-02 0. -1.
    10030    2    1    2    0    0  0.00000000000E+00  0.00000000000E+00 -0.74344876264E+02  0.14880952877E+04  0.14862370015E+04 0.  0.
        2    1    3    3  502    0  0.35333933251E+03  0.50690133265E+03  0.37617234369E+03  0.72339703974E+03  0.25500000920E-02 0.  1.
       -2    1    3    3    0  502 -0.35333933251E+03 -0.50690133265E+03 -0.45051721995E+03  0.76469824795E+03  0.25500000920E-02 0. -1.
</event>
<event>
 5   0  0.3582186E-04  0.1782310E+04  0.7818609E-02  0.8715764E-01
        2   -1    0    0  501    0  0.00000000000E+00  0.00000000000E+00  0.16689128331E+04  0.16689128331E+04  0.25500000920E-02 0. -1.
       -2   -1    0    0    0  501  0.00000000000E+00  0.00000000000E+00 -0.47585299773E+03  0.47585299774E+03  0.25500000920E-02 0.  1.
    10030    2    1    2    0    0  0.00000000000E+00  0.00000000000E+00  0.11930598354E+04  0.21447658309E+04  0.17823099333E+04 0.  0.
        4    1    3    3  502    0  0.10767710945E+03 -0.77475914034E+03  0.11103384079E+04  0.13581969954E+04  0.12699999809E+01 0. -1.
       -4    1    3    3    0  502 -0.10767710945E+03  0.77475914034E+03  0.82721427504E+02  0.78656883545E+03  0.12699999809E+01 0.  1.
</event>
<event>
 5   0  0.1835421E-04  0.1653048E+04  0.7818609E-02  0.8788605E-01
        1   -1    0    0  501    0  0.00000000000E+00  0.00000000000E+00  0.73075039673E+03  0.73075039675E+03  0.50400001928E-02 0.  1.
       -1   -1    0    0    0  501  0.00000000000E+00  0.00000000000E+00 -0.93484989773E+03  0.93484989774E+03  0.50400001928E-02 0. -1.
    10030    2    1    2    0    0  0.00000000000E+00  0.00000000000E+00 -0.20409950099E+03  0.16656002945E+04  0.16530480134E+04 0.  0.
        2    1    3    3  502    0  0.65286714375E+02  0.79091450293E+03 -0.33474456080E+03  0.86131412795E+03  0.25500000920E-02 0. -1.
       -2    1    3    3    0  502 -0.65286714375E+02 -0.79091450293E+03  0.13064505981E+03  0.80428616653E+03  0.25500000920E-02 0.  1.
</event>
<event>
 5   0  0.1883959E-04  0.1758664E+04  0.7818609E-02  0.8728596E-01
        1   -1    0    0  501    0  0.00000000000E+00  0.00000000000E+00  0.97129199281E+03  0.97129199282E+03  0.50400001928E-02 0. -1.
       -1   -1    0    0    0  501  0.00000000000E+00  0.00000000000E+00 -0.79607881653E+03  0.79607881654E+03  0.50400001928E-02 0.  1.
    10030    2    1    2    0    0  0.00000000000E+00  0.00000000000E+00  0.17521317628E+03  0.17673708094E+04  0.17586642433E+04 0.  0.
        5    1    3    3  502    0  0.21084932335E+03  0.26419588691E+03 -0.72816702299E+03  0.80281143937E+03  0.46999998093E+01 0.  1.
       -5    1    3    3    0  502 -0.21084932335E+03 -0.26419588691E+03  0.90338019927E+03  0.96455937000E+03  0.46999998093E+01 0. -1.
</event>
<event>
 5   0  0.1835421E-04  0.2064899E+04  0.7818609E-02  0.8576865E-01
        1   -1    0    0  501    0  0.00000000000E+00  0.00000000000E+00  0.12451146087E+04  0.12451146087E+04  0.50400001928E-02 0. -1.
       -1   -1    0    0    0  501  0.00000000000E+00  0.00000000000E+00 -0.85610777573E+03  0.85610777574E+03  0.50400001928E-02 0.  1.
    10030    2    1    2    0    0  0.00000000000E+00  0.00000000000E+00  0.38900683300E+03  0.21012223845E+04  0.20648993179E+04 0.  0.
        2    1    3    3  502    0  0.71564106799E+03  0.55497932048E+03 -0.31000828677E+03  0.95720913192E+03  0.25500000920E-02 0.  1.
       -2    1    3    3    0  502 -0.71564106799E+03 -0.55497932048E+03  0.69901511977E+03  0.11440132526E+04  0.25500000920E-02 0. -1.
</event>
<event>
 5   0  0.1330125E-04  0.1789296E+04  0.7818609E-02  0.8712013E-01
        3   -1    0    0  501    0  0.00000000000E+00  0.00000000000E+00  0.32591309234E+03  0.32591310799E+03  0.10100000352E+00 0.  1.
       -3   -1    0    0    0  501  0.00000000000E+00  0.00000000000E+00 -0.24558540508E+04  0.24558540529E+04  0.10100000352E+00 0. -1.
    10030    2    1    2    0    0  0.00000000000E+00  0.00000000000E+00 -0.21299409585E+04  0.27817671609E+04  0.17892959651E+04 0.  0.
        4    1    3    3  502    0 -0.50818577152E+03  0.72438129644E+03 -0.12701185310E+04  0.15479611548E+04  0.12699999809E+01 0. -1.
       -4    1    3    3    0  502  0.50818577152E+03 -0.72438129644E+03 -0.85982242747E+03  0.12338060061E+04  0.12699999809E+01 0.  1.
</event>
<event>
 5   0  0.3628581E-04  0.1762702E+04  0.7818609E-02  0.8726390E-01
       -2   -1    0    0    0  501  0.00000000000E+00  0.00000000000E+00  0.33460660839E+03  0.33460660840E+03  0.25500000920E-02 0. -1.
        2   -1    0    0  501    0  0.00000000000E+00  0.00000000000E+00 -0.23214706618E+04  0.23214706618E+04  0.25500000920E-02 0.  1.
    10030    2    1    2    0    0  0.00000000000E+00  0.00000000000E+00 -0.19868640534E+04  0.26560772702E+04  0.17627018178E+04 0.  0.
        2    1    3    3  502    0  0.43124955049E+03 -0.55182336131E+03 -0.17996790957E+04  0.19311473389E+04  0.25500000920E-02 0.  1.
       -2    1    3    3    0  502 -0.43124955049E+03  0.55182336131E+03 -0.18718495765E+03  0.72492993128E+03  0.25500000920E-02 0. -1.
</event>
<event>
 5   0  0.3531266E-04  0.1817742E+04  0.7818609E-02  0.8696921E-01
        2   -1    0    0  501    0  0.00000000000E+00  0.00000000000E+00  0.24508980176E+04  0.24508980176E+04  0.25500000920E-02 0.  1.
       -2   -1    0    0    0  501  0.00000000000E+00  0.00000000000E+00 -0.33703811711E+03  0.33703811712E+03  0.25500000920E-02 0. -1.
    10030    2    1    2    0    0  0.00000000000E+00  0.00000000000E+00  0.21138599005E+04  0.27879361347E+04  0.18177415142E+04 0.  0.
        3    1    3    3  502    0  0.84600419057E+03 -0.13390150394E+03  0.59073128294E+03  0.10404884248E+04  0.10100000352E+00 0. -1.
       -3    1    3    3    0  502 -0.84600419057E+03  0.13390150394E+03  0.15231286176E+04  0.17474477100E+04  0.10100000352E+00 0.  1.
</event>
<event>
 5   0  0.3628581E-04  0.1791340E+04  0.7818609E-02  0.8710918E-01
        2   -1    0    0  501    0  0.00000000000E+00  0.00000000000E+00  0.11934300211E+04  0.11934300211E+04  0.25500000920E-02 0. -1.
       -2   -1    0    0    0  501  0.00000000000E+00  0.00000000000E+00 -0.67220120755E+03  0.67220120756E+03  0.25500000920E-02 0.  1.
    10030    2    1    2    0    0  0.00000000000E+00  0.00000000000E+00  0.52122881359E+03  0.18656312287E+04  0.17913403935E+04 0.  0.
        2    1    3    3  502    0  0.49854371178E+02 -0.81737433142E+03  0.63848205956E+03  0.10383860536E+04  0.25500000920E-02 0. -1.
       -2    1    3    3    0  502 -0.49854371178E+02  0.81737433142E+03 -0.11725324597E+03  0.82724517507E+03  0.25500000920E-02 0.  1.
</event>
<event>
 5   0  0.1818778E-04  0.1832580E+04  0.7818609E-02  0.8689163E-01
       -1   -1    0    0    0  501  0.00000000000E+00  0.00000000000E+00  0.62336032913E+03  0.62336032915E+03  0.50400001928E-02 0.  1.
        1   -1    0    0  501    0  0.00000000000E+00  0.00000000000E+00 -0.13468732702E+04  0.13468732702E+04  0.50400001928E-02 0. -1.
    10030    2    1    2    0    0  0.00000000000E+00  0.00000000000E+00 -0.72351294104E+03  0.19702335993E+04  0.18325800010E+04 0.  0.
        3    1    3    3  502    0 -0.77539888673E+03 -0.37461498700E+03 -0.25179415189E+02  0.86151833131E+03  0.10100000352E+00 0. -1.
       -3    1    3    3    0  502  0.77539888673E+03  0.37461498700E+03 -0.69833352585E+03  0.11087152680E+04  0.10100000352E+00 0.  1.
</event>
<event>
 5   0  0.1883959E-04  0.1795628E+04  0.7818609E-02  0.8708628E-01
       -1   -1    0    0    0  501  0.00000000000E+00  0.00000000000E+00  0.71488295833E+03  0.71488295835E+03  0.50400001928E-02 0.  1.
        1   -1    0    0  501    0  0.00000000000E+00  0.00000000000E+00 -0.11275548908E+04  0.11275548908E+04  0.50400001928E-02 0. -1.
    10030    2    1    2    0    0  0.00000000000E+00  0.00000000000E+00 -0.41267193248E+03  0.18424378492E+04  0.17956277744E+04 0.  0.
        5    1    3    3  502    0 -0.76114669303E+03 -0.11754608081E+03 -0.67976011430E+03  0.10272571598E+04  0.46999998093E+01 0. -1.
       -5    1    3    3    0  502  0.76114669303E+03  0.11754608081E+03  0.26708818181E+03  0.81518068935E+03  0.46999998093E+01 0.  1.
</event>
<event>
 5   0  0.3531266E-04  0.1782461E+04  0.7818609E-02  0.8715682E-01
       -2   -1    0    0    0  501  0.00000000000E+00  0.00000000000E+00  0.11685264983E+04  0.11685264983E+04  0.25500000920E-02 0. -1.
        2   -1    0    0  501    0  0.00000000000E+00  0.00000000000E+00 -0.67973809520E+03  0.67973809520E+03  0.25500000920E-02 0.  1.
    10030    2    1    2    0    0  0.00000000000E+00  0.00000000000E+00  0.48878840306E+03  0.18482645935E+04  0.17824611930E+04 0.  0.
        3    1    3    3  502    0  0.76414910956E+03 -0.37696976767E+03  0.51530932030E+03  0.99577797384E+03  0.10100000352E+00 0. -1.
       -3    1    3    3    0  502 -0.76414910956E+03  0.37696976767E+03 -0.26520917243E+02  0.85248661963E+03  0.10100000352E+00 0.  1.
</event>
<event>
 5   0  0.1883959E-04  0.1808973E+04  0.7818609E-02  0.8701542E-01
        1   -1    0    0  501    0  0.00000000000E+00  0.00000000000E+00  0.13552092671E+04  0.13552092671E+04  0.50400001928E-02 0.  1.
       -1   -1    0    0    0  501  0.00000000000E+00  0.00000000000E+00 -0.60366733940E+03  0.60366733942E+03  0.50400001928E-02 0. -1.
    10030    2    1    2    0    0  0.00000000000E+00  0.00000000000E+00  0.75154192773E+03  0.19588766066E+04  0.18089727169E+04 0.  0.
        5    1    3    3  502    0  0.13553288193E+03 -0.82475229276E+02  0.13400103402E+04  0.13493780520E+04  0.46999998093E+01 0.  1.
       -5    1    3    3    0  502 -0.13553288193E+03  0.82475229276E+02 -0.58846841245E+03  0.60949855453E+03  0.46999998093E+01 0. -1.
</event>
<event>
 5   0  0.1835421E-04  0.1756011E+04  0.7818609E-02  0.8730048E-01
        1   -1    0    0  501    0  0.00000000000E+00  0.00000000000E+00  0.18404505000E+04  0.18404505000E+04  0.50400001928E-02 0. -1.
       -1   -1    0    0    0  501  0.00000000000E+00  0.00000000000E+00 -0.41886148173E+03  0.41886148176E+03  0.50400001928E-02 0.  1.
    10030    2    1    2    0    0  0.00000000000E+00  0.00000000000E+00  0.14215890183E+04  0.22593119817E+04  0.17560111885E+04 0.  0.
        2    1    3    3  502    0  0.35668057036E+03 -0.78224357698E+03  0.94011473638E+03  0.12739473147E+04  0.25500000920E-02 0. -1.
       -2    1    3    3    0  502 -0.35668057036E+03  0.78224357698E+03  0.48147428187E+03  0.98536466707E+03  0.25500000920E-02 0.  1.
</event>
<event>
 5   0  0.3575091E-04  0.1763938E+04  0.7818609E-02  0.8725715E-01
        2   -1    0    0  501    0  0.00000000000E+00  0.00000000000E+00  0.11710979444E+04  0.11710979444E+04  0.25500000920E-02 0.  1.
       -2   -1    0    0    0  501  0.00000000000E+00  0.00000000000E+00 -0.66422260680E+03  0.66422260681E+03  0.25500000920E-02 0. -1.
    10030    2    1    2    0    0  0.00000000000E+00  0.00000000000E+00  0.50687533764E+03  0.18353205512E+04  0.17639384677E+04 0.  0.
        5    1    3    3  502    0 -0.25513447626E+03  0.68197072593E+03 -0.26436605564E+03  0.77465422827E+03  0.46999998093E+01 0. -1.
       -5    1    3    3    0  502  0.25513447626E+03 -0.68197072593E+03  0.77124139328E+03  0.10606663230E+04  0.46999998093E+01 0.  1.
</event>
<event>
 5   0  0.1837313E-04  0.1519089E+04  0.7818609E-02  0.8871857E-01
       -1   -1    0    0    0  501  0.00000000000E+00  0.00000000000E+00  0.37949573897E+03  0.37949573901E+03  0.50400001928E-02 0.  1.
        1   -1    0    0  501    0  0.00000000000E+00  0.00000000000E+00 -0.15201959745E+04  0.15201959745E+04  0.50400001928E-02 0. -1.
    10030    2    1    2    0    0  0.00000000000E+00  0.00000000000E+00 -0.11407002355E+04  0.18996917135E+04  0.15190890622E+04 0.  0.
        1    1    3    3  502    0  0.64999212364E+03  0.29123067683E+03 -0.24042655711E+03  0.75173798448E+03  0.50400001928E-02 0.  1.
       -1    1    3    3    0  502 -0.64999212364E+03 -0.29123067683E+03 -0.90027367839E+03  0.11479537290E+04  0.50400001928E-02 0. -1.
</event>
<event>
 5   0  0.3531266E-04  0.1812727E+04  0.7818609E-02  0.8699561E-01
        2   -1    0    0  501    0  0.00000000000E+00  0.00000000000E+00  0.84611689085E+03  0.84611689085E+03  0.25500000920E-02 0. -1.
       -2   -1    0    0    0  501  0.00000000000E+00  0.00000000000E+00 -0.97089982675E+03  0.97089982676E+03  0.25500000920E-02 0.  1.
    10030    2    1    2    0    0  0.00000000000E+00  0.00000000000E+00 -0.12478293591E+03  0.18170167176E+04  0.18127269433E+04 0.  0.
        3    1    3    3  502    0 -0.30481042245E+03  0.80741019513E+03 -0.33994766041E+03  0.92756942535E+03  0.10100000352E+00 0.  1.
       -3    1    3    3    0  502  0.30481042245E+03 -0.80741019513E+03  0.21516472450E+03  0.88944729226E+03  0.10100000352E+00 0. -1.
</event>
<event>
 5   0  0.3568870E-04  0.1792925E+04  0.7818609E-02  0.8710071E-01
       -2   -1    0    0    0  501  0.00000000000E+00  0.00000000000E+00  0.64590599699E+03  0.64590599700E+03  0.25500000920E-02 0. -1.
        2   -1    0    0  501    0  0.00000000000E+00  0.00000000000E+00 -0.12442139105E+04  0.12442139105E+04  0.25500000920E-02 0.  1.
    10030    2    1    2    0    0  0.00000000000E+00  0.00000000000E+00 -0.59830791352E+03  0.18901199075E+04  0.17929252370E+04 0.  0.
        1    1    3    3  502    0  0.43803637404E+03 -0.22391718688E+02 -0.11233736682E+04  0.12059625419E+04  0.50400001928E-02 0.  1.
       -1    1    3    3    0  502 -0.43803637404E+03  0.22391718688E+02  0.52506575472E+03  0.68415736557E+03  0.50400001928E-02 0. -1.
</event>
<event>
 5   0  0.3531266E-04  0.1763556E+04  0.7818609E-02  0.8725924E-01
        2   -1    0    0  501    0  0.00000000000E+00  0.00000000000E+00  0.14722254335E+04  0.14722254335E+04  0.25500000920E-02 0.  1.
       -2   -1    0    0    0  501  0.00000000000E+00  0.00000000000E+00 -0.52813422567E+03  0.52813422567E+03  0.25500000920E-02 0. -1.
    10030    2    1    2    0    0  0.00000000000E+00  0.00000000000E+00  0.94409120781E+03  0.20003596592E+04  0.17635562246E+04 0.  0.
        3    1    3    3  502    0 -0.47659548142E+02 -0.33601983457E+03 -0.45108502331E+03  0.56449842357E+03  0.10100000352E+00 0. -1.
       -3    1    3    3    0  502  0.47659548142E+02  0.33601983457E+03  0.13951762311E+04  0.14358612356E+04  0.10100000352E+00 0.  1.
</event>
<event>
 5   0  0.1330125E-04  0.1792786E+04  0.7818609E-02  0.8710145E-01
       -4   -1    0    0    0  501  0.00000000000E+00  0.00000000000E+00  0.99611837268E+03  0.99611918227E+03  0.12699999809E+01 0.  1.
        4   -1    0    0  501    0  0.00000000000E+00  0.00000000000E+00 -0.80664988961E+03  0.80665088936E+03  0.12699999809E+01 0. -1.
    10030    2    1    2    0    0  0.00000000000E+00  0.00000000000E+00  0.18946848308E+03  0.18027700716E+04  0.17927859953E+04 0.  0.
        3    1    3    3  502    0 -0.22133426716E+03 -0.82606375848E+03 -0.17536954582E+03  0.87299752502E+03  0.10100000352E+00 0. -1.
       -3    1    3    3    0  502  0.22133426716E+03  0.82606375848E+03  0.36483802890E+03  0.92977254661E+03  0.10100000352E+00 0.  1.
</event>
<event>
 5   0  0.3582186E-04  0.1807892E+04  0.7818609E-02  0.8702114E-01
        2   -1    0    0  501    0  0.00000000000E+00  0.00000000000E+00  0.10120431121E+04  0.10120431121E+04  0.25500000920E-02 0. -1.
       -2   -1    0    0    0  501  0.00000000000E+00  0.00000000000E+00 -0.80739445795E+03  0.80739445796E+03  0.25500000920E-02 0.  1.
    10030    2    1    2    0    0  0.00000000000E+00  0.00000000000E+00  0.20464865414E+03  0.18194375700E+04  0.18078915896E+04 0.  0.
        4    1    3    3  502    0 -0.28363462584E+03 -0.26190454515E+03 -0.72025348822E+03  0.81719599359E+03  0.12699999809E+01 0.  1.
       -4    1    3    3    0  502  0.28363462584E+03  0.26190454515E+03  0.92490214236E+03  0.10022415765E+04  0.12699999809E+01 0. -1.
</event>
<event>
 5   0  0.1883959E-04  0.1750696E+04  0.7818609E-02  0.8732968E-01
        1   -1    0    0  501    0  0.00000000000E+00  0.00000000000E+00  0.10102428377E+04  0.10102428377E+04  0.50400001928E-02 0.  1.
       -1   -1    0    0    0  501  0.00000000000E+00  0.00000000000E+00 -0.75846488279E+03  0.75846488280E+03  0.50400001928E-02 0. -1.
    10030    2    1    2    0    0  0.00000000000E+00  0.00000000000E+00  0.25177795492E+03  0.17687077205E+04  0.17506955367E+04 0.  0.
        5    1    3    3  502    0 -0.65061542731E+03  0.58394405003E+03  0.81614151212E+02  0.87805127839E+03  0.46999998093E+01 0.  1.
       -5    1    3    3    0  502  0.65061542731E+03 -0.58394405003E+03  0.17016380371E+03  0.89065644213E+03  0.46999998093E+01 0. -1.
</event>
<event>
 5   0  0.3575091E-04  0.1798962E+04  0.7818609E-02  0.8706852E-01
       -2   -1    0    0    0  501  0.00000000000E+00  0.00000000000E+00  0.10438277832E+04  0.10438277832E+04  0.25500000920E-02 0. -1.
        2   -1    0    0  501    0  0.00000000000E+00  0.00000000000E+00 -0.77509532176E+03  0.77509532177E+03  0.25500000920E-02 0.  1.
    10030    2    1    2    0    0  0.00000000000E+00  0.00000000000E+00  0.26873246143E+03  0.18189231050E+04  0.17989619579E+04 0.  0.
        5    1    3    3  502    0  0.11029041313E+03  0.47444900402E+03  0.89891663455E+03  0.10224182307E+04  0.46999998093E+01 0. -1.
       -5    1    3    3    0  502 -0.11029041313E+03 -0.47444900402E+03 -0.63018417312E+03  0.79650487424E+03  0.46999998093E+01 0.  1.
</event>
<event>
 5   0  0.1330125E-04  0.1798885E+04  0.7818609E-02  0.8706893E-01
       -3   -1    0    0    0  501  0.00000000000E+00  0.00000000000E+00  0.60942269901E+03  0.60942270738E+03  0.10100000352E+00 0. -1.
        3   -1    0    0  501    0  0.00000000000E+00  0.00000000000E+00 -0.13274807795E+04  0.13274807834E+04  0.10100000352E+00 0.  1.
    10030    2    1    2    0    0  0.00000000000E+00  0.00000000000E+00 -0.71805808052E+03  0.19369034907E+04  0.17988851340E+04 0.  0.
        2    1    3    3  502    0 -0.72579075814E+03 -0.72569839554E+02 -0.92567495384E+03  0.11785214153E+04  0.25500000920E-02 0.  1.
       -2    1    3    3    0  502  0.72579075814E+03  0.72569839554E+02  0.20761687332E+03  0.75838207542E+03  0.25500000920E-02 0. -1.
</event>
<event>
 5   0  0.1835421E-04  0.1817742E+04  0.7818609E-02  0.8696921E-01
        1   -1    0    0  501    0  0.00000000000E+00  0.00000000000E+00  0.13887243996E+04  0.13887243996E+04  0.50400001928E-02 0.  1.
       -1   -1    0    0    0  501  0.00000000000E+00  0.00000000000E+00 -0.59482413117E+03  0.59482413119E+03  0.50400001928E-02 0. -1.
    10030    2    1    2    0    0  0.00000000000E+00  0.00000000000E+00  0.79390026847E+03  0.19835485308E+04  0.18177423189E+04 0.  0.
        2    1    3    3  502    0  0.23305440196E+03  0.62617773730E+03  0.10692963882E+04  0.12608757586E+04  0.25500000920E-02 0.  1.
       -2    1    3    3    0  502 -0.23305440196E+03 -0.62617773730E+03 -0.27539611969E+03  0.72267277222E+03  0.25500000920E-02 0. -1.
</event>
<event>
 5   0  0.1818778E-04  0.1790143E+04  0.7818609E-02  0.8711559E-01
        1   -1    0    0  501    0  0.00000000000E+00  0.00000000000E+00  0.80712562523E+03  0.80712562524E+03  0.50400001928E-02 0.  1.
       -1   -1    0    0    0  501  0.00000000000E+00  0.00000000000E+00 -0.99260049632E+03  0.99260049633E+03  0.50400001928E-02 0. -1.
    10030    2    1    2    0    0  0.00000000000E+00  0.00000000000E+00 -0.18547487109E+03  0.17997261216E+04  0.17901433420E+04 0.  0.
        3    1    3    3  502    0 -0.21112133581E+03 -0.20358494121E+03 -0.94292039975E+03  0.98748060092E+03  0.10100000352E+00 0. -1.
       -3    1    3    3    0  502  0.21112133581E+03  0.20358494121E+03  0.75744552866E+03  0.81224552065E+03  0.10100000352E+00 0.  1.
</event>
<event>
 5   0  0.1883959E-04  0.1613805E+04  0.7818609E-02  0.8812112E-01
        1   -1    0    0  501    0  0.00000000000E+00  0.00000000000E+00  0.73553735753E+03  0.73553735755E+03  0.50400001928E-02 0. -1.
       -1   -1    0    0    0  501  0.00000000000E+00  0.00000000000E+00 -0.88519152132E+03  0.88519152133E+03  0.50400001928E-02 0.  1.
    10030    2    1    2    0    0  0.00000000000E+00  0.00000000000E+00 -0.14965416379E+03  0.16207288789E+04  0.16138047373E+04 0.  0.
        5    1    3    3  502    0  0.18047401493E+03 -0.30535737519E+03  0.65302750837E+03  0.74315611640E+03  0.46999998093E+01 0. -1.
       -5    1    3    3    0  502 -0.18047401493E+03  0.30535737519E+03 -0.80268167216E+03  0.87757276249E+03  0.46999998093E+01 0.  1.
</event>
<event>
 5   0  0.3575091E-04  0.1806296E+04  0.7818609E-02  0.8702958E-01
        2   -1    0    0  501    0  0.00000000000E+00  0.00000000000E+00  0.75208753243E+03  0.75208753244E+03  0.25500000920E-02 0. -1.
       -2   -1    0    0    0  501  0.00000000000E+00  0.00000000000E+00 -0.10845502917E+04  0.10845502917E+04  0.25500000920E-02 0.  1.
    10030    2    1    2    0    0  0.00000000000E+00  0.00000000000E+00 -0.33246275928E+03  0.18366378242E+04  0.18062964903E+04 0.  0.
        5    1    3    3  502    0  0.76448014801E+03  0.46628679878E+03 -0.28568404851E+03  0.93994188171E+03  0.46999998093E+01 0.  1.
       -5    1    3    3    0  502 -0.76448014801E+03 -0.46628679878E+03 -0.46778710767E+02  0.89669594244E+03  0.46999998093E+01 0. -1.
</event>
<event>
 5   0  0.1837313E-04  0.1748535E+04  0.7818609E-02  0.8734157E-01
       -1   -1    0    0    0  501  0.00000000000E+00  0.00000000000E+00  0.96437948826E+03  0.96437948827E+03  0.50400001928E-02 0. -1.
        1   -1    0    0  501    0  0.00000000000E+00  0.00000000000E+00 -0.79257543890E+03  0.79257543891E+03  0.50400001928E-02 0.  1.
    10030    2    1    2    0    0  0.00000000000E+00  0.00000000000E+00  0.17180404936E+03  0.17569549272E+04  0.17485348109E+04 0.  0.
        1    1    3    3  502    0  0.46441521018E+03  0.33922074550E+03  0.74754943098E+03  0.94317673498E+03  0.50400001928E-02 0.  1.
       -1    1    3    3    0  502 -0.46441521018E+03 -0.33922074550E+03 -0.57574538162E+03  0.81377819220E+03  0.50400001928E-02 0. -1.
</event>
<event>
 5   0  0.1883959E-04  0.1787555E+04  0.7818609E-02  0.8712946E-01
        1   -1    0    0  501    0  0.00000000000E+00  0.00000000000E+00  0.10068623685E+04  0.10068623685E+04  0.50400001928E-02 0.  1.
       -1   -1    0    0    0  501  0.00000000000E+00  0.00000000000E+00 -0.79339341753E+03  0.79339341754E+03  0.50400001928E-02 0. -1.
    10030    2    1    2    0    0  0.00000000000E+00  0.00000000000E+00  0.21346895100E+03  0.18002557861E+04  0.17875547271E+04 0.  0.
        5    1    3    3  502    0 -0.21283944083E+03 -0.56391883586E+03 -0.55788694681E+03  0.82131907102E+03  0.46999998093E+01 0. -1.
       -5    1    3    3    0  502  0.21283944083E+03  0.56391883586E+03  0.77135589781E+03  0.97893671506E+03  0.46999998093E+01 0.  1.
</event>
<event>
 5   0  0.1825253E-04  0.1771209E+04  0.7818609E-02  0.8721762E-01
        1   -1    0    0  501    0  0.00000000000E+00  0.00000000000E+00  0.11040333820E+04  0.11040333820E+04  0.50400001928E-02 0. -1.
       -1   -1    0    0    0  501  0.00000000000E+00  0.00000000000E+00 -0.71039079167E+03  0.71039079169E+03  0.50400001928E-02 0.  1.
    10030    2    1    2    0    0  0.00000000000E+00  0.00000000000E+00  0.39364259030E+03  0.18144241737E+04  0.17712087943E+04 0.  0.
        4    1    3    3  502    0  0.26338646497E+03  0.82497582762E+03  0.38664211551E+03  0.94839405548E+03  0.12699999809E+01 0.  1.
       -4    1    3    3    0  502 -0.26338646497E+03 -0.82497582762E+03  0.70004747916E+01  0.86603011820E+03  0.12699999809E+01 0. -1.
</event>
<event>
 5   0  0.1835421E-04  0.1796637E+04  0.7818609E-02  0.8708090E-01
       -1   -1    0    0    0  501  0.00000000000E+00  0.00000000000E+00  0.14623780454E+04  0.14623780454E+04  0.50400001928E-02 0.  1.
        1   -1    0    0  501    0  0.00000000000E+00  0.00000000000E+00 -0.55182460434E+03  0.55182460436E+03  0.50400001928E-02 0. -1.
    10030    2    1    2    0    0  0.00000000000E+00  0.00000000000E+00  0.91055344102E+03  0.20142026497E+04  0.17966370655E+04 0.  0.
        2    1    3    3  502    0 -0.78597240157E+03 -0.32355566735E+02 -0.31047296397E+02  0.78725055309E+03  0.25500000920E-02 0. -1.
       -2    1    3    3    0  502  0.78597240157E+03  0.32355566735E+02  0.94160073742E+03  0.12269520966E+04  0.25500000920E-02 0.  1.
</event>
<event>
 5   0  0.3628581E-04  0.1813586E+04  0.7818609E-02  0.8699108E-01
       -2   -1    0    0    0  501  0.00000000000E+00  0.00000000000E+00  0.51428314472E+03  0.51428314473E+03  0.25500000920E-02 0. -1.
        2   -1    0    0  501    0  0.00000000000E+00  0.00000000000E+00 -0.15988733729E+04  0.15988733729E+04  0.25500000920E-02 0.  1.
    10030    2    1    2    0    0  0.00000000000E+00  0.00000000000E+00 -0.10845902282E+04  0.21131565176E+04  0.18135860897E+04 0.  0.
        2    1    3    3  502    0 -0.23985493116E+03  0.81324974955E+03 -0.16767877035E+03  0.86430417862E+03  0.25500000920E-02 0. -1.
       -2    1    3    3    0  502  0.23985493116E+03 -0.81324974955E+03 -0.91691145780E+03  0.12488523390E+04  0.25500000920E-02 0.  1.
</event>
<event>
 5   0  0.3531266E-04  0.1778911E+04  0.7818609E-02  0.8717596E-01
        2   -1    0    0  501    0  0.00000000000E+00  0.00000000000E+00  0.16862843988E+04  0.16862843988E+04  0.25500000920E-02 0. -1.
       -2   -1    0    0    0  501  0.00000000000E+00  0.00000000000E+00 -0.46915621868E+03  0.46915621868E+03  0.25500000920E-02 0.  1.
    10030    2    1    2    0    0  0.00000000000E+00  0.00000000000E+00  0.12171281802E+04  0.21554406175E+04  0.17789106916E+04 0.  0.
        3    1    3    3  502    0  0.22280406552E+03 -0.18310903829E+01 -0.43479387457E+03  0.48855985106E+03  0.10100000352E+00 0.  1.
       -3    1    3    3    0  502 -0.22280406552E+03  0.18310903829E+01  0.16519220547E+04  0.16668807665E+04  0.10100000352E+00 0. -1.
</event>
<event>
 5   0  0.3582186E-04  0.1787103E+04  0.7818609E-02  0.8713188E-01
        2   -1    0    0  501    0  0.00000000000E+00  0.00000000000E+00  0.75023641623E+03  0.75023641623E+03  0.25500000920E-02 0. -1.
       -2   -1    0    0    0  501  0.00000000000E+00  0.00000000000E+00 -0.10642436325E+04  0.10642436325E+04  0.25500000920E-02 0.  1.
    10030    2    1    2    0    0  0.00000000000E+00  0.00000000000E+00 -0.31400721630E+03  0.18144800488E+04  0.17871030512E+04 0.  0.
        4    1    3    3  502    0  0.76437848590E+03  0.46130257522E+03 -0.11958554334E+03  0.90076459227E+03  0.12699999809E+01 0. -1.
       -4    1    3    3    0  502 -0.76437848590E+03 -0.46130257522E+03 -0.19442167296E+03  0.91371545649E+03  0.12699999809E+01 0.  1.
</event>
<event>
 5   0  0.1818778E-04  0.1808373E+04  0.7818609E-02  0.8701859E-01
       -1   -1    0    0    0  501  0.00000000000E+00  0.00000000000E+00  0.96938472439E+03  0.96938472441E+03  0.50400001928E-02 0.  1.
        1   -1    0    0  501    0  0.00000000000E+00  0.00000000000E+00 -0.84337373628E+03  0.84337373629E+03  0.50400001928E-02 0. -1.
    10030    2    1    2    0    0  0.00000000000E+00  0.00000000000E+00  0.12601098811E+03  0.18127584607E+04  0.18083734315E+04 0.  0.
        3    1    3    3  502    0 -0.86710931393E+03 -0.23024305278E+03  0.17580916458E+03  0.91422059603E+03  0.10100000352E+00 0. -1.
       -3    1    3    3    0  502  0.86710931393E+03  0.23024305278E+03 -0.49798176465E+02  0.89853786467E+03  0.10100000352E+00 0.  1.
</event>
<event>
 5   0  0.3568870E-04  0.1796483E+04  0.7818609E-02  0.8708172E-01
        2   -1    0    0  501    0  0.00000000000E+00  0.00000000000E+00  0.15756363966E+04  0.15756363966E+04  0.25500000920E-02 0.  1.
       -2   -1    0    0    0  501  0.00000000000E+00  0.00000000000E+00 -0.51207090371E+03  0.51207090372E+03  0.25500000920E-02 0. -1.
    10030    2    1    2    0    0  0.00000000000E+00  0.00000000000E+00  0.10635654929E+04  0.20877073003E+04  0.17964827342E+04 0.  0.
        1    1    3    3  502    0  0.11777350883E+03  0.17314114388E+03 -0.48331000988E+03  0.52672290700E+03  0.50400001928E-02 0. -1.
       -1    1    3    3    0  502 -0.11777350883E+03 -0.17314114388E+03  0.15468755028E+04  0.15609843933E+04  0.50400001928E-02 0.  1.
</event>
<event>
 5   0  0.3575091E-04  0.1796405E+04  0.7818609E-02  0.8708214E-01
       -2   -1    0    0    0  501  0.00000000000E+00  0.00000000000E+00  0.52969650706E+03  0.52969650707E+03  0.25500000920E-02 0. -1.
        2   -1    0    0  501    0  0.00000000000E+00  0.00000000000E+00 -0.15230749271E+04  0.15230749271E+04  0.25500000920E-02 0.  1.
    10030    2    1    2    0    0  0.00000000000E+00  0.00000000000E+00 -0.99337842007E+03  0.20527714342E+04  0.17964047082E+04 0.  0.
        5    1    3    3  502    0  0.38992830120E+03 -0.46019793594E+03 -0.12571882043E+04  0.13944068600E+04  0.46999998093E+01 0.  1.
       -5    1    3    3    0  502 -0.38992830120E+03  0.46019793594E+03  0.26380978419E+03  0.65836457419E+03  0.46999998093E+01 0. -1.
</event>
<event>
 5   0  0.1825253E-04  0.1675170E+04  0.7818609E-02  0.8775654E-01
       -1   -1    0    0    0  501  0.00000000000E+00  0.00000000000E+00  0.11433085621E+04  0.11433085621E+04  0.50400001928E-02 0. -1.
        1   -1    0    0  501    0  0.00000000000E+00  0.00000000000E+00 -0.61361259474E+03  0.61361259476E+03  0.50400001928E-02 0.  1.
    10030    2    1    2    0    0  0.00000000000E+00  0.00000000000E+00  0.52969596739E+03  0.17569211569E+04  0.16751698820E+04 0.  0.
        4    1    3    3  502    0 -0.30102417271E+03 -0.74216760691E+03  0.52200470868E+03  0.95599102407E+03  0.12699999809E+01 0. -1.
       -4    1    3    3    0  502  0.30102417271E+03  0.74216760691E+03  0.76912587026E+01  0.80093013283E+03  0.12699999809E+01 0.  1.
</event>
<event>
 5   0  0.1835421E-04  0.1798652E+04  0.7818609E-02  0.8707017E-01
       -1   -1    0    0    0  501  0.00000000000E+00  0.00000000000E+00  0.61708228822E+03  0.61708228824E+03  0.50400001928E-02 0.  1.
        1   -1    0    0  501    0  0.00000000000E+00  0.00000000000E+00 -0.13106635852E+04  0.13106635852E+04  0.50400001928E-02 0. -1.
    10030    2    1    2    0    0  0.00000000000E+00  0.00000000000E+00 -0.69358129698E+03  0.19277458735E+04  0.17986520334E+04 0.  0.
        2    1    3    3  502    0 -0.21514118341E+03  0.86603321896E+03 -0.46656102283E+03  0.10069649712E+04  0.25500000920E-02 0.  1.
       -2    1    3    3    0  502  0.21514118341E+03 -0.86603321896E+03 -0.22702027416E+03  0.92078090229E+03  0.25500000920E-02 0. -1.
</event>
<event>
 5   0  0.1835421E-04  0.1821577E+04  0.7818609E-02  0.8694908E-01
       -1   -1    0    0    0  501  0.00000000000E+00  0.00000000000E+00  0.80327524615E+03  0.80327524617E+03  0.50400001928E-02 0. -1.
        1   -1    0    0  501    0  0.00000000000E+00  0.00000000000E+00 -0.10326922371E+04  0.10326922371E+04  0.50400001928E-02 0.  1.
    10030    2    1    2    0    0  0.00000000000E+00  0.00000000000E+00 -0.22941699090E+03  0.18359674832E+04  0.18215774603E+04 0.  0.
        2    1    3    3  502    0 -0.29845366680E+03 -0.27772454584E+03  0.70617657324E+03  0.81540840515E+03  0.25500000920E-02 0. -1.
       -2    1    3    3    0  502  0.29845366680E+03  0.27772454584E+03 -0.93559356414E+03  0.10205590781E+04  0.25500000920E-02 0.  1.
</event>
<event>
 5   0  0.1818778E-04  0.1789215E+04  0.7818609E-02  0.8712056E-01
       -1   -1    0    0    0  501  0.00000000000E+00  0.00000000000E+00  0.11441038377E+04  0.11441038377E+04  0.50400001928E-02 0.  1.
        1   -1    0    0  501    0  0.00000000000E+00  0.00000000000E+00 -0.69951881342E+03  0.69951881344E+03  0.50400001928E-02 0. -1.
    10030    2    1    2    0    0  0.00000000000E+00  0.00000000000E+00  0.44458502425E+03  0.18436226511E+04  0.17892145304E+04 0.  0.
        3    1    3    3  502    0 -0.76560780917E+03 -0.18317848608E+03 -0.21561610280E+03  0.81621075049E+03  0.10100000352E+00 0. -1.
       -3    1    3    3    0  502  0.76560780917E+03  0.18317848608E+03  0.66020112705E+03  0.10274119006E+04  0.10100000352E+00 0.  1.
</event>
<event>
 5   0  0.1835421E-04  0.1787881E+04  0.7818609E-02  0.8712771E-01
       -1   -1    0    0    0  501  0.00000000000E+00  0.00000000000E+00  0.52092516962E+03  0.52092516965E+03  0.50400001928E-02 0.  1.
        1   -1    0    0  501    0  0.00000000000E+00  0.00000000000E+00 -0.15340587835E+04  0.15340587835E+04  0.50400001928E-02 0. -1.
    10030    2    1    2    0    0  0.00000000000E+00  0.00000000000E+00 -0.10131336139E+04  0.20549839531E+04  0.17878812399E+04 0.  0.
        2    1    3    3  502    0 -0.73214905423E+03 -0.48003012262E+03 -0.29885123617E+03  0.92508551907E+03  0.25500000920E-02 0.  1.
       -2    1    3    3    0  502  0.73214905423E+03  0.48003012262E+03 -0.71428237768E+03  0.11298984341E+04  0.25500000920E-02 0. -1.
</event>
<event>
 5   0  0.3628581E-04  0.1784523E+04  0.7818609E-02  0.8714573E-01
        2   -1    0    0  501    0  0.00000000000E+00  0.00000000000E+00  0.11816965907E+04  0.11816965907E+04  0.25500000920E-02 0. -1.
       -2   -1    0    0    0  501  0.00000000000E+00  0.00000000000E+00 -0.67371854257E+03  0.67371854257E+03  0.25500000920E-02 0.  1.
    10030    2    1    2    0    0  0.00000000000E+00  0.00000000000E+00  0.50797804810E+03  0.18554151332E+04  0.17845233591E+04 0.  0.
        2    1    3    3  502    0  0.71547875211E+03 -0.52880282854E+03  0.18355859851E+03  0.90842503008E+03  0.25500000920E-02 0. -1.
       -2    1    3    3    0  502 -0.71547875211E+03  0.52880282854E+03  0.32441944959E+03  0.94699010315E+03  0.25500000920E-02 0.  1.
</event>
<event>
 5   0  0.3628581E-04  0.1860397E+04  0.7818609E-02  0.8674824E-01
       -2   -1    0    0    0  501  0.00000000000E+00  0.00000000000E+00  0.53409798109E+03  0.53409798109E+03  0.25500000920E-02 0.  1.
        2   -1    0    0  501    0  0.00000000000E+00  0.00000000000E+00 -0.16200567437E+04  0.16200567437E+04  0.25500000920E-02 0. -1.
    10030    2    1    2    0    0  0.00000000000E+00  0.00000000000E+00 -0.10859587626E+04  0.21541547248E+04  0.18603967707E+04 0.  0.
        2    1    3    3  502    0  0.94215645040E+01 -0.90590492647E+03 -0.29867458666E+03  0.95391771679E+03  0.25500000920E-02 0. -1.
       -2    1    3    3    0  502 -0.94215645040E+01  0.90590492647E+03 -0.78728417597E+03  0.12002370080E+04  0.25500000920E-02 0.  1.
</event>
<event>
 5   0  0.3531266E-04  0.1786519E+04  0.7818609E-02  0.8713502E-01
       -2   -1    0    0    0  501  0.00000000000E+00  0.00000000000E+00  0.38925548816E+03  0.38925548817E+03  0.25500000920E-02 0.  1.
        2   -1    0    0  501    0  0.00000000000E+00  0.00000000000E+00 -0.20498424352E+04  0.20498424352E+04  0.25500000920E-02 0. -1.
    10030    2    1    2    0    0  0.00000000000E+00  0.00000000000E+00 -0.16605869470E+04  0.24390979234E+04  0.17865188695E+04 0.  0.
        3    1    3    3  502    0 -0.17705168792E+03 -0.45032134933E+03 -0.18554137878E+04  0.19174714996E+04  0.10100000352E+00 0. -1.
       -3    1    3    3    0  502  0.17705168792E+03  0.45032134933E+03  0.19482684074E+03  0.52162642373E+03  0.10100000352E+00 0.  1.
</event>
<event>
 5   0  0.1837313E-04  0.1782825E+04  0.7818609E-02  0.8715486E-01
       -1   -1    0    0    0  501  0.00000000000E+00  0.00000000000E+00  0.29456350515E+03  0.29456350519E+03  0.50400001928E-02 0. -1.
        1   -1    0    0  501    0  0.00000000000E+00  0.00000000000E+00 -0.26976067311E+04  0.26976067312E+04  0.50400001928E-02 0.  1.
    10030    2    1    2    0    0  0.00000000000E+00  0.00000000000E+00 -0.24030432260E+04  0.29921702363E+04  0.17828252795E+04 0.  0.
        1    1    3    3  502    0  0.49462470261E+03 -0.59543672004E+03 -0.45959694911E+03  0.90023765732E+03  0.50400001928E-02 0. -1.
       -1    1    3    3    0  502 -0.49462470261E+03  0.59543672004E+03 -0.19434462769E+04  0.20919325790E+04  0.50400001928E-02 0.  1.
</event>
<event>
 5   0  0.1835421E-04  0.1814338E+04  0.7818609E-02  0.8698712E-01
       -1   -1    0    0    0  501  0.00000000000E+00  0.00000000000E+00  0.31013150750E+04  0.31013150751E+04  0.50400001928E-02 0. -1.
        1   -1    0    0  501    0  0.00000000000E+00  0.00000000000E+00 -0.26535690475E+03  0.26535690479E+03  0.50400001928E-02 0.  1.
    10030    2    1    2    0    0  0.00000000000E+00  0.00000000000E+00  0.28359581703E+04  0.33666719798E+04  0.18143377514E+04 0.  0.
        2    1    3    3  502    0 -0.11638447542E+03  0.35899479349E+03  0.29487393695E+04  0.29727910248E+04  0.25500000920E-02 0. -1.
       -2    1    3    3    0  502  0.11638447542E+03 -0.35899479349E+03 -0.11278119917E+03  0.39388095507E+03  0.25500000920E-02 0.  1.
</event>
<event>
 5   0  0.1835421E-04  0.1817959E+04  0.7818609E-02  0.8696807E-01
       -1   -1    0    0    0  501  0.00000000000E+00  0.00000000000E+00  0.11593984553E+04  0.11593984553E+04  0.50400001928E-02 0.  1.
        1   -1    0    0  501    0  0.00000000000E+00  0.00000000000E+00 -0.71264840602E+03  0.71264840604E+03  0.50400001928E-02 0. -1.
    10030    2    1    2    0    0  0.00000000000E+00  0.00000000000E+00  0.44675004924E+03  0.18720468613E+04  0.18179587026E+04 0.  0.
        2    1    3    3  502    0 -0.75500627906E+03 -0.42377713470E+03  0.50841726120E+03  0.10040466388E+04  0.25500000920E-02 0.  1.
       -2    1    3    3    0  502  0.75500627906E+03  0.42377713470E+03 -0.61667211954E+02  0.86800022255E+03  0.25500000920E-02 0. -1.
</event>
<event>
 5   0  0.3531266E-04  0.1824925E+04  0.7818609E-02  0.8693156E-01
        2   -1    0    0  501    0  0.00000000000E+00  0.00000000000E+00  0.16596107205E+04  0.16596107205E+04  0.25500000920E-02 0. -1.
       -2   -1    0    0    0  501  0.00000000000E+00  0.00000000000E+00 -0.50167652799E+03  0.50167652800E+03  0.25500000920E-02 0.  1.
    10030    2    1    2    0    0  0.00000000000E+00  0.00000000000E+00  0.11579341925E+04  0.21612872485E+04  0.18249249235E+04 0.  0.
        3    1    3    3  502    0  0.24985299536E+03 -0.57401099401E+03  0.13651534646E+04  0.15018519010E+04  0.10100000352E+00 0. -1.
       -3    1    3    3    0  502 -0.24985299536E+03  0.57401099401E+03 -0.20721927210E+03  0.65943534745E+03  0.10100000352E+00 0.  1.
</event>
<event>
 5   0  0.3628581E-04  0.1748754E+04  0.7818609E-02  0.8734037E-01
        2   -1    0    0  501    0  0.00000000000E+00  0.00000000000E+00  0.50008423261E+03  0.50008423262E+03  0.25500000920E-02 0. -1.
       -2   -1    0    0    0  501  0.00000000000E+00  0.00000000000E+00 -0.15288121936E+04  0.15288121936E+04  0.25500000920E-02 0.  1.
    10030    2    1    2    0    0  0.00000000000E+00  0.00000000000E+00 -0.10287279610E+04  0.20288964263E+04  0.17487536964E+04 0.  0.
        2    1    3    3  502    0  0.30075171342E+03 -0.81604798917E+03 -0.40963128145E+03  0.96134473551E+03  0.25500000920E-02 0. -1.
       -2    1    3    3    0  502 -0.30075171342E+03  0.81604798917E+03 -0.61909667957E+03  0.10675516907E+04  0.25500000920E-02 0.  1.
</event>
<event>
 5   0  0.3628581E-04  0.1533752E+04  0.7818609E-02  0.8862313E-01
        2   -1    0    0  501    0  0.00000000000E+00  0.00000000000E+00  0.45444771663E+03  0.45444771664E+03  0.25500000920E-02 0.  1.
       -2   -1    0    0    0  501  0.00000000000E+00  0.00000000000E+00 -0.12940956054E+04  0.12940956054E+04  0.25500000920E-02 0. -1.
    10030    2    1    2    0    0  0.00000000000E+00  0.00000000000E+00 -0.83964788873E+03  0.17485433220E+04  0.15337519916E+04 0.  0.
        2    1    3    3  502    0  0.21370082656E+03  0.18262343519E+03  0.39359453030E+03  0.48366932572E+03  0.25500000920E-02 0.  1.
       -2    1    3    3    0  502 -0.21370082656E+03 -0.18262343519E+03 -0.12332424190E+04  0.12648739963E+04  0.25500000920E-02 0. -1.
</event>
<event>
 5   0  0.1825253E-04  0.1767551E+04  0.7818609E-02  0.8723749E-01
       -1   -1    0    0    0  501  0.00000000000E+00  0.00000000000E+00  0.93488807318E+03  0.93488807319E+03  0.50400001928E-02 0. -1.
        1   -1    0    0  501    0  0.00000000000E+00  0.00000000000E+00 -0.83545710143E+03  0.83545710145E+03  0.50400001928E-02 0.  1.
    10030    2    1    2    0    0  0.00000000000E+00  0.00000000000E+00  0.99430971744E+02  0.17703451746E+04  0.17675507119E+04 0.  0.
        4    1    3    3  502    0 -0.30590628092E+02 -0.84828220706E+03  0.29615077169E+03  0.89901356042E+03  0.12699999809E+01 0. -1.
       -4    1    3    3    0  502  0.30590628092E+02  0.84828220706E+03 -0.19671979994E+03  0.87133161422E+03  0.12699999809E+01 0.  1.
</event>
<event>
 5   0  0.1883959E-04  0.1810651E+04  0.7818609E-02  0.8700656E-01
       -1   -1    0    0    0  501  0.00000000000E+00  0.00000000000E+00  0.10117349785E+04  0.10117349785E+04  0.50400001928E-02 0. -1.
        1   -1    0    0  501    0  0.00000000000E+00  0.00000000000E+00 -0.81010788961E+03  0.81010788962E+03  0.50400001928E-02 0.  1.
    10030    2    1    2    0    0  0.00000000000E+00  0.00000000000E+00  0.20162708889E+03  0.18218428681E+04  0.18106512511E+04 0.  0.
        5    1    3    3  502    0  0.14998499391E+03 -0.20083070781E+03 -0.77448522677E+03  0.81405032282E+03  0.46999998093E+01 0.  1.
       -5    1    3    3    0  502 -0.14998499391E+03  0.20083070781E+03  0.97611231566E+03  0.10077925453E+04  0.46999998093E+01 0. -1.
</event>
<event>
 5   0  0.3568870E-04  0.1809247E+04  0.7818609E-02  0.8701397E-01
        2   -1    0    0  501    0  0.00000000000E+00  0.00000000000E+00  0.97198490208E+03  0.97198490208E+03  0.25500000920E-02 0. -1.
       -2   -1    0    0    0  501  0.00000000000E+00  0.00000000000E+00 -0.84193081298E+03  0.84193081298E+03  0.25500000920E-02 0.  1.
    10030    2    1    2    0    0  0.00000000000E+00  0.00000000000E+00  0.13005408910E+03  0.18139157151E+04  0.18092474002E+04 0.  0.
        1    1    3    3  502    0 -0.29079047086E+03  0.73120257000E+03  0.51241576575E+03  0.93903472424E+03  0.50400001928E-02 0. -1.
       -1    1    3    3    0  502  0.29079047086E+03 -0.73120257000E+03 -0.38236167665E+03  0.87488099083E+03  0.50400001928E-02 0.  1.
</event>
<event>
 5   0  0.3531266E-04  0.1928616E+04  0.7818609E-02  0.8640742E-01
        2   -1    0    0  501    0  0.00000000000E+00  0.00000000000E+00  0.12076713003E+04  0.12076713004E+04  0.25500000920E-02 0.  1.
       -2   -1    0    0    0  501  0.00000000000E+00  0.00000000000E+00 -0.76998630817E+03  0.76998630817E+03  0.25500000920E-02 0. -1.
    10030    2    1    2    0    0  0.00000000000E+00  0.00000000000E+00  0.43768499218E+03  0.19776576085E+04  0.19286164637E+04 0.  0.
        3    1    3    3  502    0 -0.32220457646E+03 -0.61536559460E+03 -0.46704534490E+03  0.83703164128E+03  0.10100000352E+00 0. -1.
       -3    1    3    3    0  502  0.32220457646E+03  0.61536559460E+03  0.90473033708E+03  0.11406259672E+04  0.10100000352E+00 0.  1.
</event>
<event>
 5   0  0.1330125E-04  0.1797205E+04  0.7818609E-02  0.8707787E-01
        4   -1    0    0  501    0  0.00000000000E+00  0.00000000000E+00  0.11986703685E+04  0.11986710413E+04  0.12699999809E+01 0. -1.
       -4   -1    0    0    0  501  0.00000000000E+00  0.00000000000E+00 -0.67365042415E+03  0.67365162128E+03  0.12699999809E+01 0.  1.
    10030    2    1    2    0    0  0.00000000000E+00  0.00000000000E+00  0.52501994439E+03  0.18723226626E+04  0.17972051110E+04 0.  0.
        4    1    3    3  502    0 -0.42491018862E+03  0.73950733926E+02  0.10837919279E+04  0.11664578584E+04  0.12699999809E+01 0. -1.
       -4    1    3    3    0  502  0.42491018862E+03 -0.73950733926E+02 -0.55877198351E+03  0.70586480426E+03  0.12699999809E+01 0.  1.
</event>
<event>
 5   0  0.3531266E-04  0.1791993E+04  0.7818609E-02  0.8710569E-01
        2   -1    0    0  501    0  0.00000000000E+00  0.00000000000E+00  0.84673640419E+03  0.84673640419E+03  0.25500000920E-02 0.  1.
       -2   -1    0    0    0  501  0.00000000000E+00  0.00000000000E+00 -0.94812187978E+03  0.94812187978E+03  0.25500000920E-02 0. -1.
    10030    2    1    2    0    0  0.00000000000E+00  0.00000000000E+00 -0.10138547559E+03  0.17948582840E+04  0.17919925348E+04 0.  0.
        3    1    3    3  502    0  0.72859294725E+03 -0.27085266825E+03  0.39566604250E+03  0.87221584374E+03  0.10100000352E+00 0. -1.
       -3    1    3    3    0  502 -0.72859294725E+03  0.27085266825E+03 -0.49705151809E+03  0.92264244023E+03  0.10100000352E+00 0.  1.
</event>
<event>
 5   0  0.3628581E-04  0.1834411E+04  0.7818609E-02  0.8688211E-01
       -2   -1    0    0    0  501  0.00000000000E+00  0.00000000000E+00  0.40966343727E+03  0.40966343728E+03  0.25500000920E-02 0.  1.
        2   -1    0    0  501    0  0.00000000000E+00  0.00000000000E+00 -0.20535544433E+04  0.20535544433E+04  0.25500000920E-02 0. -1.
    10030    2    1    2    0    0  0.00000000000E+00  0.00000000000E+00 -0.16438910060E+04  0.24632178806E+04  0.18344112645E+04 0.  0.
        2    1    3    3  502    0  0.60373705101E+03  0.68816271854E+03 -0.89790266887E+03  0.12823008838E+04  0.25500000920E-02 0.  1.
       -2    1    3    3    0  502 -0.60373705101E+03 -0.68816271854E+03 -0.74598833715E+03  0.11809169967E+04  0.25500000920E-02 0. -1.
</event>
<event>
 5   0  0.3531266E-04  0.1821061E+04  0.7818609E-02  0.8695179E-01
        2   -1    0    0  501    0  0.00000000000E+00  0.00000000000E+00  0.71983403749E+03  0.71983403749E+03  0.25500000920E-02 0.  1.
       -2   -1    0    0    0  501  0.00000000000E+00  0.00000000000E+00 -0.11517462365E+04  0.11517462365E+04  0.25500000920E-02 0. -1.
    10030    2    1    2    0    0  0.00000000000E+00  0.00000000000E+00 -0.43191219905E+03  0.18715802740E+04  0.18210613868E+04 0.  0.
        3    1    3    3  502    0 -0.70728773660E+03  0.56833870744E+03 -0.29423535943E+03  0.95385496050E+03  0.10100000352E+00 0.  1.
       -3    1    3    3    0  502  0.70728773660E+03 -0.56833870744E+03 -0.13767683962E+03  0.91772531353E+03  0.10100000352E+00 0. -1.
</event>
<event>
 5   0  0.1818778E-04  0.1792344E+04  0.7818609E-02  0.8710382E-01
       -1   -1    0    0    0  501  0.00000000000E+00  0.00000000000E+00  0.13493189127E+04  0.13493189127E+04  0.50400001928E-02 0.  1.
        1   -1    0    0  501    0  0.00000000000E+00  0.00000000000E+00 -0.59520683365E+03  0.59520683367E+03  0.50400001928E-02 0. -1.
    10030    2    1    2    0    0  0.00000000000E+00  0.00000000000E+00  0.75411207906E+03  0.19445257464E+04  0.17923435359E+04 0.  0.
        3    1    3    3  502    0 -0.25831045452E+03 -0.12796671267E+03  0.12976453917E+04  0.13292792571E+04  0.10100000352E+00 0.  1.
       -3    1    3    3    0  502  0.25831045452E+03  0.12796671267E+03 -0.54353331264E+03  0.61524648932E+03  0.10100000352E+00 0. -1.
</event>
<event>
 5   0  0.1883959E-04  0.1856310E+04  0.7818609E-02  0.8676915E-01
        1   -1    0    0  501    0  0.00000000000E+00  0.00000000000E+00  0.97593477710E+03  0.97593477711E+03  0.50400001928E-02 0.  1.
       -1   -1    0    0    0  501  0.00000000000E+00  0.00000000000E+00 -0.88271421100E+03  0.88271421102E+03  0.50400001928E-02 0. -1.
    10030    2    1    2    0    0  0.00000000000E+00  0.00000000000E+00  0.93220566099E+02  0.18586489881E+04  0.18563097767E+04 0.  0.
        5    1    3    3  502    0  0.43835427103E+03 -0.31041584570E+03  0.80449009849E+03  0.96733596685E+03  0.46999998093E+01 0.  1.
       -5    1    3    3    0  502 -0.43835427103E+03  0.31041584570E+03 -0.71126953239E+03  0.89131302128E+03  0.46999998093E+01 0. -1.
</event>
<event>
 5   0  0.3568870E-04  0.1817894E+04  0.7818609E-02  0.8696841E-01
        2   -1    0    0  501    0  0.00000000000E+00  0.00000000000E+00  0.12687672402E+04  0.12687672402E+04  0.25500000920E-02 0. -1.
       -2   -1    0    0    0  501  0.00000000000E+00  0.00000000000E+00 -0.65117096810E+03  0.65117096811E+03  0.25500000920E-02 0.  1.
    10030    2    1    2    0    0  0.00000000000E+00  0.00000000000E+00  0.61759627209E+03  0.19199382083E+04  0.18178937176E+04 0.  0.
        1    1    3    3  502    0  0.83396772481E+03 -0.25866010582E+03  0.42080702040E+02  0.87417275288E+03  0.50400001928E-02 0.  1.
       -1    1    3    3    0  502 -0.83396772481E+03  0.25866010582E+03  0.57551557005E+03  0.10457654554E+04  0.50400001928E-02 0. -1.
</event>
<event>
 5   0  0.1835421E-04  0.1793298E+04  0.7818609E-02  0.8709872E-01
       -1   -1    0    0    0  501  0.00000000000E+00  0.00000000000E+00  0.44752739651E+03  0.44752739654E+03  0.50400001928E-02 0. -1.
        1   -1    0    0  501    0  0.00000000000E+00  0.00000000000E+00 -0.17964919501E+04  0.17964919502E+04  0.50400001928E-02 0.  1.
    10030    2    1    2    0    0  0.00000000000E+00  0.00000000000E+00 -0.13489645536E+04  0.22440193467E+04  0.17932979288E+04 0.  0.
        2    1    3    3  502    0  0.24437399404E+03 -0.75466530461E+03 -0.15139813799E+03  0.80756409475E+03  0.25500000920E-02 0. -1.
       -2    1    3    3    0  502 -0.24437399404E+03  0.75466530461E+03 -0.11975664156E+04  0.14364552519E+04  0.25500000920E-02 0.  1.
</event>
<event>
 5   0  0.3628581E-04  0.1780246E+04  0.7818609E-02  0.8716876E-01
        2   -1    0    0  501    0  0.00000000000E+00  0.00000000000E+00  0.10712967222E+04  0.10712967223E+04  0.25500000920E-02 0. -1.
       -2   -1    0    0    0  501  0.00000000000E+00  0.00000000000E+00 -0.73958840679E+03  0.73958840679E+03  0.25500000920E-02 0.  1.
    10030    2    1    2    0    0  0.00000000000E+00  0.00000000000E+00  0.33170831546E+03  0.18108851290E+04  0.17802456415E+04 0.  0.
        2    1    3    3  502    0 -0.81559652804E+03 -0.17233800778E+02 -0.19639850309E+03  0.83908704701E+03  0.25500000920E-02 0.  1.
       -2    1    3    3    0  502  0.81559652804E+03  0.17233800778E+02  0.52810681855E+03  0.97179808203E+03  0.25500000920E-02 0. -1.
</event>
<event>
 5   0  0.1837313E-04  0.1779875E+04  0.7818609E-02  0.8717075E-01
        1   -1    0    0  501    0  0.00000000000E+00  0.00000000000E+00  0.12029765807E+04  0.12029765808E+04  0.50400001928E-02 0. -1.
       -1   -1    0    0    0  501  0.00000000000E+00  0.00000000000E+00 -0.65835772640E+03  0.65835772642E+03  0.50400001928E-02 0.  1.
    10030    2    1    2    0    0  0.00000000000E+00  0.00000000000E+00  0.54461885434E+03  0.18613343072E+04  0.17798751941E+04 0.  0.
        1    1    3    3  502    0  0.93788788399E+02 -0.25218305714E+03 -0.61480428289E+03  0.67110128701E+03  0.50400001928E-02 0.  1.
       -1    1    3    3    0  502 -0.93788788399E+02  0.25218305714E+03  0.11594231372E+04  0.11902330202E+04  0.50400001928E-02 0. -1.
</event>
<event>
 5   0  0.3582186E-04  0.1803582E+04  0.7818609E-02  0.8704397E-01
        2   -1    0    0  501    0  0.00000000000E+00  0.00000000000E+00  0.12077656068E+04  0.12077656068E+04  0.25500000920E-02 0. -1.
       -2   -1    0    0    0  501  0.00000000000E+00  0.00000000000E+00 -0.67333171893E+03  0.67333171894E+03  0.25500000920E-02 0.  1.
    10030    2    1    2    0    0  0.00000000000E+00  0.00000000000E+00  0.53443388783E+03  0.18810973257E+04  0.18035818718E+04 0.  0.
        4    1    3    3  502    0  0.49637422252E+02  0.62015628130E+03 -0.41365527595E+03  0.74710774802E+03  0.12699999809E+01 0.  1.
       -4    1    3    3    0  502 -0.49637422252E+02 -0.62015628130E+03  0.94808916378E+03  0.11339895777E+04  0.12699999809E+01 0. -1.
</event>
<event>
 5   0  0.1825253E-04  0.1864560E+04  0.7818609E-02  0.8672701E-01
        1   -1    0    0  501    0  0.00000000000E+00  0.00000000000E+00  0.10475936470E+04  0.10475936470E+04  0.50400001928E-02 0.  1.
       -1   -1    0    0    0  501  0.00000000000E+00  0.00000000000E+00 -0.82965981525E+03  0.82965981527E+03  0.50400001928E-02 0. -1.
    10030    2    1    2    0    0  0.00000000000E+00  0.00000000000E+00  0.21793383173E+03  0.18772534623E+04  0.18645603789E+04 0.  0.
        4    1    3    3  502    0  0.79757625033E+03 -0.33589034457E+03  0.45801787245E+03  0.97914870324E+03  0.12699999809E+01 0.  1.
       -4    1    3    3    0  502 -0.79757625033E+03  0.33589034457E+03 -0.24008404071E+03  0.89810475902E+03  0.12699999809E+01 0. -1.
</event>
<event>
 5   0  0.3575091E-04  0.1783506E+04  0.7818609E-02  0.8715120E-01
       -2   -1    0    0    0  501  0.00000000000E+00  0.00000000000E+00  0.38361940438E+03  0.38361940438E+03  0.25500000920E-02 0.  1.
        2   -1    0    0  501    0  0.00000000000E+00  0.00000000000E+00 -0.20729482135E+04  0.20729482135E+04  0.25500000920E-02 0. -1.
    10030    2    1    2    0    0  0.00000000000E+00  0.00000000000E+00 -0.16893288092E+04  0.24565676179E+04  0.17835057151E+04 0.  0.
        5    1    3    3  502    0  0.65467183503E+03  0.41088117819E+03 -0.14572237426E+04  0.16495277143E+04  0.46999998093E+01 0. -1.
       -5    1    3    3    0  502 -0.65467183503E+03 -0.41088117819E+03 -0.23210506658E+03  0.80703990366E+03  0.46999998093E+01 0.  1.
</event>
<event>
 5   0  0.1835421E-04  0.1793658E+04  0.7818609E-02  0.8709679E-01
       -1   -1    0    0    0  501  0.00000000000E+00  0.00000000000E+00  0.45051647954E+03  0.45051647957E+03  0.50400001928E-02 0.  1.
        1   -1    0    0  501    0  0.00000000000E+00  0.00000000000E+00 -0.17852888312E+04  0.17852888312E+04  0.50400001928E-02 0. -1.
    10030    2    1    2    0    0  0.00000000000E+00  0.00000000000E+00 -0.13347723517E+04  0.22358053108E+04  0.17936577592E+04 0.  0.
        2    1    3    3  502    0  0.41312464730E+03  0.31488371756E+03 -0.15786821367E+04  0.16619449506E+04  0.25500000920E-02 0. -1.
       -2    1    3    3    0  502 -0.41312464730E+03 -0.31488371756E+03  0.24390978507E+03  0.57386036024E+03  0.25500000920E-02 0.  1.
</event>
<event>
 5   0  0.1818778E-04  0.1813461E+04  0.7818609E-02  0.8699173E-01
       -1   -1    0    0    0  501  0.00000000000E+00  0.00000000000E+00  0.12489168696E+04  0.12489168696E+04  0.50400001928E-02 0. -1.
        1   -1    0    0  501    0  0.00000000000E+00  0.00000000000E+00 -0.65829880823E+03  0.65829880824E+03  0.50400001928E-02 0.  1.
    10030    2    1    2    0    0  0.00000000000E+00  0.00000000000E+00  0.59061806141E+03  0.19072156779E+04  0.18134613168E+04 0.  0.
        3    1    3    3  502    0 -0.70118706435E+03  0.35675817708E+03 -0.17879709825E+03  0.80678876335E+03  0.10100000352E+00 0.  1.
       -3    1    3    3    0  502  0.70118706435E+03 -0.35675817708E+03  0.76941515967E+03  0.11004269145E+04  0.10100000352E+00 0. -1.
</event>
<event>
 5   0  0.3568870E-04  0.1782100E+04  0.7818609E-02  0.8715877E-01
       -2   -1    0    0    0  501  0.00000000000E+00  0.00000000000E+00  0.39363840293E+03  0.39363840294E+03  0.25500000920E-02 0.  1.
        2   -1    0    0  501    0  0.00000000000E+00  0.00000000000E+00 -0.20170030617E+04  0.20170030617E+04  0.25500000920E-02 0. -1.
    10030    2    1    2    0    0  0.00000000000E+00  0.00000000000E+00 -0.16233646587E+04  0.24106414646E+04  0.17820997322E+04 0.  0.
        1    1    3    3  502    0  0.61395298921E+03 -0.11257084472E+03 -0.16718525182E+04  0.17845731452E+04  0.50400001928E-02 0. -1.
       -1    1    3    3    0  502 -0.61395298921E+03  0.11257084472E+03  0.48487859415E+02  0.62606831942E+03  0.50400001928E-02 0.  1.
</event>
<event>
 5   0  0.1818778E-04  0.1761568E+04  0.7818609E-02  0.8727008E-01
        1   -1    0    0  501    0  0.00000000000E+00  0.00000000000E+00  0.69357694915E+03  0.69357694917E+03  0.50400001928E-02 0.  1.
       -1   -1    0    0    0  501  0.00000000000E+00  0.00000000000E+00 -0.11185217339E+04  0.11185217339E+04  0.50400001928E-02 0. -1.
    10030    2    1    2    0    0  0.00000000000E+00  0.00000000000E+00 -0.42494478473E+03  0.18120986831E+04  0.17615684963E+04 0.  0.
        3    1    3    3  502    0  0.43296909348E+03 -0.44007772969E+03  0.43375965918E+03  0.75450519960E+03  0.10100000352E+00 0. -1.
       -3    1    3    3    0  502 -0.43296909348E+03  0.44007772969E+03 -0.85870444391E+03  0.10575934835E+04  0.10100000352E+00 0.  1.
</event>
<event>
 5   0  0.3568870E-04  0.1903073E+04  0.7818609E-02  0.8653329E-01
        2   -1    0    0  501    0  0.00000000000E+00  0.00000000000E+00  0.10324888330E+04  0.10324888330E+04  0.25500000920E-02 0.  1.
       -2   -1    0    0    0  501  0.00000000000E+00  0.00000000000E+00 -0.87693077840E+03  0.87693077840E+03  0.25500000920E-02 0. -1.
    10030    2    1    2    0    0  0.00000000000E+00  0.00000000000E+00  0.15555805457E+03  0.19094196114E+04  0.19030725010E+04 0.  0.
        1    1    3    3  502    0  0.33083172284E+03 -0.51155354520E+03  0.81116460319E+03  0.10144578217E+04  0.50400001928E-02 0.  1.
       -1    1    3    3    0  502 -0.33083172284E+03  0.51155354520E+03 -0.65560654862E+03  0.89496178972E+03  0.50400001928E-02 0. -1.
</event>
<event>
 5   0  0.1818778E-04  0.1812111E+04  0.7818609E-02  0.8699886E-01
        1   -1    0    0  501    0  0.00000000000E+00  0.00000000000E+00  0.11468724556E+04  0.11468724556E+04  0.50400001928E-02 0. -1.
       -1   -1    0    0    0  501  0.00000000000E+00  0.00000000000E+00 -0.71580433912E+03  0.71580433914E+03  0.50400001928E-02 0.  1.
    10030    2    1    2    0    0  0.00000000000E+00  0.00000000000E+00  0.43106811647E+03  0.18626767947E+04  0.18121106811E+04 0.  0.
        3    1    3    3  502    0 -0.22864191402E+03  0.15875666957E+03  0.11018330658E+04  0.11364492598E+04  0.10100000352E+00 0. -1.
       -3    1    3    3    0  502  0.22864191402E+03 -0.15875666957E+03 -0.67076494936E+03  0.72622753492E+03  0.10100000352E+00 0.  1.
</event>
<event>
 5   0  0.1883959E-04  0.1765754E+04  0.7818609E-02  0.8724726E-01
        1   -1    0    0  501    0  0.00000000000E+00  0.00000000000E+00  0.85997485338E+03  0.85997485339E+03  0.50400001928E-02 0. -1.
       -1   -1    0    0    0  501  0.00000000000E+00  0.00000000000E+00 -0.90638953211E+03  0.90638953213E+03  0.50400001928E-02 0.  1.
    10030    2    1    2    0    0  0.00000000000E+00  0.00000000000E+00 -0.46414678733E+02  0.17663643855E+04  0.17657544620E+04 0.  0.
        5    1    3    3  502    0 -0.27744712431E+02 -0.23335914040E+03  0.82810004577E+03  0.86081242630E+03  0.46999998093E+01 0. -1.
       -5    1    3    3    0  502  0.27744712431E+02  0.23335914040E+03 -0.87451472450E+03  0.90555195922E+03  0.46999998093E+01 0.  1.
</event>
<event>
 5   0  0.3582186E-04  0.1764710E+04  0.7818609E-02  0.8725294E-01
       -2   -1    0    0    0  501  0.00000000000E+00  0.00000000000E+00  0.85228379604E+03  0.85228379605E+03  0.25500000920E-02 0. -1.
        2   -1    0    0  501    0  0.00000000000E+00  0.00000000000E+00 -0.91348762661E+03  0.91348762661E+03  0.25500000920E-02 0.  1.
    10030    2    1    2    0    0  0.00000000000E+00  0.00000000000E+00 -0.61203830565E+02  0.17657714227E+04  0.17647104035E+04 0.  0.
        4    1    3    3  502    0 -0.72814482320E+03  0.18969198520E+03  0.43051261096E+03  0.86690290915E+03  0.12699999809E+01 0. -1.
       -4    1    3    3    0  502  0.72814482320E+03 -0.18969198520E+03 -0.49171644152E+03  0.89886851350E+03  0.12699999809E+01 0.  1.
</event>
<event>
 5   0  0.3628581E-04  0.1733964E+04  0.7818609E-02  0.8742227E-01
       -2   -1    0    0    0  501  0.00000000000E+00  0.00000000000E+00  0.49933423908E+03  0.49933423908E+03  0.25500000920E-02 0.  1.
        2   -1    0    0  501    0  0.00000000000E+00  0.00000000000E+00 -0.15053207959E+04  0.15053207959E+04  0.25500000920E-02 0. -1.
    10030    2    1    2    0    0  0.00000000000E+00  0.00000000000E+00 -0.10059865568E+04  0.20046550349E+04  0.17339644912E+04 0.  0.
        2    1    3    3  502    0 -0.52649170581E+02 -0.72828647353E+02  0.49393510672E+03  0.50204366015E+03  0.25500000920E-02 0.  1.
       -2    1    3    3    0  502  0.52649170581E+02  0.72828647353E+02 -0.14999216635E+04  0.15026113748E+04  0.25500000920E-02 0. -1.
</event>
<event>
 5   0  0.1825253E-04  0.1803899E+04  0.7818609E-02  0.8704229E-01
        1   -1    0    0  501    0  0.00000000000E+00  0.00000000000E+00  0.95243767238E+03  0.95243767239E+03  0.50400001928E-02 0.  1.
       -1   -1    0    0    0  501  0.00000000000E+00  0.00000000000E+00 -0.85413728080E+03  0.85413728081E+03  0.50400001928E-02 0. -1.
    10030    2    1    2    0    0  0.00000000000E+00  0.00000000000E+00  0.98300391584E+02  0.18065749532E+04  0.18038985821E+04 0.  0.
        4    1    3    3  502    0 -0.64277531783E+02  0.61332487217E+02  0.94804392331E+03  0.95219859720E+03  0.12699999809E+01 0.  1.
       -4    1    3    3    0  502  0.64277531783E+02 -0.61332487217E+02 -0.84974353173E+03  0.85437635600E+03  0.12699999809E+01 0. -1.
</event>
<event>
 5   0  0.1330125E-04  0.1796291E+04  0.7818609E-02  0.8708274E-01
       -3   -1    0    0    0  501  0.00000000000E+00  0.00000000000E+00  0.12837560618E+04  0.12837560658E+04  0.10100000352E+00 0.  1.
        3   -1    0    0  501    0  0.00000000000E+00  0.00000000000E+00 -0.62836374146E+03  0.62836374958E+03  0.10100000352E+00 0. -1.
    10030    2    1    2    0    0  0.00000000000E+00  0.00000000000E+00  0.65539232038E+03  0.19121198154E+04  0.17962914838E+04 0.  0.
        5    1    3    3  502    0 -0.30259113057E+03 -0.58501172337E+03 -0.32228627844E+03  0.73327392157E+03  0.46999998093E+01 0. -1.
       -5    1    3    3    0  502  0.30259113057E+03  0.58501172337E+03  0.97767859882E+03  0.11788458938E+04  0.46999998093E+01 0.  1.
</event>
<event>
 5   0  0.3575091E-04  0.1792826E+04  0.7818609E-02  0.8710124E-01
        2   -1    0    0  501    0  0.00000000000E+00  0.00000000000E+00  0.15908759465E+04  0.15908759465E+04  0.25500000920E-02 0. -1.
       -2   -1    0    0    0  501  0.00000000000E+00  0.00000000000E+00 -0.50510323217E+03  0.50510323217E+03  0.25500000920E-02 0.  1.
    10030    2    1    2    0    0  0.00000000000E+00  0.00000000000E+00  0.10857727143E+04  0.20959791786E+04  0.17928263525E+04 0.  0.
        5    1    3    3  502    0 -0.10969190988E+03 -0.71834388543E+02 -0.49381692316E+03  0.51094983909E+03  0.46999998093E+01 0.  1.
       -5    1    3    3    0  502  0.10969190988E+03  0.71834388543E+02  0.15795896375E+04  0.15850293395E+04  0.46999998093E+01 0. -1.
</event>
<event>
 5   0  0.1825253E-04  0.1803760E+04  0.7818609E-02  0.8704303E-01
       -1   -1    0    0    0  501  0.00000000000E+00  0.00000000000E+00  0.10168610572E+04  0.10168610572E+04  0.50400001928E-02 0.  1.
        1   -1    0    0  501    0  0.00000000000E+00  0.00000000000E+00 -0.79989996827E+03  0.79989996828E+03  0.50400001928E-02 0. -1.
    10030    2    1    2    0    0  0.00000000000E+00  0.00000000000E+00  0.21696108889E+03  0.18167610255E+04  0.18037595487E+04 0.  0.
        4    1    3    3  502    0 -0.16014205013E+03  0.31346333194E+03  0.94481548802E+03  0.10082572370E+04  0.12699999809E+01 0.  1.
       -4    1    3    3    0  502  0.16014205013E+03 -0.31346333194E+03 -0.72785439913E+03  0.80850378844E+03  0.12699999809E+01 0. -1.
</event>
<event>
 5   0  0.3582186E-04  0.1820120E+04  0.7818609E-02  0.8695673E-01
       -2   -1    0    0    0  501  0.00000000000E+00  0.00000000000E+00  0.10394989882E+04  0.10394989882E+04  0.25500000920E-02 0. -1.
        2   -1    0    0  501    0  0.00000000000E+00  0.00000000000E+00 -0.79673872033E+03  0.79673872033E+03  0.25500000920E-02 0.  1.
    10030    2    1    2    0    0  0.00000000000E+00  0.00000000000E+00  0.24276026792E+03  0.18362377086E+04  0.18201198792E+04 0.  0.
        4    1    3    3  502    0  0.25793454191E+03 -0.81172009680E+03  0.44482447838E+03  0.96087989516E+03  0.12699999809E+01 0. -1.
       -4    1    3    3    0  502 -0.25793454191E+03  0.81172009680E+03 -0.20206421046E+03  0.87535781342E+03  0.12699999809E+01 0.  1.
</event>
<event>
 5   0  0.1835421E-04  0.1825047E+04  0.7818609E-02  0.8693092E-01
       -1   -1    0    0    0  501  0.00000000000E+00  0.00000000000E+00  0.10042178960E+04  0.10042178960E+04  0.50400001928E-02 0.  1.
        1   -1    0    0  501    0  0.00000000000E+00  0.00000000000E+00 -0.82920142355E+03  0.82920142357E+03  0.50400001928E-02 0. -1.
    10030    2    1    2    0    0  0.00000000000E+00  0.00000000000E+00  0.17501647240E+03  0.18334193195E+04  0.18250467489E+04 0.  0.
        2    1    3    3  502    0 -0.41167431551E+03  0.11911655726E+03 -0.72181437125E+03  0.83945248991E+03  0.25500000920E-02 0. -1.
       -2    1    3    3    0  502  0.41167431551E+03 -0.11911655726E+03  0.89683084365E+03  0.99396682962E+03  0.25500000920E-02 0.  1.
</event>
<event>
 5   0  0.1835421E-04  0.1811645E+04  0.7818609E-02  0.8700131E-01
        1   -1    0    0  501    0  0.00000000000E+00  0.00000000000E+00  0.18896978118E+04  0.18896978118E+04  0.50400001928E-02 0.  1.
       -1   -1    0    0    0  501  0.00000000000E+00  0.00000000000E+00 -0.43420405512E+03  0.43420405515E+03  0.50400001928E-02 0. -1.
    10030    2    1    2    0    0  0.00000000000E+00  0.00000000000E+00  0.14554937567E+04  0.23239018670E+04  0.18116450567E+04 0.  0.
        2    1    3    3  502    0 -0.32223179252E+03 -0.78378942147E+03  0.31735404280E+03  0.90491589322E+03  0.25500000920E-02 0. -1.
       -2    1    3    3    0  502  0.32223179252E+03  0.78378942147E+03  0.11381397139E+04  0.14189859737E+04  0.25500000920E-02 0.  1.
</event>
<event>
 5   0  0.3628581E-04  0.1804866E+04  0.7818609E-02  0.8703716E-01
       -2   -1    0    0    0  501  0.00000000000E+00  0.00000000000E+00  0.94601391855E+03  0.94601391855E+03  0.25500000920E-02 0.  1.
        2   -1    0    0  501    0  0.00000000000E+00  0.00000000000E+00 -0.86085931056E+03  0.86085931056E+03  0.25500000920E-02 0. -1.
    10030    2    1    2    0    0  0.00000000000E+00  0.00000000000E+00  0.85154607984E+02  0.18068732291E+04  0.18048655238E+04 0.  0.
        2    1    3    3  502    0  0.37343487681E+03  0.29660936324E+03 -0.72440426845E+03  0.86729018542E+03  0.25500000920E-02 0. -1.
       -2    1    3    3    0  502 -0.37343487681E+03 -0.29660936324E+03  0.80955887643E+03  0.93958304369E+03  0.25500000920E-02 0.  1.
</event>
<event>
 5   0  0.1883959E-04  0.1405790E+04  0.7818609E-02  0.8949638E-01
       -1   -1    0    0    0  501  0.00000000000E+00  0.00000000000E+00  0.39593388811E+03  0.39593388815E+03  0.50400001928E-02 0. -1.
        1   -1    0    0  501    0  0.00000000000E+00  0.00000000000E+00 -0.12478380993E+04  0.12478380993E+04  0.50400001928E-02 0.  1.
    10030    2    1    2    0    0  0.00000000000E+00  0.00000000000E+00 -0.85190421120E+03  0.16437719875E+04  0.14057900134E+04 0.  0.
        5    1    3    3  502    0  0.33350467086E+03  0.25483146744E+03 -0.10852006977E+04  0.11635493486E+04  0.46999998093E+01 0.  1.
       -5    1    3    3    0  502 -0.33350467086E+03 -0.25483146744E+03  0.23329648651E+03  0.48022263888E+03  0.46999998093E+01 0. -1.
</event>
<event>
 5   0  0.1825253E-04  0.1795044E+04  0.7818609E-02  0.8708939E-01
       -1   -1    0    0    0  501  0.00000000000E+00  0.00000000000E+00  0.72575932576E+03  0.72575932578E+03  0.50400001928E-02 0.  1.
        1   -1    0    0  501    0  0.00000000000E+00  0.00000000000E+00 -0.11099355625E+04  0.11099355625E+04  0.50400001928E-02 0. -1.
    10030    2    1    2    0    0  0.00000000000E+00  0.00000000000E+00 -0.38417623670E+03  0.18356948883E+04  0.17950443844E+04 0.  0.
        4    1    3    3  502    0  0.29370915519E+03 -0.59890422057E+02  0.67305618597E+03  0.73678909660E+03  0.12699999809E+01 0.  1.
       -4    1    3    3    0  502 -0.29370915519E+03  0.59890422057E+02 -0.10572324227E+04  0.10989057917E+04  0.12699999809E+01 0. -1.
</event>
<event>
 5   0  0.1883959E-04  0.1802130E+04  0.7818609E-02  0.8705168E-01
        1   -1    0    0  501    0  0.00000000000E+00  0.00000000000E+00  0.61162987974E+03  0.61162987977E+03  0.50400001928E-02 0.  1.
       -1   -1    0    0    0  501  0.00000000000E+00  0.00000000000E+00 -0.13274663541E+04  0.13274663541E+04  0.50400001928E-02 0. -1.
    10030    2    1    2    0    0  0.00000000000E+00  0.00000000000E+00 -0.71583647431E+03  0.19390962338E+04  0.18021299471E+04 0.  0.
        5    1    3    3  502    0 -0.83831144893E+03  0.77175493009E+02 -0.12298857080E+02  0.84195931850E+03  0.46999998093E+01 0. -1.
       -5    1    3    3    0  502  0.83831144893E+03 -0.77175493009E+02 -0.70353761723E+03  0.10971369153E+04  0.46999998093E+01 0.  1.
</event>
<event>
 5   0  0.3628581E-04  0.2047320E+04  0.7818609E-02  0.8584811E-01
        2   -1    0    0  501    0  0.00000000000E+00  0.00000000000E+00  0.11438192408E+04  0.11438192408E+04  0.25500000920E-02 0.  1.
       -2   -1    0    0    0  501  0.00000000000E+00  0.00000000000E+00 -0.91612352950E+03  0.91612352950E+03  0.25500000920E-02 0. -1.
    10030    2    1    2    0    0  0.00000000000E+00  0.00000000000E+00  0.22769571133E+03  0.20599427703E+04  0.20473199262E+04 0.  0.
        2    1    3    3  502    0 -0.35295950148E+03 -0.43629512046E+03  0.97524890204E+03  0.11251863236E+04  0.25500000920E-02 0.  1.
       -2    1    3    3    0  502  0.35295950148E+03  0.43629512046E+03 -0.74755319070E+03  0.93475644676E+03  0.25500000920E-02 0. -1.
</event>
<event>
 5   0  0.3628581E-04  0.1783157E+04  0.7818609E-02  0.8715308E-01
       -2   -1    0    0    0  501  0.00000000000E+00  0.00000000000E+00  0.53282562580E+03  0.53282562580E+03  0.25500000920E-02 0.  1.
        2   -1    0    0  501    0  0.00000000000E+00  0.00000000000E+00 -0.14918807479E+04  0.14918807479E+04  0.25500000920E-02 0. -1.
    10030    2    1    2    0    0  0.00000000000E+00  0.00000000000E+00 -0.95905512210E+03  0.20247063737E+04  0.17831570802E+04 0.  0.
        2    1    3    3  502    0 -0.31263214210E+03 -0.34438219020E+03 -0.13432059116E+04  0.14214570237E+04  0.25500000920E-02 0. -1.
       -2    1    3    3    0  502  0.31263214210E+03  0.34438219020E+03  0.38415078951E+03  0.60324935001E+03  0.25500000920E-02 0.  1.
</event>
<event>
 5   0  0.1837313E-04  0.1806170E+04  0.7818609E-02  0.8703025E-01
       -1   -1    0    0    0  501  0.00000000000E+00  0.00000000000E+00  0.55662344240E+03  0.55662344242E+03  0.50400001928E-02 0. -1.
        1   -1    0    0  501    0  0.00000000000E+00  0.00000000000E+00 -0.14651958555E+04  0.14651958555E+04  0.50400001928E-02 0.  1.
    10030    2    1    2    0    0  0.00000000000E+00  0.00000000000E+00 -0.90857241306E+03  0.20218192979E+04  0.18061698269E+04 0.  0.
        1    1    3    3  502    0  0.79533484437E+03  0.15948791667E+03 -0.89862925162E+03  0.12105901214E+04  0.50400001928E-02 0.  1.
       -1    1    3    3    0  502 -0.79533484437E+03 -0.15948791667E+03 -0.99431614395E+01  0.81122917645E+03  0.50400001928E-02 0. -1.
</event>
<event>
 5   0  0.3531266E-04  0.1811501E+04  0.7818609E-02  0.8700207E-01
       -2   -1    0    0    0  501  0.00000000000E+00  0.00000000000E+00  0.84466670138E+03  0.84466670138E+03  0.25500000920E-02 0. -1.
        2   -1    0    0  501    0  0.00000000000E+00  0.00000000000E+00 -0.97125183793E+03  0.97125183793E+03  0.25500000920E-02 0.  1.
    10030    2    1    2    0    0  0.00000000000E+00  0.00000000000E+00 -0.12658513655E+03  0.18159185393E+04  0.18115011302E+04 0.  0.
        3    1    3    3  502    0 -0.36291940832E+03  0.82190668759E+03  0.51629811165E+02  0.89994819164E+03  0.10100000352E+00 0.  1.
       -3    1    3    3    0  502  0.36291940832E+03 -0.82190668759E+03 -0.17821494771E+03  0.91597034768E+03  0.10100000352E+00 0. -1.
</event>
<event>
 5   0  0.3531266E-04  0.1561419E+04  0.7818609E-02  0.8844607E-01
        2   -1    0    0  501    0  0.00000000000E+00  0.00000000000E+00  0.17822193305E+04  0.17822193305E+04  0.25500000920E-02 0.  1.
       -2   -1    0    0    0  501  0.00000000000E+00  0.00000000000E+00 -0.34199347747E+03  0.34199347748E+03  0.25500000920E-02 0. -1.
    10030    2    1    2    0    0  0.00000000000E+00  0.00000000000E+00  0.14402258530E+04  0.21242128080E+04  0.15614190808E+04 0.  0.
        3    1    3    3  502    0  0.47252199329E+03 -0.42691199994E+03  0.13345375248E+04  0.14786890495E+04  0.10100000352E+00 0.  1.
       -3    1    3    3    0  502 -0.47252199329E+03  0.42691199994E+03  0.10568832823E+03  0.64552375848E+03  0.10100000352E+00 0. -1.
</event>
<event>
 5   0  0.3582186E-04  0.1788094E+04  0.7818609E-02  0.8712657E-01
        2   -1    0    0  501    0  0.00000000000E+00  0.00000000000E+00  0.68478206135E+03  0.68478206135E+03  0.25500000920E-02 0.  1.
       -2   -1    0    0    0  501  0.00000000000E+00  0.00000000000E+00 -0.11672616128E+04  0.11672616128E+04  0.25500000920E-02 0. -1.
    10030    2    1    2    0    0  0.00000000000E+00  0.00000000000E+00 -0.48247955149E+03  0.18520436742E+04  0.17880937485E+04 0.  0.
        4    1    3    3  502    0 -0.13112560979E+02  0.12238022582E+03  0.67596407297E+03  0.68707925290E+03  0.12699999809E+01 0.  1.
       -4    1    3    3    0  502  0.13112560979E+02 -0.12238022582E+03 -0.11584436245E+04  0.11649644213E+04  0.12699999809E+01 0. -1.
</event>
<event>
 5   0  0.1825253E-04  0.1802711E+04  0.7818609E-02  0.8704859E-01
       -1   -1    0    0    0  501  0.00000000000E+00  0.00000000000E+00  0.55463004844E+03  0.55463004846E+03  0.50400001928E-02 0.  1.
        1   -1    0    0  501    0  0.00000000000E+00  0.00000000000E+00 -0.14648348045E+04  0.14648348045E+04  0.50400001928E-02 0. -1.
    10030    2    1    2    0    0  0.00000000000E+00  0.00000000000E+00 -0.91020475604E+03  0.20194648529E+04  0.18027106241E+04 0.  0.
        4    1    3    3  502    0  0.15541795254E+03 -0.22867703549E+03 -0.14161541552E+04  0.14428936657E+04  0.12699999809E+01 0. -1.
       -4    1    3    3    0  502 -0.15541795254E+03  0.22867703549E+03  0.50594939913E+03  0.57657118720E+03  0.12699999809E+01 0.  1.
</event>
<event>
 5   0  0.1825253E-04  0.1822372E+04  0.7818609E-02  0.8694492E-01
       -1   -1    0    0    0  501  0.00000000000E+00  0.00000000000E+00  0.77749534260E+03  0.77749534262E+03  0.50400001928E-02 0.  1.
        1   -1    0    0  501    0  0.00000000000E+00  0.00000000000E+00 -0.10678649870E+04  0.10678649870E+04  0.50400001928E-02 0. -1.
    10030    2    1    2    0    0  0.00000000000E+00  0.00000000000E+00 -0.29036964443E+03  0.18453603297E+04  0.18223721398E+04 0.  0.
        4    1    3    3  502    0  0.32359513254E+03  0.70215822202E+03 -0.63346920506E+03  0.99951229368E+03  0.12699999809E+01 0. -1.
       -4    1    3    3    0  502 -0.32359513254E+03 -0.70215822202E+03  0.34309956063E+03  0.84584803598E+03  0.12699999809E+01 0.  1.
</event>
<event>
 5   0  0.3575091E-04  0.1805230E+04  0.7818609E-02  0.8703523E-01
       -2   -1    0    0    0  501  0.00000000000E+00  0.00000000000E+00  0.51799285247E+03  0.51799285248E+03  0.25500000920E-02 0.  1.
        2   -1    0    0  501    0  0.00000000000E+00  0.00000000000E+00 -0.15728276038E+04  0.15728276038E+04  0.25500000920E-02 0. -1.
    10030    2    1    2    0    0  0.00000000000E+00  0.00000000000E+00 -0.10548347513E+04  0.20908204562E+04  0.18052295776E+04 0.  0.
        5    1    3    3  502    0 -0.80187076273E+03 -0.23195021104E+03 -0.92509365269E+03  0.12460409210E+04  0.46999998093E+01 0. -1.
       -5    1    3    3    0  502  0.80187076273E+03  0.23195021104E+03 -0.12974109860E+03  0.84477953526E+03  0.46999998093E+01 0.  1.
</event>
<event>
 5   0  0.1825253E-04  0.1805017E+04  0.7818609E-02  0.8703636E-01
       -1   -1    0    0    0  501  0.00000000000E+00  0.00000000000E+00  0.93859121174E+03  0.93859121176E+03  0.50400001928E-02 0. -1.
        1   -1    0    0  501    0  0.00000000000E+00  0.00000000000E+00 -0.86781332101E+03  0.86781332102E+03  0.50400001928E-02 0.  1.
    10030    2    1    2    0    0  0.00000000000E+00  0.00000000000E+00  0.70777890733E+02  0.18064045328E+04  0.18050174033E+04 0.  0.
        4    1    3    3  502    0  0.28231372385E+03  0.48287668994E+03  0.74420537014E+03  0.93097485584E+03  0.12699999809E+01 0. -1.
       -4    1    3    3    0  502 -0.28231372385E+03 -0.48287668994E+03 -0.67342747940E+03  0.87542967694E+03  0.12699999809E+01 0.  1.
</event>
<event>
 5   0  0.3531266E-04  0.1791258E+04  0.7818609E-02  0.8710962E-01
        2   -1    0    0  501    0  0.00000000000E+00  0.00000000000E+00  0.17722018906E+04  0.17722018906E+04  0.25500000920E-02 0. -1.
       -2   -1    0    0    0  501  0.00000000000E+00  0.00000000000E+00 -0.45262950935E+03  0.45262950936E+03  0.25500000920E-02 0.  1.
    10030    2    1    2    0    0  0.00000000000E+00  0.00000000000E+00  0.13195723813E+04  0.22248314000E+04  0.17912575161E+04 0.  0.
        3    1    3    3  502    0  0.38909804590E+03 -0.51457617125E+03 -0.11185074184E+03  0.65474920694E+03  0.10100000352E+00 0.  1.
       -3    1    3    3    0  502 -0.38909804590E+03  0.51457617125E+03  0.14314231231E+04  0.15700821930E+04  0.10100000352E+00 0. -1.
</event>
<event>
 5   0  0.3531266E-04  0.1821720E+04  0.7818609E-02  0.8694833E-01
       -2   -1    0    0    0  501  0.00000000000E+00  0.00000000000E+00  0.41131518493E+03  0.41131518494E+03  0.25500000920E-02 0. -1.
        2   -1    0    0  501    0  0.00000000000E+00  0.00000000000E+00 -0.20171056388E+04  0.20171056388E+04  0.25500000920E-02 0.  1.
    10030    2    1    2    0    0  0.00000000000E+00  0.00000000000E+00 -0.16057904538E+04  0.24284208237E+04  0.18217202627E+04 0.  0.
        3    1    3    3  502    0  0.43607939258E+02  0.16872248407E+03  0.38888565931E+03  0.42614668274E+03  0.10100000352E+00 0. -1.
       -3    1    3    3    0  502 -0.43607939258E+02 -0.16872248407E+03 -0.19946761131E+04  0.20022741410E+04  0.10100000352E+00 0.  1.
</event>
<event>
 5   0  0.1825253E-04  0.1797388E+04  0.7818609E-02  0.8707690E-01
        1   -1    0    0  501    0  0.00000000000E+00  0.00000000000E+00  0.16222269094E+04  0.16222269094E+04  0.50400001928E-02 0.  1.
       -1   -1    0    0    0  501  0.00000000000E+00  0.00000000000E+00 -0.49786538111E+03  0.49786538114E+03  0.50400001928E-02 0. -1.
    10030    2    1    2    0    0  0.00000000000E+00  0.00000000000E+00  0.11243615282E+04  0.21200922905E+04  0.17973876805E+04 0.  0.
        4    1    3    3  502    0 -0.29754866915E+03  0.84458682707E+03  0.65191031488E+03  0.11076329674E+04  0.12699999809E+01 0.  1.
       -4    1    3    3    0  502  0.29754866915E+03 -0.84458682707E+03  0.47245121336E+03  0.10124593231E+04  0.12699999809E+01 0. -1.
</event>
<event>
 5   0  0.1818778E-04  0.1821393E+04  0.7818609E-02  0.8695005E-01
        1   -1    0    0  501    0  0.00000000000E+00  0.00000000000E+00  0.15068624441E+04  0.15068624441E+04  0.50400001928E-02 0.  1.
       -1   -1    0    0    0  501  0.00000000000E+00  0.00000000000E+00 -0.55039421125E+03  0.55039421127E+03  0.50400001928E-02 0. -1.
    10030    2    1    2    0    0  0.00000000000E+00  0.00000000000E+00  0.95646823286E+03  0.20572566554E+04  0.18213932759E+04 0.  0.
        3    1    3    3  502    0  0.88329915265E+03  0.73960883228E+02  0.71429813436E+03  0.11383801827E+04  0.10100000352E+00 0.  1.
       -3    1    3    3    0  502 -0.88329915265E+03 -0.73960883228E+02  0.24217009850E+03  0.91887647273E+03  0.10100000352E+00 0. -1.
</event>
<event>
 5   0  0.1825253E-04  0.1791108E+04  0.7818609E-02  0.8711043E-01
       -1   -1    0    0    0  501  0.00000000000E+00  0.00000000000E+00  0.42093310060E+03  0.42093310063E+03  0.50400001928E-02 0.  1.
        1   -1    0    0  501    0  0.00000000000E+00  0.00000000000E+00 -0.19053310384E+04  0.19053310384E+04  0.50400001928E-02 0. -1.
    10030    2    1    2    0    0  0.00000000000E+00  0.00000000000E+00 -0.14843979378E+04  0.23262641391E+04  0.17911079272E+04 0.  0.
        4    1    3    3  502    0 -0.17125110809E+03 -0.11212641093E+02 -0.18837730936E+04  0.18915748324E+04  0.12699999809E+01 0. -1.
       -4    1    3    3    0  502  0.17125110809E+03  0.11212641093E+02  0.39937515582E+03  0.43468930666E+03  0.12699999809E+01 0.  1.
</event>
<event>
 5   0  0.3575091E-04  0.1810196E+04  0.7818609E-02  0.8700896E-01
        2   -1    0    0  501    0  0.00000000000E+00  0.00000000000E+00  0.19435833966E+04  0.19435833967E+04  0.25500000920E-02 0. -1.
       -2   -1    0    0    0  501  0.00000000000E+00  0.00000000000E+00 -0.42149052338E+03  0.42149052339E+03  0.25500000920E-02 0.  1.
    10030    2    1    2    0    0  0.00000000000E+00  0.00000000000E+00  0.15220928733E+04  0.23650739200E+04  0.18101955509E+04 0.  0.
        5    1    3    3  502    0 -0.54892345952E+03 -0.69292060146E+03  0.10148092113E+04  0.13458513104E+04  0.46999998093E+01 0. -1.
       -5    1    3    3    0  502  0.54892345952E+03  0.69292060146E+03  0.50728366197E+03  0.10192226097E+04  0.46999998093E+01 0.  1.
</event>
<event>
 5   0  0.1825253E-04  0.1767437E+04  0.7818609E-02  0.8723810E-01
       -1   -1    0    0    0  501  0.00000000000E+00  0.00000000000E+00  0.62900069758E+03  0.62900069760E+03  0.50400001928E-02 0.  1.
        1   -1    0    0  501    0  0.00000000000E+00  0.00000000000E+00 -0.12415856390E+04  0.12415856390E+04  0.50400001928E-02 0. -1.
    10030    2    1    2    0    0  0.00000000000E+00  0.00000000000E+00 -0.61258494139E+03  0.18705863366E+04  0.17674368255E+04 0.  0.
        4    1    3    3  502    0 -0.87538751317E+03  0.88864851675E+02 -0.21929828018E+03  0.90680406300E+03  0.12699999809E+01 0.  1.
       -4    1    3    3    0  502  0.87538751317E+03 -0.88864851675E+02 -0.39328666121E+03  0.96378227358E+03  0.12699999809E+01 0. -1.
</event>
<event>
 5   0  0.1330125E-04  0.2014076E+04  0.7818609E-02  0.8600068E-01
       -3   -1    0    0    0  501  0.00000000000E+00  0.00000000000E+00  0.16941614495E+04  0.16941614525E+04  0.10100000352E+00 0.  1.
        3   -1    0    0  501    0  0.00000000000E+00  0.00000000000E+00 -0.59860020623E+03  0.59860021475E+03  0.10100000352E+00 0. -1.
    10030    2    1    2    0    0  0.00000000000E+00  0.00000000000E+00  0.10955612432E+04  0.22927616672E+04  0.20140758737E+04 0.  0.
        1    1    3    3  502    0 -0.61667030755E+03  0.99219829107E+02 -0.35145785237E+03  0.71669342450E+03  0.50400001928E-02 0. -1.
       -1    1    3    3    0  502  0.61667030755E+03 -0.99219829107E+02  0.14470190956E+04  0.15760682427E+04  0.50400001928E-02 0.  1.
</event>
<event>
 5   0  0.1835421E-04  0.1804917E+04  0.7818609E-02  0.8703689E-01
        1   -1    0    0  501    0  0.00000000000E+00  0.00000000000E+00  0.11274282104E+04  0.11274282104E+04  0.50400001928E-02 0.  1.
       -1   -1    0    0    0  501  0.00000000000E+00  0.00000000000E+00 -0.72237982547E+03  0.72237982549E+03  0.50400001928E-02 0. -1.
    10030    2    1    2    0    0  0.00000000000E+00  0.00000000000E+00  0.40504838492E+03  0.18498080359E+04  0.18049170550E+04 0.  0.
        2    1    3    3  502    0  0.77555395219E+03 -0.46103573619E+03  0.22285468475E+03  0.92935574099E+03  0.25500000920E-02 0.  1.
       -2    1    3    3    0  502 -0.77555395219E+03  0.46103573619E+03  0.18219370017E+03  0.92045229490E+03  0.25500000920E-02 0. -1.
</event>
<event>
 5   0  0.1883959E-04  0.1839029E+04  0.7818609E-02  0.8685815E-01
       -1   -1    0    0    0  501  0.00000000000E+00  0.00000000000E+00  0.13927568428E+04  0.13927568428E+04  0.50400001928E-02 0.  1.
        1   -1    0    0  501    0  0.00000000000E+00  0.00000000000E+00 -0.60707426316E+03  0.60707426318E+03  0.50400001928E-02 0. -1.
    10030    2    1    2    0    0  0.00000000000E+00  0.00000000000E+00  0.78568257964E+03  0.19998311060E+04  0.18390289113E+04 0.  0.
        5    1    3    3  502    0  0.71589859307E+03  0.34182253633E+03 -0.11270810812E+03  0.80129810279E+03  0.46999998093E+01 0. -1.
       -5    1    3    3    0  502 -0.71589859307E+03 -0.34182253633E+03  0.89839068776E+03  0.11985330032E+04  0.46999998093E+01 0.  1.
</event>
<event>
 5   0  0.3628581E-04  0.1856318E+04  0.7818609E-02  0.8676911E-01
        2   -1    0    0  501    0  0.00000000000E+00  0.00000000000E+00  0.15294073425E+04  0.15294073425E+04  0.25500000920E-02 0.  1.
       -2   -1    0    0    0  501  0.00000000000E+00  0.00000000000E+00 -0.56327629772E+03  0.56327629773E+03  0.25500000920E-02 0. -1.
    10030    2    1    2    0    0  0.00000000000E+00  0.00000000000E+00  0.96613104477E+03  0.20926836402E+04  0.18563177590E+04 0.  0.
        2    1    3    3  502    0 -0.10539081049E+03 -0.12392456175E+03  0.15132102366E+04  0.15219296108E+04  0.25500000920E-02 0.  1.
       -2    1    3    3    0  502  0.10539081049E+03  0.12392456175E+03 -0.54707919186E+03  0.57075402943E+03  0.25500000920E-02 0. -1.
</event>
<event>
 5   0  0.3582186E-04  0.1780468E+04  0.7818609E-02  0.8716756E-01
       -2   -1    0    0    0  501  0.00000000000E+00  0.00000000000E+00  0.50617948452E+03  0.50617948453E+03  0.25500000920E-02 0.  1.
        2   -1    0    0  501    0  0.00000000000E+00  0.00000000000E+00 -0.15656825766E+04  0.15656825766E+04  0.25500000920E-02 0. -1.
    10030    2    1    2    0    0  0.00000000000E+00  0.00000000000E+00 -0.10595030921E+04  0.20718620612E+04  0.17804678032E+04 0.  0.
        4    1    3    3  502    0  0.80281430317E+03 -0.15386166944E+03 -0.11943817275E+03  0.82610611226E+03  0.12699999809E+01 0.  1.
       -4    1    3    3    0  502 -0.80281430317E+03  0.15386166944E+03 -0.94006491938E+03  0.12457559489E+04  0.12699999809E+01 0. -1.
</event>
<event>
 5   0  0.3531266E-04  0.1797157E+04  0.7818609E-02  0.8707813E-01
       -2   -1    0    0    0  501  0.00000000000E+00  0.00000000000E+00  0.50024069125E+03  0.50024069126E+03  0.25500000920E-02 0. -1.
        2   -1    0    0  501    0  0.00000000000E+00  0.00000000000E+00 -0.16141103069E+04  0.16141103069E+04  0.25500000920E-02 0.  1.
    10030    2    1    2    0    0  0.00000000000E+00  0.00000000000E+00 -0.11138696157E+04  0.21143509982E+04  0.17971573728E+04 0.  0.
        3    1    3    3  502    0  0.65400687120E+03  0.61369123062E+03 -0.49141191428E+03  0.10226571243E+04  0.10100000352E+00 0.  1.
       -3    1    3    3    0  502 -0.65400687120E+03 -0.61369123062E+03 -0.62245770138E+03  0.10916938739E+04  0.10100000352E+00 0. -1.
</event>
<event>
 5   0  0.1825253E-04  0.1870511E+04  0.7818609E-02  0.8669676E-01
       -1   -1    0    0    0  501  0.00000000000E+00  0.00000000000E+00  0.13580669007E+04  0.13580669007E+04  0.50400001928E-02 0.  1.
        1   -1    0    0  501    0  0.00000000000E+00  0.00000000000E+00 -0.64407959768E+03  0.64407959769E+03  0.50400001928E-02 0. -1.
    10030    2    1    2    0    0  0.00000000000E+00  0.00000000000E+00  0.71398730303E+03  0.20021464984E+04  0.18705113558E+04 0.  0.
        4    1    3    3  502    0  0.52572834425E+03  0.57745716672E+03 -0.19386373830E+03  0.80463148911E+03  0.12699999809E+01 0. -1.
       -4    1    3    3    0  502 -0.52572834425E+03 -0.57745716672E+03  0.90785104133E+03  0.11975150093E+04  0.12699999809E+01 0.  1.
</event>
<event>
 5   0  0.1818778E-04  0.1870327E+04  0.7818609E-02  0.8669769E-01
        1   -1    0    0  501    0  0.00000000000E+00  0.00000000000E+00  0.11248419010E+04  0.11248419011E+04  0.50400001928E-02 0.  1.
       -1   -1    0    0    0  501  0.00000000000E+00  0.00000000000E+00 -0.77746992044E+03  0.77746992046E+03  0.50400001928E-02 0. -1.
    10030    2    1    2    0    0  0.00000000000E+00  0.00000000000E+00  0.34737198061E+03  0.19023118215E+04  0.18703269696E+04 0.  0.
        3    1    3    3  502    0  0.52118162374E+03 -0.29380854157E+03 -0.55733811639E+03  0.81766712677E+03  0.10100000352E+00 0. -1.
       -3    1    3    3    0  502 -0.52118162374E+03  0.29380854157E+03  0.90471009700E+03  0.10846446947E+04  0.10100000352E+00 0.  1.
</event>
<event>
 5   0  0.1883959E-04  0.1811382E+04  0.7818609E-02  0.8700270E-01
        1   -1    0    0  501    0  0.00000000000E+00  0.00000000000E+00  0.15202057471E+04  0.15202057471E+04  0.50400001928E-02 0.  1.
       -1   -1    0    0    0  501  0.00000000000E+00  0.00000000000E+00 -0.53958252556E+03  0.53958252559E+03  0.50400001928E-02 0. -1.
    10030    2    1    2    0    0  0.00000000000E+00  0.00000000000E+00  0.98062322152E+03  0.20597882727E+04  0.18113822969E+04 0.  0.
        5    1    3    3  502    0 -0.86798530267E+03  0.20757979163E+03  0.31500625825E+03  0.94643483044E+03  0.46999998093E+01 0. -1.
       -5    1    3    3    0  502  0.86798530267E+03 -0.20757979163E+03  0.66561696327E+03  0.11133534422E+04  0.46999998093E+01 0.  1.
</event>
<event>
 5   0  0.1883959E-04  0.1830306E+04  0.7818609E-02  0.8690347E-01
        1   -1    0    0  501    0  0.00000000000E+00  0.00000000000E+00  0.15623408350E+04  0.15623408350E+04  0.50400001928E-02 0. -1.
       -1   -1    0    0    0  501  0.00000000000E+00  0.00000000000E+00 -0.53605801897E+03  0.53605801899E+03  0.50400001928E-02 0.  1.
    10030    2    1    2    0    0  0.00000000000E+00  0.00000000000E+00  0.10262828160E+04  0.20983988540E+04  0.18303063492E+04 0.  0.
        5    1    3    3  502    0 -0.78823088022E+03  0.32387771736E+03  0.13069553692E+03  0.86215318227E+03  0.46999998093E+01 0.  1.
       -5    1    3    3    0  502  0.78823088022E+03 -0.32387771736E+03  0.89558727908E+03  0.12362456717E+04  0.46999998093E+01 0. -1.
</event>
<event>
 5   0  0.3628581E-04  0.1802376E+04  0.7818609E-02  0.8705037E-01
       -2   -1    0    0    0  501  0.00000000000E+00  0.00000000000E+00  0.69750811107E+03  0.69750811107E+03  0.25500000920E-02 0. -1.
        2   -1    0    0  501    0  0.00000000000E+00  0.00000000000E+00 -0.11643447111E+04  0.11643447111E+04  0.25500000920E-02 0.  1.
    10030    2    1    2    0    0  0.00000000000E+00  0.00000000000E+00 -0.46683660003E+03  0.18618528222E+04  0.18023760763E+04 0.  0.
        2    1    3    3  502    0 -0.15952022966E+03  0.78705700897E+03 -0.65585612188E+03  0.10368474775E+04  0.25500000920E-02 0. -1.
       -2    1    3    3    0  502  0.15952022966E+03 -0.78705700897E+03  0.18901952185E+03  0.82500534464E+03  0.25500000920E-02 0.  1.
</event>
<event>
 5   0  0.3628581E-04  0.1757290E+04  0.7818609E-02  0.8729348E-01
        2   -1    0    0  501    0  0.00000000000E+00  0.00000000000E+00  0.53843336728E+03  0.53843336729E+03  0.25500000920E-02 0. -1.
       -2   -1    0    0    0  501  0.00000000000E+00  0.00000000000E+00 -0.14338215514E+04  0.14338215514E+04  0.25500000920E-02 0.  1.
    10030    2    1    2    0    0  0.00000000000E+00  0.00000000000E+00 -0.89538818412E+03  0.19722549187E+04  0.17572903756E+04 0.  0.
        2    1    3    3  502    0  0.72457219321E+03 -0.32087333224E+03 -0.87366543273E+03  0.11795150897E+04  0.25500000920E-02 0. -1.
       -2    1    3    3    0  502 -0.72457219321E+03  0.32087333224E+03 -0.21722751392E+02  0.79273982898E+03  0.25500000920E-02 0.  1.
</event>
<event>
 5   0  0.1818778E-04  0.1796145E+04  0.7818609E-02  0.8708352E-01
        1   -1    0    0  501    0  0.00000000000E+00  0.00000000000E+00  0.14648526758E+04  0.14648526758E+04  0.50400001928E-02 0.  1.
       -1   -1    0    0    0  501  0.00000000000E+00  0.00000000000E+00 -0.55059081845E+03  0.55059081847E+03  0.50400001928E-02 0. -1.
    10030    2    1    2    0    0  0.00000000000E+00  0.00000000000E+00  0.91426185737E+03  0.20154434943E+04  0.17961452433E+04 0.  0.
        3    1    3    3  502    0  0.72905245989E+03  0.10043588083E+03 -0.12042545691E+03  0.74572592573E+03  0.10100000352E+00 0. -1.
       -3    1    3    3    0  502 -0.72905245989E+03 -0.10043588083E+03  0.10346873143E+04  0.12697175686E+04  0.10100000352E+00 0.  1.
</event>
<event>
 5   0  0.1837313E-04  0.1772592E+04  0.7818609E-02  0.8721012E-01
       -1   -1    0    0    0  501  0.00000000000E+00  0.00000000000E+00  0.83193087029E+03  0.83193087031E+03  0.50400001928E-02 0. -1.
        1   -1    0    0  501    0  0.00000000000E+00  0.00000000000E+00 -0.94421425690E+03  0.94421425691E+03  0.50400001928E-02 0.  1.
    10030    2    1    2    0    0  0.00000000000E+00  0.00000000000E+00 -0.11228338660E+03  0.17761451272E+04  0.17725924388E+04 0.  0.
        1    1    3    3  502    0  0.71212554194E+03  0.26041937804E+03 -0.51595132460E+03  0.91714056138E+03  0.50400001928E-02 0.  1.
       -1    1    3    3    0  502 -0.71212554194E+03 -0.26041937804E+03  0.40366793800E+03  0.85900456584E+03  0.50400001928E-02 0. -1.
</event>
<event>
 5   0  0.3568870E-04  0.1786813E+04  0.7818609E-02  0.8713344E-01
       -2   -1    0    0    0  501  0.00000000000E+00  0.00000000000E+00  0.60396274324E+03  0.60396274324E+03  0.25500000920E-02 0. -1.
        2   -1    0    0  501    0  0.00000000000E+00  0.00000000000E+00 -0.13215631572E+04  0.13215631572E+04  0.25500000920E-02 0.  1.
    10030    2    1    2    0    0  0.00000000000E+00  0.00000000000E+00 -0.71760041396E+03  0.19255259004E+04  0.17868127040E+04 0.  0.
        1    1    3    3  502    0 -0.26910215369E+03  0.51879248182E+03  0.36938962845E+03  0.69138289388E+03  0.50400001928E-02 0. -1.
       -1    1    3    3    0  502  0.26910215369E+03 -0.51879248182E+03 -0.10869900424E+04  0.12341430066E+04  0.50400001928E-02 0.  1.
</event>
<event>
 5   0  0.3575091E-04  0.1855630E+04  0.7818609E-02  0.8677263E-01
        2   -1    0    0  501    0  0.00000000000E+00  0.00000000000E+00  0.59003031637E+03  0.59003031637E+03  0.25500000920E-02 0.  1.
       -2   -1    0    0    0  501  0.00000000000E+00  0.00000000000E+00 -0.14589768050E+04  0.14589768050E+04  0.25500000920E-02 0. -1.
    10030    2    1    2    0    0  0.00000000000E+00  0.00000000000E+00 -0.86894648866E+03  0.20490071214E+04  0.18556298616E+04 0.  0.
        5    1    3    3  502    0 -0.43013817659E+03  0.27009457510E+03 -0.12918194231E+04  0.13880884130E+04  0.46999998093E+01 0. -1.
       -5    1    3    3    0  502  0.43013817659E+03 -0.27009457510E+03  0.42287293441E+03  0.66091870841E+03  0.46999998093E+01 0.  1.
</event>
<event>
 5   0  0.1835421E-04  0.1800795E+04  0.7818609E-02  0.8705877E-01
        1   -1    0    0  501    0  0.00000000000E+00  0.00000000000E+00  0.12916161819E+04  0.12916161819E+04  0.50400001928E-02 0.  1.
       -1   -1    0    0    0  501  0.00000000000E+00  0.00000000000E+00 -0.62767556051E+03  0.62767556053E+03  0.50400001928E-02 0. -1.
    10030    2    1    2    0    0  0.00000000000E+00  0.00000000000E+00  0.66394062136E+03  0.19192917424E+04  0.18007952809E+04 0.  0.
        2    1    3    3  502    0  0.85913248631E+02 -0.54145231891E+03 -0.42928729604E+03  0.69630401585E+03  0.25500000920E-02 0. -1.
       -2    1    3    3    0  502 -0.85913248631E+02  0.54145231891E+03  0.10932279174E+04  0.12229877266E+04  0.25500000920E-02 0.  1.
</event>
<event>
 5   0  0.1835421E-04  0.1837820E+04  0.7818609E-02  0.8686442E-01
        1   -1    0    0  501    0  0.00000000000E+00  0.00000000000E+00  0.15913425016E+04  0.15913425016E+04  0.50400001928E-02 0. -1.
       -1   -1    0    0    0  501  0.00000000000E+00  0.00000000000E+00 -0.53061819724E+03  0.53061819726E+03  0.50400001928E-02 0.  1.
    10030    2    1    2    0    0  0.00000000000E+00  0.00000000000E+00  0.10607243043E+04  0.21219606989E+04  0.18378196750E+04 0.  0.
        2    1    3    3  502    0 -0.77198759897E+03 -0.38638536355E+03  0.89390186492E+03  0.12427063395E+04  0.25500000920E-02 0.  1.
       -2    1    3    3    0  502  0.77198759897E+03  0.38638536355E+03  0.16682243943E+03  0.87925435935E+03  0.25500000920E-02 0. -1.
</event>
<event>
 5   0  0.1818778E-04  0.1757163E+04  0.7818609E-02  0.8729418E-01
       -1   -1    0    0    0  501  0.00000000000E+00  0.00000000000E+00  0.10659858630E+04  0.10659858630E+04  0.50400001928E-02 0. -1.
        1   -1    0    0  501    0  0.00000000000E+00  0.00000000000E+00 -0.72412319823E+03  0.72412319825E+03  0.50400001928E-02 0.  1.
    10030    2    1    2    0    0  0.00000000000E+00  0.00000000000E+00  0.34186266477E+03  0.17901090613E+04  0.17571625906E+04 0.  0.
        3    1    3    3  502    0  0.61932877725E+03  0.44233931324E+03  0.61810666282E+03  0.98045298673E+03  0.10100000352E+00 0. -1.
       -3    1    3    3    0  502 -0.61932877725E+03 -0.44233931324E+03 -0.27624399805E+03  0.80965607453E+03  0.10100000352E+00 0.  1.
</event>
<event>
 5   0  0.3531266E-04  0.1784408E+04  0.7818609E-02  0.8714635E-01
       -2   -1    0    0    0  501  0.00000000000E+00  0.00000000000E+00  0.72831920437E+03  0.72831920437E+03  0.25500000920E-02 0. -1.
        2   -1    0    0  501    0  0.00000000000E+00  0.00000000000E+00 -0.10929662244E+04  0.10929662244E+04  0.25500000920E-02 0.  1.
    10030    2    1    2    0    0  0.00000000000E+00  0.00000000000E+00 -0.36464702004E+03  0.18212854288E+04  0.17844083512E+04 0.  0.
        3    1    3    3  502    0 -0.31668438716E+03 -0.82980774204E+03 -0.95967717770E+02  0.89335306731E+03  0.10100000352E+00 0.  1.
       -3    1    3    3    0  502  0.31668438716E+03  0.82980774204E+03 -0.26867930227E+03  0.92793236148E+03  0.10100000352E+00 0. -1.
</event>
<event>
 5   0  0.1883959E-04  0.1790346E+04  0.7818609E-02  0.8711450E-01
        1   -1    0    0  501    0  0.00000000000E+00  0.00000000000E+00  0.14051677082E+04  0.14051677083E+04  0.50400001928E-02 0. -1.
       -1   -1    0    0    0  501  0.00000000000E+00  0.00000000000E+00 -0.57027663567E+03  0.57027663569E+03  0.50400001928E-02 0.  1.
    10030    2    1    2    0    0  0.00000000000E+00  0.00000000000E+00  0.83489107258E+03  0.19754443439E+04  0.17903455680E+04 0.  0.
        5    1    3    3  502    0 -0.58120287701E+03  0.27604338252E+03  0.11041349718E+04  0.12779408669E+04  0.46999998093E+01 0. -1.
       -5    1    3    3    0  502  0.58120287701E+03 -0.27604338252E+03 -0.26924389921E+03  0.69750347708E+03  0.46999998093E+01 0.  1.
</event>
<event>
 5   0  0.1835421E-04  0.1799968E+04  0.7818609E-02  0.8706316E-01
        1   -1    0    0  501    0  0.00000000000E+00  0.00000000000E+00  0.14045331797E+04  0.14045331798E+04  0.50400001928E-02 0. -1.
       -1   -1    0    0    0  501  0.00000000000E+00  0.00000000000E+00 -0.57668382158E+03  0.57668382161E+03  0.50400001928E-02 0.  1.
    10030    2    1    2    0    0  0.00000000000E+00  0.00000000000E+00  0.82784935817E+03  0.19812170014E+04  0.17999684016E+04 0.  0.
        2    1    3    3  502    0  0.87081666181E+03 -0.53643734276E+01  0.66400579845E+03  0.10951046230E+04  0.25500000920E-02 0. -1.
       -2    1    3    3    0  502 -0.87081666181E+03  0.53643734276E+01  0.16384355971E+03  0.88611237834E+03  0.25500000920E-02 0.  1.
</event>
<event>
 5   0  0.3531266E-04  0.1779516E+04  0.7818609E-02  0.8717269E-01
       -2   -1    0    0    0  501  0.00000000000E+00  0.00000000000E+00  0.32529082568E+03  0.32529082569E+03  0.25500000920E-02 0.  1.
        2   -1    0    0  501    0  0.00000000000E+00  0.00000000000E+00 -0.24337272140E+04  0.24337272140E+04  0.25500000920E-02 0. -1.
    10030    2    1    2    0    0  0.00000000000E+00  0.00000000000E+00 -0.21084363883E+04  0.27590180397E+04  0.17795158161E+04 0.  0.
        3    1    3    3  502    0 -0.16002719616E+03  0.85824618671E+03 -0.78804058385E+03  0.11760965915E+04  0.10100000352E+00 0.  1.
       -3    1    3    3    0  502  0.16002719616E+03 -0.85824618671E+03 -0.13203958045E+04  0.15829214482E+04  0.10100000352E+00 0. -1.
</event>
<event>
 5   0  0.3575091E-04  0.1775398E+04  0.7818609E-02  0.8719493E-01
       -2   -1    0    0    0  501  0.00000000000E+00  0.00000000000E+00  0.11039588668E+04  0.11039588668E+04  0.25500000920E-02 0. -1.
        2   -1    0    0  501    0  0.00000000000E+00  0.00000000000E+00 -0.71380366240E+03  0.71380366240E+03  0.25500000920E-02 0.  1.
    10030    2    1    2    0    0  0.00000000000E+00  0.00000000000E+00  0.39015520439E+03  0.18177625292E+04  0.17753984142E+04 0.  0.
        5    1    3    3  502    0 -0.33938999937E+03 -0.59648581793E+02  0.10326717784E+04  0.10886581726E+04  0.46999998093E+01 0. -1.
       -5    1    3    3    0  502  0.33938999937E+03  0.59648581793E+02 -0.64251657396E+03  0.72910435659E+03  0.46999998093E+01 0.  1.
</event>
<event>
 5   0  0.3575091E-04  0.1792811E+04  0.7818609E-02  0.8710132E-01
        2   -1    0    0  501    0  0.00000000000E+00  0.00000000000E+00  0.93529274702E+03  0.93529274703E+03  0.25500000920E-02 0. -1.
       -2   -1    0    0    0  501  0.00000000000E+00  0.00000000000E+00 -0.85913519132E+03  0.85913519133E+03  0.25500000920E-02 0.  1.
    10030    2    1    2    0    0  0.00000000000E+00  0.00000000000E+00  0.76157555700E+02  0.17944279384E+04  0.17928111034E+04 0.  0.
        5    1    3    3  502    0  0.44085228718E+03 -0.59185682587E+03 -0.47117825230E+03  0.87560052357E+03  0.46999998093E+01 0.  1.
       -5    1    3    3    0  502 -0.44085228718E+03  0.59185682587E+03  0.54733580800E+03  0.91882741478E+03  0.46999998093E+01 0. -1.
</event>
<event>
 5   0  0.3575091E-04  0.1821408E+04  0.7818609E-02  0.8694997E-01
        2   -1    0    0  501    0  0.00000000000E+00  0.00000000000E+00  0.16599263962E+04  0.16599263962E+04  0.25500000920E-02 0.  1.
       -2   -1    0    0    0  501  0.00000000000E+00  0.00000000000E+00 -0.49964981967E+03  0.49964981968E+03  0.25500000920E-02 0. -1.
    10030    2    1    2    0    0  0.00000000000E+00  0.00000000000E+00  0.11602765765E+04  0.21595762158E+04  0.18214081635E+04 0.  0.
        5    1    3    3  502    0 -0.62715032355E+03 -0.67665873623E+02 -0.19867500628E+03  0.66135470582E+03  0.46999998093E+01 0. -1.
       -5    1    3    3    0  502  0.62715032355E+03  0.67665873623E+02  0.13589515828E+04  0.14982215100E+04  0.46999998093E+01 0.  1.
</event>
<event>
 5   0  0.3628581E-04  0.1806264E+04  0.7818609E-02  0.8702976E-01
        2   -1    0    0  501    0  0.00000000000E+00  0.00000000000E+00  0.15335352691E+04  0.15335352691E+04  0.25500000920E-02 0. -1.
       -2   -1    0    0    0  501  0.00000000000E+00  0.00000000000E+00 -0.53187376195E+03  0.53187376196E+03  0.25500000920E-02 0.  1.
    10030    2    1    2    0    0  0.00000000000E+00  0.00000000000E+00  0.10016615072E+04  0.20654090311E+04  0.18062637379E+04 0.  0.
        2    1    3    3  502    0 -0.46026827374E+03 -0.18677808748E+03 -0.36164780788E+03  0.61442825027E+03  0.25500000920E-02 0.  1.
       -2    1    3    3    0  502  0.46026827374E+03  0.18677808748E+03  0.13633093151E+04  0.14509807808E+04  0.25500000920E-02 0. -1.
</event>
<event>
 5   0  0.3582186E-04  0.1795358E+04  0.7818609E-02  0.8708772E-01
        2   -1    0    0  501    0  0.00000000000E+00  0.00000000000E+00  0.12322849012E+04  0.12322849012E+04  0.25500000920E-02 0. -1.
       -2   -1    0    0    0  501  0.00000000000E+00  0.00000000000E+00 -0.65392962494E+03  0.65392962495E+03  0.25500000920E-02 0.  1.
    10030    2    1    2    0    0  0.00000000000E+00  0.00000000000E+00  0.57835527621E+03  0.18862145261E+04  0.17953580180E+04 0.  0.
        4    1    3    3  502    0  0.50549015809E+03  0.65613970584E+03  0.65279426527E+03  0.10546001987E+04  0.12699999809E+01 0.  1.
       -4    1    3    3    0  502 -0.50549015809E+03 -0.65613970584E+03 -0.74438989060E+02  0.83161432737E+03  0.12699999809E+01 0. -1.
</event>
<event>
 5   0  0.3531266E-04  0.1744615E+04  0.7818609E-02  0.8736320E-01
        2   -1    0    0  501    0  0.00000000000E+00  0.00000000000E+00  0.73474248677E+03  0.73474248678E+03  0.25500000920E-02 0. -1.
       -2   -1    0    0    0  501  0.00000000000E+00  0.00000000000E+00 -0.10356286764E+04  0.10356286764E+04  0.25500000920E-02 0.  1.
    10030    2    1    2    0    0  0.00000000000E+00  0.00000000000E+00 -0.30088618959E+03  0.17703711631E+04  0.17446150166E+04 0.  0.
        3    1    3    3  502    0 -0.54655358163E+03  0.66630004813E+03 -0.28750679649E+03  0.90848045656E+03  0.10100000352E+00 0.  1.
       -3    1    3    3    0  502  0.54655358163E+03 -0.66630004813E+03 -0.13379393100E+02  0.86189070658E+03  0.10100000352E+00 0. -1.
</event>
<event>
 5   0  0.3575091E-04  0.1834149E+04  0.7818609E-02  0.8688347E-01
        2   -1    0    0  501    0  0.00000000000E+00  0.00000000000E+00  0.18276210487E+04  0.18276210487E+04  0.25500000920E-02 0.  1.
       -2   -1    0    0    0  501  0.00000000000E+00  0.00000000000E+00 -0.46017514942E+03  0.46017514943E+03  0.25500000920E-02 0. -1.
    10030    2    1    2    0    0  0.00000000000E+00  0.00000000000E+00  0.13674458993E+04  0.22877961981E+04  0.18341491643E+04 0.  0.
        5    1    3    3  502    0  0.45987978360E+03 -0.78070684929E+03  0.86017152452E+03  0.12493637347E+04  0.46999998093E+01 0.  1.
       -5    1    3    3    0  502 -0.45987978360E+03  0.78070684929E+03  0.50727437477E+03  0.10384324635E+04  0.46999998093E+01 0. -1.
</event>
<event>
 5   0  0.3582186E-04  0.1760027E+04  0.7818609E-02  0.8727850E-01
       -2   -1    0    0    0  501  0.00000000000E+00  0.00000000000E+00  0.86267877365E+03  0.86267877366E+03  0.25500000920E-02 0.  1.
        2   -1    0    0  501    0  0.00000000000E+00  0.00000000000E+00 -0.89769635038E+03  0.89769635038E+03  0.25500000920E-02 0. -1.
    10030    2    1    2    0    0  0.00000000000E+00  0.00000000000E+00 -0.35017576730E+02  0.17603751240E+04  0.17600268028E+04 0.  0.
        4    1    3    3  502    0  0.31997410717E+03  0.50589314244E+02  0.80087026865E+03  0.86390827528E+03  0.12699999809E+01 0.  1.
       -4    1    3    3    0  502 -0.31997410717E+03 -0.50589314244E+02 -0.83588784538E+03  0.89646684877E+03  0.12699999809E+01 0. -1.
</event>
<event>
 5   0  0.1330125E-04  0.1888656E+04  0.7818609E-02  0.8660523E-01
       -3   -1    0    0    0  501  0.00000000000E+00  0.00000000000E+00  0.11765402797E+04  0.11765402841E+04  0.10100000352E+00 0.  1.
        3   -1    0    0  501    0  0.00000000000E+00  0.00000000000E+00 -0.75794754463E+03  0.75794755136E+03  0.10100000352E+00 0. -1.
    10030    2    1    2    0    0  0.00000000000E+00  0.00000000000E+00  0.41859273511E+03  0.19344878354E+04  0.18886564821E+04 0.  0.
        2    1    3    3  502    0  0.17074716443E+03 -0.69524795545E+03  0.84005795720E+03  0.11037308029E+04  0.25500000920E-02 0.  1.
       -2    1    3    3    0  502 -0.17074716443E+03  0.69524795545E+03 -0.42146522209E+03  0.83075703257E+03  0.25500000920E-02 0. -1.
</event>
<event>
 5   0  0.3568870E-04  0.2095123E+04  0.7818609E-02  0.8563395E-01
       -2   -1    0    0    0  501  0.00000000000E+00  0.00000000000E+00  0.10208220447E+04  0.10208220447E+04  0.25500000920E-02 0. -1.
        2   -1    0    0  501    0  0.00000000000E+00  0.00000000000E+00 -0.10750016493E+04  0.10750016493E+04  0.25500000920E-02 0.  1.
    10030    2    1    2    0    0  0.00000000000E+00  0.00000000000E+00 -0.54179604619E+02  0.20958236940E+04  0.20951232724E+04 0.  0.
        1    1    3    3  502    0 -0.57015148747E+03 -0.66449188766E+02 -0.90368017766E+03  0.10705727798E+04  0.50400001928E-02 0.  1.
       -1    1    3    3    0  502  0.57015148747E+03  0.66449188766E+02  0.84950057304E+03  0.10252509142E+04  0.50400001928E-02 0. -1.
</event>
<event>
 5   0  0.1835421E-04  0.1848959E+04  0.7818609E-02  0.8680688E-01
       -1   -1    0    0    0  501  0.00000000000E+00  0.00000000000E+00  0.20292500272E+04  0.20292500272E+04  0.50400001928E-02 0.  1.
        1   -1    0    0  501    0  0.00000000000E+00  0.00000000000E+00 -0.42117148917E+03  0.42117148920E+03  0.50400001928E-02 0. -1.
    10030    2    1    2    0    0  0.00000000000E+00  0.00000000000E+00  0.16080785380E+04  0.24504215164E+04  0.18489589026E+04 0.  0.
        2    1    3    3  502    0  0.34877575176E+03  0.62137789194E+03  0.15846243112E+04  0.17374663212E+04  0.25500000920E-02 0.  1.
       -2    1    3    3    0  502 -0.34877575176E+03 -0.62137789194E+03  0.23454226823E+02  0.71295519521E+03  0.25500000920E-02 0. -1.
</event>
<event>
 5   0  0.3531266E-04  0.1740009E+04  0.7818609E-02  0.8738869E-01
        2   -1    0    0  501    0  0.00000000000E+00  0.00000000000E+00  0.27145573011E+04  0.27145573011E+04  0.25500000920E-02 0. -1.
       -2   -1    0    0    0  501  0.00000000000E+00  0.00000000000E+00 -0.27883275694E+03  0.27883275695E+03  0.25500000920E-02 0.  1.
    10030    2    1    2    0    0  0.00000000000E+00  0.00000000000E+00  0.24357245442E+04  0.29933900581E+04  0.17400086162E+04 0.  0.
        3    1    3    3  502    0  0.60464214247E+03  0.21343600581E+03  0.22294407067E+04  0.23198174333E+04  0.10100000352E+00 0. -1.
       -3    1    3    3    0  502 -0.60464214247E+03 -0.21343600581E+03  0.20628383751E+03  0.67357262478E+03  0.10100000352E+00 0.  1.
</event>
<event>
 5   0  0.1825253E-04  0.1755348E+04  0.7818609E-02  0.8730412E-01
        1   -1    0    0  501    0  0.00000000000E+00  0.00000000000E+00  0.13765718837E+04  0.13765718837E+04  0.50400001928E-02 0.  1.
       -1   -1    0    0    0  501  0.00000000000E+00  0.00000000000E+00 -0.55958713673E+03  0.55958713676E+03  0.50400001928E-02 0. -1.
    10030    2    1    2    0    0  0.00000000000E+00  0.00000000000E+00  0.81698474692E+03  0.19361590204E+04  0.17553483061E+04 0.  0.
        4    1    3    3  502    0  0.16374703869E+03 -0.63603256994E+03 -0.23368027792E+03  0.69710731447E+03  0.12699999809E+01 0. -1.
       -4    1    3    3    0  502 -0.16374703869E+03  0.63603256994E+03  0.10506650248E+04  0.12390517059E+04  0.12699999809E+01 0.  1.
</event>
<event>
 5   0  0.1837313E-04  0.1915769E+04  0.7818609E-02  0.8647047E-01
        1   -1    0    0  501    0  0.00000000000E+00  0.00000000000E+00  0.13364451627E+04  0.13364451627E+04  0.50400001928E-02 0. -1.
       -1   -1    0    0    0  501  0.00000000000E+00  0.00000000000E+00 -0.68655470575E+03  0.68655470577E+03  0.50400001928E-02 0.  1.
    10030    2    1    2    0    0  0.00000000000E+00  0.00000000000E+00  0.64989045698E+03  0.20229998685E+04  0.19157690002E+04 0.  0.
        1    1    3    3  502    0  0.54839005031E+03 -0.39849350442E+03  0.10395930717E+04  0.12410811718E+04  0.50400001928E-02 0. -1.
       -1    1    3    3    0  502 -0.54839005031E+03  0.39849350442E+03 -0.38970261468E+03  0.78191869671E+03  0.50400001928E-02 0.  1.
</event>
<event>
 5   0  0.1883959E-04  0.1656632E+04  0.7818609E-02  0.8786493E-01
       -1   -1    0    0    0  501  0.00000000000E+00  0.00000000000E+00  0.73877334109E+03  0.73877334111E+03  0.50400001928E-02 0.  1.
        1   -1    0    0  501    0  0.00000000000E+00  0.00000000000E+00 -0.92871159172E+03  0.92871159173E+03  0.50400001928E-02 0. -1.
    10030    2    1    2    0    0  0.00000000000E+00  0.00000000000E+00 -0.18993825063E+03  0.16674849328E+04  0.16566319634E+04 0.  0.
        5    1    3    3  502    0  0.73584303062E+03  0.21932460313E+03 -0.40767630511E+03  0.86936201147E+03  0.46999998093E+01 0. -1.
       -5    1    3    3    0  502 -0.73584303062E+03 -0.21932460313E+03  0.21773805448E+03  0.79812292137E+03  0.46999998093E+01 0.  1.
</event>
<event>
 5   0  0.3582186E-04  0.1820895E+04  0.7818609E-02  0.8695266E-01
       -2   -1    0    0    0  501  0.00000000000E+00  0.00000000000E+00  0.47420678336E+03  0.47420678337E+03  0.25500000920E-02 0.  1.
        2   -1    0    0  501    0  0.00000000000E+00  0.00000000000E+00 -0.17480021989E+04  0.17480021989E+04  0.25500000920E-02 0. -1.
    10030    2    1    2    0    0  0.00000000000E+00  0.00000000000E+00 -0.12737954155E+04  0.22222089822E+04  0.18208948350E+04 0.  0.
        4    1    3    3  502    0  0.32665694769E+03 -0.11428527388E+03  0.39080658411E+03  0.52201272435E+03  0.12699999809E+01 0.  1.
       -4    1    3    3    0  502 -0.32665694769E+03  0.11428527388E+03 -0.16646019996E+04  0.17001962579E+04  0.12699999809E+01 0. -1.
</event>
<event>
 5   0  0.1835421E-04  0.1766275E+04  0.7818609E-02  0.8724443E-01
       -1   -1    0    0    0  501  0.00000000000E+00  0.00000000000E+00  0.69415650767E+03  0.69415650768E+03  0.50400001928E-02 0.  1.
        1   -1    0    0  501    0  0.00000000000E+00  0.00000000000E+00 -0.11235676392E+04  0.11235676393E+04  0.50400001928E-02 0. -1.
    10030    2    1    2    0    0  0.00000000000E+00  0.00000000000E+00 -0.42941113158E+03  0.18177241469E+04  0.17662749374E+04 0.  0.
        2    1    3    3  502    0 -0.36729386355E+03 -0.35062468719E+02  0.61103639963E+03  0.71379243523E+03  0.25500000920E-02 0.  1.
       -2    1    3    3    0  502  0.36729386355E+03  0.35062468719E+02 -0.10404475312E+04  0.11039317117E+04  0.25500000920E-02 0. -1.
</event>
<event>
 5   0  0.3628581E-04  0.1453857E+04  0.7818609E-02  0.8915731E-01
       -2   -1    0    0    0  501  0.00000000000E+00  0.00000000000E+00  0.12136586252E+04  0.12136586252E+04  0.25500000920E-02 0. -1.
        2   -1    0    0  501    0  0.00000000000E+00  0.00000000000E+00 -0.43539860528E+03  0.43539860529E+03  0.25500000920E-02 0.  1.
    10030    2    1    2    0    0  0.00000000000E+00  0.00000000000E+00  0.77826001991E+03  0.16490572305E+04  0.14538573145E+04 0.  0.
        2    1    3    3  502    0 -0.65972354596E+03  0.22881716491E+03  0.15992788862E+03  0.71635841701E+03  0.25500000920E-02 0. -1.
       -2    1    3    3    0  502  0.65972354596E+03 -0.22881716491E+03  0.61833213129E+03  0.93269881347E+03  0.25500000920E-02 0.  1.
</event>
<event>
 5   0  0.3568870E-04  0.1782775E+04  0.7818609E-02  0.8715513E-01
       -2   -1    0    0    0  501  0.00000000000E+00  0.00000000000E+00  0.40462259128E+03  0.40462259128E+03  0.25500000920E-02 0.  1.
        2   -1    0    0  501    0  0.00000000000E+00  0.00000000000E+00 -0.19637360092E+04  0.19637360092E+04  0.25500000920E-02 0. -1.
    10030    2    1    2    0    0  0.00000000000E+00  0.00000000000E+00 -0.15591134179E+04  0.23683586005E+04  0.17827753113E+04 0.  0.
        1    1    3    3  502    0 -0.86920664174E+03  0.19759889847E+03 -0.78292847327E+03  0.11863989654E+04  0.50400001928E-02 0. -1.
       -1    1    3    3    0  502  0.86920664174E+03 -0.19759889847E+03 -0.77618494465E+03  0.11819596351E+04  0.50400001928E-02 0.  1.
</event>
<event>
 5   0  0.3575091E-04  0.1669461E+04  0.7818609E-02  0.8778976E-01
       -2   -1    0    0    0  501  0.00000000000E+00  0.00000000000E+00  0.39773990674E+03  0.39773990675E+03  0.25500000920E-02 0. -1.
        2   -1    0    0  501    0  0.00000000000E+00  0.00000000000E+00 -0.17518348869E+04  0.17518348869E+04  0.25500000920E-02 0.  1.
    10030    2    1    2    0    0  0.00000000000E+00  0.00000000000E+00 -0.13540949802E+04  0.21495747937E+04  0.16694605650E+04 0.  0.
        5    1    3    3  502    0 -0.80057236931E+03 -0.20895161818E+03 -0.81912410597E+03  0.11642866005E+04  0.46999998093E+01 0. -1.
       -5    1    3    3    0  502  0.80057236931E+03  0.20895161818E+03 -0.53497087420E+03  0.98528819311E+03  0.46999998093E+01 0.  1.
</event>
<event>
 5   0  0.1835421E-04  0.1867206E+04  0.7818609E-02  0.8671354E-01
       -1   -1    0    0    0  501  0.00000000000E+00  0.00000000000E+00  0.11708783799E+04  0.11708783799E+04  0.50400001928E-02 0. -1.
        1   -1    0    0  501    0  0.00000000000E+00  0.00000000000E+00 -0.74441102541E+03  0.74441102543E+03  0.50400001928E-02 0.  1.
    10030    2    1    2    0    0  0.00000000000E+00  0.00000000000E+00  0.42646735451E+03  0.19152894054E+04  0.18672062291E+04 0.  0.
        2    1    3    3  502    0 -0.34848606120E+03  0.10664436183E+03  0.10949021943E+04  0.11539611648E+04  0.25500000920E-02 0. -1.
       -2    1    3    3    0  502  0.34848606120E+03 -0.10664436183E+03 -0.66843483982E+03  0.76132824054E+03  0.25500000920E-02 0.  1.
</event>
<event>
 5   0  0.1825253E-04  0.1783476E+04  0.7818609E-02  0.8715136E-01
        1   -1    0    0  501    0  0.00000000000E+00  0.00000000000E+00  0.98738595073E+03  0.98738595074E+03  0.50400001928E-02 0.  1.
       -1   -1    0    0    0  501  0.00000000000E+00  0.00000000000E+00 -0.80535565307E+03  0.80535565309E+03  0.50400001928E-02 0. -1.
    10030    2    1    2    0    0  0.00000000000E+00  0.00000000000E+00  0.18203029766E+03  0.17927416038E+04  0.17834762204E+04 0.  0.
        4    1    3    3  502    0 -0.35196248917E+03 -0.68807641411E+03 -0.35611988974E+03  0.85096987855E+03  0.12699999809E+01 0. -1.
       -4    1    3    3    0  502  0.35196248917E+03  0.68807641411E+03  0.53815018740E+03  0.94177172528E+03  0.12699999809E+01 0.  1.
</event>
<event>
 5   0  0.3582186E-04  0.1828655E+04  0.7818609E-02  0.8691208E-01
       -2   -1    0    0    0  501  0.00000000000E+00  0.00000000000E+00  0.58725193287E+03  0.58725193287E+03  0.25500000920E-02 0.  1.
        2   -1    0    0  501    0  0.00000000000E+00  0.00000000000E+00 -0.14235701984E+04  0.14235701984E+04  0.25500000920E-02 0. -1.
    10030    2    1    2    0    0  0.00000000000E+00  0.00000000000E+00 -0.83631826550E+03  0.20108221312E+04  0.18286545333E+04 0.  0.
        4    1    3    3  502    0 -0.54216475864E+03 -0.60714031032E+03 -0.87609540843E+03  0.11958707119E+04  0.12699999809E+01 0. -1.
       -4    1    3    3    0  502  0.54216475864E+03  0.60714031032E+03  0.39777142938E+02  0.81495141937E+03  0.12699999809E+01 0.  1.
</event>
<event>
 5   0  0.3531266E-04  0.1780432E+04  0.7818609E-02  0.8716775E-01
       -2   -1    0    0    0  501  0.00000000000E+00  0.00000000000E+00  0.85423914598E+03  0.85423914598E+03  0.25500000920E-02 0. -1.
        2   -1    0    0  501    0  0.00000000000E+00  0.00000000000E+00 -0.92770778112E+03  0.92770778113E+03  0.25500000920E-02 0.  1.
    10030    2    1    2    0    0  0.00000000000E+00  0.00000000000E+00 -0.73468635146E+02  0.17819469271E+04  0.17804317484E+04 0.  0.
        3    1    3    3  502    0  0.76940944476E+03  0.35466918348E+03 -0.31028572150E+03  0.90225182880E+03  0.10100000352E+00 0. -1.
       -3    1    3    3    0  502 -0.76940944476E+03 -0.35466918348E+03  0.23681708636E+03  0.87969509831E+03  0.10100000352E+00 0.  1.
</event>
<event>
 5   0  0.1837313E-04  0.1782431E+04  0.7818609E-02  0.8715699E-01
       -1   -1    0    0    0  501  0.00000000000E+00  0.00000000000E+00  0.36324855475E+03  0.36324855479E+03  0.50400001928E-02 0. -1.
        1   -1    0    0  501    0  0.00000000000E+00  0.00000000000E+00 -0.21865600910E+04  0.21865600910E+04  0.50400001928E-02 0.  1.
    10030    2    1    2    0    0  0.00000000000E+00  0.00000000000E+00 -0.18233115363E+04  0.25498086458E+04  0.17824306920E+04 0.  0.
        1    1    3    3  502    0 -0.64578854051E+03  0.60433957767E+03 -0.10683332007E+04  0.13869408754E+04  0.50400001928E-02 0.  1.
       -1    1    3    3    0  502  0.64578854051E+03 -0.60433957767E+03 -0.75497833560E+03  0.11628677704E+04  0.50400001928E-02 0. -1.
</event>
<event>
 5   0  0.1837313E-04  0.1789455E+04  0.7818609E-02  0.8711927E-01
        1   -1    0    0  501    0  0.00000000000E+00  0.00000000000E+00  0.22161935433E+04  0.22161935433E+04  0.50400001928E-02 0.  1.
       -1   -1    0    0    0  501  0.00000000000E+00  0.00000000000E+00 -0.36122170645E+03  0.36122170648E+03  0.50400001928E-02 0. -1.
    10030    2    1    2    0    0  0.00000000000E+00  0.00000000000E+00  0.18549718369E+04  0.25774152498E+04  0.17894549042E+04 0.  0.
        1    1    3    3  502    0 -0.56387763986E+03  0.39065239682E+03  0.17548579101E+04  0.18841691995E+04  0.50400001928E-02 0.  1.
       -1    1    3    3    0  502  0.56387763986E+03 -0.39065239682E+03  0.10011392681E+03  0.69324605029E+03  0.50400001928E-02 0. -1.
</event>
<event>
 5   0  0.1835421E-04  0.1783853E+04  0.7818609E-02  0.8714934E-01
       -1   -1    0    0    0  501  0.00000000000E+00  0.00000000000E+00  0.36292168864E+03  0.36292168867E+03  0.50400001928E-02 0.  1.
        1   -1    0    0  501    0  0.00000000000E+00  0.00000000000E+00 -0.21920240770E+04  0.21920240771E+04  0.50400001928E-02 0. -1.
    10030    2    1    2    0    0  0.00000000000E+00  0.00000000000E+00 -0.18291023884E+04  0.25549457657E+04  0.17838532222E+04 0.  0.
        2    1    3    3  502    0  0.52651314581E+03 -0.21832828985E+03 -0.18971392538E+04  0.19809141029E+04  0.25500000920E-02 0. -1.
       -2    1    3    3    0  502 -0.52651314581E+03  0.21832828985E+03  0.68036865371E+02  0.57403166282E+03  0.25500000920E-02 0.  1.
</event>
<event>
 5   0  0.1835421E-04  0.1785980E+04  0.7818609E-02  0.8713791E-01
       -1   -1    0    0    0  501  0.00000000000E+00  0.00000000000E+00  0.91386127089E+03  0.91386127090E+03  0.50400001928E-02 0. -1.
        1   -1    0    0  501    0  0.00000000000E+00  0.00000000000E+00 -0.87259525216E+03  0.87259525218E+03  0.50400001928E-02 0.  1.
    10030    2    1    2    0    0  0.00000000000E+00  0.00000000000E+00  0.41266018725E+02  0.17864565231E+04  0.17859798500E+04 0.  0.
        2    1    3    3  502    0  0.45380352456E+03  0.23032552421E+03  0.75461596329E+03  0.91018280475E+03  0.25500000920E-02 0. -1.
       -2    1    3    3    0  502 -0.45380352456E+03 -0.23032552421E+03 -0.71334994457E+03  0.87627371832E+03  0.25500000920E-02 0.  1.
</event>
<event>
 5   0  0.3575091E-04  0.1819728E+04  0.7818609E-02  0.8695878E-01
        2   -1    0    0  501    0  0.00000000000E+00  0.00000000000E+00  0.16775399742E+04  0.16775399742E+04  0.25500000920E-02 0. -1.
       -2   -1    0    0    0  501  0.00000000000E+00  0.00000000000E+00 -0.49349198948E+03  0.49349198948E+03  0.25500000920E-02 0.  1.
    10030    2    1    2    0    0  0.00000000000E+00  0.00000000000E+00  0.11840479847E+04  0.21710319637E+04  0.18197280449E+04 0.  0.
        5    1    3    3  502    0  0.86648440079E+03  0.12268816649E+03  0.88905069017E+03  0.12475098487E+04  0.46999998093E+01 0.  1.
       -5    1    3    3    0  502 -0.86648440079E+03 -0.12268816649E+03  0.29499729455E+03  0.92352211495E+03  0.46999998093E+01 0. -1.
</event>
<event>
 5   0  0.1883959E-04  0.1798070E+04  0.7818609E-02  0.8707326E-01
        1   -1    0    0  501    0  0.00000000000E+00  0.00000000000E+00  0.95193686528E+03  0.95193686529E+03  0.50400001928E-02 0.  1.
       -1   -1    0    0    0  501  0.00000000000E+00  0.00000000000E+00 -0.84907323989E+03  0.84907323990E+03  0.50400001928E-02 0. -1.
    10030    2    1    2    0    0  0.00000000000E+00  0.00000000000E+00  0.10286362539E+03  0.18010101052E+04  0.17980702082E+04 0.  0.
        5    1    3    3  502    0 -0.11080474932E+03  0.20648396499E+03 -0.81793240939E+03  0.85085182999E+03  0.46999998093E+01 0. -1.
       -5    1    3    3    0  502  0.11080474932E+03 -0.20648396499E+03  0.92079603478E+03  0.95015827520E+03  0.46999998093E+01 0.  1.
</event>
<event>
 5   0  0.1818778E-04  0.1778580E+04  0.7818609E-02  0.8717774E-01
       -1   -1    0    0    0  501  0.00000000000E+00  0.00000000000E+00  0.55566235441E+03  0.55566235444E+03  0.50400001928E-02 0. -1.
        1   -1    0    0  501    0  0.00000000000E+00  0.00000000000E+00 -0.14232328732E+04  0.14232328732E+04  0.50400001928E-02 0.  1.
    10030    2    1    2    0    0  0.00000000000E+00  0.00000000000E+00 -0.86757051882E+03  0.19788952277E+04  0.17785802532E+04 0.  0.
        3    1    3    3  502    0 -0.41506437768E+03  0.26070383837E+03  0.39180446603E+03  0.62749954483E+03  0.10100000352E+00 0. -1.
       -3    1    3    3    0  502  0.41506437768E+03 -0.26070383837E+03 -0.12593749848E+04  0.13513956828E+04  0.10100000352E+00 0.  1.
</event>
<event>
 5   0  0.1818778E-04  0.1766915E+04  0.7818609E-02  0.8724094E-01
        1   -1    0    0  501    0  0.00000000000E+00  0.00000000000E+00  0.15042115233E+04  0.15042115233E+04  0.50400001928E-02 0.  1.
       -1   -1    0    0    0  501  0.00000000000E+00  0.00000000000E+00 -0.51887473455E+03  0.51887473457E+03  0.50400001928E-02 0. -1.
    10030    2    1    2    0    0  0.00000000000E+00  0.00000000000E+00  0.98533678876E+03  0.20230862579E+04  0.17669152270E+04 0.  0.
        3    1    3    3  502    0 -0.81126974181E+03 -0.74393872594E+02  0.10135194283E+03  0.82095387737E+03  0.10100000352E+00 0.  1.
       -3    1    3    3    0  502  0.81126974181E+03  0.74393872594E+02  0.88398484593E+03  0.12021323805E+04  0.10100000352E+00 0. -1.
</event>
<event>
 5   0  0.1825253E-04  0.1803906E+04  0.7818609E-02  0.8704225E-01
        1   -1    0    0  501    0  0.00000000000E+00  0.00000000000E+00  0.91402490376E+03  0.91402490378E+03  0.50400001928E-02 0.  1.
       -1   -1    0    0    0  501  0.00000000000E+00  0.00000000000E+00 -0.89004093684E+03  0.89004093686E+03  0.50400001928E-02 0. -1.
    10030    2    1    2    0    0  0.00000000000E+00  0.00000000000E+00  0.23983966920E+02  0.18040658406E+04  0.18039064074E+04 0.  0.
        4    1    3    3  502    0  0.24959683818E+03  0.30059987581E+03 -0.80101227442E+03  0.89122451921E+03  0.12699999809E+01 0. -1.
       -4    1    3    3    0  502 -0.24959683818E+03 -0.30059987581E+03  0.82499624134E+03  0.91284132142E+03  0.12699999809E+01 0.  1.
</event>
<event>
 5   0  0.3628581E-04  0.1759264E+04  0.7818609E-02  0.8728268E-01
       -2   -1    0    0    0  501  0.00000000000E+00  0.00000000000E+00  0.52276135053E+03  0.52276135054E+03  0.25500000920E-02 0.  1.
        2   -1    0    0  501    0  0.00000000000E+00  0.00000000000E+00 -0.14801253217E+04  0.14801253217E+04  0.25500000920E-02 0. -1.
    10030    2    1    2    0    0  0.00000000000E+00  0.00000000000E+00 -0.95736397121E+03  0.20028866723E+04  0.17592638371E+04 0.  0.
        2    1    3    3  502    0  0.61244914429E+03  0.34481039604E+03 -0.10808551963E+04  0.12892773631E+04  0.25500000920E-02 0. -1.
       -2    1    3    3    0  502 -0.61244914429E+03 -0.34481039604E+03  0.12349122507E+03  0.71360930924E+03  0.25500000920E-02 0.  1.
</event>
<event>
 5   0  0.3568870E-04  0.1801844E+04  0.7818609E-02  0.8705320E-01
        2   -1    0    0  501    0  0.00000000000E+00  0.00000000000E+00  0.22136835090E+04  0.22136835090E+04  0.25500000920E-02 0. -1.
       -2   -1    0    0    0  501  0.00000000000E+00  0.00000000000E+00 -0.36665601396E+03  0.36665601397E+03  0.25500000920E-02 0.  1.
    10030    2    1    2    0    0  0.00000000000E+00  0.00000000000E+00  0.18470274951E+04  0.25803395230E+04  0.18018439129E+04 0.  0.
        1    1    3    3  502    0 -0.47370493269E+03  0.10544368539E+03 -0.16347694772E+03  0.51209320099E+03  0.50400001928E-02 0.  1.
       -1    1    3    3    0  502  0.47370493269E+03 -0.10544368539E+03  0.20105044428E+04  0.20682463220E+04  0.50400001928E-02 0. -1.
</event>
<event>
 5   0  0.1883959E-04  0.1850942E+04  0.7818609E-02  0.8679668E-01
       -1   -1    0    0    0  501  0.00000000000E+00  0.00000000000E+00  0.74833523422E+03  0.74833523424E+03  0.50400001928E-02 0.  1.
        1   -1    0    0  501    0  0.00000000000E+00  0.00000000000E+00 -0.11445364928E+04  0.11445364928E+04  0.50400001928E-02 0. -1.
    10030    2    1    2    0    0  0.00000000000E+00  0.00000000000E+00 -0.39620125856E+03  0.18928717270E+04  0.18509424458E+04 0.  0.
        5    1    3    3  502    0 -0.44539237346E+03  0.14231004318E+03  0.61864533641E+03  0.77548091981E+03  0.46999998093E+01 0.  1.
       -5    1    3    3    0  502  0.44539237346E+03 -0.14231004318E+03 -0.10148465950E+04  0.11173908072E+04  0.46999998093E+01 0. -1.
</event>
<event>
 5   0  0.1835421E-04  0.1816178E+04  0.7818609E-02  0.8697743E-01
        1   -1    0    0  501    0  0.00000000000E+00  0.00000000000E+00  0.17288768032E+04  0.17288768032E+04  0.50400001928E-02 0. -1.
       -1   -1    0    0    0  501  0.00000000000E+00  0.00000000000E+00 -0.47697169368E+03  0.47697169370E+03  0.50400001928E-02 0.  1.
    10030    2    1    2    0    0  0.00000000000E+00  0.00000000000E+00  0.12519051095E+04  0.22058484969E+04  0.18161776312E+04 0.  0.
        2    1    3    3  502    0 -0.65765426774E+03 -0.19877186180E+03  0.13471632370E+04  0.15122394573E+04  0.25500000920E-02 0.  1.
       -2    1    3    3    0  502  0.65765426774E+03  0.19877186180E+03 -0.95258127557E+02  0.69360903959E+03  0.25500000920E-02 0. -1.
</event>
<event>
 5   0  0.1818778E-04  0.1770694E+04  0.7818609E-02  0.8722041E-01
        1   -1    0    0  501    0  0.00000000000E+00  0.00000000000E+00  0.13236483869E+04  0.13236483869E+04  0.50400001928E-02 0. -1.
       -1   -1    0    0    0  501  0.00000000000E+00  0.00000000000E+00 -0.59218109556E+03  0.59218109558E+03  0.50400001928E-02 0.  1.
    10030    2    1    2    0    0  0.00000000000E+00  0.00000000000E+00  0.73146729136E+03  0.19158294825E+04  0.17706942728E+04 0.  0.
        3    1    3    3  502    0 -0.70802955409E+03 -0.62883263708E+02  0.93680155919E+03  0.11759495422E+04  0.10100000352E+00 0. -1.
       -3    1    3    3    0  502  0.70802955409E+03  0.62883263708E+02 -0.20533426783E+03  0.73987994031E+03  0.10100000352E+00 0.  1.
</event>
<event>
 5   0  0.3628581E-04  0.1794474E+04  0.7818609E-02  0.8709244E-01
       -2   -1    0    0    0  501  0.00000000000E+00  0.00000000000E+00  0.88366944065E+03  0.88366944066E+03  0.25500000920E-02 0. -1.
        2   -1    0    0  501    0  0.00000000000E+00  0.00000000000E+00 -0.91101290958E+03  0.91101290958E+03  0.25500000920E-02 0.  1.
    10030    2    1    2    0    0  0.00000000000E+00  0.00000000000E+00 -0.27343468927E+02  0.17946823502E+04  0.17944740380E+04 0.  0.
        2    1    3    3  502    0  0.21969023587E+03  0.56688524939E+03  0.64626210939E+03  0.88728653757E+03  0.25500000920E-02 0. -1.
       -2    1    3    3    0  502 -0.21969023587E+03 -0.56688524939E+03 -0.67360557832E+03  0.90739581267E+03  0.25500000920E-02 0.  1.
</event>
<event>
 5   0  0.3568870E-04  0.1805874E+04  0.7818609E-02  0.8703182E-01
        2   -1    0    0  501    0  0.00000000000E+00  0.00000000000E+00  0.16285215424E+04  0.16285215424E+04  0.25500000920E-02 0. -1.
       -2   -1    0    0    0  501  0.00000000000E+00  0.00000000000E+00 -0.50063502298E+03  0.50063502299E+03  0.25500000920E-02 0.  1.
    10030    2    1    2    0    0  0.00000000000E+00  0.00000000000E+00  0.11278865194E+04  0.21291565654E+04  0.18058736609E+04 0.  0.
        1    1    3    3  502    0 -0.57152624920E+02 -0.81913656120E+03  0.12115385422E+03  0.83001770152E+03  0.50400001928E-02 0.  1.
       -1    1    3    3    0  502  0.57152624920E+02  0.81913656120E+03  0.10067326652E+04  0.12991388639E+04  0.50400001928E-02 0. -1.
</event>
<event>
 5   0  0.1837313E-04  0.1810598E+04  0.7818609E-02  0.8700684E-01
       -1   -1    0    0    0  501  0.00000000000E+00  0.00000000000E+00  0.40944314754E+03  0.40944314757E+03  0.50400001928E-02 0.  1.
        1   -1    0    0  501    0  0.00000000000E+00  0.00000000000E+00 -0.20016602447E+04  0.20016602447E+04  0.50400001928E-02 0. -1.
    10030    2    1    2    0    0  0.00000000000E+00  0.00000000000E+00 -0.15922170972E+04  0.24111033923E+04  0.18105977697E+04 0.  0.
        1    1    3    3  502    0 -0.66672447939E+03  0.27802332549E+03 -0.69470782772E+02  0.72570289418E+03  0.50400001928E-02 0.  1.
       -1    1    3    3    0  502  0.66672447939E+03 -0.27802332549E+03 -0.15227463144E+04  0.16854004981E+04  0.50400001928E-02 0. -1.
</event>
<event>
 5   0  0.3628581E-04  0.1702627E+04  0.7818609E-02  0.8759868E-01
        2   -1    0    0  501    0  0.00000000000E+00  0.00000000000E+00  0.88651600224E+03  0.88651600224E+03  0.25500000920E-02 0. -1.
       -2   -1    0    0    0  501  0.00000000000E+00  0.00000000000E+00 -0.81750837438E+03  0.81750837438E+03  0.25500000920E-02 0.  1.
    10030    2    1    2    0    0  0.00000000000E+00  0.00000000000E+00  0.69007627860E+02  0.17040243766E+04  0.17026265073E+04 0.  0.
        2    1    3    3  502    0  0.30638168602E+03 -0.48452951698E+03  0.66438183990E+03  0.87752026731E+03  0.25500000920E-02 0. -1.
       -2    1    3    3    0  502 -0.30638168602E+03  0.48452951698E+03 -0.59537421204E+03  0.82650410932E+03  0.25500000920E-02 0.  1.
</event>
<event>
 5   0  0.1825253E-04  0.1797129E+04  0.7818609E-02  0.8707828E-01
        1   -1    0    0  501    0  0.00000000000E+00  0.00000000000E+00  0.14733912434E+04  0.14733912435E+04  0.50400001928E-02 0.  1.
       -1   -1    0    0    0  501  0.00000000000E+00  0.00000000000E+00 -0.54799998270E+03  0.54799998272E+03  0.50400001928E-02 0. -1.
    10030    2    1    2    0    0  0.00000000000E+00  0.00000000000E+00  0.92539126074E+03  0.20213912262E+04  0.17971292396E+04 0.  0.
        4    1    3    3  502    0 -0.48608803076E+03 -0.52148824482E+03  0.10779307509E+04  0.12923497513E+04  0.12699999809E+01 0.  1.
       -4    1    3    3    0  502  0.48608803076E+03  0.52148824482E+03 -0.15253949013E+03  0.72904147487E+03  0.12699999809E+01 0. -1.
</event>
<event>
 5   0  0.1330125E-04  0.1802720E+04  0.7818609E-02  0.8704855E-01
       -3   -1    0    0    0  501  0.00000000000E+00  0.00000000000E+00  0.75782851628E+03  0.75782852301E+03  0.10100000352E+00 0.  1.
        3   -1    0    0  501    0  0.00000000000E+00  0.00000000000E+00 -0.10720756911E+04  0.10720756958E+04  0.10100000352E+00 0. -1.
    10030    2    1    2    0    0  0.00000000000E+00  0.00000000000E+00 -0.31424717481E+03  0.18299042189E+04  0.18027196574E+04 0.  0.
        3    1    3    3  502    0 -0.80477839195E+03 -0.22722277548E+03  0.18432829967E+03  0.85631500168E+03  0.10100000352E+00 0.  1.
       -3    1    3    3    0  502  0.80477839195E+03  0.22722277548E+03 -0.49857547448E+03  0.97358921717E+03  0.10100000352E+00 0. -1.
</event>
<event>
 5   0  0.1818778E-04  0.1796561E+04  0.7818609E-02  0.8708130E-01
        1   -1    0    0  501    0  0.00000000000E+00  0.00000000000E+00  0.20797564350E+04  0.20797564350E+04  0.50400001928E-02 0. -1.
       -1   -1    0    0    0  501  0.00000000000E+00  0.00000000000E+00 -0.38798190899E+03  0.38798190902E+03  0.50400001928E-02 0.  1.
    10030    2    1    2    0    0  0.00000000000E+00  0.00000000000E+00  0.16917745260E+04  0.24677383440E+04  0.17965610170E+04 0.  0.
        3    1    3    3  502    0  0.72910718825E+02 -0.29265342156E+03 -0.31635651420E+03  0.43708517745E+03  0.10100000352E+00 0.  1.
       -3    1    3    3    0  502 -0.72910718825E+02  0.29265342156E+03  0.20081310402E+04  0.20306531666E+04  0.10100000352E+00 0. -1.
</event>
<event>
 5   0  0.3575091E-04  0.1726279E+04  0.7818609E-02  0.8746517E-01
       -2   -1    0    0    0  501  0.00000000000E+00  0.00000000000E+00  0.71020632475E+03  0.71020632476E+03  0.25500000920E-02 0. -1.
        2   -1    0    0  501    0  0.00000000000E+00  0.00000000000E+00 -0.10490052633E+04  0.10490052633E+04  0.25500000920E-02 0.  1.
    10030    2    1    2    0    0  0.00000000000E+00  0.00000000000E+00 -0.33879893853E+03  0.17592115880E+04  0.17262794359E+04 0.  0.
        5    1    3    3  502    0 -0.27423120557E+03  0.21434216637E+03 -0.97430433199E+03  0.10346189345E+04  0.46999998093E+01 0.  1.
       -5    1    3    3    0  502  0.27423120557E+03 -0.21434216637E+03  0.63550539346E+03  0.72459265350E+03  0.46999998093E+01 0. -1.
</event>
<event>
 5   0  0.3628581E-04  0.1806157E+04  0.7818609E-02  0.8703032E-01
       -2   -1    0    0    0  501  0.00000000000E+00  0.00000000000E+00  0.55135555726E+03  0.55135555727E+03  0.25500000920E-02 0.  1.
        2   -1    0    0  501    0  0.00000000000E+00  0.00000000000E+00 -0.14791742442E+04  0.14791742442E+04  0.25500000920E-02 0. -1.
    10030    2    1    2    0    0  0.00000000000E+00  0.00000000000E+00 -0.92781868692E+03  0.20305298014E+04  0.18061571800E+04 0.  0.
        2    1    3    3  502    0  0.67935138322E+02 -0.66160591474E+02  0.54574279864E+03  0.55392021912E+03  0.25500000920E-02 0.  1.
       -2    1    3    3    0  502 -0.67935138322E+02  0.66160591474E+02 -0.14735614856E+04  0.14766095823E+04  0.25500000920E-02 0. -1.
</event>
<event>
 5   0  0.1883959E-04  0.1793855E+04  0.7818609E-02  0.8709574E-01
       -1   -1    0    0    0  501  0.00000000000E+00  0.00000000000E+00  0.45005797903E+03  0.45005797906E+03  0.50400001928E-02 0.  1.
        1   -1    0    0  501    0  0.00000000000E+00  0.00000000000E+00 -0.17875012512E+04  0.17875012512E+04  0.50400001928E-02 0. -1.
    10030    2    1    2    0    0  0.00000000000E+00  0.00000000000E+00 -0.13374432722E+04  0.22375592303E+04  0.17938552904E+04 0.  0.
        5    1    3    3  502    0 -0.41201806046E+02 -0.89967977697E+02  0.44321299157E+03  0.45414939362E+03  0.46999998093E+01 0.  1.
       -5    1    3    3    0  502  0.41201806046E+02  0.89967977697E+02 -0.17806562638E+04  0.17834098367E+04  0.46999998093E+01 0. -1.
</event>
<event>
 5   0  0.1883959E-04  0.1834262E+04  0.7818609E-02  0.8688288E-01
        1   -1    0    0  501    0  0.00000000000E+00  0.00000000000E+00  0.10166652720E+04  0.10166652720E+04  0.50400001928E-02 0. -1.
       -1   -1    0    0    0  501  0.00000000000E+00  0.00000000000E+00 -0.82734180182E+03  0.82734180183E+03  0.50400001928E-02 0.  1.
    10030    2    1    2    0    0  0.00000000000E+00  0.00000000000E+00  0.18932347014E+03  0.18440070738E+04  0.18342624436E+04 0.  0.
        5    1    3    3  502    0  0.15009146670E+03 -0.48583344985E+02 -0.81358672694E+03  0.82875402988E+03  0.46999998093E+01 0.  1.
       -5    1    3    3    0  502 -0.15009146670E+03  0.48583344985E+02  0.10029101971E+04  0.10152530439E+04  0.46999998093E+01 0. -1.
</event>
<event>
 5   0  0.1835421E-04  0.1798374E+04  0.7818609E-02  0.8707165E-01
       -1   -1    0    0    0  501  0.00000000000E+00  0.00000000000E+00  0.52406016553E+03  0.52406016555E+03  0.50400001928E-02 0.  1.
        1   -1    0    0  501    0  0.00000000000E+00  0.00000000000E+00 -0.15428327558E+04  0.15428327559E+04  0.50400001928E-02 0. -1.
    10030    2    1    2    0    0  0.00000000000E+00  0.00000000000E+00 -0.10187725903E+04  0.20668929214E+04  0.17983739205E+04 0.  0.
        2    1    3    3  502    0 -0.30357319825E+03  0.62940908951E+03  0.14099103706E+03  0.71287513717E+03  0.25500000920E-02 0.  1.
       -2    1    3    3    0  502  0.30357319825E+03 -0.62940908951E+03 -0.11597636274E+04  0.13540177842E+04  0.25500000920E-02 0. -1.
</event>
<event>
 5   0  0.1837313E-04  0.1866915E+04  0.7818609E-02  0.8671503E-01
        1   -1    0    0  501    0  0.00000000000E+00  0.00000000000E+00  0.16160748241E+04  0.16160748241E+04  0.50400001928E-02 0.  1.
       -1   -1    0    0    0  501  0.00000000000E+00  0.00000000000E+00 -0.53917219015E+03  0.53917219017E+03  0.50400001928E-02 0. -1.
    10030    2    1    2    0    0  0.00000000000E+00  0.00000000000E+00  0.10769026340E+04  0.21552470143E+04  0.18669146766E+04 0.  0.
        1    1    3    3  502    0 -0.17054689122E+03  0.77415711560E+03  0.11074608233E+04  0.13619379417E+04  0.50400001928E-02 0.  1.
       -1    1    3    3    0  502  0.17054689122E+03 -0.77415711560E+03 -0.30558189350E+02  0.79330907262E+03  0.50400001928E-02 0. -1.
</event>
<event>
 5   0  0.3628581E-04  0.1685991E+04  0.7818609E-02  0.8769395E-01
       -2   -1    0    0    0  501  0.00000000000E+00  0.00000000000E+00  0.29156807922E+03  0.29156807923E+03  0.25500000920E-02 0. -1.
        2   -1    0    0  501    0  0.00000000000E+00  0.00000000000E+00 -0.24373092994E+04  0.24373092994E+04  0.25500000920E-02 0.  1.
    10030    2    1    2    0    0  0.00000000000E+00  0.00000000000E+00 -0.21457412202E+04  0.27288773787E+04  0.16859912110E+04 0.  0.
        2    1    3    3  502    0  0.48374377037E+03  0.68719735907E+03 -0.96558872871E+03  0.12800819656E+04  0.25500000920E-02 0. -1.
       -2    1    3    3    0  502 -0.48374377037E+03 -0.68719735907E+03 -0.11801524915E+04  0.14487954130E+04  0.25500000920E-02 0.  1.
</event>
<event>
 5   0  0.1837313E-04  0.1806270E+04  0.7818609E-02  0.8702972E-01
       -1   -1    0    0    0  501  0.00000000000E+00  0.00000000000E+00  0.10984905251E+04  0.10984905251E+04  0.50400001928E-02 0. -1.
        1   -1    0    0  501    0  0.00000000000E+00  0.00000000000E+00 -0.74252187397E+03  0.74252187399E+03  0.50400001928E-02 0.  1.
    10030    2    1    2    0    0  0.00000000000E+00  0.00000000000E+00  0.35596865113E+03  0.18410123991E+04  0.18062704596E+04 0.  0.
        1    1    3    3  502    0 -0.48230105158E+03  0.73508051182E+03 -0.32619081627E+02  0.87978501222E+03  0.50400001928E-02 0. -1.
       -1    1    3    3    0  502  0.48230105158E+03 -0.73508051182E+03  0.38858773276E+03  0.96122738688E+03  0.50400001928E-02 0.  1.
</event>
<event>
 5   0  0.3575091E-04  0.1834610E+04  0.7818609E-02  0.8688108E-01
       -2   -1    0    0    0  501  0.00000000000E+00  0.00000000000E+00  0.61785512608E+03  0.61785512608E+03  0.25500000920E-02 0.  1.
        2   -1    0    0  501    0  0.00000000000E+00  0.00000000000E+00 -0.13618859644E+04  0.13618859644E+04  0.25500000920E-02 0. -1.
    10030    2    1    2    0    0  0.00000000000E+00  0.00000000000E+00 -0.74403083832E+03  0.19797410905E+04  0.18346097397E+04 0.  0.
        5    1    3    3  502    0 -0.49513108842E+03 -0.69500929102E+03 -0.88938686928E+01  0.85340137111E+03  0.46999998093E+01 0.  1.
       -5    1    3    3    0  502  0.49513108842E+03  0.69500929102E+03 -0.73513696963E+03  0.11263397194E+04  0.46999998093E+01 0. -1.
</event>
<event>
 5   0  0.1818778E-04  0.1793558E+04  0.7818609E-02  0.8709733E-01
       -1   -1    0    0    0  501  0.00000000000E+00  0.00000000000E+00  0.14203077010E+04  0.14203077010E+04  0.50400001928E-02 0. -1.
        1   -1    0    0  501    0  0.00000000000E+00  0.00000000000E+00 -0.56622426015E+03  0.56622426017E+03  0.50400001928E-02 0.  1.
    10030    2    1    2    0    0  0.00000000000E+00  0.00000000000E+00  0.85408344082E+03  0.19865319611E+04  0.17935581141E+04 0.  0.
        3    1    3    3  502    0 -0.25413191242E+03 -0.82420550165E+03  0.15502693263E+03  0.87631677943E+03  0.10100000352E+00 0.  1.
       -3    1    3    3    0  502  0.25413191242E+03  0.82420550165E+03  0.69905650819E+03  0.11102151817E+04  0.10100000352E+00 0. -1.
</event>
<event>
 5   0  0.1883959E-04  0.1799690E+04  0.7818609E-02  0.8706465E-01
       -1   -1    0    0    0  501  0.00000000000E+00  0.00000000000E+00  0.49053414261E+03  0.49053414263E+03  0.50400001928E-02 0.  1.
        1   -1    0    0  501    0  0.00000000000E+00  0.00000000000E+00 -0.16506918270E+04  0.16506918270E+04  0.50400001928E-02 0. -1.
    10030    2    1    2    0    0  0.00000000000E+00  0.00000000000E+00 -0.11601576844E+04  0.21412259696E+04  0.17996896400E+04 0.  0.
        5    1    3    3  502    0 -0.73723623140E+03 -0.29182423411E+03 -0.73871867855E+02  0.79634024597E+03  0.46999998093E+01 0.  1.
       -5    1    3    3    0  502  0.73723623140E+03  0.29182423411E+03 -0.10862858165E+04  0.13448857236E+04  0.46999998093E+01 0. -1.
</event>
<event>
 5   0  0.1883959E-04  0.1752552E+04  0.7818609E-02  0.8731947E-01
        1   -1    0    0  501    0  0.00000000000E+00  0.00000000000E+00  0.88718234343E+03  0.88718234344E+03  0.50400001928E-02 0. -1.
       -1   -1    0    0    0  501  0.00000000000E+00  0.00000000000E+00 -0.86550332833E+03  0.86550332834E+03  0.50400001928E-02 0.  1.
    10030    2    1    2    0    0  0.00000000000E+00  0.00000000000E+00  0.21679015099E+02  0.17526856718E+04  0.17525515925E+04 0.  0.
        5    1    3    3  502    0  0.10350048171E+02 -0.84428368402E+02  0.88303116805E+03  0.88713099744E+03  0.46999998093E+01 0. -1.
       -5    1    3    3    0  502 -0.10350048171E+02  0.84428368402E+02 -0.86135215295E+03  0.86555467434E+03  0.46999998093E+01 0.  1.
</event>
<event>
 5   0  0.3628581E-04  0.1704895E+04  0.7818609E-02  0.8758577E-01
       -2   -1    0    0    0  501  0.00000000000E+00  0.00000000000E+00  0.63178783446E+03  0.63178783447E+03  0.25500000920E-02 0. -1.
        2   -1    0    0  501    0  0.00000000000E+00  0.00000000000E+00 -0.11501756613E+04  0.11501756613E+04  0.25500000920E-02 0.  1.
    10030    2    1    2    0    0  0.00000000000E+00  0.00000000000E+00 -0.51838782685E+03  0.17819634958E+04  0.17048952933E+04 0.  0.
        2    1    3    3  502    0 -0.63710049955E+03 -0.93281423289E+02  0.32468941066E+03  0.72112528999E+03  0.25500000920E-02 0. -1.
       -2    1    3    3    0  502  0.63710049955E+03  0.93281423289E+02 -0.84307723751E+03  0.10608382058E+04  0.25500000920E-02 0.  1.
</event>
<event>
 5   0  0.1883959E-04  0.1816502E+04  0.7818609E-02  0.8697573E-01
       -1   -1    0    0    0  501  0.00000000000E+00  0.00000000000E+00  0.50135424713E+03  0.50135424715E+03  0.50400001928E-02 0.  1.
        1   -1    0    0  501    0  0.00000000000E+00  0.00000000000E+00 -0.16453839297E+04  0.16453839297E+04  0.50400001928E-02 0. -1.
    10030    2    1    2    0    0  0.00000000000E+00  0.00000000000E+00 -0.11440296826E+04  0.21467381769E+04  0.18165023769E+04 0.  0.
        5    1    3    3  502    0  0.66291548838E+03  0.75757745017E+02  0.15620837990E+03  0.68528777066E+03  0.46999998093E+01 0.  1.
       -5    1    3    3    0  502 -0.66291548838E+03 -0.75757745017E+02 -0.13002380625E+04  0.14614504062E+04  0.46999998093E+01 0. -1.
</event>
<event>
 5   0  0.1837313E-04  0.1764899E+04  0.7818609E-02  0.8725192E-01
        1   -1    0    0  501    0  0.00000000000E+00  0.00000000000E+00  0.10347903187E+04  0.10347903187E+04  0.50400001928E-02 0.  1.
       -1   -1    0    0    0  501  0.00000000000E+00  0.00000000000E+00 -0.75253633993E+03  0.75253633994E+03  0.50400001928E-02 0. -1.
    10030    2    1    2    0    0  0.00000000000E+00  0.00000000000E+00  0.28225397873E+03  0.17873266586E+04  0.17648992255E+04 0.  0.
        1    1    3    3  502    0  0.63228523872E+03 -0.30412944379E+03 -0.40087305201E+03  0.80807087903E+03  0.50400001928E-02 0. -1.
       -1    1    3    3    0  502 -0.63228523872E+03  0.30412944379E+03  0.68312703075E+03  0.97925577958E+03  0.50400001928E-02 0.  1.
</event>
<event>
 5   0  0.3628581E-04  0.1305118E+04  0.7818609E-02  0.9025516E-01
       -2   -1    0    0    0  501  0.00000000000E+00  0.00000000000E+00  0.40399914713E+03  0.40399914714E+03  0.25500000920E-02 0.  1.
        2   -1    0    0  501    0  0.00000000000E+00  0.00000000000E+00 -0.10540451633E+04  0.10540451633E+04  0.25500000920E-02 0. -1.
    10030    2    1    2    0    0  0.00000000000E+00  0.00000000000E+00 -0.65004601614E+03  0.14580443104E+04  0.13051181510E+04 0.  0.
        2    1    3    3  502    0  0.25005288249E+03  0.43127150090E+03 -0.79544726395E+03  0.93875337616E+03  0.25500000920E-02 0. -1.
       -2    1    3    3    0  502 -0.25005288249E+03 -0.43127150090E+03  0.14540124781E+03  0.51929093426E+03  0.25500000920E-02 0.  1.
</event>
<event>
 5   0  0.1330125E-04  0.1662155E+04  0.7818609E-02  0.8783248E-01
        4   -1    0    0  501    0  0.00000000000E+00  0.00000000000E+00  0.10869113299E+04  0.10869120719E+04  0.12699999809E+01 0.  1.
       -4   -1    0    0    0  501  0.00000000000E+00  0.00000000000E+00 -0.63545944410E+03  0.63546071318E+03  0.12699999809E+01 0. -1.
    10030    2    1    2    0    0  0.00000000000E+00  0.00000000000E+00  0.45145188580E+03  0.17223727850E+04  0.16621549884E+04 0.  0.
        5    1    3    3  502    0  0.19390473632E+02  0.76381769758E+03  0.56448597765E+03  0.94997893375E+03  0.46999998093E+01 0.  1.
       -5    1    3    3    0  502 -0.19390473632E+02 -0.76381769758E+03 -0.11303409185E+03  0.77239385130E+03  0.46999998093E+01 0. -1.
</event>
<event>
 5   0  0.1835421E-04  0.1833701E+04  0.7818609E-02  0.8688580E-01
        1   -1    0    0  501    0  0.00000000000E+00  0.00000000000E+00  0.93555878249E+03  0.93555878250E+03  0.50400001928E-02 0.  1.
       -1   -1    0    0    0  501  0.00000000000E+00  0.00000000000E+00 -0.89851584746E+03  0.89851584748E+03  0.50400001928E-02 0. -1.
    10030    2    1    2    0    0  0.00000000000E+00  0.00000000000E+00  0.37042935022E+02  0.18340746300E+04  0.18337005124E+04 0.  0.
        2    1    3    3  502    0  0.34318295154E+03  0.83067104538E+03  0.19973643414E+03  0.92069732649E+03  0.25500000920E-02 0. -1.
       -2    1    3    3    0  502 -0.34318295154E+03 -0.83067104538E+03 -0.16269349912E+03  0.91337730349E+03  0.25500000920E-02 0.  1.
</event>
<event>
 5   0  0.1825253E-04  0.1789491E+04  0.7818609E-02  0.8711908E-01
       -1   -1    0    0    0  501  0.00000000000E+00  0.00000000000E+00  0.97302396925E+03  0.97302396926E+03  0.50400001928E-02 0. -1.
        1   -1    0    0  501    0  0.00000000000E+00  0.00000000000E+00 -0.82276409784E+03  0.82276409785E+03  0.50400001928E-02 0.  1.
    10030    2    1    2    0    0  0.00000000000E+00  0.00000000000E+00  0.15025987141E+03  0.17957880671E+04  0.17894906407E+04 0.  0.
        4    1    3    3  502    0  0.36381400034E+03 -0.39713018996E+03  0.79213332669E+03  0.95788821622E+03  0.12699999809E+01 0. -1.
       -4    1    3    3    0  502 -0.36381400034E+03  0.39713018996E+03 -0.64187345528E+03  0.83789985089E+03  0.12699999809E+01 0.  1.
</event>
<event>
 5   0  0.1825253E-04  0.1802981E+04  0.7818609E-02  0.8704716E-01
        1   -1    0    0  501    0  0.00000000000E+00  0.00000000000E+00  0.81770916722E+03  0.81770916724E+03  0.50400001928E-02 0.  1.
       -1   -1    0    0    0  501  0.00000000000E+00  0.00000000000E+00 -0.99385552909E+03  0.99385552911E+03  0.50400001928E-02 0. -1.
    10030    2    1    2    0    0  0.00000000000E+00  0.00000000000E+00 -0.17614636187E+03  0.18115646963E+04  0.18029806178E+04 0.  0.
        4    1    3    3  502    0  0.24228341125E+03  0.10609304053E+03 -0.95399195679E+03  0.98997941955E+03  0.12699999809E+01 0. -1.
       -4    1    3    3    0  502 -0.24228341125E+03 -0.10609304053E+03  0.77784559492E+03  0.82158527680E+03  0.12699999809E+01 0.  1.
</event>
<event>
 5   0  0.1883959E-04  0.1819063E+04  0.7818609E-02  0.8696227E-01
       -1   -1    0    0    0  501  0.00000000000E+00  0.00000000000E+00  0.11757225691E+04  0.11757225691E+04  0.50400001928E-02 0.  1.
        1   -1    0    0  501    0  0.00000000000E+00  0.00000000000E+00 -0.70360811694E+03  0.70360811696E+03  0.50400001928E-02 0. -1.
    10030    2    1    2    0    0  0.00000000000E+00  0.00000000000E+00  0.47211445212E+03  0.18793306860E+04  0.18190634325E+04 0.  0.
        5    1    3    3  502    0 -0.78406667564E+02  0.78151500967E+03 -0.23773501315E+03  0.82064203057E+03  0.46999998093E+01 0. -1.
       -5    1    3    3    0  502  0.78406667564E+02 -0.78151500967E+03  0.70984946526E+03  0.10586886555E+04  0.46999998093E+01 0.  1.
</event>
<event>
 5   0  0.1818778E-04  0.1765778E+04  0.7818609E-02  0.8724713E-01
       -1   -1    0    0    0  501  0.00000000000E+00  0.00000000000E+00  0.50922814289E+03  0.50922814291E+03  0.50400001928E-02 0. -1.
        1   -1    0    0  501    0  0.00000000000E+00  0.00000000000E+00 -0.15307341020E+04  0.15307341020E+04  0.50400001928E-02 0.  1.
    10030    2    1    2    0    0  0.00000000000E+00  0.00000000000E+00 -0.10215059591E+04  0.20399622449E+04  0.17657778842E+04 0.  0.
        3    1    3    3  502    0  0.76555827266E+03 -0.18767488270E+03 -0.51261261257E+02  0.78989180116E+03  0.10100000352E+00 0. -1.
       -3    1    3    3    0  502 -0.76555827266E+03  0.18767488270E+03 -0.97024469784E+03  0.12500704437E+04  0.10100000352E+00 0.  1.
</event>
<event>
 5   0  0.3575091E-04  0.1801652E+04  0.7818609E-02  0.8705421E-01
       -2   -1    0    0    0  501  0.00000000000E+00  0.00000000000E+00  0.87208329029E+03  0.87208329029E+03  0.25500000920E-02 0. -1.
        2   -1    0    0  501    0  0.00000000000E+00  0.00000000000E+00 -0.93051641957E+03  0.93051641957E+03  0.25500000920E-02 0.  1.
    10030    2    1    2    0    0  0.00000000000E+00  0.00000000000E+00 -0.58433129281E+02  0.18025997099E+04  0.18016523759E+04 0.  0.
        5    1    3    3  502    0  0.22471532887E+03 -0.11987952835E+03  0.83529659310E+03  0.87327576904E+03  0.46999998093E+01 0. -1.
       -5    1    3    3    0  502 -0.22471532887E+03  0.11987952835E+03 -0.89372972238E+03  0.92932394083E+03  0.46999998093E+01 0.  1.
</event>
<event>
 5   0  0.1883959E-04  0.1813846E+04  0.7818609E-02  0.8698971E-01
        1   -1    0    0  501    0  0.00000000000E+00  0.00000000000E+00  0.75233920792E+03  0.75233920794E+03  0.50400001928E-02 0. -1.
       -1   -1    0    0    0  501  0.00000000000E+00  0.00000000000E+00 -0.10932692240E+04  0.10932692240E+04  0.50400001928E-02 0.  1.
    10030    2    1    2    0    0  0.00000000000E+00  0.00000000000E+00 -0.34093001604E+03  0.18456084319E+04  0.18138459714E+04 0.  0.
        5    1    3    3  502    0 -0.22996484615E+03 -0.84759275659E+03 -0.40067878163E+03  0.96533045509E+03  0.46999998093E+01 0.  1.
       -5    1    3    3    0  502  0.22996484615E+03  0.84759275659E+03  0.59748765591E+02  0.88027797682E+03  0.46999998093E+01 0. -1.
</event>
<event>
 5   0  0.3568870E-04  0.1780417E+04  0.7818609E-02  0.8716783E-01
        2   -1    0    0  501    0  0.00000000000E+00  0.00000000000E+00  0.10752361628E+04  0.10752361628E+04  0.25500000920E-02 0.  1.
       -2   -1    0    0    0  501  0.00000000000E+00  0.00000000000E+00 -0.73702065666E+03  0.73702065667E+03  0.25500000920E-02 0. -1.
    10030    2    1    2    0    0  0.00000000000E+00  0.00000000000E+00  0.33821550614E+03  0.18122568195E+04  0.17804171003E+04 0.  0.
        1    1    3    3  502    0  0.46217495793E+03 -0.50914662104E+03 -0.40636576940E+03  0.79872968645E+03  0.50400001928E-02 0. -1.
       -1    1    3    3    0  502 -0.46217495793E+03  0.50914662104E+03  0.74458127554E+03  0.10135271330E+04  0.50400001928E-02 0.  1.
</event>
<event>
 5   0  0.1818778E-04  0.1552342E+04  0.7818609E-02  0.8850373E-01
       -1   -1    0    0    0  501  0.00000000000E+00  0.00000000000E+00  0.59811080175E+03  0.59811080177E+03  0.50400001928E-02 0.  1.
        1   -1    0    0  501    0  0.00000000000E+00  0.00000000000E+00 -0.10072400289E+04  0.10072400289E+04  0.50400001928E-02 0. -1.
    10030    2    1    2    0    0  0.00000000000E+00  0.00000000000E+00 -0.40912922718E+03  0.16053508307E+04  0.15523416393E+04 0.  0.
        3    1    3    3  502    0  0.18337023663E+03 -0.67146954935E+03  0.15059425187E+03  0.71216194667E+03  0.10100000352E+00 0.  1.
       -3    1    3    3    0  502 -0.18337023663E+03  0.67146954935E+03 -0.55972347905E+03  0.89318888405E+03  0.10100000352E+00 0. -1.
</event>
<event>
 5   0  0.1835421E-04  0.1805118E+04  0.7818609E-02  0.8703583E-01
       -1   -1    0    0    0  501  0.00000000000E+00  0.00000000000E+00  0.59252207661E+03  0.59252207663E+03  0.50400001928E-02 0.  1.
        1   -1    0    0  501    0  0.00000000000E+00  0.00000000000E+00 -0.13748222146E+04  0.13748222146E+04  0.50400001928E-02 0. -1.
    10030    2    1    2    0    0  0.00000000000E+00  0.00000000000E+00 -0.78230013795E+03  0.19673442912E+04  0.18051177397E+04 0.  0.
        2    1    3    3  502    0  0.80930587505E+03 -0.28570810390E+03 -0.69554871663E+03  0.11047140523E+04  0.25500000920E-02 0. -1.
       -2    1    3    3    0  502 -0.80930587505E+03  0.28570810390E+03 -0.86751421314E+02  0.86263023894E+03  0.25500000920E-02 0.  1.
</event>
<event>
 5   0  0.1330125E-04  0.1776389E+04  0.7818609E-02  0.8718957E-01
        3   -1    0    0  501    0  0.00000000000E+00  0.00000000000E+00  0.91803432744E+03  0.91803433299E+03  0.10100000352E+00 0. -1.
       -3   -1    0    0    0  501  0.00000000000E+00  0.00000000000E+00 -0.85932416033E+03  0.85932416626E+03  0.10100000352E+00 0.  1.
    10030    2    1    2    0    0  0.00000000000E+00  0.00000000000E+00  0.58710167110E+02  0.17773584993E+04  0.17763885699E+04 0.  0.
        3    1    3    3  502    0  0.74320713963E+03  0.17777807485E+03 -0.42358092492E+03  0.87371774988E+03  0.10100000352E+00 0.  1.
       -3    1    3    3    0  502 -0.74320713963E+03 -0.17777807485E+03  0.48229109203E+03  0.90364074938E+03  0.10100000352E+00 0. -1.
</event>
<event>
 5   0  0.3568870E-04  0.1801696E+04  0.7818609E-02  0.8705398E-01
        2   -1    0    0  501    0  0.00000000000E+00  0.00000000000E+00  0.11517695822E+04  0.11517695822E+04  0.25500000920E-02 0.  1.
       -2   -1    0    0    0  501  0.00000000000E+00  0.00000000000E+00 -0.70459155381E+03  0.70459155381E+03  0.25500000920E-02 0. -1.
    10030    2    1    2    0    0  0.00000000000E+00  0.00000000000E+00  0.44717802840E+03  0.18563611360E+04  0.18016960005E+04 0.  0.
        1    1    3    3  502    0  0.56514200140E+03  0.57733388105E+03  0.63421216465E+03  0.10270954005E+04  0.50400001928E-02 0.  1.
       -1    1    3    3    0  502 -0.56514200140E+03 -0.57733388105E+03 -0.18703413624E+03  0.82926573551E+03  0.50400001928E-02 0. -1.
</event>
<event>
 5   0  0.3531266E-04  0.1810868E+04  0.7818609E-02  0.8700541E-01
       -2   -1    0    0    0  501  0.00000000000E+00  0.00000000000E+00  0.10417854835E+04  0.10417854835E+04  0.25500000920E-02 0. -1.
        2   -1    0    0  501    0  0.00000000000E+00  0.00000000000E+00 -0.78692853694E+03  0.78692853694E+03  0.25500000920E-02 0.  1.
    10030    2    1    2    0    0  0.00000000000E+00  0.00000000000E+00  0.25485694660E+03  0.18287140205E+04  0.18108679978E+04 0.  0.
        3    1    3    3  502    0  0.31393372194E+03  0.51577419152E+03  0.80878751069E+03  0.10093139482E+04  0.10100000352E+00 0. -1.
       -3    1    3    3    0  502 -0.31393372194E+03 -0.51577419152E+03 -0.55393056408E+03  0.81940007227E+03  0.10100000352E+00 0.  1.
</event>
<event>
 5   0  0.3568870E-04  0.1755415E+04  0.7818609E-02  0.8730375E-01
       -2   -1    0    0    0  501  0.00000000000E+00  0.00000000000E+00  0.72888057823E+03  0.72888057824E+03  0.25500000920E-02 0. -1.
        2   -1    0    0  501    0  0.00000000000E+00  0.00000000000E+00 -0.10569228289E+04  0.10569228289E+04  0.25500000920E-02 0.  1.
    10030    2    1    2    0    0  0.00000000000E+00  0.00000000000E+00 -0.32804225064E+03  0.17858034071E+04  0.17554150765E+04 0.  0.
        1    1    3    3  502    0  0.70828997728E+03 -0.40162608467E+03 -0.49740180920E+03  0.95414189910E+03  0.50400001928E-02 0.  1.
       -1    1    3    3    0  502 -0.70828997728E+03  0.40162608467E+03  0.16935955856E+03  0.83166150801E+03  0.50400001928E-02 0. -1.
</event>
<event>
 5   0  0.3531266E-04  0.1778395E+04  0.7818609E-02  0.8717874E-01
        2   -1    0    0  501    0  0.00000000000E+00  0.00000000000E+00  0.21120080239E+04  0.21120080239E+04  0.25500000920E-02 0. -1.
       -2   -1    0    0    0  501  0.00000000000E+00  0.00000000000E+00 -0.37437008795E+03  0.37437008796E+03  0.25500000920E-02 0.  1.
    10030    2    1    2    0    0  0.00000000000E+00  0.00000000000E+00  0.17376379360E+04  0.24863781119E+04  0.17783954900E+04 0.  0.
        3    1    3    3  502    0 -0.36080074745E+03 -0.81270811578E+03  0.86745006584E+03  0.12422323807E+04  0.10100000352E+00 0. -1.
       -3    1    3    3    0  502  0.36080074745E+03  0.81270811578E+03  0.87018787014E+03  0.12441457312E+04  0.10100000352E+00 0.  1.
</event>
<event>
 5   0  0.3628581E-04  0.1806209E+04  0.7818609E-02  0.8703005E-01
        2   -1    0    0  501    0  0.00000000000E+00  0.00000000000E+00  0.17542985109E+04  0.17542985109E+04  0.25500000920E-02 0. -1.
       -2   -1    0    0    0  501  0.00000000000E+00  0.00000000000E+00 -0.46491364234E+03  0.46491364235E+03  0.25500000920E-02 0.  1.
    10030    2    1    2    0    0  0.00000000000E+00  0.00000000000E+00  0.12893848685E+04  0.22192121532E+04  0.18062085267E+04 0.  0.
        2    1    3    3  502    0  0.36055607286E+03  0.69266336596E+03  0.87290481626E+02  0.78574986377E+03  0.25500000920E-02 0.  1.
       -2    1    3    3    0  502 -0.36055607286E+03 -0.69266336596E+03  0.12020943869E+04  0.14334622894E+04  0.25500000920E-02 0. -1.
</event>
<event>
 5   0  0.3568870E-04  0.1805743E+04  0.7818609E-02  0.8703251E-01
        2   -1    0    0  501    0  0.00000000000E+00  0.00000000000E+00  0.19105041698E+04  0.19105041698E+04  0.25500000920E-02 0.  1.
       -2   -1    0    0    0  501  0.00000000000E+00  0.00000000000E+00 -0.42668176443E+03  0.42668176444E+03  0.25500000920E-02 0. -1.
    10030    2    1    2    0    0  0.00000000000E+00  0.00000000000E+00  0.14838224053E+04  0.23371859342E+04  0.18057433817E+04 0.  0.
        1    1    3    3  502    0 -0.64193985554E+03 -0.23047797480E+03  0.15076010674E+04  0.16547108066E+04  0.50400001928E-02 0.  1.
       -1    1    3    3    0  502  0.64193985554E+03  0.23047797480E+03 -0.23778662081E+02  0.68247512760E+03  0.50400001928E-02 0. -1.
</event>
<event>
 5   0  0.1883959E-04  0.1835032E+04  0.7818609E-02  0.8687888E-01
       -1   -1    0    0    0  501  0.00000000000E+00  0.00000000000E+00  0.45347278818E+03  0.45347278821E+03  0.50400001928E-02 0.  1.
        1   -1    0    0  501    0  0.00000000000E+00  0.00000000000E+00 -0.18564200783E+04  0.18564200783E+04  0.50400001928E-02 0. -1.
    10030    2    1    2    0    0  0.00000000000E+00  0.00000000000E+00 -0.14029472901E+04  0.23098928665E+04  0.18350324128E+04 0.  0.
        5    1    3    3  502    0 -0.20275428331E+03 -0.17057997787E+03  0.40424898292E+03  0.48336958783E+03  0.46999998093E+01 0.  1.
       -5    1    3    3    0  502  0.20275428331E+03  0.17057997787E+03 -0.18071962730E+04  0.18265232787E+04  0.46999998093E+01 0. -1.
</event>
<event>
 5   0  0.1883959E-04  0.1834380E+04  0.7818609E-02  0.8688228E-01
       -1   -1    0    0    0  501  0.00000000000E+00  0.00000000000E+00  0.69606781898E+03  0.69606781900E+03  0.50400001928E-02 0.  1.
        1   -1    0    0  501    0  0.00000000000E+00  0.00000000000E+00 -0.12085561811E+04  0.12085561811E+04  0.50400001928E-02 0. -1.
    10030    2    1    2    0    0  0.00000000000E+00  0.00000000000E+00 -0.51248836211E+03  0.19046240001E+04  0.18343795301E+04 0.  0.
        5    1    3    3  502    0  0.37365143031E+03  0.43944742179E+03 -0.99663216845E+03  0.11515325428E+04  0.46999998093E+01 0. -1.
       -5    1    3    3    0  502 -0.37365143031E+03 -0.43944742179E+03  0.48414380633E+03  0.75309145733E+03  0.46999998093E+01 0.  1.
</event>
<event>
 5   0  0.3628581E-04  0.1741585E+04  0.7818609E-02  0.8737996E-01
        2   -1    0    0  501    0  0.00000000000E+00  0.00000000000E+00  0.14462771699E+04  0.14462771699E+04  0.25500000920E-02 0.  1.
       -2   -1    0    0    0  501  0.00000000000E+00  0.00000000000E+00 -0.52429735582E+03  0.52429735582E+03  0.25500000920E-02 0. -1.
    10030    2    1    2    0    0  0.00000000000E+00  0.00000000000E+00  0.92197981407E+03  0.19705745257E+04  0.17415846760E+04 0.  0.
        2    1    3    3  502    0 -0.86319966875E+03  0.10686636653E+03  0.41372140837E+03  0.96317157982E+03  0.25500000920E-02 0. -1.
       -2    1    3    3    0  502  0.86319966875E+03 -0.10686636653E+03  0.50825840569E+03  0.10074029459E+04  0.25500000920E-02 0.  1.
</event>
<event>
 5   0  0.1818778E-04  0.1814579E+04  0.7818609E-02  0.8698585E-01
        1   -1    0    0  501    0  0.00000000000E+00  0.00000000000E+00  0.12837085867E+04  0.12837085867E+04  0.50400001928E-02 0.  1.
       -1   -1    0    0    0  501  0.00000000000E+00  0.00000000000E+00 -0.64124688553E+03  0.64124688555E+03  0.50400001928E-02 0. -1.
    10030    2    1    2    0    0  0.00000000000E+00  0.00000000000E+00  0.64246170120E+03  0.19249554723E+04  0.18145788858E+04 0.  0.
        3    1    3    3  502    0  0.50113442506E+03  0.38621727613E+03  0.10110744648E+04  0.11927158421E+04  0.10100000352E+00 0.  1.
       -3    1    3    3    0  502 -0.50113442506E+03 -0.38621727613E+03 -0.36861276360E+03  0.73223963021E+03  0.10100000352E+00 0. -1.
</event>
<event>
 5   0  0.1883959E-04  0.1796290E+04  0.7818609E-02  0.8708275E-01
       -1   -1    0    0    0  501  0.00000000000E+00  0.00000000000E+00  0.88644216019E+03  0.88644216020E+03  0.50400001928E-02 0. -1.
        1   -1    0    0  501    0  0.00000000000E+00  0.00000000000E+00 -0.91000268536E+03  0.91000268537E+03  0.50400001928E-02 0.  1.
    10030    2    1    2    0    0  0.00000000000E+00  0.00000000000E+00 -0.23560525173E+02  0.17964448456E+04  0.17962903398E+04 0.  0.
        5    1    3    3  502    0 -0.36844696396E+03 -0.36746658125E+03  0.72030579037E+03  0.88862105266E+03  0.46999998093E+01 0. -1.
       -5    1    3    3    0  502  0.36844696396E+03  0.36746658125E+03 -0.74386631554E+03  0.90782379292E+03  0.46999998093E+01 0.  1.
</event>
<event>
 5   0  0.3575091E-04  0.1805189E+04  0.7818609E-02  0.8703545E-01
        2   -1    0    0  501    0  0.00000000000E+00  0.00000000000E+00  0.17032109185E+04  0.17032109185E+04  0.25500000920E-02 0.  1.
       -2   -1    0    0    0  501  0.00000000000E+00  0.00000000000E+00 -0.47831829009E+03  0.47831829009E+03  0.25500000920E-02 0. -1.
    10030    2    1    2    0    0  0.00000000000E+00  0.00000000000E+00  0.12248926285E+04  0.21815292086E+04  0.18051891139E+04 0.  0.
        5    1    3    3  502    0 -0.51471979182E+03 -0.20193846655E+03 -0.24968077810E+03  0.60669447773E+03  0.46999998093E+01 0. -1.
       -5    1    3    3    0  502  0.51471979182E+03  0.20193846655E+03  0.14745734066E+04  0.15748347309E+04  0.46999998093E+01 0.  1.
</event>
<event>
 5   0  0.3531266E-04  0.1769739E+04  0.7818609E-02  0.8722560E-01
       -2   -1    0    0    0  501  0.00000000000E+00  0.00000000000E+00  0.47595484882E+03  0.47595484883E+03  0.25500000920E-02 0.  1.
        2   -1    0    0  501    0  0.00000000000E+00  0.00000000000E+00 -0.16451008653E+04  0.16451008653E+04  0.25500000920E-02 0. -1.
    10030    2    1    2    0    0  0.00000000000E+00  0.00000000000E+00 -0.11691460165E+04  0.21210557141E+04  0.17697386628E+04 0.  0.
        3    1    3    3  502    0  0.73365647635E+03  0.18419870379E+03 -0.11348626772E+04  0.13638527391E+04  0.10100000352E+00 0. -1.
       -3    1    3    3    0  502 -0.73365647635E+03 -0.18419870379E+03 -0.34283339267E+02  0.75720297498E+03  0.10100000352E+00 0.  1.
</event>
<event>
 5   0  0.1883959E-04  0.1845479E+04  0.7818609E-02  0.8682481E-01
       -1   -1    0    0    0  501  0.00000000000E+00  0.00000000000E+00  0.52983175452E+03  0.52983175454E+03  0.50400001928E-02 0. -1.
        1   -1    0    0  501    0  0.00000000000E+00  0.00000000000E+00 -0.16070155638E+04  0.16070155638E+04  0.50400001928E-02 0.  1.
    10030    2    1    2    0    0  0.00000000000E+00  0.00000000000E+00 -0.10771838093E+04  0.21368473183E+04  0.18454786650E+04 0.  0.
        5    1    3    3  502    0 -0.19016827407E+03 -0.40171092931E+03 -0.14748958610E+04  0.15404140787E+04  0.46999998093E+01 0.  1.
       -5    1    3    3    0  502  0.19016827407E+03  0.40171092931E+03  0.39771205173E+03  0.59643323959E+03  0.46999998093E+01 0. -1.
</event>
<event>
 5   0  0.3628581E-04  0.1883584E+04  0.7818609E-02  0.8663071E-01
       -2   -1    0    0    0  501  0.00000000000E+00  0.00000000000E+00  0.69224966210E+03  0.69224966210E+03  0.25500000920E-02 0. -1.
        2   -1    0    0  501    0  0.00000000000E+00  0.00000000000E+00 -0.12812890289E+04  0.12812890289E+04  0.25500000920E-02 0.  1.
    10030    2    1    2    0    0  0.00000000000E+00  0.00000000000E+00 -0.58903936683E+03  0.19735386910E+04  0.18835837091E+04 0.  0.
        2    1    3    3  502    0 -0.25014621468E+02 -0.66587641809E+03 -0.99185298692E+03  0.11949014533E+04  0.25500000920E-02 0.  1.
       -2    1    3    3    0  502  0.25014621468E+02  0.66587641809E+03  0.40281362008E+03  0.77863723773E+03  0.25500000920E-02 0. -1.
</event>
<event>
 5   0  0.1837313E-04  0.1820407E+04  0.7818609E-02  0.8695522E-01
       -1   -1    0    0    0  501  0.00000000000E+00  0.00000000000E+00  0.79680944659E+03  0.79680944661E+03  0.50400001928E-02 0. -1.
        1   -1    0    0  501    0  0.00000000000E+00  0.00000000000E+00 -0.10397344408E+04  0.10397344409E+04  0.50400001928E-02 0.  1.
    10030    2    1    2    0    0  0.00000000000E+00  0.00000000000E+00 -0.24292499425E+03  0.18365438875E+04  0.18204067946E+04 0.  0.
        1    1    3    3  502    0  0.68321903589E+03 -0.56382050755E+03 -0.33257426597E+03  0.94619631057E+03  0.50400001928E-02 0. -1.
       -1    1    3    3    0  502 -0.68321903589E+03  0.56382050755E+03  0.89649271713E+02  0.89034757689E+03  0.50400001928E-02 0.  1.
</event>
<event>
 5   0  0.1330125E-04  0.1813065E+04  0.7818609E-02  0.8699382E-01
        3   -1    0    0  501    0  0.00000000000E+00  0.00000000000E+00  0.14327141909E+04  0.14327141944E+04  0.10100000352E+00 0.  1.
       -3   -1    0    0    0  501  0.00000000000E+00  0.00000000000E+00 -0.57359759182E+03  0.57359760071E+03  0.10100000352E+00 0. -1.
    10030    2    1    2    0    0  0.00000000000E+00  0.00000000000E+00  0.85911659904E+03  0.20063117951E+04  0.18130652742E+04 0.  0.
        1    1    3    3  502    0 -0.42684046612E+03 -0.42093564041E+03 -0.32293761826E+03  0.68093193654E+03  0.50400001928E-02 0. -1.
       -1    1    3    3    0  502  0.42684046612E+03  0.42093564041E+03  0.11820542173E+04  0.13253798586E+04  0.50400001928E-02 0.  1.
</event>
<event>
 5   0  0.3568870E-04  0.1826848E+04  0.7818609E-02  0.8692151E-01
        2   -1    0    0  501    0  0.00000000000E+00  0.00000000000E+00  0.11010488068E+04  0.11010488068E+04  0.25500000920E-02 0. -1.
       -2   -1    0    0    0  501  0.00000000000E+00  0.00000000000E+00 -0.75777168232E+03  0.75777168232E+03  0.25500000920E-02 0.  1.
    10030    2    1    2    0    0  0.00000000000E+00  0.00000000000E+00  0.34327712444E+03  0.18588204891E+04  0.18268482221E+04 0.  0.
        1    1    3    3  502    0  0.91047254460E+03  0.65987682484E+02  0.13899947500E+03  0.92338263075E+03  0.50400001928E-02 0.  1.
       -1    1    3    3    0  502 -0.91047254460E+03 -0.65987682484E+02  0.20427764944E+03  0.93543785833E+03  0.50400001928E-02 0. -1.
</event>
<event>
 5   0  0.1835421E-04  0.1801463E+04  0.7818609E-02  0.8705522E-01
       -1   -1    0    0    0  501  0.00000000000E+00  0.00000000000E+00  0.55123249361E+03  0.55123249364E+03  0.50400001928E-02 0. -1.
        1   -1    0    0  501    0  0.00000000000E+00  0.00000000000E+00 -0.14718236116E+04  0.14718236116E+04  0.50400001928E-02 0.  1.
    10030    2    1    2    0    0  0.00000000000E+00  0.00000000000E+00 -0.92059111797E+03  0.20230561052E+04  0.18014627386E+04 0.  0.
        2    1    3    3  502    0 -0.33552931819E+03 -0.67339638004E+03 -0.10164670803E+04  0.12646137487E+04  0.25500000920E-02 0.  1.
       -2    1    3    3    0  502  0.33552931819E+03  0.67339638004E+03  0.95875962349E+02  0.75844235653E+03  0.25500000920E-02 0. -1.
</event>
<event>
 5   0  0.1818778E-04  0.1781571E+04  0.7818609E-02  0.8716162E-01
       -1   -1    0    0    0  501  0.00000000000E+00  0.00000000000E+00  0.45806891670E+03  0.45806891673E+03  0.50400001928E-02 0. -1.
        1   -1    0    0  501    0  0.00000000000E+00  0.00000000000E+00 -0.17322691123E+04  0.17322691123E+04  0.50400001928E-02 0.  1.
    10030    2    1    2    0    0  0.00000000000E+00  0.00000000000E+00 -0.12742001956E+04  0.21903380291E+04  0.17815708077E+04 0.  0.
        3    1    3    3  502    0  0.75729434406E+03 -0.28997426857E+03 -0.18383960954E+03  0.83149071686E+03  0.10100000352E+00 0. -1.
       -3    1    3    3    0  502 -0.75729434406E+03  0.28997426857E+03 -0.10903605861E+04  0.13588473122E+04  0.10100000352E+00 0.  1.
</event>
<event>
 5   0  0.1883959E-04  0.1777692E+04  0.7818609E-02  0.8718254E-01
       -1   -1    0    0    0  501  0.00000000000E+00  0.00000000000E+00  0.12324917825E+04  0.12324917825E+04  0.50400001928E-02 0. -1.
        1   -1    0    0  501    0  0.00000000000E+00  0.00000000000E+00 -0.64101596841E+03  0.64101596843E+03  0.50400001928E-02 0.  1.
    10030    2    1    2    0    0  0.00000000000E+00  0.00000000000E+00  0.59147581413E+03  0.18735077510E+04  0.17776916646E+04 0.  0.
        5    1    3    3  502    0  0.55908376051E+03  0.18449835706E+03  0.99751963851E+03  0.11583098956E+04  0.46999998093E+01 0. -1.
       -5    1    3    3    0  502 -0.55908376051E+03 -0.18449835706E+03 -0.40604382439E+03  0.71519785538E+03  0.46999998093E+01 0.  1.
</event>
<event>
 5   0  0.1835421E-04  0.1812501E+04  0.7818609E-02  0.8699680E-01
       -1   -1    0    0    0  501  0.00000000000E+00  0.00000000000E+00  0.85706126559E+03  0.85706126560E+03  0.50400001928E-02 0. -1.
        1   -1    0    0  501    0  0.00000000000E+00  0.00000000000E+00 -0.95826264246E+03  0.95826264247E+03  0.50400001928E-02 0.  1.
    10030    2    1    2    0    0  0.00000000000E+00  0.00000000000E+00 -0.10120137687E+03  0.18153239081E+04  0.18125008062E+04 0.  0.
        2    1    3    3  502    0  0.22973200614E+03 -0.52968892938E+03  0.64901623006E+03  0.86865944043E+03  0.25500000920E-02 0. -1.
       -2    1    3    3    0  502 -0.22973200614E+03  0.52968892938E+03 -0.75021760693E+03  0.94666446765E+03  0.25500000920E-02 0.  1.
</event>
<event>
 5   0  0.3582186E-04  0.1799977E+04  0.7818609E-02  0.8706312E-01
        2   -1    0    0  501    0  0.00000000000E+00  0.00000000000E+00  0.27497934762E+04  0.27497934762E+04  0.25500000920E-02 0. -1.
       -2   -1    0    0    0  501  0.00000000000E+00  0.00000000000E+00 -0.29455992226E+03  0.29455992227E+03  0.25500000920E-02 0.  1.
    10030    2    1    2    0    0  0.00000000000E+00  0.00000000000E+00  0.24552335539E+04  0.30443533984E+04  0.17999766138E+04 0.  0.
        4    1    3    3  502    0 -0.16684693287E+03  0.50397911038E+03 -0.15323648702E+01  0.53088304150E+03  0.12699999809E+01 0.  1.
       -4    1    3    3    0  502  0.16684693287E+03 -0.50397911038E+03  0.24567659188E+04  0.25134703569E+04  0.12699999809E+01 0. -1.
</event>
<event>
 5   0  0.1825253E-04  0.1777853E+04  0.7818609E-02  0.8718166E-01
       -1   -1    0    0    0  501  0.00000000000E+00  0.00000000000E+00  0.40780808518E+03  0.40780808521E+03  0.50400001928E-02 0.  1.
        1   -1    0    0  501    0  0.00000000000E+00  0.00000000000E+00 -0.19376534494E+04  0.19376534495E+04  0.50400001928E-02 0. -1.
    10030    2    1    2    0    0  0.00000000000E+00  0.00000000000E+00 -0.15298453643E+04  0.23454615347E+04  0.17778534731E+04 0.  0.
        4    1    3    3  502    0 -0.40827456524E+03  0.44522547743E+03 -0.16252573470E+04  0.17338906837E+04  0.12699999809E+01 0. -1.
       -4    1    3    3    0  502  0.40827456524E+03 -0.44522547743E+03  0.95411982690E+02  0.61157085093E+03  0.12699999809E+01 0.  1.
</event>
<event>
 5   0  0.1818778E-04  0.1802011E+04  0.7818609E-02  0.8705231E-01
       -1   -1    0    0    0  501  0.00000000000E+00  0.00000000000E+00  0.10874013464E+04  0.10874013464E+04  0.50400001928E-02 0.  1.
        1   -1    0    0  501    0  0.00000000000E+00  0.00000000000E+00 -0.74656014056E+03  0.74656014058E+03  0.50400001928E-02 0. -1.
    10030    2    1    2    0    0  0.00000000000E+00  0.00000000000E+00  0.34084120583E+03  0.18339614870E+04  0.18020105461E+04 0.  0.
        3    1    3    3  502    0 -0.70725635593E+03 -0.19563685247E+03 -0.36165419543E+03  0.81809479788E+03  0.10100000352E+00 0. -1.
       -3    1    3    3    0  502  0.70725635593E+03  0.19563685247E+03  0.70249540126E+03  0.10158666891E+04  0.10100000352E+00 0.  1.
</event>
<event>
 5   0  0.3575091E-04  0.1832987E+04  0.7818609E-02  0.8688951E-01
        2   -1    0    0  501    0  0.00000000000E+00  0.00000000000E+00  0.98665874884E+03  0.98665874885E+03  0.25500000920E-02 0. -1.
       -2   -1    0    0    0  501  0.00000000000E+00  0.00000000000E+00 -0.85131793733E+03  0.85131793734E+03  0.25500000920E-02 0.  1.
    10030    2    1    2    0    0  0.00000000000E+00  0.00000000000E+00  0.13534081151E+03  0.18379766862E+04  0.18329869513E+04 0.  0.
        5    1    3    3  502    0  0.13960932096E+03  0.24527383415E+03 -0.80664825082E+03  0.85460722368E+03  0.46999998093E+01 0.  1.
       -5    1    3    3    0  502 -0.13960932096E+03 -0.24527383415E+03  0.94198906233E+03  0.98336946250E+03  0.46999998093E+01 0. -1.
</event>
<event>
 5   0  0.3568870E-04  0.1798646E+04  0.7818609E-02  0.8707020E-01
       -2   -1    0    0    0  501  0.00000000000E+00  0.00000000000E+00  0.11361964352E+04  0.11361964352E+04  0.25500000920E-02 0. -1.
        2   -1    0    0  501    0  0.00000000000E+00  0.00000000000E+00 -0.71183273679E+03  0.71183273679E+03  0.25500000920E-02 0.  1.
    10030    2    1    2    0    0  0.00000000000E+00  0.00000000000E+00  0.42436369844E+03  0.18480291720E+04  0.17986459552E+04 0.  0.
        1    1    3    3  502    0  0.77140983109E+03 -0.69260165668E+01 -0.26274364319E+03  0.81495724996E+03  0.50400001928E-02 0.  1.
       -1    1    3    3    0  502 -0.77140983109E+03  0.69260165668E+01  0.68710734163E+03  0.10330719221E+04  0.50400001928E-02 0. -1.
</event>
<event>
 5   0  0.3531266E-04  0.1793941E+04  0.7818609E-02  0.8709528E-01
        2   -1    0    0  501    0  0.00000000000E+00  0.00000000000E+00  0.13617206884E+04  0.13617206884E+04  0.25500000920E-02 0. -1.
       -2   -1    0    0    0  501  0.00000000000E+00  0.00000000000E+00 -0.59083749138E+03  0.59083749139E+03  0.25500000920E-02 0.  1.
    10030    2    1    2    0    0  0.00000000000E+00  0.00000000000E+00  0.77088319698E+03  0.19525581798E+04  0.17939405068E+04 0.  0.
        3    1    3    3  502    0 -0.86633257073E+03 -0.17461507077E+03  0.21847279864E+03  0.91035867656E+03  0.10100000352E+00 0. -1.
       -3    1    3    3    0  502  0.86633257073E+03  0.17461507077E+03  0.55241039834E+03  0.10421995032E+04  0.10100000352E+00 0.  1.
</event>
<event>
 5   0  0.3531266E-04  0.1793924E+04  0.7818609E-02  0.8709537E-01
       -2   -1    0    0    0  501  0.00000000000E+00  0.00000000000E+00  0.61550077826E+03  0.61550077826E+03  0.25500000920E-02 0. -1.
        2   -1    0    0  501    0  0.00000000000E+00  0.00000000000E+00 -0.13071315640E+04  0.13071315640E+04  0.25500000920E-02 0.  1.
    10030    2    1    2    0    0  0.00000000000E+00  0.00000000000E+00 -0.69163078574E+03  0.19226323423E+04  0.17939236271E+04 0.  0.
        3    1    3    3  502    0 -0.38147542777E+03 -0.10289035558E+03 -0.12088416921E+04  0.12717736332E+04  0.10100000352E+00 0.  1.
       -3    1    3    3    0  502  0.38147542777E+03  0.10289035558E+03  0.51721090639E+03  0.65085870906E+03  0.10100000352E+00 0. -1.
</event>
<event>
 5   0  0.1825253E-04  0.1411790E+04  0.7818609E-02  0.8945328E-01
        1   -1    0    0  501    0  0.00000000000E+00  0.00000000000E+00  0.26729298147E+04  0.26729298147E+04  0.50400001928E-02 0.  1.
       -1   -1    0    0    0  501  0.00000000000E+00  0.00000000000E+00 -0.18642007648E+03  0.18642007655E+03  0.50400001928E-02 0. -1.
    10030    2    1    2    0    0  0.00000000000E+00  0.00000000000E+00  0.24865097382E+04  0.28593498913E+04  0.14117900419E+04 0.  0.
        4    1    3    3  502    0 -0.13080419537E+03  0.15595223863E+03 -0.12569181960E+03  0.23922977381E+03  0.12699999809E+01 0. -1.
       -4    1    3    3    0  502  0.13080419537E+03 -0.15595223863E+03  0.26122015578E+04  0.26201201174E+04  0.12699999809E+01 0.  1.
</event>
<event>
 5   0  0.3568870E-04  0.1980845E+04  0.7818609E-02  0.8615629E-01
        2   -1    0    0  501    0  0.00000000000E+00  0.00000000000E+00  0.99763603367E+03  0.99763603367E+03  0.25500000920E-02 0.  1.
       -2   -1    0    0    0  501  0.00000000000E+00  0.00000000000E+00 -0.98326080829E+03  0.98326080830E+03  0.25500000920E-02 0. -1.
    10030    2    1    2    0    0  0.00000000000E+00  0.00000000000E+00  0.14375225373E+02  0.19808968420E+04  0.19808446813E+04 0.  0.
        1    1    3    3  502    0 -0.51572524221E+03  0.83654135312E+03  0.13032676340E+03  0.99134203291E+03  0.50400001928E-02 0. -1.
       -1    1    3    3    0  502  0.51572524221E+03 -0.83654135312E+03 -0.11595153802E+03  0.98955480906E+03  0.50400001928E-02 0.  1.
</event>
<event>
 5   0  0.1835421E-04  0.1917967E+04  0.7818609E-02  0.8645964E-01
        1   -1    0    0  501    0  0.00000000000E+00  0.00000000000E+00  0.15278329869E+04  0.15278329869E+04  0.50400001928E-02 0.  1.
       -1   -1    0    0    0  501  0.00000000000E+00  0.00000000000E+00 -0.60193062635E+03  0.60193062637E+03  0.50400001928E-02 0. -1.
    10030    2    1    2    0    0  0.00000000000E+00  0.00000000000E+00  0.92590236056E+03  0.21297636133E+04  0.19179671184E+04 0.  0.
        2    1    3    3  502    0 -0.59162722991E+03  0.65712365150E+03  0.50721937704E+02  0.88566753779E+03  0.25500000920E-02 0.  1.
       -2    1    3    3    0  502  0.59162722991E+03 -0.65712365150E+03  0.87518042286E+03  0.12440960755E+04  0.25500000920E-02 0. -1.
</event>
<event>
 5   0  0.1837313E-04  0.1790697E+04  0.7818609E-02  0.8711262E-01
       -1   -1    0    0    0  501  0.00000000000E+00  0.00000000000E+00  0.95534503616E+03  0.95534503617E+03  0.50400001928E-02 0.  1.
        1   -1    0    0  501    0  0.00000000000E+00  0.00000000000E+00 -0.83912003903E+03  0.83912003905E+03  0.50400001928E-02 0. -1.
    10030    2    1    2    0    0  0.00000000000E+00  0.00000000000E+00  0.11622499713E+03  0.17944650752E+04  0.17906972542E+04 0.  0.
        1    1    3    3  502    0  0.52058628233E+03  0.71174662787E+03  0.21353824616E+03  0.90729924624E+03  0.50400001928E-02 0.  1.
       -1    1    3    3    0  502 -0.52058628233E+03 -0.71174662787E+03 -0.97313249030E+02  0.88716582897E+03  0.50400001928E-02 0. -1.
</event>
<event>
 5   0  0.1883959E-04  0.1790448E+04  0.7818609E-02  0.8711396E-01
        1   -1    0    0  501    0  0.00000000000E+00  0.00000000000E+00  0.16670294727E+04  0.16670294727E+04  0.50400001928E-02 0. -1.
       -1   -1    0    0    0  501  0.00000000000E+00  0.00000000000E+00 -0.48075103773E+03  0.48075103776E+03  0.50400001928E-02 0.  1.
    10030    2    1    2    0    0  0.00000000000E+00  0.00000000000E+00  0.11862784349E+04  0.21477805104E+04  0.17904481550E+04 0.  0.
        5    1    3    3  502    0 -0.50686139913E+03 -0.85719435099E+01  0.14782467191E+04  0.15627595492E+04  0.46999998093E+01 0. -1.
       -5    1    3    3    0  502  0.50686139913E+03  0.85719435099E+01 -0.29196828414E+03  0.58502096124E+03  0.46999998093E+01 0.  1.
</event>
<event>
 5   0  0.3628581E-04  0.1812663E+04  0.7818609E-02  0.8699594E-01
       -2   -1    0    0    0  501  0.00000000000E+00  0.00000000000E+00  0.47608992833E+03  0.47608992834E+03  0.25500000920E-02 0. -1.
        2   -1    0    0  501    0  0.00000000000E+00  0.00000000000E+00 -0.17253812391E+04  0.17253812391E+04  0.25500000920E-02 0.  1.
    10030    2    1    2    0    0  0.00000000000E+00  0.00000000000E+00 -0.12492913108E+04  0.22014711675E+04  0.18126628263E+04 0.  0.
        2    1    3    3  502    0  0.23079574783E+03 -0.63612883801E+03  0.10759558909E+03  0.68520317174E+03  0.25500000920E-02 0. -1.
       -2    1    3    3    0  502 -0.23079574783E+03  0.63612883801E+03 -0.13568868999E+04  0.15162679957E+04  0.25500000920E-02 0.  1.
</event>
<event>
 5   0  0.3568870E-04  0.1873082E+04  0.7818609E-02  0.8668372E-01
        2   -1    0    0  501    0  0.00000000000E+00  0.00000000000E+00  0.13997578028E+04  0.13997578028E+04  0.25500000920E-02 0.  1.
       -2   -1    0    0    0  501  0.00000000000E+00  0.00000000000E+00 -0.62661493488E+03  0.62661493489E+03  0.25500000920E-02 0. -1.
    10030    2    1    2    0    0  0.00000000000E+00  0.00000000000E+00  0.77314286795E+03  0.20263727377E+04  0.18730821066E+04 0.  0.
        1    1    3    3  502    0 -0.89581664739E+03  0.25015182860E+03  0.50530657869E+03  0.10584886119E+04  0.50400001928E-02 0. -1.
       -1    1    3    3    0  502  0.89581664739E+03 -0.25015182860E+03  0.26783628927E+03  0.96788412579E+03  0.50400001928E-02 0.  1.
</event>
<event>
 5   0  0.3531266E-04  0.1796814E+04  0.7818609E-02  0.8707995E-01
       -2   -1    0    0    0  501  0.00000000000E+00  0.00000000000E+00  0.47271340900E+03  0.47271340900E+03  0.25500000920E-02 0.  1.
        2   -1    0    0  501    0  0.00000000000E+00  0.00000000000E+00 -0.17074520142E+04  0.17074520142E+04  0.25500000920E-02 0. -1.
    10030    2    1    2    0    0  0.00000000000E+00  0.00000000000E+00 -0.12347386052E+04  0.21801654232E+04  0.17968143614E+04 0.  0.
        3    1    3    3  502    0  0.58227246407E+03  0.12771690730E+03 -0.14329200648E+04  0.15519706031E+04  0.10100000352E+00 0. -1.
       -3    1    3    3    0  502 -0.58227246407E+03 -0.12771690730E+03  0.19818145956E+03  0.62819482006E+03  0.10100000352E+00 0.  1.
</event>
<event>
 5   0  0.1330125E-04  0.1803117E+04  0.7818609E-02  0.8704644E-01
       -3   -1    0    0    0  501  0.00000000000E+00  0.00000000000E+00  0.94669541423E+03  0.94669541962E+03  0.10100000352E+00 0. -1.
        3   -1    0    0  501    0  0.00000000000E+00  0.00000000000E+00 -0.85857353772E+03  0.85857354366E+03  0.10100000352E+00 0.  1.
    10030    2    1    2    0    0  0.00000000000E+00  0.00000000000E+00  0.88121876508E+02  0.18052689633E+04  0.18031169027E+04 0.  0.
        2    1    3    3  502    0 -0.67961964954E+03 -0.14507404722E+03 -0.53097488514E+03  0.87456484944E+03  0.25500000920E-02 0.  1.
       -2    1    3    3    0  502  0.67961964954E+03  0.14507404722E+03  0.61909676165E+03  0.93070411384E+03  0.25500000920E-02 0. -1.
</event>
<event>
 5   0  0.3575091E-04  0.1789031E+04  0.7818609E-02  0.8712154E-01
       -2   -1    0    0    0  501  0.00000000000E+00  0.00000000000E+00  0.12890804009E+04  0.12890804009E+04  0.25500000920E-02 0. -1.
        2   -1    0    0  501    0  0.00000000000E+00  0.00000000000E+00 -0.62072013187E+03  0.62072013188E+03  0.25500000920E-02 0.  1.
    10030    2    1    2    0    0  0.00000000000E+00  0.00000000000E+00  0.66836026907E+03  0.19098005328E+04  0.17890311976E+04 0.  0.
        5    1    3    3  502    0  0.75844237209E+03  0.22375947838E+03  0.78053648171E+03  0.11111086469E+04  0.46999998093E+01 0. -1.
       -5    1    3    3    0  502 -0.75844237209E+03 -0.22375947838E+03 -0.11217621265E+03  0.79869188591E+03  0.46999998093E+01 0.  1.
</event>
<event>
 5   0  0.3582186E-04  0.1902988E+04  0.7818609E-02  0.8653370E-01
        2   -1    0    0  501    0  0.00000000000E+00  0.00000000000E+00  0.13684491981E+04  0.13684491981E+04  0.25500000920E-02 0. -1.
       -2   -1    0    0    0  501  0.00000000000E+00  0.00000000000E+00 -0.66158179966E+03  0.66158179967E+03  0.25500000920E-02 0.  1.
    10030    2    1    2    0    0  0.00000000000E+00  0.00000000000E+00  0.70686739846E+03  0.20300309978E+04  0.19029882640E+04 0.  0.
        4    1    3    3  502    0  0.14768410938E+02  0.86680245687E+03  0.77175428500E+03  0.11606769122E+04  0.12699999809E+01 0. -1.
       -4    1    3    3    0  502 -0.14768410938E+02 -0.86680245687E+03 -0.64886886539E+02  0.86935408560E+03  0.12699999809E+01 0.  1.
</event>
<event>
 5   0  0.3568870E-04  0.1881770E+04  0.7818609E-02  0.8663984E-01
        2   -1    0    0  501    0  0.00000000000E+00  0.00000000000E+00  0.82037770252E+03  0.82037770252E+03  0.25500000920E-02 0.  1.
       -2   -1    0    0    0  501  0.00000000000E+00  0.00000000000E+00 -0.10790943853E+04  0.10790943853E+04  0.25500000920E-02 0. -1.
    10030    2    1    2    0    0  0.00000000000E+00  0.00000000000E+00 -0.25871668278E+03  0.18994720878E+04  0.18817704139E+04 0.  0.
        1    1    3    3  502    0 -0.68253964359E+03  0.11062266392E+03 -0.77345743911E+03  0.10374652519E+04  0.50400001928E-02 0. -1.
       -1    1    3    3    0  502  0.68253964359E+03 -0.11062266392E+03  0.51474075633E+03  0.86200683588E+03  0.50400001928E-02 0.  1.
</event>
<event>
 5   0  0.1825253E-04  0.1661920E+04  0.7818609E-02  0.8783386E-01
       -1   -1    0    0    0  501  0.00000000000E+00  0.00000000000E+00  0.43411502842E+03  0.43411502845E+03  0.50400001928E-02 0.  1.
        1   -1    0    0  501    0  0.00000000000E+00  0.00000000000E+00 -0.15905805752E+04  0.15905805752E+04  0.50400001928E-02 0. -1.
    10030    2    1    2    0    0  0.00000000000E+00  0.00000000000E+00 -0.11564655468E+04  0.20246956037E+04  0.16619204935E+04 0.  0.
        4    1    3    3  502    0 -0.16254915743E+00  0.75426867935E+03 -0.10030150319E+04  0.12549749137E+04  0.12699999809E+01 0. -1.
       -4    1    3    3    0  502  0.16254915743E+00 -0.75426867935E+03 -0.15345051493E+03  0.76972068993E+03  0.12699999809E+01 0.  1.
</event>
<event>
 5   0  0.1883959E-04  0.1783098E+04  0.7818609E-02  0.8715340E-01
        1   -1    0    0  501    0  0.00000000000E+00  0.00000000000E+00  0.87976429089E+03  0.87976429091E+03  0.50400001928E-02 0.  1.
       -1   -1    0    0    0  501  0.00000000000E+00  0.00000000000E+00 -0.90349141944E+03  0.90349141945E+03  0.50400001928E-02 0. -1.
    10030    2    1    2    0    0  0.00000000000E+00  0.00000000000E+00 -0.23727128547E+02  0.17832557104E+04  0.17830978526E+04 0.  0.
        5    1    3    3  502    0 -0.78434576249E+03 -0.42110843389E+03 -0.59897075468E+02  0.89226696559E+03  0.46999998093E+01 0. -1.
       -5    1    3    3    0  502  0.78434576249E+03  0.42110843389E+03  0.36169946921E+02  0.89098874476E+03  0.46999998093E+01 0.  1.
</event>
<event>
 5   0  0.3575091E-04  0.1811575E+04  0.7818609E-02  0.8700168E-01
       -2   -1    0    0    0  501  0.00000000000E+00  0.00000000000E+00  0.12886207359E+04  0.12886207359E+04  0.25500000920E-02 0.  1.
        2   -1    0    0  501    0  0.00000000000E+00  0.00000000000E+00 -0.63668896215E+03  0.63668896215E+03  0.25500000920E-02 0. -1.
    10030    2    1    2    0    0  0.00000000000E+00  0.00000000000E+00  0.65193177377E+03  0.19253096981E+04  0.18115745626E+04 0.  0.
        5    1    3    3  502    0 -0.67745207244E+03  0.44512346090E+03 -0.10357747859E+03  0.81720657729E+03  0.46999998093E+01 0. -1.
       -5    1    3    3    0  502  0.67745207244E+03 -0.44512346090E+03  0.75550925236E+03  0.11081031208E+04  0.46999998093E+01 0.  1.
</event>
<event>
 5   0  0.3575091E-04  0.1790267E+04  0.7818609E-02  0.8711493E-01
        2   -1    0    0  501    0  0.00000000000E+00  0.00000000000E+00  0.13017347847E+04  0.13017347847E+04  0.25500000920E-02 0.  1.
       -2   -1    0    0    0  501  0.00000000000E+00  0.00000000000E+00 -0.61553551862E+03  0.61553551862E+03  0.25500000920E-02 0. -1.
    10030    2    1    2    0    0  0.00000000000E+00  0.00000000000E+00  0.68619926604E+03  0.19172703033E+04  0.17902670145E+04 0.  0.
        5    1    3    3  502    0  0.64180193230E+03  0.55822269118E+03  0.64165910157E+03  0.10654908662E+04  0.46999998093E+01 0.  1.
       -5    1    3    3    0  502 -0.64180193230E+03 -0.55822269118E+03  0.44540164470E+02  0.85177943712E+03  0.46999998093E+01 0. -1.
</event>
<event>
 5   0  0.3575091E-04  0.1816055E+04  0.7818609E-02  0.8697808E-01
       -2   -1    0    0    0  501  0.00000000000E+00  0.00000000000E+00  0.84689820735E+03  0.84689820736E+03  0.25500000920E-02 0.  1.
        2   -1    0    0  501    0  0.00000000000E+00  0.00000000000E+00 -0.97356911285E+03  0.97356911285E+03  0.25500000920E-02 0. -1.
    10030    2    1    2    0    0  0.00000000000E+00  0.00000000000E+00 -0.12667090549E+03  0.18204673202E+04  0.18160549952E+04 0.  0.
        5    1    3    3  502    0 -0.34989191007E+03 -0.47998786089E+03  0.62512219909E+03  0.86232972182E+03  0.46999998093E+01 0.  1.
       -5    1    3    3    0  502  0.34989191007E+03  0.47998786089E+03 -0.75179310459E+03  0.95813759839E+03  0.46999998093E+01 0. -1.
</event>
<event>
 5   0  0.3582186E-04  0.1814509E+04  0.7818609E-02  0.8698621E-01
       -2   -1    0    0    0  501  0.00000000000E+00  0.00000000000E+00  0.44155369170E+03  0.44155369171E+03  0.25500000920E-02 0. -1.
        2   -1    0    0  501    0  0.00000000000E+00  0.00000000000E+00 -0.18641245298E+04  0.18641245298E+04  0.25500000920E-02 0.  1.
    10030    2    1    2    0    0  0.00000000000E+00  0.00000000000E+00 -0.14225708381E+04  0.23056782215E+04  0.18145093749E+04 0.  0.
        4    1    3    3  502    0  0.19203644712E+03  0.69064893927E+03 -0.14179025367E+04  0.15888118739E+04  0.12699999809E+01 0.  1.
       -4    1    3    3    0  502 -0.19203644712E+03 -0.69064893927E+03 -0.46683014200E+01  0.71686634757E+03  0.12699999809E+01 0. -1.
</event>
<event>
 5   0  0.3582186E-04  0.1781497E+04  0.7818609E-02  0.8716201E-01
       -2   -1    0    0    0  501  0.00000000000E+00  0.00000000000E+00  0.77429829001E+03  0.77429829001E+03  0.25500000920E-02 0. -1.
        2   -1    0    0  501    0  0.00000000000E+00  0.00000000000E+00 -0.10247126018E+04  0.10247126018E+04  0.25500000920E-02 0.  1.
    10030    2    1    2    0    0  0.00000000000E+00  0.00000000000E+00 -0.25041431182E+03  0.17990108918E+04  0.17814973650E+04 0.  0.
        4    1    3    3  502    0  0.45119185914E+03 -0.36625516178E+03 -0.80691000760E+03  0.99439544978E+03  0.12699999809E+01 0.  1.
       -4    1    3    3    0  502 -0.45119185914E+03  0.36625516178E+03  0.55649569578E+03  0.80461544206E+03  0.12699999809E+01 0. -1.
</event>
<event>
 5   0  0.1883959E-04  0.1857750E+04  0.7818609E-02  0.8676178E-01
        1   -1    0    0  501    0  0.00000000000E+00  0.00000000000E+00  0.12386523356E+04  0.12386523356E+04  0.50400001928E-02 0.  1.
       -1   -1    0    0    0  501  0.00000000000E+00  0.00000000000E+00 -0.69657028682E+03  0.69657028683E+03  0.50400001928E-02 0. -1.
    10030    2    1    2    0    0  0.00000000000E+00  0.00000000000E+00  0.54208204879E+03  0.19352226224E+04  0.18577496201E+04 0.  0.
        5    1    3    3  502    0 -0.39829224016E+02 -0.87764904179E+03 -0.43083900294E+02  0.87962066830E+03  0.46999998093E+01 0. -1.
       -5    1    3    3    0  502  0.39829224016E+02  0.87764904179E+03  0.58516594908E+03  0.10556019541E+04  0.46999998093E+01 0.  1.
</event>
<event>
 5   0  0.3531266E-04  0.1807399E+04  0.7818609E-02  0.8702375E-01
        2   -1    0    0  501    0  0.00000000000E+00  0.00000000000E+00  0.13281339486E+04  0.13281339486E+04  0.25500000920E-02 0. -1.
       -2   -1    0    0    0  501  0.00000000000E+00  0.00000000000E+00 -0.61490258542E+03  0.61490258543E+03  0.25500000920E-02 0.  1.
    10030    2    1    2    0    0  0.00000000000E+00  0.00000000000E+00  0.71323136315E+03  0.19430365340E+04  0.18073992351E+04 0.  0.
        3    1    3    3  502    0 -0.74241559118E+03  0.48319222127E+03  0.16425353983E+03  0.90090780231E+03  0.10100000352E+00 0. -1.
       -3    1    3    3    0  502  0.74241559118E+03 -0.48319222127E+03  0.54897782332E+03  0.10421287317E+04  0.10100000352E+00 0.  1.
</event>
<event>
 5   0  0.3628581E-04  0.1804867E+04  0.7818609E-02  0.8703716E-01
       -2   -1    0    0    0  501  0.00000000000E+00  0.00000000000E+00  0.44285543192E+03  0.44285543192E+03  0.25500000920E-02 0.  1.
        2   -1    0    0  501    0  0.00000000000E+00  0.00000000000E+00 -0.18389434618E+04  0.18389434618E+04  0.25500000920E-02 0. -1.
    10030    2    1    2    0    0  0.00000000000E+00  0.00000000000E+00 -0.13960880299E+04  0.22817988937E+04  0.18048668660E+04 0.  0.
        2    1    3    3  502    0 -0.53990141799E+03  0.39007197516E+03 -0.14678208107E+04  0.16118770484E+04  0.25500000920E-02 0. -1.
       -2    1    3    3    0  502  0.53990141799E+03 -0.39007197516E+03  0.71732780807E+02  0.66992184529E+03  0.25500000920E-02 0.  1.
</event>
<event>
 5   0  0.1837313E-04  0.1707661E+04  0.7818609E-02  0.8757007E-01
       -1   -1    0    0    0  501  0.00000000000E+00  0.00000000000E+00  0.45470921121E+03  0.45470921124E+03  0.50400001928E-02 0.  1.
        1   -1    0    0  501    0  0.00000000000E+00  0.00000000000E+00 -0.16032799957E+04  0.16032799957E+04  0.50400001928E-02 0. -1.
    10030    2    1    2    0    0  0.00000000000E+00  0.00000000000E+00 -0.11485707845E+04  0.20579892069E+04  0.17076606012E+04 0.  0.
        1    1    3    3  502    0  0.13316818769E+03 -0.12820135333E+03 -0.15788761984E+04  0.15896601533E+04  0.50400001928E-02 0. -1.
       -1    1    3    3    0  502 -0.13316818769E+03  0.12820135333E+03  0.43030541390E+03  0.46832905362E+03  0.50400001928E-02 0.  1.
</event>
<event>
 5   0  0.3575091E-04  0.1777973E+04  0.7818609E-02  0.8718102E-01
        2   -1    0    0  501    0  0.00000000000E+00  0.00000000000E+00  0.21469525551E+04  0.21469525551E+04  0.25500000920E-02 0.  1.
       -2   -1    0    0    0  501  0.00000000000E+00  0.00000000000E+00 -0.36810173195E+03  0.36810173196E+03  0.25500000920E-02 0. -1.
    10030    2    1    2    0    0  0.00000000000E+00  0.00000000000E+00  0.17788508231E+04  0.25150542870E+04  0.17779729514E+04 0.  0.
        5    1    3    3  502    0 -0.66112792871E+01 -0.55370187184E+03 -0.94326844112E+02  0.56173758590E+03  0.46999998093E+01 0. -1.
       -5    1    3    3    0  502  0.66112792871E+01  0.55370187184E+03  0.18731776672E+04  0.19533167011E+04  0.46999998093E+01 0.  1.
</event>
<event>
 5   0  0.3628581E-04  0.1836243E+04  0.7818609E-02  0.8687260E-01
       -2   -1    0    0    0  501  0.00000000000E+00  0.00000000000E+00  0.97088103163E+03  0.97088103163E+03  0.25500000920E-02 0.  1.
        2   -1    0    0  501    0  0.00000000000E+00  0.00000000000E+00 -0.86822939251E+03  0.86822939251E+03  0.25500000920E-02 0. -1.
    10030    2    1    2    0    0  0.00000000000E+00  0.00000000000E+00  0.10265163912E+03  0.18391104241E+04  0.18362433916E+04 0.  0.
        2    1    3    3  502    0  0.34794066646E+03  0.49426410067E+03 -0.64083043047E+03  0.88092187464E+03  0.25500000920E-02 0. -1.
       -2    1    3    3    0  502 -0.34794066646E+03 -0.49426410067E+03  0.74348206959E+03  0.95818854950E+03  0.25500000920E-02 0.  1.
</event>
<event>
 5   0  0.1837313E-04  0.1855372E+04  0.7818609E-02  0.8677395E-01
       -1   -1    0    0    0  501  0.00000000000E+00  0.00000000000E+00  0.13188000157E+04  0.13188000157E+04  0.50400001928E-02 0. -1.
        1   -1    0    0  501    0  0.00000000000E+00  0.00000000000E+00 -0.65256396662E+03  0.65256396664E+03  0.50400001928E-02 0.  1.
    10030    2    1    2    0    0  0.00000000000E+00  0.00000000000E+00  0.66623604909E+03  0.19713639824E+04  0.18553720591E+04 0.  0.
        1    1    3    3  502    0  0.43082681912E+02 -0.88586920800E+03  0.44119317967E+02  0.88801288584E+03  0.50400001928E-02 0. -1.
       -1    1    3    3    0  502 -0.43082681912E+02  0.88586920800E+03  0.62211673112E+03  0.10833510965E+04  0.50400001928E-02 0.  1.
</event>
<event>
 5   0  0.3575091E-04  0.1799870E+04  0.7818609E-02  0.8706369E-01
        2   -1    0    0  501    0  0.00000000000E+00  0.00000000000E+00  0.13350634354E+04  0.13350634354E+04  0.25500000920E-02 0. -1.
       -2   -1    0    0    0  501  0.00000000000E+00  0.00000000000E+00 -0.60662485788E+03  0.60662485788E+03  0.25500000920E-02 0.  1.
    10030    2    1    2    0    0  0.00000000000E+00  0.00000000000E+00  0.72843857752E+03  0.19416882933E+04  0.17998696250E+04 0.  0.
        5    1    3    3  502    0  0.30286247176E+03 -0.84195779487E+03  0.46792932354E+03  0.10097517254E+04  0.46999998093E+01 0. -1.
       -5    1    3    3    0  502 -0.30286247176E+03  0.84195779487E+03  0.26050925398E+03  0.93193656788E+03  0.46999998093E+01 0.  1.
</event>
<event>
 5   0  0.3575091E-04  0.1817022E+04  0.7818609E-02  0.8697299E-01
       -2   -1    0    0    0  501  0.00000000000E+00  0.00000000000E+00  0.63685146947E+03  0.63685146947E+03  0.25500000920E-02 0.  1.
        2   -1    0    0  501    0  0.00000000000E+00  0.00000000000E+00 -0.12960514449E+04  0.12960514449E+04  0.25500000920E-02 0. -1.
    10030    2    1    2    0    0  0.00000000000E+00  0.00000000000E+00 -0.65919997540E+03  0.19329029143E+04  0.18170220331E+04 0.  0.
        5    1    3    3  502    0 -0.25374663679E+03 -0.71093587552E+03  0.20816229813E+03  0.78305223781E+03  0.46999998093E+01 0.  1.
       -5    1    3    3    0  502  0.25374663679E+03  0.71093587552E+03 -0.86736227353E+03  0.11498506765E+04  0.46999998093E+01 0. -1.
</event>
<event>
 5   0  0.3531266E-04  0.1796932E+04  0.7818609E-02  0.8707933E-01
       -2   -1    0    0    0  501  0.00000000000E+00  0.00000000000E+00  0.47439250614E+03  0.47439250615E+03  0.25500000920E-02 0. -1.
        2   -1    0    0  501    0  0.00000000000E+00  0.00000000000E+00 -0.17016308521E+04  0.17016308521E+04  0.25500000920E-02 0.  1.
    10030    2    1    2    0    0  0.00000000000E+00  0.00000000000E+00 -0.12272383459E+04  0.21760233582E+04  0.17969317454E+04 0.  0.
        3    1    3    3  502    0  0.21541863249E+02 -0.13973916843E+02 -0.17011864321E+04  0.17013802072E+04  0.10100000352E+00 0.  1.
       -3    1    3    3    0  502 -0.21541863249E+02  0.13973916843E+02  0.47394808621E+03  0.47464315106E+03  0.10100000352E+00 0. -1.
</event>
<event>
 5   0  0.1330125E-04  0.1786302E+04  0.7818609E-02  0.8713618E-01
        4   -1    0    0  501    0  0.00000000000E+00  0.00000000000E+00  0.59608510353E+03  0.59608645644E+03  0.12699999809E+01 0.  1.
       -4   -1    0    0    0  501  0.00000000000E+00  0.00000000000E+00 -0.13382595152E+04  0.13382601178E+04  0.12699999809E+01 0. -1.
    10030    2    1    2    0    0  0.00000000000E+00  0.00000000000E+00 -0.74217441163E+03  0.19343465742E+04  0.17863017136E+04 0.  0.
        5    1    3    3  502    0 -0.58782061452E+03 -0.42873652064E+03 -0.93204331876E+03  0.11824021807E+04  0.46999998093E+01 0. -1.
       -5    1    3    3    0  502  0.58782061452E+03  0.42873652064E+03  0.18986890713E+03  0.75194439347E+03  0.46999998093E+01 0.  1.
</event>
<event>
 5   0  0.1883959E-04  0.1781004E+04  0.7818609E-02  0.8716467E-01
       -1   -1    0    0    0  501  0.00000000000E+00  0.00000000000E+00  0.98676305143E+03  0.98676305144E+03  0.50400001928E-02 0.  1.
        1   -1    0    0  501    0  0.00000000000E+00  0.00000000000E+00 -0.80363113654E+03  0.80363113656E+03  0.50400001928E-02 0. -1.
    10030    2    1    2    0    0  0.00000000000E+00  0.00000000000E+00  0.18313191489E+03  0.17903941880E+04  0.17810036637E+04 0.  0.
        5    1    3    3  502    0  0.30982491471E+03  0.11539581798E+03 -0.73963325476E+03  0.81017721156E+03  0.46999998093E+01 0. -1.
       -5    1    3    3    0  502 -0.30982491471E+03 -0.11539581798E+03  0.92276516965E+03  0.98021697644E+03  0.46999998093E+01 0.  1.
</event>
<event>
 5   0  0.3628581E-04  0.1795989E+04  0.7818609E-02  0.8708435E-01
       -2   -1    0    0    0  501  0.00000000000E+00  0.00000000000E+00  0.54961888335E+03  0.54961888336E+03  0.25500000920E-02 0.  1.
        2   -1    0    0  501    0  0.00000000000E+00  0.00000000000E+00 -0.14671875890E+04  0.14671875890E+04  0.25500000920E-02 0. -1.
    10030    2    1    2    0    0  0.00000000000E+00  0.00000000000E+00 -0.91756870560E+03  0.20168064723E+04  0.17959888689E+04 0.  0.
        2    1    3    3  502    0 -0.30863266911E+03  0.62350179583E+03 -0.10963842848E+04  0.12984864704E+04  0.25500000920E-02 0. -1.
       -2    1    3    3    0  502  0.30863266911E+03 -0.62350179583E+03  0.17881557916E+03  0.71832000195E+03  0.25500000920E-02 0.  1.
</event>
<event>
 5   0  0.3568870E-04  0.1804167E+04  0.7818609E-02  0.8704087E-01
        2   -1    0    0  501    0  0.00000000000E+00  0.00000000000E+00  0.18193329781E+04  0.18193329781E+04  0.25500000920E-02 0.  1.
       -2   -1    0    0    0  501  0.00000000000E+00  0.00000000000E+00 -0.44728169079E+03  0.44728169080E+03  0.25500000920E-02 0. -1.
    10030    2    1    2    0    0  0.00000000000E+00  0.00000000000E+00  0.13720512873E+04  0.22666146689E+04  0.18041666559E+04 0.  0.
        1    1    3    3  502    0  0.42401405390E+03 -0.29271842136E+03 -0.24423183728E+03  0.57019398671E+03  0.50400001928E-02 0. -1.
       -1    1    3    3    0  502 -0.42401405390E+03  0.29271842136E+03  0.16162831246E+04  0.16964206822E+04  0.50400001928E-02 0.  1.
</event>
<event>
 5   0  0.1835421E-04  0.1806417E+04  0.7818609E-02  0.8702894E-01
        1   -1    0    0  501    0  0.00000000000E+00  0.00000000000E+00  0.12537480479E+04  0.12537480479E+04  0.50400001928E-02 0.  1.
       -1   -1    0    0    0  501  0.00000000000E+00  0.00000000000E+00 -0.65067765915E+03  0.65067765917E+03  0.50400001928E-02 0. -1.
    10030    2    1    2    0    0  0.00000000000E+00  0.00000000000E+00  0.60307038871E+03  0.19044257070E+04  0.18064172773E+04 0.  0.
        2    1    3    3  502    0 -0.66326987686E+03  0.59360004591E+03  0.46314231437E+03  0.10033886323E+04  0.25500000920E-02 0. -1.
       -2    1    3    3    0  502  0.66326987686E+03 -0.59360004591E+03  0.13992807434E+03  0.90103707474E+03  0.25500000920E-02 0.  1.
</event>
<event>
 5   0  0.1818778E-04  0.1815064E+04  0.7818609E-02  0.8698329E-01
       -1   -1    0    0    0  501  0.00000000000E+00  0.00000000000E+00  0.94865625021E+03  0.94865625022E+03  0.50400001928E-02 0.  1.
        1   -1    0    0  501    0  0.00000000000E+00  0.00000000000E+00 -0.86819047408E+03  0.86819047409E+03  0.50400001928E-02 0. -1.
    10030    2    1    2    0    0  0.00000000000E+00  0.00000000000E+00  0.80465776128E+02  0.18168467243E+04  0.18150639874E+04 0.  0.
        3    1    3    3  502    0  0.82329620571E+03 -0.19593877295E+03 -0.28781703710E+03  0.89389445805E+03  0.10100000352E+00 0.  1.
       -3    1    3    3    0  502 -0.82329620571E+03  0.19593877295E+03  0.36828281322E+03  0.92295226626E+03  0.10100000352E+00 0. -1.
</event>
<event>
 5   0  0.3628581E-04  0.1835443E+04  0.7818609E-02  0.8687675E-01
       -2   -1    0    0    0  501  0.00000000000E+00  0.00000000000E+00  0.56415048746E+03  0.56415048746E+03  0.25500000920E-02 0.  1.
        2   -1    0    0  501    0  0.00000000000E+00  0.00000000000E+00 -0.14928863497E+04  0.14928863497E+04  0.25500000920E-02 0. -1.
    10030    2    1    2    0    0  0.00000000000E+00  0.00000000000E+00 -0.92873586220E+03  0.20570368371E+04  0.18354427933E+04 0.  0.
        2    1    3    3  502    0  0.59070772873E+01  0.16892734446E+03 -0.14752900229E+04  0.14849417473E+04  0.25500000920E-02 0. -1.
       -2    1    3    3    0  502 -0.59070772873E+01 -0.16892734446E+03  0.54655416066E+03  0.57209508983E+03  0.25500000920E-02 0.  1.
</event>
<event>
 5   0  0.1837313E-04  0.1772189E+04  0.7818609E-02  0.8721230E-01
       -1   -1    0    0    0  501  0.00000000000E+00  0.00000000000E+00  0.54516084545E+03  0.54516084547E+03  0.50400001928E-02 0. -1.
        1   -1    0    0  501    0  0.00000000000E+00  0.00000000000E+00 -0.14402419102E+04  0.14402419103E+04  0.50400001928E-02 0.  1.
    10030    2    1    2    0    0  0.00000000000E+00  0.00000000000E+00 -0.89508106479E+03  0.19854027557E+04  0.17721890390E+04 0.  0.
        1    1    3    3  502    0 -0.32948379713E+03 -0.45350122080E+03  0.32127407392E+03  0.64609593749E+03  0.50400001928E-02 0. -1.
       -1    1    3    3    0  502  0.32948379713E+03  0.45350122080E+03 -0.12163551387E+04  0.13393068182E+04  0.50400001928E-02 0.  1.
</event>
<event>
 5   0  0.1837313E-04  0.1814568E+04  0.7818609E-02  0.8698590E-01
        1   -1    0    0  501    0  0.00000000000E+00  0.00000000000E+00  0.58606255211E+03  0.58606255213E+03  0.50400001928E-02 0. -1.
       -1   -1    0    0    0  501  0.00000000000E+00  0.00000000000E+00 -0.14045674159E+04  0.14045674159E+04  0.50400001928E-02 0.  1.
    10030    2    1    2    0    0  0.00000000000E+00  0.00000000000E+00 -0.81850486375E+03  0.19906299680E+04  0.18145681187E+04 0.  0.
        1    1    3    3  502    0  0.78949999809E+02 -0.32469247732E+03  0.51609870413E+03  0.61483020398E+03  0.50400001928E-02 0. -1.
       -1    1    3    3    0  502 -0.78949999809E+02  0.32469247732E+03 -0.13346035679E+04  0.13757997640E+04  0.50400001928E-02 0.  1.
</event>
<event>
 5   0  0.1835421E-04  0.1838297E+04  0.7818609E-02  0.8686195E-01
        1   -1    0    0  501    0  0.00000000000E+00  0.00000000000E+00  0.13045627626E+04  0.13045627626E+04  0.50400001928E-02 0. -1.
       -1   -1    0    0    0  501  0.00000000000E+00  0.00000000000E+00 -0.64759930504E+03  0.64759930506E+03  0.50400001928E-02 0.  1.
    10030    2    1    2    0    0  0.00000000000E+00  0.00000000000E+00  0.65696345753E+03  0.19521620676E+04  0.18382969711E+04 0.  0.
        2    1    3    3  502    0  0.79792230186E+03  0.10971303411E+03 -0.14179967550E+03  0.81781666505E+03  0.25500000920E-02 0.  1.
       -2    1    3    3    0  502 -0.79792230186E+03 -0.10971303411E+03  0.79876313304E+03  0.11343454026E+04  0.25500000920E-02 0. -1.
</event>
<event>
 5   0  0.3582186E-04  0.2102657E+04  0.7818609E-02  0.8560074E-01
       -2   -1    0    0    0  501  0.00000000000E+00  0.00000000000E+00  0.62017996795E+03  0.62017996796E+03  0.25500000920E-02 0.  1.
        2   -1    0    0  501    0  0.00000000000E+00  0.00000000000E+00 -0.17822107850E+04  0.17822107850E+04  0.25500000920E-02 0. -1.
    10030    2    1    2    0    0  0.00000000000E+00  0.00000000000E+00 -0.11620308171E+04  0.24023907530E+04  0.21026568218E+04 0.  0.
        4    1    3    3  502    0 -0.23701349672E+02 -0.75652040166E+03 -0.14146894720E+04  0.16044415811E+04  0.12699999809E+01 0. -1.
       -4    1    3    3    0  502  0.23701349672E+02  0.75652040166E+03  0.25265865492E+03  0.79794917188E+03  0.12699999809E+01 0.  1.
</event>
<event>
 5   0  0.3575091E-04  0.1797506E+04  0.7818609E-02  0.8707627E-01
        2   -1    0    0  501    0  0.00000000000E+00  0.00000000000E+00  0.17242763791E+04  0.17242763791E+04  0.25500000920E-02 0. -1.
       -2   -1    0    0    0  501  0.00000000000E+00  0.00000000000E+00 -0.46846160705E+03  0.46846160705E+03  0.25500000920E-02 0.  1.
    10030    2    1    2    0    0  0.00000000000E+00  0.00000000000E+00  0.12558147721E+04  0.21927379862E+04  0.17975063656E+04 0.  0.
        5    1    3    3  502    0 -0.65902771296E+03  0.60724337323E+03  0.71129879150E+03  0.11441285337E+04  0.46999998093E+01 0.  1.
       -5    1    3    3    0  502  0.65902771296E+03 -0.60724337323E+03  0.54451598058E+03  0.10486094525E+04  0.46999998093E+01 0. -1.
</event>
<event>
 5   0  0.3582186E-04  0.1788794E+04  0.7818609E-02  0.8712282E-01
        2   -1    0    0  501    0  0.00000000000E+00  0.00000000000E+00  0.11425774412E+04  0.11425774412E+04  0.25500000920E-02 0.  1.
       -2   -1    0    0    0  501  0.00000000000E+00  0.00000000000E+00 -0.70012388131E+03  0.70012388132E+03  0.25500000920E-02 0. -1.
    10030    2    1    2    0    0  0.00000000000E+00  0.00000000000E+00  0.44245355991E+03  0.18427013225E+04  0.17887937308E+04 0.  0.
        4    1    3    3  502    0  0.14859834028E+03  0.86701665518E+03  0.38779313652E+03  0.96134513923E+03  0.12699999809E+01 0. -1.
       -4    1    3    3    0  502 -0.14859834028E+03 -0.86701665518E+03  0.54660423396E+02  0.88135618332E+03  0.12699999809E+01 0.  1.
</event>
<event>
 5   0  0.3568870E-04  0.1800961E+04  0.7818609E-02  0.8705789E-01
        2   -1    0    0  501    0  0.00000000000E+00  0.00000000000E+00  0.21173593398E+04  0.21173593398E+04  0.25500000920E-02 0.  1.
       -2   -1    0    0    0  501  0.00000000000E+00  0.00000000000E+00 -0.38296049116E+03  0.38296049116E+03  0.25500000920E-02 0. -1.
    10030    2    1    2    0    0  0.00000000000E+00  0.00000000000E+00  0.17343988486E+04  0.25003198309E+04  0.18009608244E+04 0.  0.
        1    1    3    3  502    0  0.28165717489E+03  0.71906128788E+03  0.15101681303E+04  0.16961685299E+04  0.50400001928E-02 0.  1.
       -1    1    3    3    0  502 -0.28165717489E+03 -0.71906128788E+03  0.22423071826E+03  0.80415130102E+03  0.50400001928E-02 0. -1.
</event>
<event>
 5   0  0.3575091E-04  0.1813418E+04  0.7818609E-02  0.8699196E-01
       -2   -1    0    0    0  501  0.00000000000E+00  0.00000000000E+00  0.77733482801E+03  0.77733482801E+03  0.25500000920E-02 0.  1.
        2   -1    0    0  501    0  0.00000000000E+00  0.00000000000E+00 -0.10576158447E+04  0.10576158447E+04  0.25500000920E-02 0. -1.
    10030    2    1    2    0    0  0.00000000000E+00  0.00000000000E+00 -0.28028101666E+03  0.18349506727E+04  0.18134184633E+04 0.  0.
        5    1    3    3  502    0  0.51006263407E+03  0.40632101258E+03 -0.77757193471E+03  0.10148403124E+04  0.46999998093E+01 0. -1.
       -5    1    3    3    0  502 -0.51006263407E+03 -0.40632101258E+03  0.49729091805E+03  0.82011036032E+03  0.46999998093E+01 0.  1.
</event>
<event>
 5   0  0.3531266E-04  0.1373551E+04  0.7818609E-02  0.8973190E-01
        2   -1    0    0  501    0  0.00000000000E+00  0.00000000000E+00  0.45919781664E+03  0.45919781665E+03  0.25500000920E-02 0.  1.
       -2   -1    0    0    0  501  0.00000000000E+00  0.00000000000E+00 -0.10271397168E+04  0.10271397168E+04  0.25500000920E-02 0. -1.
    10030    2    1    2    0    0  0.00000000000E+00  0.00000000000E+00 -0.56794190015E+03  0.14863375334E+04  0.13735506039E+04 0.  0.
        3    1    3    3  502    0 -0.40999835959E+03  0.16525020227E+02  0.31196667414E+03  0.51545605743E+03  0.10100000352E+00 0.  1.
       -3    1    3    3    0  502  0.40999835959E+03 -0.16525020227E+02 -0.87990857429E+03  0.97088147602E+03  0.10100000352E+00 0. -1.
</event>
<event>
 5   0  0.3582186E-04  0.1670033E+04  0.7818609E-02  0.8778643E-01
       -2   -1    0    0    0  501  0.00000000000E+00  0.00000000000E+00  0.71918848925E+03  0.71918848926E+03  0.25500000920E-02 0. -1.
        2   -1    0    0  501    0  0.00000000000E+00  0.00000000000E+00 -0.96949919820E+03  0.96949919821E+03  0.25500000920E-02 0.  1.
    10030    2    1    2    0    0  0.00000000000E+00  0.00000000000E+00 -0.25031070895E+03  0.16886876875E+04  0.16700331298E+04 0.  0.
        4    1    3    3  502    0  0.34327405535E+03  0.12011752492E+03 -0.88520681658E+03  0.95700471153E+03  0.12699999809E+01 0.  1.
       -4    1    3    3    0  502 -0.34327405535E+03 -0.12011752492E+03  0.63489610763E+03  0.73168297593E+03  0.12699999809E+01 0. -1.
</event>
<event>
 5   0  0.1818778E-04  0.1773262E+04  0.7818609E-02  0.8720649E-01
       -1   -1    0    0    0  501  0.00000000000E+00  0.00000000000E+00  0.62008036531E+03  0.62008036533E+03  0.50400001928E-02 0. -1.
        1   -1    0    0  501    0  0.00000000000E+00  0.00000000000E+00 -0.12677621473E+04  0.12677621473E+04  0.50400001928E-02 0.  1.
    10030    2    1    2    0    0  0.00000000000E+00  0.00000000000E+00 -0.64768178202E+03  0.18878425127E+04  0.17732618707E+04 0.  0.
        3    1    3    3  502    0  0.78573525013E+03  0.24809581281E+03  0.24701671100E+02  0.82434313146E+03  0.10100000352E+00 0.  1.
       -3    1    3    3    0  502 -0.78573525013E+03 -0.24809581281E+03 -0.67238345312E+03  0.10634993812E+04  0.10100000352E+00 0. -1.
</event>
<event>
 5   0  0.1835421E-04  0.1554230E+04  0.7818609E-02  0.8849170E-01
        1   -1    0    0  501    0  0.00000000000E+00  0.00000000000E+00  0.42047423822E+03  0.42047423825E+03  0.50400001928E-02 0.  1.
       -1   -1    0    0    0  501  0.00000000000E+00  0.00000000000E+00 -0.14362535660E+04  0.14362535660E+04  0.50400001928E-02 0. -1.
    10030    2    1    2    0    0  0.00000000000E+00  0.00000000000E+00 -0.10157793278E+04  0.18567278042E+04  0.15542298724E+04 0.  0.
        2    1    3    3  502    0  0.70341535336E+03  0.16302028855E+03 -0.16467787526E+03  0.74059947099E+03  0.25500000920E-02 0.  1.
       -2    1    3    3    0  502 -0.70341535336E+03 -0.16302028855E+03 -0.85110145250E+03  0.11161283332E+04  0.25500000920E-02 0. -1.
</event>
<event>
 5   0  0.1818778E-04  0.1960687E+04  0.7818609E-02  0.8625225E-01
        1   -1    0    0  501    0  0.00000000000E+00  0.00000000000E+00  0.17268007960E+04  0.17268007960E+04  0.50400001928E-02 0. -1.
       -1   -1    0    0    0  501  0.00000000000E+00  0.00000000000E+00 -0.55656285300E+03  0.55656285302E+03  0.50400001928E-02 0.  1.
    10030    2    1    2    0    0  0.00000000000E+00  0.00000000000E+00  0.11702379430E+04  0.22833636490E+04  0.19606867956E+04 0.  0.
        3    1    3    3  502    0 -0.50585874090E+03  0.69072434163E+03  0.11412926700E+04  0.14267242728E+04  0.10100000352E+00 0. -1.
       -3    1    3    3    0  502  0.50585874090E+03 -0.69072434163E+03  0.28945273031E+02  0.85663937622E+03  0.10100000352E+00 0.  1.
</event>
<event>
 5   0  0.3582186E-04  0.1800652E+04  0.7818609E-02  0.8705953E-01
       -2   -1    0    0    0  501  0.00000000000E+00  0.00000000000E+00  0.66699461294E+03  0.66699461294E+03  0.25500000920E-02 0.  1.
        2   -1    0    0  501    0  0.00000000000E+00  0.00000000000E+00 -0.12152823717E+04  0.12152823717E+04  0.25500000920E-02 0. -1.
    10030    2    1    2    0    0  0.00000000000E+00  0.00000000000E+00 -0.54828775872E+03  0.18822769846E+04  0.18006518765E+04 0.  0.
        4    1    3    3  502    0  0.14217814795E+02  0.73152368679E+03  0.27428747399E+03  0.78138612854E+03  0.12699999809E+01 0.  1.
       -4    1    3    3    0  502 -0.14217814795E+02 -0.73152368679E+03 -0.82257523272E+03  0.11008908561E+04  0.12699999809E+01 0. -1.
</event>
<event>
 5   0  0.1837313E-04  0.1828195E+04  0.7818609E-02  0.8691448E-01
        1   -1    0    0  501    0  0.00000000000E+00  0.00000000000E+00  0.17176907536E+04  0.17176907536E+04  0.50400001928E-02 0. -1.
       -1   -1    0    0    0  501  0.00000000000E+00  0.00000000000E+00 -0.48645188573E+03  0.48645188575E+03  0.50400001928E-02 0.  1.
    10030    2    1    2    0    0  0.00000000000E+00  0.00000000000E+00  0.12312388679E+04  0.22041426394E+04  0.18281946354E+04 0.  0.
        1    1    3    3  502    0  0.74386063670E+03  0.48457764447E+03  0.87818801438E+03  0.12487426993E+04  0.50400001928E-02 0. -1.
       -1    1    3    3    0  502 -0.74386063670E+03 -0.48457764447E+03  0.35305085351E+03  0.95539994010E+03  0.50400001928E-02 0.  1.
</event>
<event>
 5   0  0.1883959E-04  0.1884570E+04  0.7818609E-02  0.8662575E-01
       -1   -1    0    0    0  501  0.00000000000E+00  0.00000000000E+00  0.12863156449E+04  0.12863156449E+04  0.50400001928E-02 0.  1.
        1   -1    0    0  501    0  0.00000000000E+00  0.00000000000E+00 -0.69026648294E+03  0.69026648296E+03  0.50400001928E-02 0. -1.
    10030    2    1    2    0    0  0.00000000000E+00  0.00000000000E+00  0.59604916195E+03  0.19765821279E+04  0.18845695277E+04 0.  0.
        5    1    3    3  502    0  0.24709232579E+03 -0.66962453970E+03 -0.34717439264E+03  0.79372778113E+03  0.46999998093E+01 0. -1.
       -5    1    3    3    0  502 -0.24709232579E+03  0.66962453970E+03  0.94322355459E+03  0.11828543467E+04  0.46999998093E+01 0.  1.
</event>
<event>
 5   0  0.1837313E-04  0.1735142E+04  0.7818609E-02  0.8741572E-01
       -1   -1    0    0    0  501  0.00000000000E+00  0.00000000000E+00  0.68104226588E+03  0.68104226590E+03  0.50400001928E-02 0. -1.
        1   -1    0    0  501    0  0.00000000000E+00  0.00000000000E+00 -0.11051872773E+04  0.11051872773E+04  0.50400001928E-02 0.  1.
    10030    2    1    2    0    0  0.00000000000E+00  0.00000000000E+00 -0.42414501137E+03  0.17862295432E+04  0.17351417781E+04 0.  0.
        1    1    3    3  502    0  0.11908762842E+03 -0.64460382131E+02 -0.10942410284E+04  0.11025880610E+04  0.50400001928E-02 0.  1.
       -1    1    3    3    0  502 -0.11908762842E+03  0.64460382131E+02  0.67009601699E+03  0.68364148215E+03  0.50400001928E-02 0. -1.
</event>
<event>
 5   0  0.1835421E-04  0.1721420E+04  0.7818609E-02  0.8749241E-01
        1   -1    0    0  501    0  0.00000000000E+00  0.00000000000E+00  0.15354501913E+04  0.15354501913E+04  0.50400001928E-02 0. -1.
       -1   -1    0    0    0  501  0.00000000000E+00  0.00000000000E+00 -0.48247831322E+03  0.48247831324E+03  0.50400001928E-02 0.  1.
    10030    2    1    2    0    0  0.00000000000E+00  0.00000000000E+00  0.10529718780E+04  0.20179285045E+04  0.17214196680E+04 0.  0.
        2    1    3    3  502    0 -0.76499129717E+03  0.17851125049E+03  0.93884937941E+03  0.12241389253E+04  0.25500000920E-02 0. -1.
       -2    1    3    3    0  502  0.76499129717E+03 -0.17851125049E+03  0.11412249863E+03  0.79378957917E+03  0.25500000920E-02 0.  1.
</event>
<event>
 5   0  0.3575091E-04  0.1805207E+04  0.7818609E-02  0.8703536E-01
        2   -1    0    0  501    0  0.00000000000E+00  0.00000000000E+00  0.11420246603E+04  0.11420246603E+04  0.25500000920E-02 0.  1.
       -2   -1    0    0    0  501  0.00000000000E+00  0.00000000000E+00 -0.71337573328E+03  0.71337573328E+03  0.25500000920E-02 0. -1.
    10030    2    1    2    0    0  0.00000000000E+00  0.00000000000E+00  0.42864892697E+03  0.18554003935E+04  0.18052065582E+04 0.  0.
        5    1    3    3  502    0  0.40425279439E+02 -0.59561398988E+02 -0.71040814205E+03  0.71406132913E+03  0.46999998093E+01 0. -1.
       -5    1    3    3    0  502 -0.40425279439E+02  0.59561398988E+02  0.11390570690E+04  0.11413390644E+04  0.46999998093E+01 0.  1.
</event>
<event>
 5   0  0.3582186E-04  0.1754457E+04  0.7818609E-02  0.8730901E-01
       -2   -1    0    0    0  501  0.00000000000E+00  0.00000000000E+00  0.39587359140E+03  0.39587359141E+03  0.25500000920E-02 0. -1.
        2   -1    0    0  501    0  0.00000000000E+00  0.00000000000E+00 -0.19438783251E+04  0.19438783251E+04  0.25500000920E-02 0.  1.
    10030    2    1    2    0    0  0.00000000000E+00  0.00000000000E+00 -0.15480047336E+04  0.23397519165E+04  0.17544572879E+04 0.  0.
        4    1    3    3  502    0  0.30455773239E+03  0.27188815660E+03 -0.18094582692E+04  0.18549445875E+04  0.12699999809E+01 0.  1.
       -4    1    3    3    0  502 -0.30455773239E+03 -0.27188815660E+03  0.26145353551E+03  0.48480732894E+03  0.12699999809E+01 0. -1.
</event>
<event>
 5   0  0.1818778E-04  0.1845514E+04  0.7818609E-02  0.8682463E-01
       -1   -1    0    0    0  501  0.00000000000E+00  0.00000000000E+00  0.93573370914E+03  0.93573370915E+03  0.50400001928E-02 0. -1.
        1   -1    0    0  501    0  0.00000000000E+00  0.00000000000E+00 -0.90996004056E+03  0.90996004058E+03  0.50400001928E-02 0.  1.
    10030    2    1    2    0    0  0.00000000000E+00  0.00000000000E+00  0.25773668577E+02  0.18456937497E+04  0.18455137864E+04 0.  0.
        3    1    3    3  502    0  0.26268903877E+03  0.35309966085E+03  0.82401177341E+03  0.93417359977E+03  0.10100000352E+00 0. -1.
       -3    1    3    3    0  502 -0.26268903877E+03 -0.35309966085E+03 -0.79823810484E+03  0.91152014996E+03  0.10100000352E+00 0.  1.
</event>
<event>
 5   0  0.1835421E-04  0.1640454E+04  0.7818609E-02  0.8796074E-01
        1   -1    0    0  501    0  0.00000000000E+00  0.00000000000E+00  0.45244303014E+03  0.45244303016E+03  0.50400001928E-02 0. -1.
       -1   -1    0    0    0  501  0.00000000000E+00  0.00000000000E+00 -0.14869776648E+04  0.14869776648E+04  0.50400001928E-02 0.  1.
    10030    2    1    2    0    0  0.00000000000E+00  0.00000000000E+00 -0.10345346347E+04  0.19394206950E+04  0.16404544254E+04 0.  0.
        2    1    3    3  502    0 -0.15840629470E+03  0.70216004178E+03 -0.52340297231E+02  0.72170685545E+03  0.25500000920E-02 0. -1.
       -2    1    3    3    0  502  0.15840629470E+03 -0.70216004178E+03 -0.98219433744E+03  0.12177138395E+04  0.25500000920E-02 0.  1.
</event>
<event>
 5   0  0.3582186E-04  0.1803278E+04  0.7818609E-02  0.8704558E-01
        2   -1    0    0  501    0  0.00000000000E+00  0.00000000000E+00  0.11774777606E+04  0.11774777606E+04  0.25500000920E-02 0. -1.
       -2   -1    0    0    0  501  0.00000000000E+00  0.00000000000E+00 -0.69041861828E+03  0.69041861828E+03  0.25500000920E-02 0.  1.
    10030    2    1    2    0    0  0.00000000000E+00  0.00000000000E+00  0.48705914227E+03  0.18678963788E+04  0.18032776475E+04 0.  0.
        4    1    3    3  502    0  0.21567561010E+03  0.59685065845E+03  0.90695218876E+03  0.11069374702E+04  0.12699999809E+01 0. -1.
       -4    1    3    3    0  502 -0.21567561010E+03 -0.59685065845E+03 -0.41989304649E+03  0.76095890866E+03  0.12699999809E+01 0.  1.
</event>
<event>
 5   0  0.1837313E-04  0.1788457E+04  0.7818609E-02  0.8712462E-01
        1   -1    0    0  501    0  0.00000000000E+00  0.00000000000E+00  0.11288372783E+04  0.11288372783E+04  0.50400001928E-02 0.  1.
       -1   -1    0    0    0  501  0.00000000000E+00  0.00000000000E+00 -0.70837885636E+03  0.70837885637E+03  0.50400001928E-02 0. -1.
    10030    2    1    2    0    0  0.00000000000E+00  0.00000000000E+00  0.42045842190E+03  0.18372161346E+04  0.17884568323E+04 0.  0.
        1    1    3    3  502    0 -0.21180034484E+03  0.59585013822E+02 -0.68013892395E+03  0.71484174182E+03  0.50400001928E-02 0. -1.
       -1    1    3    3    0  502  0.21180034484E+03 -0.59585013822E+02  0.11005973458E+04  0.11223743928E+04  0.50400001928E-02 0.  1.
</event>
<event>
 5   0  0.3582186E-04  0.1806754E+04  0.7818609E-02  0.8702716E-01
        2   -1    0    0  501    0  0.00000000000E+00  0.00000000000E+00  0.14629582729E+04  0.14629582729E+04  0.25500000920E-02 0. -1.
       -2   -1    0    0    0  501  0.00000000000E+00  0.00000000000E+00 -0.55783566418E+03  0.55783566418E+03  0.25500000920E-02 0.  1.
    10030    2    1    2    0    0  0.00000000000E+00  0.00000000000E+00  0.90512260868E+03  0.20207939370E+04  0.18067543273E+04 0.  0.
        4    1    3    3  502    0  0.84809925274E+03  0.29549396920E+03  0.34354864739E+03  0.96156971373E+03  0.12699999809E+01 0. -1.
       -4    1    3    3    0  502 -0.84809925274E+03 -0.29549396920E+03  0.56157396129E+03  0.10592242233E+04  0.12699999809E+01 0.  1.
</event>
<event>
 5   0  0.1825253E-04  0.1803900E+04  0.7818609E-02  0.8704228E-01
        1   -1    0    0  501    0  0.00000000000E+00  0.00000000000E+00  0.11443602881E+04  0.11443602881E+04  0.50400001928E-02 0.  1.
       -1   -1    0    0    0  501  0.00000000000E+00  0.00000000000E+00 -0.71088937107E+03  0.71088937109E+03  0.50400001928E-02 0. -1.
    10030    2    1    2    0    0  0.00000000000E+00  0.00000000000E+00  0.43347091703E+03  0.18552496592E+04  0.18038997372E+04 0.  0.
        4    1    3    3  502    0  0.71549753595E+03 -0.44444870204E+03 -0.11499958175E+03  0.85011639756E+03  0.12699999809E+01 0. -1.
       -4    1    3    3    0  502 -0.71549753595E+03  0.44444870204E+03  0.54847049879E+03  0.10051332616E+04  0.12699999809E+01 0.  1.
</event>
<event>
 5   0  0.1837313E-04  0.1734701E+04  0.7818609E-02  0.8741817E-01
        1   -1    0    0  501    0  0.00000000000E+00  0.00000000000E+00  0.63305363430E+03  0.63305363432E+03  0.50400001928E-02 0. -1.
       -1   -1    0    0    0  501  0.00000000000E+00  0.00000000000E+00 -0.11883616309E+04  0.11883616309E+04  0.50400001928E-02 0.  1.
    10030    2    1    2    0    0  0.00000000000E+00  0.00000000000E+00 -0.55530799664E+03  0.18214152653E+04  0.17347007227E+04 0.  0.
        1    1    3    3  502    0 -0.14063921692E+03 -0.69826887850E+03 -0.79730569373E+03  0.10691375895E+04  0.50400001928E-02 0.  1.
       -1    1    3    3    0  502  0.14063921692E+03  0.69826887850E+03  0.24199769710E+03  0.75227767576E+03  0.50400001928E-02 0. -1.
</event>
<event>
 5   0  0.3531266E-04  0.1839050E+04  0.7818609E-02  0.8685804E-01
       -2   -1    0    0    0  501  0.00000000000E+00  0.00000000000E+00  0.87040808281E+03  0.87040808281E+03  0.25500000920E-02 0.  1.
        2   -1    0    0  501    0  0.00000000000E+00  0.00000000000E+00 -0.97141362967E+03  0.97141362967E+03  0.25500000920E-02 0. -1.
    10030    2    1    2    0    0  0.00000000000E+00  0.00000000000E+00 -0.10100554686E+03  0.18418217125E+04  0.18390500537E+04 0.  0.
        3    1    3    3  502    0 -0.42425368716E+03  0.50297575201E+03 -0.69377171034E+03  0.95618774016E+03  0.10100000352E+00 0. -1.
       -3    1    3    3    0  502  0.42425368716E+03 -0.50297575201E+03  0.59276616348E+03  0.88563397233E+03  0.10100000352E+00 0.  1.
</event>
<event>
 5   0  0.1883959E-04  0.1789361E+04  0.7818609E-02  0.8711978E-01
       -1   -1    0    0    0  501  0.00000000000E+00  0.00000000000E+00  0.77069227900E+03  0.77069227902E+03  0.50400001928E-02 0. -1.
        1   -1    0    0  501    0  0.00000000000E+00  0.00000000000E+00 -0.10386152474E+04  0.10386152474E+04  0.50400001928E-02 0.  1.
    10030    2    1    2    0    0  0.00000000000E+00  0.00000000000E+00 -0.26792296837E+03  0.18093075264E+04  0.17893605026E+04 0.  0.
        5    1    3    3  502    0 -0.23173982999E+03 -0.26519846860E+03 -0.96556325772E+03  0.10277976801E+04  0.46999998093E+01 0.  1.
       -5    1    3    3    0  502  0.23173982999E+03  0.26519846860E+03  0.69764028935E+03  0.78150984630E+03  0.46999998093E+01 0. -1.
</event>
<event>
 5   0  0.3531266E-04  0.1885275E+04  0.7818609E-02  0.8662221E-01
       -2   -1    0    0    0  501  0.00000000000E+00  0.00000000000E+00  0.10484134439E+04  0.10484134439E+04  0.25500000920E-02 0. -1.
        2   -1    0    0  501    0  0.00000000000E+00  0.00000000000E+00 -0.84753385252E+03  0.84753385252E+03  0.25500000920E-02 0.  1.
    10030    2    1    2    0    0  0.00000000000E+00  0.00000000000E+00  0.20087959139E+03  0.18959472964E+04  0.18852754548E+04 0.  0.
        3    1    3    3  502    0 -0.75806278150E+03  0.21412165424E+03 -0.42023472886E+03  0.89280709061E+03  0.10100000352E+00 0.  1.
       -3    1    3    3    0  502  0.75806278150E+03 -0.21412165424E+03  0.62111432026E+03  0.10031402058E+04  0.10100000352E+00 0. -1.
</event>
<event>
 5   0  0.3582186E-04  0.1790060E+04  0.7818609E-02  0.8711604E-01
        2   -1    0    0  501    0  0.00000000000E+00  0.00000000000E+00  0.10008734114E+04  0.10008734114E+04  0.25500000920E-02 0. -1.
       -2   -1    0    0    0  501  0.00000000000E+00  0.00000000000E+00 -0.80037937420E+03  0.80037937421E+03  0.25500000920E-02 0.  1.
    10030    2    1    2    0    0  0.00000000000E+00  0.00000000000E+00  0.20049403723E+03  0.18012527856E+04  0.17900597026E+04 0.  0.
        4    1    3    3  502    0  0.44685362066E+03  0.76648572577E+03 -0.18381176602E+02  0.88742211301E+03  0.12699999809E+01 0. -1.
       -4    1    3    3    0  502 -0.44685362066E+03 -0.76648572577E+03  0.21887521383E+03  0.91383067263E+03  0.12699999809E+01 0.  1.
</event>
<event>
 5   0  0.3531266E-04  0.1654465E+04  0.7818609E-02  0.8787769E-01
        2   -1    0    0  501    0  0.00000000000E+00  0.00000000000E+00  0.65003935210E+03  0.65003935210E+03  0.25500000920E-02 0.  1.
       -2   -1    0    0    0  501  0.00000000000E+00  0.00000000000E+00 -0.10527266496E+04  0.10527266496E+04  0.25500000920E-02 0. -1.
    10030    2    1    2    0    0  0.00000000000E+00  0.00000000000E+00 -0.40268729747E+03  0.17027660017E+04  0.16544651694E+04 0.  0.
        3    1    3    3  502    0  0.40239439882E+02 -0.12527675249E+03  0.63920014106E+03  0.65260271817E+03  0.10100000352E+00 0.  1.
       -3    1    3    3    0  502 -0.40239439882E+02  0.12527675249E+03 -0.10418874385E+04  0.10501632835E+04  0.10100000352E+00 0. -1.
</event>
<event>
 5   0  0.3568870E-04  0.1780339E+04  0.7818609E-02  0.8716826E-01
       -2   -1    0    0    0  501  0.00000000000E+00  0.00000000000E+00  0.11709682749E+04  0.11709682749E+04  0.25500000920E-02 0.  1.
        2   -1    0    0  501    0  0.00000000000E+00  0.00000000000E+00 -0.67670616649E+03  0.67670616649E+03  0.25500000920E-02 0. -1.
    10030    2    1    2    0    0  0.00000000000E+00  0.00000000000E+00  0.49426210838E+03  0.18476744414E+04  0.17803386783E+04 0.  0.
        1    1    3    3  502    0 -0.51974351875E+03  0.42947760295E+03  0.85033427106E+03  0.10851970832E+04  0.50400001928E-02 0. -1.
       -1    1    3    3    0  502  0.51974351875E+03 -0.42947760295E+03 -0.35607216268E+03  0.76247735821E+03  0.50400001928E-02 0.  1.
</event>
<event>
 5   0  0.1835421E-04  0.1798074E+04  0.7818609E-02  0.8707324E-01
        1   -1    0    0  501    0  0.00000000000E+00  0.00000000000E+00  0.67026804996E+03  0.67026804997E+03  0.50400001928E-02 0.  1.
       -1   -1    0    0    0  501  0.00000000000E+00  0.00000000000E+00 -0.12058867555E+04  0.12058867555E+04  0.50400001928E-02 0. -1.
    10030    2    1    2    0    0  0.00000000000E+00  0.00000000000E+00 -0.53561870552E+03  0.18761548055E+04  0.17980738184E+04 0.  0.
        2    1    3    3  502    0  0.62115140839E+03  0.63418525208E+03 -0.41628161758E+03  0.98046437531E+03  0.25500000920E-02 0. -1.
       -2    1    3    3    0  502 -0.62115140839E+03 -0.63418525208E+03 -0.11933708794E+03  0.89569043015E+03  0.25500000920E-02 0.  1.
</event>
<event>
 5   0  0.1825253E-04  0.1800320E+04  0.7818609E-02  0.8706129E-01
        1   -1    0    0  501    0  0.00000000000E+00  0.00000000000E+00  0.20243023200E+04  0.20243023200E+04  0.50400001928E-02 0. -1.
       -1   -1    0    0    0  501  0.00000000000E+00  0.00000000000E+00 -0.40028034305E+03  0.40028034308E+03  0.50400001928E-02 0.  1.
    10030    2    1    2    0    0  0.00000000000E+00  0.00000000000E+00  0.16240219770E+04  0.24245826631E+04  0.18003204461E+04 0.  0.
        4    1    3    3  502    0 -0.58239400402E+03 -0.53873480746E+03  0.23925575663E+03  0.82865125274E+03  0.12699999809E+01 0. -1.
       -4    1    3    3    0  502  0.58239400402E+03  0.53873480746E+03  0.13847662203E+04  0.15959314104E+04  0.12699999809E+01 0.  1.
</event>
<event>
 5   0  0.3575091E-04  0.1470432E+04  0.7818609E-02  0.8904357E-01
       -2   -1    0    0    0  501  0.00000000000E+00  0.00000000000E+00  0.39969991325E+03  0.39969991325E+03  0.25500000920E-02 0.  1.
        2   -1    0    0  501    0  0.00000000000E+00  0.00000000000E+00 -0.13523707447E+04  0.13523707447E+04  0.25500000920E-02 0. -1.
    10030    2    1    2    0    0  0.00000000000E+00  0.00000000000E+00 -0.95267083144E+03  0.17520706579E+04  0.14704318676E+04 0.  0.
        5    1    3    3  502    0  0.12324591860E+03  0.52655619709E+03  0.11712711367E+03  0.55334603631E+03  0.46999998093E+01 0.  1.
       -5    1    3    3    0  502 -0.12324591860E+03 -0.52655619709E+03 -0.10697979451E+04  0.11987246216E+04  0.46999998093E+01 0. -1.
</event>
<event>
 5   0  0.1837313E-04  0.1773688E+04  0.7818609E-02  0.8720418E-01
       -1   -1    0    0    0  501  0.00000000000E+00  0.00000000000E+00  0.69308546908E+03  0.69308546910E+03  0.50400001928E-02 0.  1.
        1   -1    0    0  501    0  0.00000000000E+00  0.00000000000E+00 -0.11347700399E+04  0.11347700399E+04  0.50400001928E-02 0. -1.
    10030    2    1    2    0    0  0.00000000000E+00  0.00000000000E+00 -0.44168457083E+03  0.18278555090E+04  0.17736883891E+04 0.  0.
        1    1    3    3  502    0 -0.37262818935E+03  0.58204004517E+03  0.35189119874E+03  0.77553194483E+03  0.50400001928E-02 0.  1.
       -1    1    3    3    0  502  0.37262818935E+03 -0.58204004517E+03 -0.79357576957E+03  0.10523235642E+04  0.50400001928E-02 0. -1.
</event>
<event>
 5   0  0.1825253E-04  0.1809004E+04  0.7818609E-02  0.8701526E-01
        1   -1    0    0  501    0  0.00000000000E+00  0.00000000000E+00  0.11543992848E+04  0.11543992848E+04  0.50400001928E-02 0. -1.
       -1   -1    0    0    0  501  0.00000000000E+00  0.00000000000E+00 -0.70870125007E+03  0.70870125009E+03  0.50400001928E-02 0.  1.
    10030    2    1    2    0    0  0.00000000000E+00  0.00000000000E+00  0.44569803477E+03  0.18631005349E+04  0.18090043850E+04 0.  0.
        4    1    3    3  502    0  0.37359982687E+03 -0.68946377653E+03 -0.24139145420E+03  0.82049288653E+03  0.12699999809E+01 0. -1.
       -4    1    3    3    0  502 -0.37359982687E+03  0.68946377653E+03  0.68708948896E+03  0.10426076484E+04  0.12699999809E+01 0.  1.
</event>
<event>
 5   0  0.1883959E-04  0.1871805E+04  0.7818609E-02  0.8669019E-01
       -1   -1    0    0    0  501  0.00000000000E+00  0.00000000000E+00  0.44870082665E+03  0.44870082668E+03  0.50400001928E-02 0.  1.
        1   -1    0    0  501    0  0.00000000000E+00  0.00000000000E+00 -0.19521105476E+04  0.19521105477E+04  0.50400001928E-02 0. -1.
    10030    2    1    2    0    0  0.00000000000E+00  0.00000000000E+00 -0.15034097210E+04  0.24008113743E+04  0.18718051357E+04 0.  0.
        5    1    3    3  502    0 -0.79199909660E+03 -0.12685451585E+03 -0.13319968977E+03  0.81309217470E+03  0.46999998093E+01 0.  1.
       -5    1    3    3    0  502  0.79199909660E+03  0.12685451585E+03 -0.13702100312E+04  0.15877191996E+04  0.46999998093E+01 0. -1.
</event>
<event>
 5   0  0.3582186E-04  0.1709441E+04  0.7818609E-02  0.8755998E-01
       -2   -1    0    0    0  501  0.00000000000E+00  0.00000000000E+00  0.20136811867E+04  0.20136811867E+04  0.25500000920E-02 0.  1.
        2   -1    0    0  501    0  0.00000000000E+00  0.00000000000E+00 -0.36279180712E+03  0.36279180713E+03  0.25500000920E-02 0. -1.
    10030    2    1    2    0    0  0.00000000000E+00  0.00000000000E+00  0.16508893796E+04  0.23764729938E+04  0.17094408872E+04 0.  0.
        4    1    3    3  502    0 -0.28267914260E+03 -0.76537660086E+02 -0.29086461699E+03  0.41275822147E+03  0.12699999809E+01 0. -1.
       -4    1    3    3    0  502  0.28267914260E+03  0.76537660086E+02  0.19417539966E+04  0.19637147723E+04  0.12699999809E+01 0.  1.
</event>
<event>
 5   0  0.1837313E-04  0.1803065E+04  0.7818609E-02  0.8704671E-01
        1   -1    0    0  501    0  0.00000000000E+00  0.00000000000E+00  0.91324950520E+03  0.91324950521E+03  0.50400001928E-02 0.  1.
       -1   -1    0    0    0  501  0.00000000000E+00  0.00000000000E+00 -0.88996610761E+03  0.88996610762E+03  0.50400001928E-02 0. -1.
    10030    2    1    2    0    0  0.00000000000E+00  0.00000000000E+00  0.23283397591E+02  0.18032156128E+04  0.18030652872E+04 0.  0.
        1    1    3    3  502    0 -0.70636855270E+03  0.28282115723E+03  0.49522804837E+03  0.90785194781E+03  0.50400001928E-02 0.  1.
       -1    1    3    3    0  502  0.70636855270E+03 -0.28282115723E+03 -0.47194465078E+03  0.89536366503E+03  0.50400001928E-02 0. -1.
</event>
<event>
 5   0  0.3628581E-04  0.1812264E+04  0.7818609E-02  0.8699804E-01
       -2   -1    0    0    0  501  0.00000000000E+00  0.00000000000E+00  0.57112238374E+03  0.57112238375E+03  0.25500000920E-02 0. -1.
        2   -1    0    0  501    0  0.00000000000E+00  0.00000000000E+00 -0.14376526608E+04  0.14376526608E+04  0.25500000920E-02 0.  1.
    10030    2    1    2    0    0  0.00000000000E+00  0.00000000000E+00 -0.86653027704E+03  0.20087750445E+04  0.18122644560E+04 0.  0.
        2    1    3    3  502    0 -0.46789662628E+03  0.67425682868E+02  0.42360656893E+03  0.63475664694E+03  0.25500000920E-02 0. -1.
       -2    1    3    3    0  502  0.46789662628E+03 -0.67425682868E+02 -0.12901368460E+04  0.13740183976E+04  0.25500000920E-02 0.  1.
</event>
<event>
 5   0  0.3575091E-04  0.1767486E+04  0.7818609E-02  0.8723784E-01
       -2   -1    0    0    0  501  0.00000000000E+00  0.00000000000E+00  0.10973754761E+04  0.10973754761E+04  0.25500000920E-02 0. -1.
        2   -1    0    0  501    0  0.00000000000E+00  0.00000000000E+00 -0.71169971734E+03  0.71169971735E+03  0.25500000920E-02 0.  1.
    10030    2    1    2    0    0  0.00000000000E+00  0.00000000000E+00  0.38567575880E+03  0.18090751935E+04  0.17674861427E+04 0.  0.
        5    1    3    3  502    0 -0.37101807089E+03 -0.71870903715E+03  0.55728161666E+03  0.98223315933E+03  0.46999998093E+01 0.  1.
       -5    1    3    3    0  502  0.37101807089E+03  0.71870903715E+03 -0.17160585786E+03  0.82684203417E+03  0.46999998093E+01 0. -1.
</event>
<event>
 5   0  0.1818778E-04  0.1829507E+04  0.7818609E-02  0.8690764E-01
       -1   -1    0    0    0  501  0.00000000000E+00  0.00000000000E+00  0.42139204640E+03  0.42139204643E+03  0.50400001928E-02 0. -1.
        1   -1    0    0  501    0  0.00000000000E+00  0.00000000000E+00 -0.19857364968E+04  0.19857364968E+04  0.50400001928E-02 0.  1.
    10030    2    1    2    0    0  0.00000000000E+00  0.00000000000E+00 -0.15643444504E+04  0.24071285433E+04  0.18295065630E+04 0.  0.
        3    1    3    3  502    0  0.71285543950E+03 -0.57324513982E+02 -0.31718792168E+02  0.71585967166E+03  0.10100000352E+00 0. -1.
       -3    1    3    3    0  502 -0.71285543950E+03  0.57324513982E+02 -0.15326256583E+04  0.16912688716E+04  0.10100000352E+00 0.  1.
</event>
<event>
 5   0  0.1330125E-04  0.1825746E+04  0.7818609E-02  0.8692727E-01
       -3   -1    0    0    0  501  0.00000000000E+00  0.00000000000E+00  0.17114854971E+04  0.17114855001E+04  0.10100000352E+00 0. -1.
        3   -1    0    0  501    0  0.00000000000E+00  0.00000000000E+00 -0.48690865475E+03  0.48690866523E+03  0.10100000352E+00 0.  1.
    10030    2    1    2    0    0  0.00000000000E+00  0.00000000000E+00  0.12245768424E+04  0.21983941653E+04  0.18257460019E+04 0.  0.
        5    1    3    3  502    0 -0.18883901299E+03 -0.70687491237E+03  0.12695840410E+04  0.14653320585E+04  0.46999998093E+01 0. -1.
       -5    1    3    3    0  502  0.18883901299E+03  0.70687491237E+03 -0.45007198601E+02  0.73306210684E+03  0.46999998093E+01 0.  1.
</event>
<event>
 5   0  0.1883959E-04  0.1854391E+04  0.7818609E-02  0.8677898E-01
        1   -1    0    0  501    0  0.00000000000E+00  0.00000000000E+00  0.16815502848E+04  0.16815502848E+04  0.50400001928E-02 0.  1.
       -1   -1    0    0    0  501  0.00000000000E+00  0.00000000000E+00 -0.51124933143E+03  0.51124933146E+03  0.50400001928E-02 0. -1.
    10030    2    1    2    0    0  0.00000000000E+00  0.00000000000E+00  0.11703009534E+04  0.21927996163E+04  0.18543909609E+04 0.  0.
        5    1    3    3  502    0  0.15374213511E+03  0.66705945080E+03 -0.15432162482E+03  0.70174226672E+03  0.46999998093E+01 0. -1.
       -5    1    3    3    0  502 -0.15374213511E+03 -0.66705945080E+03  0.13246225782E+04  0.14910573496E+04  0.46999998093E+01 0.  1.
</event>
<event>
 5   0  0.3628581E-04  0.1789396E+04  0.7818609E-02  0.8711959E-01
       -2   -1    0    0    0  501  0.00000000000E+00  0.00000000000E+00  0.11015768000E+04  0.11015768000E+04  0.25500000920E-02 0. -1.
        2   -1    0    0  501    0  0.00000000000E+00  0.00000000000E+00 -0.72667193430E+03  0.72667193431E+03  0.25500000920E-02 0.  1.
    10030    2    1    2    0    0  0.00000000000E+00  0.00000000000E+00  0.37490486569E+03  0.18282487343E+04  0.17893964838E+04 0.  0.
        2    1    3    3  502    0  0.86712869775E+03 -0.21983437945E+03  0.17144016758E+03  0.91084085542E+03  0.25500000920E-02 0.  1.
       -2    1    3    3    0  502 -0.86712869775E+03  0.21983437945E+03  0.20346469811E+03  0.91740787888E+03  0.25500000920E-02 0. -1.
</event>
<event>
 5   0  0.1825253E-04  0.1824279E+04  0.7818609E-02  0.8693494E-01
       -1   -1    0    0    0  501  0.00000000000E+00  0.00000000000E+00  0.64803045862E+03  0.64803045864E+03  0.50400001928E-02 0. -1.
        1   -1    0    0  501    0  0.00000000000E+00  0.00000000000E+00 -0.12838877264E+04  0.12838877264E+04  0.50400001928E-02 0.  1.
    10030    2    1    2    0    0  0.00000000000E+00  0.00000000000E+00 -0.63585726773E+03  0.19319181850E+04  0.18242788736E+04 0.  0.
        4    1    3    3  502    0 -0.37714514003E+03  0.64539754503E+03  0.23561769762E+03  0.78376894562E+03  0.12699999809E+01 0. -1.
       -4    1    3    3    0  502  0.37714514003E+03 -0.64539754503E+03 -0.87147496534E+03  0.11481492394E+04  0.12699999809E+01 0.  1.
</event>
<event>
 5   0  0.3531266E-04  0.1663102E+04  0.7818609E-02  0.8782693E-01
        2   -1    0    0  501    0  0.00000000000E+00  0.00000000000E+00  0.15466145224E+04  0.15466145224E+04  0.25500000920E-02 0. -1.
       -2   -1    0    0    0  501  0.00000000000E+00  0.00000000000E+00 -0.44709059112E+03  0.44709059113E+03  0.25500000920E-02 0.  1.
    10030    2    1    2    0    0  0.00000000000E+00  0.00000000000E+00  0.10995239313E+04  0.19937051135E+04  0.16631016819E+04 0.  0.
        3    1    3    3  502    0  0.19948135716E+03  0.72867291555E+03  0.96627759615E+03  0.12265599996E+04  0.10100000352E+00 0. -1.
       -3    1    3    3    0  502 -0.19948135716E+03 -0.72867291555E+03  0.13324633512E+03  0.76714511388E+03  0.10100000352E+00 0.  1.
</event>
<event>
 5   0  0.3575091E-04  0.1649377E+04  0.7818609E-02  0.8790775E-01
       -2   -1    0    0    0  501  0.00000000000E+00  0.00000000000E+00  0.34568567306E+03  0.34568567307E+03  0.25500000920E-02 0. -1.
        2   -1    0    0  501    0  0.00000000000E+00  0.00000000000E+00 -0.19674256143E+04  0.19674256143E+04  0.25500000920E-02 0.  1.
    10030    2    1    2    0    0  0.00000000000E+00  0.00000000000E+00 -0.16217399413E+04  0.23131112874E+04  0.16493766673E+04 0.  0.
        5    1    3    3  502    0 -0.49772632841E+03  0.56461340523E+03 -0.12834838920E+04  0.14879088636E+04  0.46999998093E+01 0.  1.
       -5    1    3    3    0  502  0.49772632841E+03 -0.56461340523E+03 -0.33825604924E+03  0.82520242377E+03  0.46999998093E+01 0. -1.
</event>
<event>
 5   0  0.3582186E-04  0.1851974E+04  0.7818609E-02  0.8679138E-01
        2   -1    0    0  501    0  0.00000000000E+00  0.00000000000E+00  0.99031727544E+03  0.99031727545E+03  0.25500000920E-02 0.  1.
       -2   -1    0    0    0  501  0.00000000000E+00  0.00000000000E+00 -0.86583595298E+03  0.86583595299E+03  0.25500000920E-02 0. -1.
    10030    2    1    2    0    0  0.00000000000E+00  0.00000000000E+00  0.12448132246E+03  0.18561532284E+04  0.18519744080E+04 0.  0.
        4    1    3    3  502    0 -0.73762932815E+03 -0.20654394098E+03 -0.45921521796E+03  0.89310562343E+03  0.12699999809E+01 0. -1.
       -4    1    3    3    0  502  0.73762932815E+03  0.20654394098E+03  0.58369654042E+03  0.96304760500E+03  0.12699999809E+01 0.  1.
</event>
<event>
 5   0  0.1825253E-04  0.1803634E+04  0.7818609E-02  0.8704369E-01
       -1   -1    0    0    0  501  0.00000000000E+00  0.00000000000E+00  0.42365061782E+03  0.42365061785E+03  0.50400001928E-02 0. -1.
        1   -1    0    0  501    0  0.00000000000E+00  0.00000000000E+00 -0.19196816645E+04  0.19196816645E+04  0.50400001928E-02 0.  1.
    10030    2    1    2    0    0  0.00000000000E+00  0.00000000000E+00 -0.14960310466E+04  0.23433322823E+04  0.18036344676E+04 0.  0.
        4    1    3    3  502    0  0.62707604542E+03  0.58587727340E+03 -0.11080591381E+04  0.14015253165E+04  0.12699999809E+01 0.  1.
       -4    1    3    3    0  502 -0.62707604542E+03 -0.58587727340E+03 -0.38797190852E+03  0.94180696585E+03  0.12699999809E+01 0. -1.
</event>
<event>
 5   0  0.3568870E-04  0.1823429E+04  0.7818609E-02  0.8693939E-01
       -2   -1    0    0    0  501  0.00000000000E+00  0.00000000000E+00  0.67261743032E+03  0.67261743032E+03  0.25500000920E-02 0.  1.
        2   -1    0    0  501    0  0.00000000000E+00  0.00000000000E+00 -0.12358036231E+04  0.12358036231E+04  0.25500000920E-02 0. -1.
    10030    2    1    2    0    0  0.00000000000E+00  0.00000000000E+00 -0.56318619281E+03  0.19084210535E+04  0.18234287015E+04 0.  0.
        1    1    3    3  502    0  0.61301073228E+03  0.32783350356E+03 -0.89897497255E+03  0.11364035222E+04  0.50400001928E-02 0. -1.
       -1    1    3    3    0  502 -0.61301073228E+03 -0.32783350356E+03  0.33578877975E+03  0.77201753126E+03  0.50400001928E-02 0.  1.
</event>
<event>
 5   0  0.1825253E-04  0.1792690E+04  0.7818609E-02  0.8710197E-01
        1   -1    0    0  501    0  0.00000000000E+00  0.00000000000E+00  0.12749784746E+04  0.12749784746E+04  0.50400001928E-02 0. -1.
       -1   -1    0    0    0  501  0.00000000000E+00  0.00000000000E+00 -0.63015516193E+03  0.63015516195E+03  0.50400001928E-02 0.  1.
    10030    2    1    2    0    0  0.00000000000E+00  0.00000000000E+00  0.64482331270E+03  0.19051336366E+04  0.17926898975E+04 0.  0.
        4    1    3    3  502    0  0.26525621164E+03 -0.56067518048E+03 -0.36525759445E+03  0.71981403086E+03  0.12699999809E+01 0.  1.
       -4    1    3    3    0  502 -0.26525621164E+03  0.56067518048E+03  0.10100809072E+04  0.11853196057E+04  0.12699999809E+01 0. -1.
</event>
<event>
 5   0  0.3582186E-04  0.1854190E+04  0.7818609E-02  0.8678001E-01
       -2   -1    0    0    0  501  0.00000000000E+00  0.00000000000E+00  0.11565652990E+04  0.11565652990E+04  0.25500000920E-02 0.  1.
        2   -1    0    0  501    0  0.00000000000E+00  0.00000000000E+00 -0.74315310242E+03  0.74315310242E+03  0.25500000920E-02 0. -1.
    10030    2    1    2    0    0  0.00000000000E+00  0.00000000000E+00  0.41341219654E+03  0.18997184014E+04  0.18541899472E+04 0.  0.
        4    1    3    3  502    0 -0.60482123551E+02  0.78691293177E+03 -0.29166712553E+03  0.84140440602E+03  0.12699999809E+01 0. -1.
       -4    1    3    3    0  502  0.60482123551E+02 -0.78691293177E+03  0.70507932207E+03  0.10583139954E+04  0.12699999809E+01 0.  1.
</event>
<event>
 5   0  0.1837313E-04  0.1808484E+04  0.7818609E-02  0.8701801E-01
       -1   -1    0    0    0  501  0.00000000000E+00  0.00000000000E+00  0.75897337896E+03  0.75897337898E+03  0.50400001928E-02 0. -1.
        1   -1    0    0  501    0  0.00000000000E+00  0.00000000000E+00 -0.10773150286E+04  0.10773150286E+04  0.50400001928E-02 0.  1.
    10030    2    1    2    0    0  0.00000000000E+00  0.00000000000E+00 -0.31834164964E+03  0.18362884076E+04  0.18084838152E+04 0.  0.
        1    1    3    3  502    0 -0.28201795627E+02  0.90379504971E+03 -0.15556741889E+03  0.91751951206E+03  0.50400001928E-02 0. -1.
       -1    1    3    3    0  502  0.28201795627E+02 -0.90379504971E+03 -0.16277423074E+03  0.91876889552E+03  0.50400001928E-02 0.  1.
</event>
<event>
 5   0  0.3575091E-04  0.1760150E+04  0.7818609E-02  0.8727783E-01
       -2   -1    0    0    0  501  0.00000000000E+00  0.00000000000E+00  0.87519368749E+03  0.87519368750E+03  0.25500000920E-02 0.  1.
        2   -1    0    0  501    0  0.00000000000E+00  0.00000000000E+00 -0.88498362746E+03  0.88498362746E+03  0.25500000920E-02 0. -1.
    10030    2    1    2    0    0  0.00000000000E+00  0.00000000000E+00 -0.97899399650E+01  0.17601773150E+04  0.17601500894E+04 0.  0.
        5    1    3    3  502    0 -0.20339914833E+03 -0.52751534362E+03 -0.67934319975E+03  0.88383987483E+03  0.46999998093E+01 0. -1.
       -5    1    3    3    0  502  0.20339914833E+03  0.52751534362E+03  0.66955325978E+03  0.87633744013E+03  0.46999998093E+01 0.  1.
</event>
<event>
 5   0  0.3575091E-04  0.1877421E+04  0.7818609E-02  0.8666178E-01
        2   -1    0    0  501    0  0.00000000000E+00  0.00000000000E+00  0.91957317814E+03  0.91957317814E+03  0.25500000920E-02 0.  1.
       -2   -1    0    0    0  501  0.00000000000E+00  0.00000000000E+00 -0.95824625095E+03  0.95824625095E+03  0.25500000920E-02 0. -1.
    10030    2    1    2    0    0  0.00000000000E+00  0.00000000000E+00 -0.38673072807E+02  0.18778194291E+04  0.18774211573E+04 0.  0.
        5    1    3    3  502    0 -0.88105086594E+03 -0.26227749975E+03 -0.20941722893E+03  0.94282436382E+03  0.46999998093E+01 0.  1.
       -5    1    3    3    0  502  0.88105086594E+03  0.26227749975E+03  0.17074415612E+03  0.93499506528E+03  0.46999998093E+01 0. -1.
</event>
<event>
 5   0  0.3628581E-04  0.1747240E+04  0.7818609E-02  0.8734871E-01
        2   -1    0    0  501    0  0.00000000000E+00  0.00000000000E+00  0.79201449129E+03  0.79201449130E+03  0.25500000920E-02 0.  1.
       -2   -1    0    0    0  501  0.00000000000E+00  0.00000000000E+00 -0.96363403127E+03  0.96363403127E+03  0.25500000920E-02 0. -1.
    10030    2    1    2    0    0  0.00000000000E+00  0.00000000000E+00 -0.17161953998E+03  0.17556485226E+04  0.17472402434E+04 0.  0.
        2    1    3    3  502    0 -0.13154120727E+03  0.17024399410E+03  0.76497972685E+03  0.79465721493E+03  0.25500000920E-02 0.  1.
       -2    1    3    3    0  502  0.13154120727E+03 -0.17024399410E+03 -0.93659926683E+03  0.96099130764E+03  0.25500000920E-02 0. -1.
</event>
<event>
 5   0  0.3628581E-04  0.1793574E+04  0.7818609E-02  0.8709724E-01
        2   -1    0    0  501    0  0.00000000000E+00  0.00000000000E+00  0.12118582762E+04  0.12118582762E+04  0.25500000920E-02 0. -1.
       -2   -1    0    0    0  501  0.00000000000E+00  0.00000000000E+00 -0.66363141135E+03  0.66363141136E+03  0.25500000920E-02 0.  1.
    10030    2    1    2    0    0  0.00000000000E+00  0.00000000000E+00  0.54822686480E+03  0.18754896875E+04  0.17935743287E+04 0.  0.
        2    1    3    3  502    0 -0.61529432872E+03 -0.54807790902E+03 -0.95957866439E+02  0.82956881418E+03  0.25500000920E-02 0.  1.
       -2    1    3    3    0  502  0.61529432872E+03  0.54807790902E+03  0.64418473124E+03  0.10459208733E+04  0.25500000920E-02 0. -1.
</event>
<event>
 5   0  0.3568870E-04  0.1811814E+04  0.7818609E-02  0.8700042E-01
       -2   -1    0    0    0  501  0.00000000000E+00  0.00000000000E+00  0.12424114365E+04  0.12424114365E+04  0.25500000920E-02 0.  1.
        2   -1    0    0  501    0  0.00000000000E+00  0.00000000000E+00 -0.66054398769E+03  0.66054398770E+03  0.25500000920E-02 0. -1.
    10030    2    1    2    0    0  0.00000000000E+00  0.00000000000E+00  0.58186744880E+03  0.19029554242E+04  0.18118139028E+04 0.  0.
        1    1    3    3  502    0 -0.21514650517E+01 -0.57185660344E+03  0.10288743691E+04  0.11771181211E+04  0.50400001928E-02 0.  1.
       -1    1    3    3    0  502  0.21514650517E+01  0.57185660344E+03 -0.44700692029E+03  0.72583730306E+03  0.50400001928E-02 0. -1.
</event>
<event>
 5   0  0.1818778E-04  0.1805476E+04  0.7818609E-02  0.8703393E-01
        1   -1    0    0  501    0  0.00000000000E+00  0.00000000000E+00  0.87056713024E+03  0.87056713026E+03  0.50400001928E-02 0.  1.
       -1   -1    0    0    0  501  0.00000000000E+00  0.00000000000E+00 -0.93609750631E+03  0.93609750632E+03  0.50400001928E-02 0. -1.
    10030    2    1    2    0    0  0.00000000000E+00  0.00000000000E+00 -0.65530376066E+02  0.18066646366E+04  0.18054758040E+04 0.  0.
        3    1    3    3  502    0 -0.67432040573E+03  0.59823850386E+03  0.15623580502E+02  0.90157718669E+03  0.10100000352E+00 0.  1.
       -3    1    3    3    0  502  0.67432040573E+03 -0.59823850386E+03 -0.81153956567E+02  0.90508744989E+03  0.10100000352E+00 0. -1.
</event>
<event>
 5   0  0.1818778E-04  0.1794743E+04  0.7818609E-02  0.8709100E-01
       -1   -1    0    0    0  501  0.00000000000E+00  0.00000000000E+00  0.80256213563E+03  0.80256213564E+03  0.50400001928E-02 0.  1.
        1   -1    0    0  501    0  0.00000000000E+00  0.00000000000E+00 -0.10033809984E+04  0.10033809984E+04  0.50400001928E-02 0. -1.
    10030    2    1    2    0    0  0.00000000000E+00  0.00000000000E+00 -0.20081886277E+03  0.18059431341E+04  0.17947429866E+04 0.  0.
        3    1    3    3  502    0  0.43521074134E+01  0.89665466558E+03 -0.64591556631E+02  0.89898865929E+03  0.10100000352E+00 0.  1.
       -3    1    3    3    0  502 -0.43521074134E+01 -0.89665466558E+03 -0.13622730614E+03  0.90695447476E+03  0.10100000352E+00 0. -1.
</event>
<event>
 5   0  0.1330125E-04  0.2033531E+04  0.7818609E-02  0.8591102E-01
        3   -1    0    0  501    0  0.00000000000E+00  0.00000000000E+00  0.15108846159E+04  0.15108846193E+04  0.10100000352E+00 0.  1.
       -3   -1    0    0    0  501  0.00000000000E+00  0.00000000000E+00 -0.68424321706E+03  0.68424322451E+03  0.10100000352E+00 0. -1.
    10030    2    1    2    0    0  0.00000000000E+00  0.00000000000E+00  0.82664139886E+03  0.21951278438E+04  0.20335314722E+04 0.  0.
        1    1    3    3  502    0  0.13483154425E+03  0.15974227257E+03  0.14874383003E+04  0.15020552041E+04  0.50400001928E-02 0.  1.
       -1    1    3    3    0  502 -0.13483154425E+03 -0.15974227257E+03 -0.66079690142E+03  0.69307263972E+03  0.50400001928E-02 0. -1.
</event>
<event>
 5   0  0.3531266E-04  0.1746607E+04  0.7818609E-02  0.8735220E-01
        2   -1    0    0  501    0  0.00000000000E+00  0.00000000000E+00  0.14583757668E+04  0.14583757668E+04  0.25500000920E-02 0.  1.
       -2   -1    0    0    0  501  0.00000000000E+00  0.00000000000E+00 -0.52295096665E+03  0.52295096665E+03  0.25500000920E-02 0. -1.
    10030    2    1    2    0    0  0.00000000000E+00  0.00000000000E+00  0.93542480019E+03  0.19813267335E+04  0.17466070159E+04 0.  0.
        3    1    3    3  502    0 -0.60163192293E+03 -0.61667737002E+03  0.30566163255E+03  0.91415589108E+03  0.10100000352E+00 0.  1.
       -3    1    3    3    0  502  0.60163192293E+03  0.61667737002E+03  0.62976316764E+03  0.10671708424E+04  0.10100000352E+00 0. -1.
</event>
<event>
 5   0  0.1837313E-04  0.1791026E+04  0.7818609E-02  0.8711086E-01
       -1   -1    0    0    0  501  0.00000000000E+00  0.00000000000E+00  0.12965232395E+04  0.12965232395E+04  0.50400001928E-02 0.  1.
        1   -1    0    0  501    0  0.00000000000E+00  0.00000000000E+00 -0.61853378114E+03  0.61853378116E+03  0.50400001928E-02 0. -1.
    10030    2    1    2    0    0  0.00000000000E+00  0.00000000000E+00  0.67798945839E+03  0.19150570207E+04  0.17910258755E+04 0.  0.
        1    1    3    3  502    0 -0.25011721797E+02 -0.66610764620E+03  0.97842000718E+03  0.11839048497E+04  0.50400001928E-02 0.  1.
       -1    1    3    3    0  502  0.25011721797E+02  0.66610764620E+03 -0.30043054879E+03  0.73115217105E+03  0.50400001928E-02 0. -1.
</event>
<event>
 5   0  0.3628581E-04  0.1792361E+04  0.7818609E-02  0.8710372E-01
        2   -1    0    0  501    0  0.00000000000E+00  0.00000000000E+00  0.13176536243E+04  0.13176536243E+04  0.25500000920E-02 0. -1.
       -2   -1    0    0    0  501  0.00000000000E+00  0.00000000000E+00 -0.60952263731E+03  0.60952263732E+03  0.25500000920E-02 0.  1.
    10030    2    1    2    0    0  0.00000000000E+00  0.00000000000E+00  0.70813098700E+03  0.19271762616E+04  0.17923612495E+04 0.  0.
        2    1    3    3  502    0 -0.52543280375E+03 -0.45281905942E+03 -0.25608073266E+03  0.73939304397E+03  0.25500000920E-02 0.  1.
       -2    1    3    3    0  502  0.52543280375E+03  0.45281905942E+03  0.96421171965E+03  0.11877832177E+04  0.25500000920E-02 0. -1.
</event>
<event>
 5   0  0.1825253E-04  0.1756564E+04  0.7818609E-02  0.8729745E-01
        1   -1    0    0  501    0  0.00000000000E+00  0.00000000000E+00  0.13289134375E+04  0.13289134376E+04  0.50400001928E-02 0.  1.
       -1   -1    0    0    0  501  0.00000000000E+00  0.00000000000E+00 -0.58045883375E+03  0.58045883377E+03  0.50400001928E-02 0. -1.
    10030    2    1    2    0    0  0.00000000000E+00  0.00000000000E+00  0.74845460380E+03  0.19093722713E+04  0.17565643104E+04 0.  0.
        4    1    3    3  502    0 -0.40883609887E+03 -0.29314931875E+03  0.11567822411E+04  0.12614397509E+04  0.12699999809E+01 0.  1.
       -4    1    3    3    0  502  0.40883609887E+03  0.29314931875E+03 -0.40832763730E+03  0.64793252048E+03  0.12699999809E+01 0. -1.
</event>
<event>
 5   0  0.1837313E-04  0.1798551E+04  0.7818609E-02  0.8707070E-01
       -1   -1    0    0    0  501  0.00000000000E+00  0.00000000000E+00  0.59597717750E+03  0.59597717752E+03  0.50400001928E-02 0.  1.
        1   -1    0    0  501    0  0.00000000000E+00  0.00000000000E+00 -0.13569256748E+04  0.13569256748E+04  0.50400001928E-02 0. -1.
    10030    2    1    2    0    0  0.00000000000E+00  0.00000000000E+00 -0.76094849727E+03  0.19529028523E+04  0.17985513434E+04 0.  0.
        1    1    3    3  502    0 -0.49225875087E+02  0.68082147997E+03  0.25522268519E+03  0.72875214815E+03  0.50400001928E-02 0.  1.
       -1    1    3    3    0  502  0.49225875087E+02 -0.68082147997E+03 -0.10161711825E+04  0.12241507041E+04  0.50400001928E-02 0. -1.
</event>
<event>
 5   0  0.1835421E-04  0.1785031E+04  0.7818609E-02  0.8714301E-01
       -1   -1    0    0    0  501  0.00000000000E+00  0.00000000000E+00  0.61921085938E+03  0.61921085940E+03  0.50400001928E-02 0.  1.
        1   -1    0    0  501    0  0.00000000000E+00  0.00000000000E+00 -0.12864496781E+04  0.12864496781E+04  0.50400001928E-02 0. -1.
    10030    2    1    2    0    0  0.00000000000E+00  0.00000000000E+00 -0.66723881869E+03  0.19056605375E+04  0.17850306560E+04 0.  0.
        2    1    3    3  502    0 -0.50662652758E+03  0.73407664404E+03 -0.29911410358E+03  0.94074874687E+03  0.25500000920E-02 0. -1.
       -2    1    3    3    0  502  0.50662652758E+03 -0.73407664404E+03 -0.36812471511E+03  0.96491179061E+03  0.25500000920E-02 0.  1.
</event>
<event>
 5   0  0.1818778E-04  0.1791760E+04  0.7818609E-02  0.8710694E-01
        1   -1    0    0  501    0  0.00000000000E+00  0.00000000000E+00  0.85215564176E+03  0.85215564177E+03  0.50400001928E-02 0.  1.
       -1   -1    0    0    0  501  0.00000000000E+00  0.00000000000E+00 -0.94184757371E+03  0.94184757372E+03  0.50400001928E-02 0. -1.
    10030    2    1    2    0    0  0.00000000000E+00  0.00000000000E+00 -0.89691931951E+02  0.17940032155E+04  0.17917597201E+04 0.  0.
        3    1    3    3  502    0  0.10495459286E+03 -0.14924442540E+03  0.83335622734E+03  0.85309552626E+03  0.10100000352E+00 0.  1.
       -3    1    3    3    0  502 -0.10495459286E+03  0.14924442540E+03 -0.92304815929E+03  0.94090768923E+03  0.10100000352E+00 0. -1.
</event>
<event>
 5   0  0.3582186E-04  0.1839595E+04  0.7818609E-02  0.8685522E-01
        2   -1    0    0  501    0  0.00000000000E+00  0.00000000000E+00  0.14402382204E+04  0.14402382204E+04  0.25500000920E-02 0. -1.
       -2   -1    0    0    0  501  0.00000000000E+00  0.00000000000E+00 -0.58742183950E+03  0.58742183951E+03  0.25500000920E-02 0.  1.
    10030    2    1    2    0    0  0.00000000000E+00  0.00000000000E+00  0.85281638086E+03  0.20276600599E+04  0.18395949388E+04 0.  0.
        4    1    3    3  502    0  0.51353341328E+03 -0.64595509663E+03  0.87420635373E+03  0.12021700858E+04  0.12699999809E+01 0. -1.
       -4    1    3    3    0  502 -0.51353341328E+03  0.64595509663E+03 -0.21389972873E+02  0.82548997406E+03  0.12699999809E+01 0.  1.
</event>
<event>
 5   0  0.3582186E-04  0.1816001E+04  0.7818609E-02  0.8697836E-01
       -2   -1    0    0    0  501  0.00000000000E+00  0.00000000000E+00  0.79293496382E+03  0.79293496382E+03  0.25500000920E-02 0. -1.
        2   -1    0    0  501    0  0.00000000000E+00  0.00000000000E+00 -0.10397632061E+04  0.10397632061E+04  0.25500000920E-02 0.  1.
    10030    2    1    2    0    0  0.00000000000E+00  0.00000000000E+00 -0.24682824223E+03  0.18326981699E+04  0.18160006610E+04 0.  0.
        4    1    3    3  502    0 -0.59713111606E+03  0.38493928592E+03  0.44722202512E+03  0.83949566780E+03  0.12699999809E+01 0. -1.
       -4    1    3    3    0  502  0.59713111606E+03 -0.38493928592E+03 -0.69405026736E+03  0.99320250207E+03  0.12699999809E+01 0.  1.
</event>
<event>
 5   0  0.1835421E-04  0.1802370E+04  0.7818609E-02  0.8705040E-01
       -1   -1    0    0    0  501  0.00000000000E+00  0.00000000000E+00  0.53930894936E+03  0.53930894938E+03  0.50400001928E-02 0.  1.
        1   -1    0    0  501    0  0.00000000000E+00  0.00000000000E+00 -0.15058792528E+04  0.15058792528E+04  0.50400001928E-02 0. -1.
    10030    2    1    2    0    0  0.00000000000E+00  0.00000000000E+00 -0.96657030346E+03  0.20451882022E+04  0.18023697265E+04 0.  0.
        2    1    3    3  502    0  0.45866917878E+03 -0.17928433641E+03 -0.13396910941E+04  0.14273375622E+04  0.25500000920E-02 0. -1.
       -2    1    3    3    0  502 -0.45866917878E+03  0.17928433641E+03  0.37312079069E+03  0.61785063996E+03  0.25500000920E-02 0.  1.
</event>
<event>
 5   0  0.3582186E-04  0.1769543E+04  0.7818609E-02  0.8722666E-01
       -2   -1    0    0    0  501  0.00000000000E+00  0.00000000000E+00  0.28351922995E+03  0.28351922996E+03  0.25500000920E-02 0.  1.
        2   -1    0    0  501    0  0.00000000000E+00  0.00000000000E+00 -0.27610842943E+04  0.27610842943E+04  0.25500000920E-02 0. -1.
    10030    2    1    2    0    0  0.00000000000E+00  0.00000000000E+00 -0.24775650643E+04  0.30446035242E+04  0.17695428709E+04 0.  0.
        4    1    3    3  502    0  0.14197372807E+03  0.32242331594E+03 -0.26352001420E+04  0.26586452820E+04  0.12699999809E+01 0. -1.
       -4    1    3    3    0  502 -0.14197372807E+03 -0.32242331594E+03  0.15763507770E+03  0.38595824223E+03  0.12699999809E+01 0.  1.
</event>
<event>
 5   0  0.3568870E-04  0.1789355E+04  0.7818609E-02  0.8711981E-01
       -2   -1    0    0    0  501  0.00000000000E+00  0.00000000000E+00  0.57603433313E+03  0.57603433313E+03  0.25500000920E-02 0.  1.
        2   -1    0    0  501    0  0.00000000000E+00  0.00000000000E+00 -0.13895836916E+04  0.13895836916E+04  0.25500000920E-02 0. -1.
    10030    2    1    2    0    0  0.00000000000E+00  0.00000000000E+00 -0.81354935849E+03  0.19656180248E+04  0.17893550963E+04 0.  0.
        1    1    3    3  502    0  0.16099897479E+03 -0.72371644625E+03 -0.95686403065E+03  0.12104854141E+04  0.50400001928E-02 0. -1.
       -1    1    3    3    0  502 -0.16099897479E+03  0.72371644625E+03  0.14331467216E+03  0.75513261070E+03  0.50400001928E-02 0.  1.
</event>
<event>
 5   0  0.3582186E-04  0.1820397E+04  0.7818609E-02  0.8695527E-01
        2   -1    0    0  501    0  0.00000000000E+00  0.00000000000E+00  0.20295025264E+04  0.20295025264E+04  0.25500000920E-02 0. -1.
       -2   -1    0    0    0  501  0.00000000000E+00  0.00000000000E+00 -0.40820917369E+03  0.40820917370E+03  0.25500000920E-02 0.  1.
    10030    2    1    2    0    0  0.00000000000E+00  0.00000000000E+00  0.16212933527E+04  0.24377117001E+04  0.18203972636E+04 0.  0.
        4    1    3    3  502    0 -0.18706958038E+03 -0.65029993055E+03  0.16258279096E+04  0.17610232912E+04  0.12699999809E+01 0. -1.
       -4    1    3    3    0  502  0.18706958038E+03  0.65029993055E+03 -0.45345569422E+01  0.67668840886E+03  0.12699999809E+01 0.  1.
</event>
<event>
 5   0  0.1818778E-04  0.1792798E+04  0.7818609E-02  0.8710139E-01
        1   -1    0    0  501    0  0.00000000000E+00  0.00000000000E+00  0.13433728565E+04  0.13433728565E+04  0.50400001928E-02 0.  1.
       -1   -1    0    0    0  501  0.00000000000E+00  0.00000000000E+00 -0.59814432405E+03  0.59814432407E+03  0.50400001928E-02 0. -1.
    10030    2    1    2    0    0  0.00000000000E+00  0.00000000000E+00  0.74522853243E+03  0.19415171806E+04  0.17927976453E+04 0.  0.
        3    1    3    3  502    0 -0.49174595919E+03  0.94143758780E+02 -0.43260670365E+03  0.66168399251E+03  0.10100000352E+00 0. -1.
       -3    1    3    3    0  502  0.49174595919E+03 -0.94143758780E+02  0.11778352361E+04  0.12798331881E+04  0.10100000352E+00 0.  1.
</event>
<event>
 5   0  0.3575091E-04  0.1809915E+04  0.7818609E-02  0.8701044E-01
       -2   -1    0    0    0  501  0.00000000000E+00  0.00000000000E+00  0.84191863906E+03  0.84191863907E+03  0.25500000920E-02 0. -1.
        2   -1    0    0  501    0  0.00000000000E+00  0.00000000000E+00 -0.97271646561E+03  0.97271646562E+03  0.25500000920E-02 0.  1.
    10030    2    1    2    0    0  0.00000000000E+00  0.00000000000E+00 -0.13079782655E+03  0.18146351047E+04  0.18099150510E+04 0.  0.
        5    1    3    3  502    0 -0.50653196470E+03 -0.74965514974E+03 -0.84646847219E+02  0.90870493205E+03  0.46999998093E+01 0.  1.
       -5    1    3    3    0  502  0.50653196470E+03  0.74965514974E+03 -0.46150979331E+02  0.90593017263E+03  0.46999998093E+01 0. -1.
</event>
<event>
 5   0  0.1818778E-04  0.1823679E+04  0.7818609E-02  0.8693808E-01
       -1   -1    0    0    0  501  0.00000000000E+00  0.00000000000E+00  0.13182567449E+04  0.13182567449E+04  0.50400001928E-02 0.  1.
        1   -1    0    0  501    0  0.00000000000E+00  0.00000000000E+00 -0.63072045728E+03  0.63072045730E+03  0.50400001928E-02 0. -1.
    10030    2    1    2    0    0  0.00000000000E+00  0.00000000000E+00  0.68753628757E+03  0.19489772022E+04  0.18236792448E+04 0.  0.
        3    1    3    3  502    0  0.18932244511E+03 -0.17722551959E+03  0.12780151408E+04  0.13040608050E+04  0.10100000352E+00 0.  1.
       -3    1    3    3    0  502 -0.18932244511E+03  0.17722551959E+03 -0.59047885319E+03  0.64491639713E+03  0.10100000352E+00 0. -1.
</event>
<event>
 5   0  0.1818778E-04  0.1853355E+04  0.7818609E-02  0.8678430E-01
       -1   -1    0    0    0  501  0.00000000000E+00  0.00000000000E+00  0.39413228481E+03  0.39413228484E+03  0.50400001928E-02 0.  1.
        1   -1    0    0  501    0  0.00000000000E+00  0.00000000000E+00 -0.21787881540E+04  0.21787881540E+04  0.50400001928E-02 0. -1.
    10030    2    1    2    0    0  0.00000000000E+00  0.00000000000E+00 -0.17846558692E+04  0.25729204388E+04  0.18533545298E+04 0.  0.
        3    1    3    3  502    0 -0.43616263433E+03 -0.79412749057E+03 -0.62222693061E+03  0.10991099482E+04  0.10100000352E+00 0. -1.
       -3    1    3    3    0  502  0.43616263433E+03  0.79412749057E+03 -0.11624289385E+04  0.14738104906E+04  0.10100000352E+00 0.  1.
</event>
<event>
 5   0  0.3531266E-04  0.1766797E+04  0.7818609E-02  0.8724158E-01
       -2   -1    0    0    0  501  0.00000000000E+00  0.00000000000E+00  0.58955543524E+03  0.58955543524E+03  0.25500000920E-02 0.  1.
        2   -1    0    0  501    0  0.00000000000E+00  0.00000000000E+00 -0.13236978609E+04  0.13236978609E+04  0.25500000920E-02 0. -1.
    10030    2    1    2    0    0  0.00000000000E+00  0.00000000000E+00 -0.73414242563E+03  0.19132532961E+04  0.17667974060E+04 0.  0.
        3    1    3    3  502    0 -0.87510116523E+03 -0.10811581294E+02 -0.23678910349E+03  0.90663555490E+03  0.10100000352E+00 0.  1.
       -3    1    3    3    0  502  0.87510116523E+03  0.10811581294E+02 -0.49735332214E+03  0.10066177412E+04  0.10100000352E+00 0. -1.
</event>
<event>
 5   0  0.1837313E-04  0.1792393E+04  0.7818609E-02  0.8710355E-01
        1   -1    0    0  501    0  0.00000000000E+00  0.00000000000E+00  0.68786031694E+03  0.68786031696E+03  0.50400001928E-02 0. -1.
       -1   -1    0    0    0  501  0.00000000000E+00  0.00000000000E+00 -0.11676326359E+04  0.11676326360E+04  0.50400001928E-02 0.  1.
    10030    2    1    2    0    0  0.00000000000E+00  0.00000000000E+00 -0.47977231900E+03  0.18554929529E+04  0.17923929871E+04 0.  0.
        1    1    3    3  502    0 -0.23956985273E+03 -0.50195378619E+03  0.48757367593E+03  0.73964816453E+03  0.50400001928E-02 0. -1.
       -1    1    3    3    0  502  0.23956985273E+03  0.50195378619E+03 -0.96734599493E+03  0.11158447884E+04  0.50400001928E-02 0.  1.
</event>
<event>
 5   0  0.1825253E-04  0.1807675E+04  0.7818609E-02  0.8702229E-01
        1   -1    0    0  501    0  0.00000000000E+00  0.00000000000E+00  0.82293167815E+03  0.82293167817E+03  0.50400001928E-02 0.  1.
       -1   -1    0    0    0  501  0.00000000000E+00  0.00000000000E+00 -0.99269736287E+03  0.99269736289E+03  0.50400001928E-02 0. -1.
    10030    2    1    2    0    0  0.00000000000E+00  0.00000000000E+00 -0.16976568472E+03  0.18156290411E+04  0.18076748676E+04 0.  0.
        4    1    3    3  502    0  0.62677776913E+03 -0.60876125589E+03 -0.31715754483E+03  0.92953276419E+03  0.12699999809E+01 0. -1.
       -4    1    3    3    0  502 -0.62677776913E+03  0.60876125589E+03  0.14739186011E+03  0.88609627687E+03  0.12699999809E+01 0.  1.
</event>
<event>
 5   0  0.1883959E-04  0.1800977E+04  0.7818609E-02  0.8705780E-01
       -1   -1    0    0    0  501  0.00000000000E+00  0.00000000000E+00  0.46588288137E+03  0.46588288140E+03  0.50400001928E-02 0. -1.
        1   -1    0    0  501    0  0.00000000000E+00  0.00000000000E+00 -0.17405214022E+04  0.17405214022E+04  0.50400001928E-02 0.  1.
    10030    2    1    2    0    0  0.00000000000E+00  0.00000000000E+00 -0.12746385208E+04  0.22064042836E+04  0.18009765417E+04 0.  0.
        5    1    3    3  502    0 -0.17082413453E+03 -0.47338348879E+03  0.27749362799E+03  0.57471524773E+03  0.46999998093E+01 0. -1.
       -5    1    3    3    0  502  0.17082413453E+03  0.47338348879E+03 -0.15521321488E+04  0.16316890359E+04  0.46999998093E+01 0.  1.
</event>
<event>
 5   0  0.1825253E-04  0.1791256E+04  0.7818609E-02  0.8710964E-01
       -1   -1    0    0    0  501  0.00000000000E+00  0.00000000000E+00  0.41912364396E+03  0.41912364399E+03  0.50400001928E-02 0.  1.
        1   -1    0    0  501    0  0.00000000000E+00  0.00000000000E+00 -0.19138722934E+04  0.19138722934E+04  0.50400001928E-02 0. -1.
    10030    2    1    2    0    0  0.00000000000E+00  0.00000000000E+00 -0.14947486495E+04  0.23329959374E+04  0.17912555705E+04 0.  0.
        4    1    3    3  502    0  0.10548744963E+03  0.29880637192E+03  0.34367125595E+03  0.46746592923E+03  0.12699999809E+01 0.  1.
       -4    1    3    3    0  502 -0.10548744963E+03 -0.29880637192E+03 -0.18384199054E+04  0.18655300082E+04  0.12699999809E+01 0. -1.
</event>
<event>
 5   0  0.1837313E-04  0.1286274E+04  0.7818609E-02  0.9040521E-01
       -1   -1    0    0    0  501  0.00000000000E+00  0.00000000000E+00  0.26891681649E+03  0.26891681654E+03  0.50400001928E-02 0.  1.
        1   -1    0    0  501    0  0.00000000000E+00  0.00000000000E+00 -0.15381156655E+04  0.15381156655E+04  0.50400001928E-02 0. -1.
    10030    2    1    2    0    0  0.00000000000E+00  0.00000000000E+00 -0.12691988490E+04  0.18070324820E+04  0.12862739494E+04 0.  0.
        1    1    3    3  502    0  0.22477585925E+02 -0.17151177770E+03  0.23562334548E+03  0.29230103099E+03  0.50400001928E-02 0.  1.
       -1    1    3    3    0  502 -0.22477585925E+02  0.17151177770E+03 -0.15048221945E+04  0.15147314510E+04  0.50400001928E-02 0. -1.
</event>
<event>
 5   0  0.3582186E-04  0.1796343E+04  0.7818609E-02  0.8708247E-01
        2   -1    0    0  501    0  0.00000000000E+00  0.00000000000E+00  0.75272212426E+03  0.75272212427E+03  0.25500000920E-02 0.  1.
       -2   -1    0    0    0  501  0.00000000000E+00  0.00000000000E+00 -0.10717261441E+04  0.10717261441E+04  0.25500000920E-02 0. -1.
    10030    2    1    2    0    0  0.00000000000E+00  0.00000000000E+00 -0.31900401983E+03  0.18244482684E+04  0.17963429292E+04 0.  0.
        4    1    3    3  502    0  0.50369940392E+02  0.40782351532E+03 -0.97065482487E+03  0.10540538660E+04  0.12699999809E+01 0. -1.
       -4    1    3    3    0  502 -0.50369940392E+02 -0.40782351532E+03  0.65165080504E+03  0.77039440234E+03  0.12699999809E+01 0.  1.
</event>
<event>
 5   0  0.1825253E-04  0.1778010E+04  0.7818609E-02  0.8718082E-01
        1   -1    0    0  501    0  0.00000000000E+00  0.00000000000E+00  0.17724962782E+04  0.17724962782E+04  0.50400001928E-02 0. -1.
       -1   -1    0    0    0  501  0.00000000000E+00  0.00000000000E+00 -0.44588503437E+03  0.44588503440E+03  0.50400001928E-02 0.  1.
    10030    2    1    2    0    0  0.00000000000E+00  0.00000000000E+00  0.13266112438E+04  0.22183813126E+04  0.17780096332E+04 0.  0.
        4    1    3    3  502    0 -0.89900038379E+02 -0.88015488390E+03  0.55472681017E+03  0.10442595862E+04  0.12699999809E+01 0.  1.
       -4    1    3    3    0  502  0.89900038379E+02  0.88015488390E+03  0.77188443361E+03  0.11741217264E+04  0.12699999809E+01 0. -1.
</event>
<event>
 5   0  0.1825253E-04  0.1773955E+04  0.7818609E-02  0.8720274E-01
       -1   -1    0    0    0  501  0.00000000000E+00  0.00000000000E+00  0.63504733182E+03  0.63504733184E+03  0.50400001928E-02 0. -1.
        1   -1    0    0  501    0  0.00000000000E+00  0.00000000000E+00 -0.12388514540E+04  0.12388514540E+04  0.50400001928E-02 0.  1.
    10030    2    1    2    0    0  0.00000000000E+00  0.00000000000E+00 -0.60380412222E+03  0.18738987859E+04  0.17739552536E+04 0.  0.
        4    1    3    3  502    0 -0.16232493355E+03 -0.83570282972E+03 -0.38920027035E+02  0.85221181936E+03  0.12699999809E+01 0.  1.
       -4    1    3    3    0  502  0.16232493355E+03  0.83570282972E+03 -0.56488409518E+03  0.10216869665E+04  0.12699999809E+01 0. -1.
</event>
<event>
 5   0  0.1818778E-04  0.1823945E+04  0.7818609E-02  0.8693669E-01
        1   -1    0    0  501    0  0.00000000000E+00  0.00000000000E+00  0.84089058740E+03  0.84089058742E+03  0.50400001928E-02 0. -1.
       -1   -1    0    0    0  501  0.00000000000E+00  0.00000000000E+00 -0.98906276651E+03  0.98906276652E+03  0.50400001928E-02 0.  1.
    10030    2    1    2    0    0  0.00000000000E+00  0.00000000000E+00 -0.14817217911E+03  0.18299533539E+04  0.18239447039E+04 0.  0.
        3    1    3    3  502    0  0.63489089037E+03 -0.57979195791E+02 -0.72834286783E+03  0.96795215436E+03  0.10100000352E+00 0.  1.
       -3    1    3    3    0  502 -0.63489089037E+03  0.57979195791E+02  0.58017068872E+03  0.86200119958E+03  0.10100000352E+00 0. -1.
</event>
<event>
 5   0  0.1818778E-04  0.1827430E+04  0.7818609E-02  0.8691847E-01
       -1   -1    0    0    0  501  0.00000000000E+00  0.00000000000E+00  0.78816617637E+03  0.78816617639E+03  0.50400001928E-02 0. -1.
        1   -1    0    0  501    0  0.00000000000E+00  0.00000000000E+00 -0.10592624223E+04  0.10592624223E+04  0.50400001928E-02 0.  1.
    10030    2    1    2    0    0  0.00000000000E+00  0.00000000000E+00 -0.27109624594E+03  0.18474285987E+04  0.18274296848E+04 0.  0.
        3    1    3    3  502    0 -0.37729917673E+03 -0.16606321688E+03  0.68881630381E+03  0.80274502263E+03  0.10100000352E+00 0. -1.
       -3    1    3    3    0  502  0.37729917673E+03  0.16606321688E+03 -0.95991254975E+03  0.10446835761E+04  0.10100000352E+00 0.  1.
</event>
<event>
 5   0  0.3582186E-04  0.1816889E+04  0.7818609E-02  0.8697369E-01
       -2   -1    0    0    0  501  0.00000000000E+00  0.00000000000E+00  0.33021591685E+03  0.33021591686E+03  0.25500000920E-02 0. -1.
        2   -1    0    0  501    0  0.00000000000E+00  0.00000000000E+00 -0.24991877993E+04  0.24991877993E+04  0.25500000920E-02 0.  1.
    10030    2    1    2    0    0  0.00000000000E+00  0.00000000000E+00 -0.21689718824E+04  0.28294037162E+04  0.18168891992E+04 0.  0.
        4    1    3    3  502    0  0.39577043960E+03 -0.20135975047E+02  0.18851742423E+03  0.43883952704E+03  0.12699999809E+01 0. -1.
       -4    1    3    3    0  502 -0.39577043960E+03  0.20135975047E+02 -0.23574893067E+04  0.23905641891E+04  0.12699999809E+01 0.  1.
</event>
<event>
 5   0  0.1835421E-04  0.1828965E+04  0.7818609E-02  0.8691046E-01
        1   -1    0    0  501    0  0.00000000000E+00  0.00000000000E+00  0.15602555362E+04  0.15602555362E+04  0.50400001928E-02 0. -1.
       -1   -1    0    0    0  501  0.00000000000E+00  0.00000000000E+00 -0.53598810872E+03  0.53598810875E+03  0.50400001928E-02 0.  1.
    10030    2    1    2    0    0  0.00000000000E+00  0.00000000000E+00  0.10242674274E+04  0.20962436449E+04  0.18289651872E+04 0.  0.
        2    1    3    3  502    0 -0.56298648553E+03 -0.70528614072E+03  0.68173127872E+03  0.11309906541E+04  0.25500000920E-02 0. -1.
       -2    1    3    3    0  502  0.56298648553E+03  0.70528614072E+03  0.34253614873E+03  0.96525299086E+03  0.25500000920E-02 0.  1.
</event>
<event>
 5   0  0.1825253E-04  0.1786799E+04  0.7818609E-02  0.8713351E-01
       -1   -1    0    0    0  501  0.00000000000E+00  0.00000000000E+00  0.96655772640E+03  0.96655772641E+03  0.50400001928E-02 0. -1.
        1   -1    0    0  501    0  0.00000000000E+00  0.00000000000E+00 -0.82577834638E+03  0.82577834639E+03  0.50400001928E-02 0.  1.
    10030    2    1    2    0    0  0.00000000000E+00  0.00000000000E+00  0.14077938002E+03  0.17923360728E+04  0.17867987475E+04 0.  0.
        4    1    3    3  502    0 -0.64661464227E+03 -0.97980157604E+02 -0.54014273698E+03  0.84821365003E+03  0.12699999809E+01 0.  1.
       -4    1    3    3    0  502  0.64661464227E+03  0.97980157604E+02  0.68092211700E+03  0.94412242278E+03  0.12699999809E+01 0. -1.
</event>
<event>
 5   0  0.3582186E-04  0.1791774E+04  0.7818609E-02  0.8710686E-01
       -2   -1    0    0    0  501  0.00000000000E+00  0.00000000000E+00  0.15751726641E+04  0.15751726641E+04  0.25500000920E-02 0. -1.
        2   -1    0    0  501    0  0.00000000000E+00  0.00000000000E+00 -0.50954024743E+03  0.50954024744E+03  0.25500000920E-02 0.  1.
    10030    2    1    2    0    0  0.00000000000E+00  0.00000000000E+00  0.10656324167E+04  0.20847129116E+04  0.17917743932E+04 0.  0.
        4    1    3    3  502    0 -0.12379710336E+03 -0.51938892601E+03 -0.30418715512E+03  0.61450957478E+03  0.12699999809E+01 0.  1.
       -4    1    3    3    0  502  0.12379710336E+03  0.51938892601E+03  0.13698195718E+04  0.14702033368E+04  0.12699999809E+01 0. -1.
</event>
<event>
 5   0  0.3575091E-04  0.1799725E+04  0.7818609E-02  0.8706446E-01
       -2   -1    0    0    0  501  0.00000000000E+00  0.00000000000E+00  0.55127898808E+03  0.55127898809E+03  0.25500000920E-02 0. -1.
        2   -1    0    0  501    0  0.00000000000E+00  0.00000000000E+00 -0.14688614849E+04  0.14688614849E+04  0.25500000920E-02 0.  1.
    10030    2    1    2    0    0  0.00000000000E+00  0.00000000000E+00 -0.91758249677E+03  0.20201404729E+04  0.17997249490E+04 0.  0.
        5    1    3    3  502    0  0.88422892189E+03  0.11214841798E+03 -0.59759853018E+03  0.10731188877E+04  0.46999998093E+01 0. -1.
       -5    1    3    3    0  502 -0.88422892189E+03 -0.11214841798E+03 -0.31998396660E+03  0.94702158520E+03  0.46999998093E+01 0.  1.
</event>
<event>
 5   0  0.1825253E-04  0.1816741E+04  0.7818609E-02  0.8697447E-01
        1   -1    0    0  501    0  0.00000000000E+00  0.00000000000E+00  0.10520213730E+04  0.10520213730E+04  0.50400001928E-02 0.  1.
       -1   -1    0    0    0  501  0.00000000000E+00  0.00000000000E+00 -0.78433470888E+03  0.78433470889E+03  0.50400001928E-02 0. -1.
    10030    2    1    2    0    0  0.00000000000E+00  0.00000000000E+00  0.26768666415E+03  0.18363560819E+04  0.18167409032E+04 0.  0.
        4    1    3    3  502    0  0.75589315948E+03 -0.50555505075E+02 -0.37277160275E+03  0.84432849553E+03  0.12699999809E+01 0. -1.
       -4    1    3    3    0  502 -0.75589315948E+03  0.50555505075E+02  0.64045826691E+03  0.99202758641E+03  0.12699999809E+01 0.  1.
</event>
<event>
 5   0  0.3582186E-04  0.1817638E+04  0.7818609E-02  0.8696976E-01
        2   -1    0    0  501    0  0.00000000000E+00  0.00000000000E+00  0.15409456130E+04  0.15409456130E+04  0.25500000920E-02 0. -1.
       -2   -1    0    0    0  501  0.00000000000E+00  0.00000000000E+00 -0.53600307940E+03  0.53600307941E+03  0.25500000920E-02 0.  1.
    10030    2    1    2    0    0  0.00000000000E+00  0.00000000000E+00  0.10049425336E+04  0.20769486924E+04  0.18176375808E+04 0.  0.
        4    1    3    3  502    0 -0.67979707983E+03 -0.59782157893E+03  0.59413591815E+03  0.10828267692E+04  0.12699999809E+01 0.  1.
       -4    1    3    3    0  502  0.67979707983E+03  0.59782157893E+03  0.41080661544E+03  0.99412192319E+03  0.12699999809E+01 0. -1.
</event>
<event>
 5   0  0.3531266E-04  0.1774919E+04  0.7818609E-02  0.8719752E-01
       -2   -1    0    0    0  501  0.00000000000E+00  0.00000000000E+00  0.46541324632E+03  0.46541324633E+03  0.25500000920E-02 0. -1.
        2   -1    0    0  501    0  0.00000000000E+00  0.00000000000E+00 -0.16922252473E+04  0.16922252473E+04  0.25500000920E-02 0.  1.
    10030    2    1    2    0    0  0.00000000000E+00  0.00000000000E+00 -0.12268120010E+04  0.21576384937E+04  0.17749186414E+04 0.  0.
        3    1    3    3  502    0  0.48009402792E+03 -0.32503709140E+03  0.20336909271E+03  0.61440897169E+03  0.10100000352E+00 0. -1.
       -3    1    3    3    0  502 -0.48009402792E+03  0.32503709140E+03 -0.14301810937E+04  0.15432295220E+04  0.10100000352E+00 0.  1.
</event>
<event>
 5   0  0.1883959E-04  0.1818490E+04  0.7818609E-02  0.8696528E-01
       -1   -1    0    0    0  501  0.00000000000E+00  0.00000000000E+00  0.68355698277E+03  0.68355698279E+03  0.50400001928E-02 0. -1.
        1   -1    0    0  501    0  0.00000000000E+00  0.00000000000E+00 -0.12094480364E+04  0.12094480364E+04  0.50400001928E-02 0.  1.
    10030    2    1    2    0    0  0.00000000000E+00  0.00000000000E+00 -0.52589105363E+03  0.18930050192E+04  0.18184901986E+04 0.  0.
        5    1    3    3  502    0 -0.47203883627E+03 -0.77517918278E+03 -0.31978256288E+03  0.96229226635E+03  0.46999998093E+01 0.  1.
       -5    1    3    3    0  502  0.47203883627E+03  0.77517918278E+03 -0.20610849075E+03  0.93071275285E+03  0.46999998093E+01 0. -1.
</event>
<event>
 5   0  0.3628581E-04  0.1806460E+04  0.7818609E-02  0.8702872E-01
        2   -1    0    0  501    0  0.00000000000E+00  0.00000000000E+00  0.14571086988E+04  0.14571086988E+04  0.25500000920E-02 0. -1.
       -2   -1    0    0    0  501  0.00000000000E+00  0.00000000000E+00 -0.55989247116E+03  0.55989247116E+03  0.25500000920E-02 0.  1.
    10030    2    1    2    0    0  0.00000000000E+00  0.00000000000E+00  0.89721622762E+03  0.20170011699E+04  0.18064597312E+04 0.  0.
        2    1    3    3  502    0 -0.26926841341E+03 -0.82727344776E+03  0.71967295054E+03  0.11290774958E+04  0.25500000920E-02 0.  1.
       -2    1    3    3    0  502  0.26926841341E+03  0.82727344776E+03  0.17754327708E+03  0.88792367412E+03  0.25500000920E-02 0. -1.
</event>
<event>
 5   0  0.1883959E-04  0.1799299E+04  0.7818609E-02  0.8706672E-01
        1   -1    0    0  501    0  0.00000000000E+00  0.00000000000E+00  0.11119720061E+04  0.11119720061E+04  0.50400001928E-02 0. -1.
       -1   -1    0    0    0  501  0.00000000000E+00  0.00000000000E+00 -0.72786872976E+03  0.72786872977E+03  0.50400001928E-02 0.  1.
    10030    2    1    2    0    0  0.00000000000E+00  0.00000000000E+00  0.38410327630E+03  0.18398407358E+04  0.17992994766E+04 0.  0.
        5    1    3    3  502    0  0.37112481160E+03  0.64342002148E+03 -0.32695205936E+03  0.81156804332E+03  0.46999998093E+01 0.  1.
       -5    1    3    3    0  502 -0.37112481160E+03 -0.64342002148E+03  0.71105533566E+03  0.10282726925E+04  0.46999998093E+01 0. -1.
</event>
<event>
 5   0  0.3628581E-04  0.1801535E+04  0.7818609E-02  0.8705483E-01
       -2   -1    0    0    0  501  0.00000000000E+00  0.00000000000E+00  0.68742256265E+03  0.68742256266E+03  0.25500000920E-02 0.  1.
        2   -1    0    0  501    0  0.00000000000E+00  0.00000000000E+00 -0.11803254666E+04  0.11803254666E+04  0.25500000920E-02 0. -1.
    10030    2    1    2    0    0  0.00000000000E+00  0.00000000000E+00 -0.49290290392E+03  0.18677480292E+04  0.18015352975E+04 0.  0.
        2    1    3    3  502    0  0.19218026054E+03  0.85093837583E+03 -0.13809452519E+02  0.87247926794E+03  0.25500000920E-02 0.  1.
       -2    1    3    3    0  502 -0.19218026054E+03 -0.85093837583E+03 -0.47909345140E+03  0.99526876128E+03  0.25500000920E-02 0. -1.
</event>
<event>
 5   0  0.1818778E-04  0.1752081E+04  0.7818609E-02  0.8732206E-01
        1   -1    0    0  501    0  0.00000000000E+00  0.00000000000E+00  0.10742810719E+04  0.10742810719E+04  0.50400001928E-02 0. -1.
       -1   -1    0    0    0  501  0.00000000000E+00  0.00000000000E+00 -0.71438202548E+03  0.71438202549E+03  0.50400001928E-02 0.  1.
    10030    2    1    2    0    0  0.00000000000E+00  0.00000000000E+00  0.35989904638E+03  0.17886630974E+04  0.17520811489E+04 0.  0.
        3    1    3    3  502    0 -0.62493589481E+03  0.39403227056E+03 -0.30066751200E+03  0.79762601878E+03  0.10100000352E+00 0.  1.
       -3    1    3    3    0  502  0.62493589481E+03 -0.39403227056E+03  0.66056655837E+03  0.99103707858E+03  0.10100000352E+00 0. -1.
</event>
<event>
 5   0  0.3531266E-04  0.1800660E+04  0.7818609E-02  0.8705949E-01
       -2   -1    0    0    0  501  0.00000000000E+00  0.00000000000E+00  0.76673035113E+03  0.76673035113E+03  0.25500000920E-02 0.  1.
        2   -1    0    0  501    0  0.00000000000E+00  0.00000000000E+00 -0.10572086395E+04  0.10572086395E+04  0.25500000920E-02 0. -1.
    10030    2    1    2    0    0  0.00000000000E+00  0.00000000000E+00 -0.29047828842E+03  0.18239389907E+04  0.18006598251E+04 0.  0.
        3    1    3    3  502    0 -0.14334413416E+02  0.65953792954E+02  0.76416419058E+03  0.76713903471E+03  0.10100000352E+00 0.  1.
       -3    1    3    3    0  502  0.14334413416E+02 -0.65953792954E+02 -0.10546424790E+04  0.10567999560E+04  0.10100000352E+00 0. -1.
</event>
<event>
 5   0  0.1835421E-04  0.1813369E+04  0.7818609E-02  0.8699222E-01
        1   -1    0    0  501    0  0.00000000000E+00  0.00000000000E+00  0.43347357013E+03  0.43347357016E+03  0.50400001928E-02 0.  1.
       -1   -1    0    0    0  501  0.00000000000E+00  0.00000000000E+00 -0.18964865004E+04  0.18964865004E+04  0.50400001928E-02 0. -1.
    10030    2    1    2    0    0  0.00000000000E+00  0.00000000000E+00 -0.14630129303E+04  0.23299600706E+04  0.18133689907E+04 0.  0.
        2    1    3    3  502    0 -0.88316864067E+03  0.20425348230E+03 -0.75623633954E+03  0.11805082525E+04  0.25500000920E-02 0. -1.
       -2    1    3    3    0  502  0.88316864067E+03 -0.20425348230E+03 -0.70677659072E+03  0.11494518181E+04  0.25500000920E-02 0.  1.
</event>
<event>
 5   0  0.1837313E-04  0.1992607E+04  0.7818609E-02  0.8610085E-01
       -1   -1    0    0    0  501  0.00000000000E+00  0.00000000000E+00  0.60312510073E+03  0.60312510075E+03  0.50400001928E-02 0.  1.
        1   -1    0    0  501    0  0.00000000000E+00  0.00000000000E+00 -0.16457953863E+04  0.16457953863E+04  0.50400001928E-02 0. -1.
    10030    2    1    2    0    0  0.00000000000E+00  0.00000000000E+00 -0.10426702856E+04  0.22489204870E+04  0.19926068435E+04 0.  0.
        1    1    3    3  502    0 -0.56062579229E+03  0.34604306713E+03 -0.13648497699E+04  0.15155401604E+04  0.50400001928E-02 0. -1.
       -1    1    3    3    0  502  0.56062579229E+03 -0.34604306713E+03  0.32217948439E+03  0.73338032662E+03  0.50400001928E-02 0.  1.
</event>
<event>
 5   0  0.3628581E-04  0.1795975E+04  0.7818609E-02  0.8708443E-01
        2   -1    0    0  501    0  0.00000000000E+00  0.00000000000E+00  0.20008365504E+04  0.20008365504E+04  0.25500000920E-02 0. -1.
       -2   -1    0    0    0  501  0.00000000000E+00  0.00000000000E+00 -0.40302214988E+03  0.40302214989E+03  0.25500000920E-02 0.  1.
    10030    2    1    2    0    0  0.00000000000E+00  0.00000000000E+00  0.15978144005E+04  0.24038587003E+04  0.17959748864E+04 0.  0.
        2    1    3    3  502    0 -0.30705074110E+03 -0.74948658596E+03  0.13179353757E+04  0.15469207978E+04  0.25500000920E-02 0.  1.
       -2    1    3    3    0  502  0.30705074110E+03  0.74948658596E+03  0.27987902478E+03  0.85693790245E+03  0.25500000920E-02 0. -1.
</event>
<event>
 5   0  0.1818778E-04  0.1825507E+04  0.7818609E-02  0.8692851E-01
       -1   -1    0    0    0  501  0.00000000000E+00  0.00000000000E+00  0.45243035518E+03  0.45243035521E+03  0.50400001928E-02 0. -1.
        1   -1    0    0  501    0  0.00000000000E+00  0.00000000000E+00 -0.18414307121E+04  0.18414307121E+04  0.50400001928E-02 0.  1.
    10030    2    1    2    0    0  0.00000000000E+00  0.00000000000E+00 -0.13890003569E+04  0.22938610673E+04  0.18255072184E+04 0.  0.
        3    1    3    3  502    0  0.62487040270E+03  0.64372456508E+03 -0.90579233007E+03  0.12748741472E+04  0.10100000352E+00 0.  1.
       -3    1    3    3    0  502 -0.62487040270E+03 -0.64372456508E+03 -0.48320802680E+03  0.10189869200E+04  0.10100000352E+00 0. -1.
</event>
<event>
 5   0  0.3582186E-04  0.1779371E+04  0.7818609E-02  0.8717347E-01
       -2   -1    0    0    0  501  0.00000000000E+00  0.00000000000E+00  0.12141359008E+04  0.12141359008E+04  0.25500000920E-02 0. -1.
        2   -1    0    0  501    0  0.00000000000E+00  0.00000000000E+00 -0.65193741770E+03  0.65193741771E+03  0.25500000920E-02 0.  1.
    10030    2    1    2    0    0  0.00000000000E+00  0.00000000000E+00  0.56219848305E+03  0.18660733185E+04  0.17793713765E+04 0.  0.
        4    1    3    3  502    0  0.62899714301E+03 -0.43314593343E+03 -0.19752242783E+03  0.78884062266E+03  0.12699999809E+01 0.  1.
       -4    1    3    3    0  502 -0.62899714301E+03  0.43314593343E+03  0.75972091088E+03  0.10772326958E+04  0.12699999809E+01 0. -1.
</event>
<event>
 5   0  0.3531266E-04  0.1790411E+04  0.7818609E-02  0.8711416E-01
        2   -1    0    0  501    0  0.00000000000E+00  0.00000000000E+00  0.17063348448E+04  0.17063348448E+04  0.25500000920E-02 0. -1.
       -2   -1    0    0    0  501  0.00000000000E+00  0.00000000000E+00 -0.46965721104E+03  0.46965721105E+03  0.25500000920E-02 0.  1.
    10030    2    1    2    0    0  0.00000000000E+00  0.00000000000E+00  0.12366776337E+04  0.21759920558E+04  0.17904105276E+04 0.  0.
        3    1    3    3  502    0 -0.32794406231E+03 -0.21472628295E+03  0.15964861910E+04  0.16439047578E+04  0.10100000352E+00 0. -1.
       -3    1    3    3    0  502  0.32794406231E+03  0.21472628295E+03 -0.35980855727E+03  0.53208729799E+03  0.10100000352E+00 0.  1.
</event>
<event>
 5   0  0.3575091E-04  0.1821115E+04  0.7818609E-02  0.8695150E-01
        2   -1    0    0  501    0  0.00000000000E+00  0.00000000000E+00  0.13882527860E+04  0.13882527860E+04  0.25500000920E-02 0.  1.
       -2   -1    0    0    0  501  0.00000000000E+00  0.00000000000E+00 -0.59723659104E+03  0.59723659105E+03  0.25500000920E-02 0. -1.
    10030    2    1    2    0    0  0.00000000000E+00  0.00000000000E+00  0.79101619495E+03  0.19854893770E+04  0.18211154400E+04 0.  0.
        5    1    3    3  502    0  0.51344304788E+03 -0.69837465350E+03  0.69949783844E+03  0.11138537768E+04  0.46999998093E+01 0.  1.
       -5    1    3    3    0  502 -0.51344304788E+03  0.69837465350E+03  0.91518356508E+02  0.87163560026E+03  0.46999998093E+01 0. -1.
</event>
<event>
 5   0  0.1825253E-04  0.1807249E+04  0.7818609E-02  0.8702454E-01
        1   -1    0    0  501    0  0.00000000000E+00  0.00000000000E+00  0.10030847728E+04  0.10030847728E+04  0.50400001928E-02 0.  1.
       -1   -1    0    0    0  501  0.00000000000E+00  0.00000000000E+00 -0.81402642611E+03  0.81402642613E+03  0.50400001928E-02 0. -1.
    10030    2    1    2    0    0  0.00000000000E+00  0.00000000000E+00  0.18905834671E+03  0.18171111990E+04  0.18072493051E+04 0.  0.
        4    1    3    3  502    0 -0.77646607825E+03 -0.43165665981E+03 -0.71626510384E+02  0.89126820459E+03  0.12699999809E+01 0. -1.
       -4    1    3    3    0  502  0.77646607825E+03  0.43165665981E+03  0.26068485710E+03  0.92584299438E+03  0.12699999809E+01 0.  1.
</event>
<event>
 5   0  0.1818778E-04  0.1769815E+04  0.7818609E-02  0.8722518E-01
       -1   -1    0    0    0  501  0.00000000000E+00  0.00000000000E+00  0.43303984533E+03  0.43303984536E+03  0.50400001928E-02 0. -1.
        1   -1    0    0  501    0  0.00000000000E+00  0.00000000000E+00 -0.18082885640E+04  0.18082885640E+04  0.50400001928E-02 0.  1.
    10030    2    1    2    0    0  0.00000000000E+00  0.00000000000E+00 -0.13752487187E+04  0.22413284094E+04  0.17698146797E+04 0.  0.
        3    1    3    3  502    0  0.28000544541E+03  0.56666391362E+03  0.96687294043E+02  0.63942120976E+03  0.10100000352E+00 0. -1.
       -3    1    3    3    0  502 -0.28000544541E+03 -0.56666391362E+03 -0.14719360127E+04  0.16019071996E+04  0.10100000352E+00 0.  1.
</event>
<event>
 5   0  0.1883959E-04  0.1783468E+04  0.7818609E-02  0.8715141E-01
        1   -1    0    0  501    0  0.00000000000E+00  0.00000000000E+00  0.93090791376E+03  0.93090791378E+03  0.50400001928E-02 0.  1.
       -1   -1    0    0    0  501  0.00000000000E+00  0.00000000000E+00 -0.85420871791E+03  0.85420871792E+03  0.50400001928E-02 0. -1.
    10030    2    1    2    0    0  0.00000000000E+00  0.00000000000E+00  0.76699195855E+02  0.17851166317E+04  0.17834681444E+04 0.  0.
        5    1    3    3  502    0  0.13975651597E+03 -0.60440320528E+03  0.67951365736E+03  0.92010652581E+03  0.46999998093E+01 0.  1.
       -5    1    3    3    0  502 -0.13975651597E+03  0.60440320528E+03 -0.60281446150E+03  0.86501010589E+03  0.46999998093E+01 0. -1.
</event>
<event>
 5   0  0.3582186E-04  0.1548080E+04  0.7818609E-02  0.8853095E-01
        2   -1    0    0  501    0  0.00000000000E+00  0.00000000000E+00  0.12918236221E+04  0.12918236221E+04  0.25500000920E-02 0. -1.
       -2   -1    0    0    0  501  0.00000000000E+00  0.00000000000E+00 -0.46379249877E+03  0.46379249878E+03  0.25500000920E-02 0.  1.
    10030    2    1    2    0    0  0.00000000000E+00  0.00000000000E+00  0.82803112332E+03  0.17556161209E+04  0.15480802378E+04 0.  0.
        4    1    3    3  502    0 -0.50144347465E+03  0.92390590102E+02 -0.24642714715E+03  0.56631222056E+03  0.12699999809E+01 0.  1.
       -4    1    3    3    0  502  0.50144347465E+03 -0.92390590102E+02  0.10744582705E+04  0.11893039003E+04  0.12699999809E+01 0. -1.
</event>
<event>
 5   0  0.3568870E-04  0.1813232E+04  0.7818609E-02  0.8699294E-01
       -2   -1    0    0    0  501  0.00000000000E+00  0.00000000000E+00  0.51848586388E+03  0.51848586389E+03  0.25500000920E-02 0. -1.
        2   -1    0    0  501    0  0.00000000000E+00  0.00000000000E+00 -0.15852940975E+04  0.15852940975E+04  0.25500000920E-02 0.  1.
    10030    2    1    2    0    0  0.00000000000E+00  0.00000000000E+00 -0.10668082337E+04  0.21037799614E+04  0.18132320091E+04 0.  0.
        1    1    3    3  502    0  0.60001957151E+03  0.48793105162E+02  0.25312088323E+03  0.65305010134E+03  0.50400001928E-02 0. -1.
       -1    1    3    3    0  502 -0.60001957151E+03 -0.48793105162E+02 -0.13199291169E+04  0.14507298601E+04  0.50400001928E-02 0.  1.
</event>
<event>
 5   0  0.3575091E-04  0.1732615E+04  0.7818609E-02  0.8742979E-01
        2   -1    0    0  501    0  0.00000000000E+00  0.00000000000E+00  0.72702717472E+03  0.72702717473E+03  0.25500000920E-02 0. -1.
       -2   -1    0    0    0  501  0.00000000000E+00  0.00000000000E+00 -0.10322701732E+04  0.10322701732E+04  0.25500000920E-02 0.  1.
    10030    2    1    2    0    0  0.00000000000E+00  0.00000000000E+00 -0.30524299851E+03  0.17592973480E+04  0.17326147496E+04 0.  0.
        5    1    3    3  502    0  0.14807351300E+03 -0.80447189951E+03 -0.44226086679E+03  0.92990191238E+03  0.46999998093E+01 0.  1.
       -5    1    3    3    0  502 -0.14807351300E+03  0.80447189951E+03  0.13701786827E+03  0.82939543559E+03  0.46999998093E+01 0. -1.
</event>
<event>
 5   0  0.3582186E-04  0.1951926E+04  0.7818609E-02  0.8629433E-01
        2   -1    0    0  501    0  0.00000000000E+00  0.00000000000E+00  0.30836846886E+04  0.30836846886E+04  0.25500000920E-02 0.  1.
       -2   -1    0    0    0  501  0.00000000000E+00  0.00000000000E+00 -0.30888492592E+03  0.30888492593E+03  0.25500000920E-02 0. -1.
    10030    2    1    2    0    0  0.00000000000E+00  0.00000000000E+00  0.27747997627E+04  0.33925696146E+04  0.19519259378E+04 0.  0.
        4    1    3    3  502    0 -0.11061219367E+03 -0.48775424153E+03 -0.69219881237E+02  0.50490817223E+03  0.12699999809E+01 0. -1.
       -4    1    3    3    0  502  0.11061219367E+03  0.48775424153E+03  0.28440196440E+04  0.28876614424E+04  0.12699999809E+01 0.  1.
</event>
<event>
 5   0  0.3628581E-04  0.1831370E+04  0.7818609E-02  0.8689793E-01
       -2   -1    0    0    0  501  0.00000000000E+00  0.00000000000E+00  0.13380554034E+04  0.13380554034E+04  0.25500000920E-02 0.  1.
        2   -1    0    0  501    0  0.00000000000E+00  0.00000000000E+00 -0.62664011429E+03  0.62664011429E+03  0.25500000920E-02 0. -1.
    10030    2    1    2    0    0  0.00000000000E+00  0.00000000000E+00  0.71141528908E+03  0.19646955177E+04  0.18313701875E+04 0.  0.
        2    1    3    3  502    0  0.94431586107E+02  0.14903333176E+03  0.13196482828E+04  0.13313901940E+04  0.25500000920E-02 0.  1.
       -2    1    3    3    0  502 -0.94431586107E+02 -0.14903333176E+03 -0.60823299367E+03  0.63330532370E+03  0.25500000920E-02 0. -1.
</event>
<event>
 5   0  0.3575091E-04  0.1813095E+04  0.7818609E-02  0.8699367E-01
       -2   -1    0    0    0  501  0.00000000000E+00  0.00000000000E+00  0.15901608655E+04  0.15901608656E+04  0.25500000920E-02 0. -1.
        2   -1    0    0  501    0  0.00000000000E+00  0.00000000000E+00 -0.51682080755E+03  0.51682080756E+03  0.25500000920E-02 0.  1.
    10030    2    1    2    0    0  0.00000000000E+00  0.00000000000E+00  0.10733400580E+04  0.21069816731E+04  0.18130948378E+04 0.  0.
        5    1    3    3  502    0 -0.19150096735E+03  0.39938793766E+03 -0.38250139915E+03  0.58524589328E+03  0.46999998093E+01 0.  1.
       -5    1    3    3    0  502  0.19150096735E+03 -0.39938793766E+03  0.14558414572E+04  0.15217357798E+04  0.46999998093E+01 0. -1.
</event>
<event>
 5   0  0.3575091E-04  0.1802259E+04  0.7818609E-02  0.8705099E-01
       -2   -1    0    0    0  501  0.00000000000E+00  0.00000000000E+00  0.48325617953E+03  0.48325617954E+03  0.25500000920E-02 0.  1.
        2   -1    0    0  501    0  0.00000000000E+00  0.00000000000E+00 -0.16803399142E+04  0.16803399142E+04  0.25500000920E-02 0. -1.
    10030    2    1    2    0    0  0.00000000000E+00  0.00000000000E+00 -0.11970837347E+04  0.21635960938E+04  0.18022593013E+04 0.  0.
        5    1    3    3  502    0  0.82285063632E+03  0.17883286063E+03 -0.98372590610E+03  0.12949143254E+04  0.46999998093E+01 0. -1.
       -5    1    3    3    0  502 -0.82285063632E+03 -0.17883286063E+03 -0.21335782861E+03  0.86868176840E+03  0.46999998093E+01 0.  1.
</event>
<event>
 5   0  0.1835421E-04  0.1734603E+04  0.7818609E-02  0.8741871E-01
       -1   -1    0    0    0  501  0.00000000000E+00  0.00000000000E+00  0.10928349345E+04  0.10928349345E+04  0.50400001928E-02 0.  1.
        1   -1    0    0  501    0  0.00000000000E+00  0.00000000000E+00 -0.68831261408E+03  0.68831261410E+03  0.50400001928E-02 0. -1.
    10030    2    1    2    0    0  0.00000000000E+00  0.00000000000E+00  0.40452232045E+03  0.17811475486E+04  0.17346032060E+04 0.  0.
        2    1    3    3  502    0 -0.78609597097E+03  0.36630252291E+03  0.21187489884E+03  0.89275718234E+03  0.25500000920E-02 0.  1.
       -2    1    3    3    0  502  0.78609597097E+03 -0.36630252291E+03  0.19264742160E+03  0.88839036629E+03  0.25500000920E-02 0. -1.
</event>
<event>
 5   0  0.1835421E-04  0.1639962E+04  0.7818609E-02  0.8796367E-01
        1   -1    0    0  501    0  0.00000000000E+00  0.00000000000E+00  0.98067720551E+03  0.98067720553E+03  0.50400001928E-02 0.  1.
       -1   -1    0    0    0  501  0.00000000000E+00  0.00000000000E+00 -0.68561652674E+03  0.68561652676E+03  0.50400001928E-02 0. -1.
    10030    2    1    2    0    0  0.00000000000E+00  0.00000000000E+00  0.29506067877E+03  0.16662937323E+04  0.16399615843E+04 0.  0.
        2    1    3    3  502    0  0.40500155152E+03  0.51892837615E+03  0.64431403215E+03  0.92111535018E+03  0.25500000920E-02 0.  1.
       -2    1    3    3    0  502 -0.40500155152E+03 -0.51892837615E+03 -0.34925335338E+03  0.74517838211E+03  0.25500000920E-02 0. -1.
</event>
<event>
 5   0  0.3575091E-04  0.1794355E+04  0.7818609E-02  0.8709307E-01
       -2   -1    0    0    0  501  0.00000000000E+00  0.00000000000E+00  0.38746521106E+03  0.38746521107E+03  0.25500000920E-02 0.  1.
        2   -1    0    0  501    0  0.00000000000E+00  0.00000000000E+00 -0.20774177017E+04  0.20774177017E+04  0.25500000920E-02 0. -1.
    10030    2    1    2    0    0  0.00000000000E+00  0.00000000000E+00 -0.16899524907E+04  0.24648829128E+04  0.17943545784E+04 0.  0.
        5    1    3    3  502    0  0.46963596841E+02 -0.65274494725E+03 -0.19488123340E+01  0.65445201005E+03  0.46999998093E+01 0.  1.
       -5    1    3    3    0  502 -0.46963596841E+02  0.65274494725E+03 -0.16880036783E+04  0.18104309028E+04  0.46999998093E+01 0. -1.
</event>
<event>
 5   0  0.1818778E-04  0.1786088E+04  0.7818609E-02  0.8713733E-01
        1   -1    0    0  501    0  0.00000000000E+00  0.00000000000E+00  0.89327866423E+03  0.89327866424E+03  0.50400001928E-02 0. -1.
       -1   -1    0    0    0  501  0.00000000000E+00  0.00000000000E+00 -0.89280892626E+03  0.89280892627E+03  0.50400001928E-02 0.  1.
    10030    2    1    2    0    0  0.00000000000E+00  0.00000000000E+00  0.46973797271E+00  0.17860875905E+04  0.17860875287E+04 0.  0.
        3    1    3    3  502    0 -0.88665319633E+03  0.70972424940E+00 -0.10640828079E+03  0.89301574829E+03  0.10100000352E+00 0. -1.
       -3    1    3    3    0  502  0.88665319633E+03 -0.70972424940E+00  0.10687801876E+03  0.89307184222E+03  0.10100000352E+00 0.  1.
</event>
<event>
 5   0  0.3531266E-04  0.1807859E+04  0.7818609E-02  0.8702131E-01
        2   -1    0    0  501    0  0.00000000000E+00  0.00000000000E+00  0.21584544258E+04  0.21584544258E+04  0.25500000920E-02 0.  1.
       -2   -1    0    0    0  501  0.00000000000E+00  0.00000000000E+00 -0.37855266683E+03  0.37855266683E+03  0.25500000920E-02 0. -1.
    10030    2    1    2    0    0  0.00000000000E+00  0.00000000000E+00  0.17799017590E+04  0.25370070926E+04  0.18078591528E+04 0.  0.
        3    1    3    3  502    0 -0.27038766898E+03 -0.22237766634E+03  0.20594550251E+04  0.20889988819E+04  0.10100000352E+00 0.  1.
       -3    1    3    3    0  502  0.27038766898E+03  0.22237766634E+03 -0.27955326616E+03  0.44800821069E+03  0.10100000352E+00 0. -1.
</event>
<event>
 5   0  0.1837313E-04  0.1767550E+04  0.7818609E-02  0.8723749E-01
        1   -1    0    0  501    0  0.00000000000E+00  0.00000000000E+00  0.82710972986E+03  0.82710972988E+03  0.50400001928E-02 0. -1.
       -1   -1    0    0    0  501  0.00000000000E+00  0.00000000000E+00 -0.94432191769E+03  0.94432191770E+03  0.50400001928E-02 0.  1.
    10030    2    1    2    0    0  0.00000000000E+00  0.00000000000E+00 -0.11721218782E+03  0.17714316476E+04  0.17675495425E+04 0.  0.
        1    1    3    3  502    0 -0.53406742397E+03  0.18529413701E+03 -0.73943303789E+03  0.93076481890E+03  0.50400001928E-02 0.  1.
       -1    1    3    3    0  502  0.53406742397E+03 -0.18529413701E+03  0.62222085007E+03  0.84066682868E+03  0.50400001928E-02 0. -1.
</event>
<event>
 5   0  0.1835421E-04  0.1354307E+04  0.7818609E-02  0.8987574E-01
       -1   -1    0    0    0  501  0.00000000000E+00  0.00000000000E+00  0.43133331172E+03  0.43133331175E+03  0.50400001928E-02 0.  1.
        1   -1    0    0  501    0  0.00000000000E+00  0.00000000000E+00 -0.10630679130E+04  0.10630679131E+04  0.50400001928E-02 0. -1.
    10030    2    1    2    0    0  0.00000000000E+00  0.00000000000E+00 -0.63173460133E+03  0.14944012248E+04  0.13543066175E+04 0.  0.
        2    1    3    3  502    0 -0.36494978856E+03  0.47957258914E+02  0.31130083095E+03  0.48207515411E+03  0.25500000920E-02 0.  1.
       -2    1    3    3    0  502  0.36494978856E+03 -0.47957258914E+02 -0.94303543228E+03  0.10123260707E+04  0.25500000920E-02 0. -1.
</event>
<event>
 5   0  0.1883959E-04  0.1838620E+04  0.7818609E-02  0.8686027E-01
       -1   -1    0    0    0  501  0.00000000000E+00  0.00000000000E+00  0.45964375943E+03  0.45964375946E+03  0.50400001928E-02 0.  1.
        1   -1    0    0  501    0  0.00000000000E+00  0.00000000000E+00 -0.18386648757E+04  0.18386648757E+04  0.50400001928E-02 0. -1.
    10030    2    1    2    0    0  0.00000000000E+00  0.00000000000E+00 -0.13790211163E+04  0.22983086352E+04  0.18386199562E+04 0.  0.
        5    1    3    3  502    0  0.78214012514E+03  0.24003801133E+03 -0.16547502124E+03  0.83472480189E+03  0.46999998093E+01 0. -1.
       -5    1    3    3    0  502 -0.78214012514E+03 -0.24003801133E+03 -0.12135460950E+04  0.14635838333E+04  0.46999998093E+01 0.  1.
</event>
<event>
 5   0  0.3628581E-04  0.1824055E+04  0.7818609E-02  0.8693611E-01
       -2   -1    0    0    0  501  0.00000000000E+00  0.00000000000E+00  0.62779671141E+03  0.62779671141E+03  0.25500000920E-02 0.  1.
        2   -1    0    0  501    0  0.00000000000E+00  0.00000000000E+00 -0.13249425802E+04  0.13249425802E+04  0.25500000920E-02 0. -1.
    10030    2    1    2    0    0  0.00000000000E+00  0.00000000000E+00 -0.69714586881E+03  0.19527392916E+04  0.18240554758E+04 0.  0.
        2    1    3    3  502    0 -0.23205933031E+03 -0.14274758657E+03  0.58321377993E+03  0.64371322758E+03  0.25500000920E-02 0.  1.
       -2    1    3    3    0  502  0.23205933031E+03  0.14274758657E+03 -0.12803596487E+04  0.13090260641E+04  0.25500000920E-02 0. -1.
</event>
<event>
 5   0  0.3582186E-04  0.1832309E+04  0.7818609E-02  0.8689304E-01
        2   -1    0    0  501    0  0.00000000000E+00  0.00000000000E+00  0.10361619446E+04  0.10361619446E+04  0.25500000920E-02 0. -1.
       -2   -1    0    0    0  501  0.00000000000E+00  0.00000000000E+00 -0.81004639326E+03  0.81004639326E+03  0.25500000920E-02 0.  1.
    10030    2    1    2    0    0  0.00000000000E+00  0.00000000000E+00  0.22611555134E+03  0.18462083379E+04  0.18323091945E+04 0.  0.
        4    1    3    3  502    0  0.79284819502E+03  0.67023470327E+02  0.57063613595E+03  0.97914637235E+03  0.12699999809E+01 0.  1.
       -4    1    3    3    0  502 -0.79284819502E+03 -0.67023470327E+02 -0.34452058462E+03  0.86706196552E+03  0.12699999809E+01 0. -1.
</event>
<event>
 5   0  0.1818778E-04  0.1782939E+04  0.7818609E-02  0.8715425E-01
        1   -1    0    0  501    0  0.00000000000E+00  0.00000000000E+00  0.10462070312E+04  0.10462070312E+04  0.50400001928E-02 0. -1.
       -1   -1    0    0    0  501  0.00000000000E+00  0.00000000000E+00 -0.75961855576E+03  0.75961855578E+03  0.50400001928E-02 0.  1.
    10030    2    1    2    0    0  0.00000000000E+00  0.00000000000E+00  0.28658847542E+03  0.18058255870E+04  0.17829394539E+04 0.  0.
        3    1    3    3  502    0  0.82361180799E+03  0.71433289249E+02 -0.19457300290E+03  0.84929252247E+03  0.10100000352E+00 0.  1.
       -3    1    3    3    0  502 -0.82361180799E+03 -0.71433289249E+02  0.48116147832E+03  0.95653306450E+03  0.10100000352E+00 0. -1.
</event>
<event>
 5   0  0.3628581E-04  0.1793128E+04  0.7818609E-02  0.8709963E-01
        2   -1    0    0  501    0  0.00000000000E+00  0.00000000000E+00  0.14916483941E+04  0.14916483941E+04  0.25500000920E-02 0. -1.
       -2   -1    0    0    0  501  0.00000000000E+00  0.00000000000E+00 -0.53888488841E+03  0.53888488842E+03  0.25500000920E-02 0.  1.
    10030    2    1    2    0    0  0.00000000000E+00  0.00000000000E+00  0.95276350566E+03  0.20305332825E+04  0.17931277460E+04 0.  0.
        2    1    3    3  502    0  0.37869458177E+03  0.80931720137E+03  0.39299192716E+03  0.97613860364E+03  0.25500000920E-02 0. -1.
       -2    1    3    3    0  502 -0.37869458177E+03 -0.80931720137E+03  0.55977157850E+03  0.10543946789E+04  0.25500000920E-02 0.  1.
</event>
<event>
 5   0  0.1883959E-04  0.1782265E+04  0.7818609E-02  0.8715788E-01
        1   -1    0    0  501    0  0.00000000000E+00  0.00000000000E+00  0.72545021815E+03  0.72545021817E+03  0.50400001928E-02 0.  1.
       -1   -1    0    0    0  501  0.00000000000E+00  0.00000000000E+00 -0.10946536787E+04  0.10946536787E+04  0.50400001928E-02 0. -1.
    10030    2    1    2    0    0  0.00000000000E+00  0.00000000000E+00 -0.36920346050E+03  0.18201038968E+04  0.17822645707E+04 0.  0.
        5    1    3    3  502    0 -0.56894335524E+03 -0.60075522532E+03 -0.52252162996E+03  0.97859814326E+03  0.46999998093E+01 0. -1.
       -5    1    3    3    0  502  0.56894335524E+03  0.60075522532E+03  0.15331816946E+03  0.84150575358E+03  0.46999998093E+01 0.  1.
</event>
<event>
 5   0  0.1330125E-04  0.1712102E+04  0.7818609E-02  0.8754492E-01
        3   -1    0    0  501    0  0.00000000000E+00  0.00000000000E+00  0.66998301611E+03  0.66998302372E+03  0.10100000352E+00 0.  1.
       -3   -1    0    0    0  501  0.00000000000E+00  0.00000000000E+00 -0.10937937175E+04  0.10937937222E+04  0.10100000352E+00 0. -1.
    10030    2    1    2    0    0  0.00000000000E+00  0.00000000000E+00 -0.42381070144E+03  0.17637767459E+04  0.17121018950E+04 0.  0.
        1    1    3    3  502    0  0.52525614872E+03 -0.60209325500E+03 -0.52844615995E+03  0.95794866954E+03  0.50400001928E-02 0. -1.
       -1    1    3    3    0  502 -0.52525614872E+03  0.60209325500E+03  0.10463545851E+03  0.80582807639E+03  0.50400001928E-02 0.  1.
</event>
<event>
 5   0  0.1825253E-04  0.1817548E+04  0.7818609E-02  0.8697023E-01
       -1   -1    0    0    0  501  0.00000000000E+00  0.00000000000E+00  0.96028511710E+03  0.96028511711E+03  0.50400001928E-02 0. -1.
        1   -1    0    0  501    0  0.00000000000E+00  0.00000000000E+00 -0.86002628575E+03  0.86002628576E+03  0.50400001928E-02 0.  1.
    10030    2    1    2    0    0  0.00000000000E+00  0.00000000000E+00  0.10025883136E+03  0.18203114029E+04  0.18175482855E+04 0.  0.
        4    1    3    3  502    0  0.75041203589E+02  0.89804533719E+03 -0.67318721829E+02  0.90368691099E+03  0.12699999809E+01 0.  1.
       -4    1    3    3    0  502 -0.75041203589E+02 -0.89804533719E+03  0.16757755319E+03  0.91662449188E+03  0.12699999809E+01 0. -1.
</event>
<event>
 5   0  0.1835421E-04  0.1413054E+04  0.7818609E-02  0.8944423E-01
        1   -1    0    0  501    0  0.00000000000E+00  0.00000000000E+00  0.32841526785E+03  0.32841526789E+03  0.50400001928E-02 0. -1.
       -1   -1    0    0    0  501  0.00000000000E+00  0.00000000000E+00 -0.15199669627E+04  0.15199669627E+04  0.50400001928E-02 0.  1.
    10030    2    1    2    0    0  0.00000000000E+00  0.00000000000E+00 -0.11915516949E+04  0.18483822306E+04  0.14130539370E+04 0.  0.
        2    1    3    3  502    0 -0.40740047809E+03  0.24980500761E+03  0.84930049719E+02  0.48537697177E+03  0.25500000920E-02 0. -1.
       -2    1    3    3    0  502  0.40740047809E+03 -0.24980500761E+03 -0.12764817446E+04  0.13630052589E+04  0.25500000920E-02 0.  1.
</event>
<event>
 5   0  0.1883959E-04  0.1804886E+04  0.7818609E-02  0.8703706E-01
        1   -1    0    0  501    0  0.00000000000E+00  0.00000000000E+00  0.95909744791E+03  0.95909744792E+03  0.50400001928E-02 0.  1.
       -1   -1    0    0    0  501  0.00000000000E+00  0.00000000000E+00 -0.84913489757E+03  0.84913489759E+03  0.50400001928E-02 0. -1.
    10030    2    1    2    0    0  0.00000000000E+00  0.00000000000E+00  0.10996255034E+03  0.18082323455E+04  0.18048857174E+04 0.  0.
        5    1    3    3  502    0 -0.62002225579E+03 -0.15232044460E+03 -0.58397232955E+03  0.86526001132E+03  0.46999998093E+01 0. -1.
       -5    1    3    3    0  502  0.62002225579E+03  0.15232044460E+03  0.69393487989E+03  0.94297233419E+03  0.46999998093E+01 0.  1.
</event>
<event>
 5   0  0.1837313E-04  0.1982195E+04  0.7818609E-02  0.8614991E-01
       -1   -1    0    0    0  501  0.00000000000E+00  0.00000000000E+00  0.43868460320E+03  0.43868460323E+03  0.50400001928E-02 0. -1.
        1   -1    0    0  501    0  0.00000000000E+00  0.00000000000E+00 -0.22391356953E+04  0.22391356953E+04  0.50400001928E-02 0.  1.
    10030    2    1    2    0    0  0.00000000000E+00  0.00000000000E+00 -0.18004510921E+04  0.26778202985E+04  0.19821951004E+04 0.  0.
        1    1    3    3  502    0  0.85764422956E+03  0.46070380893E+03 -0.64939936282E+03  0.11702654214E+04  0.50400001928E-02 0. -1.
       -1    1    3    3    0  502 -0.85764422956E+03 -0.46070380893E+03 -0.11510517293E+04  0.15075548771E+04  0.50400001928E-02 0.  1.
</event>
<event>
 5   0  0.3531266E-04  0.1805667E+04  0.7818609E-02  0.8703292E-01
       -2   -1    0    0    0  501  0.00000000000E+00  0.00000000000E+00  0.51264626462E+03  0.51264626463E+03  0.25500000920E-02 0.  1.
        2   -1    0    0  501    0  0.00000000000E+00  0.00000000000E+00 -0.15900006335E+04  0.15900006335E+04  0.25500000920E-02 0. -1.
    10030    2    1    2    0    0  0.00000000000E+00  0.00000000000E+00 -0.10773543688E+04  0.21026468981E+04  0.18056665091E+04 0.  0.
        3    1    3    3  502    0 -0.31945373310E+03 -0.79757784638E+03 -0.21570319852E+03  0.88583801492E+03  0.10100000352E+00 0.  1.
       -3    1    3    3    0  502  0.31945373310E+03  0.79757784638E+03 -0.86165117031E+03  0.12168088832E+04  0.10100000352E+00 0. -1.
</event>
<event>
 5   0  0.3531266E-04  0.1756424E+04  0.7818609E-02  0.8729822E-01
       -2   -1    0    0    0  501  0.00000000000E+00  0.00000000000E+00  0.61755080638E+03  0.61755080638E+03  0.25500000920E-02 0. -1.
        2   -1    0    0  501    0  0.00000000000E+00  0.00000000000E+00 -0.12488953049E+04  0.12488953049E+04  0.25500000920E-02 0.  1.
    10030    2    1    2    0    0  0.00000000000E+00  0.00000000000E+00 -0.63134449854E+03  0.18664461113E+04  0.17564239837E+04 0.  0.
        3    1    3    3  502    0  0.22104060672E+03 -0.78303500570E+03  0.35567631200E+02  0.81441257146E+03  0.10100000352E+00 0. -1.
       -3    1    3    3    0  502 -0.22104060672E+03  0.78303500570E+03 -0.66691212974E+03  0.10520335398E+04  0.10100000352E+00 0.  1.
</event>
<event>
 5   0  0.1883959E-04  0.1775282E+04  0.7818609E-02  0.8719556E-01
        1   -1    0    0  501    0  0.00000000000E+00  0.00000000000E+00  0.14465291930E+04  0.14465291930E+04  0.50400001928E-02 0.  1.
       -1   -1    0    0    0  501  0.00000000000E+00  0.00000000000E+00 -0.54468769209E+03  0.54468769211E+03  0.50400001928E-02 0. -1.
    10030    2    1    2    0    0  0.00000000000E+00  0.00000000000E+00  0.90184150087E+03  0.19912168851E+04  0.17752821158E+04 0.  0.
        5    1    3    3  502    0  0.85656371745E+03  0.19307031448E+03  0.30507808796E+03  0.92955488172E+03  0.46999998093E+01 0. -1.
       -5    1    3    3    0  502 -0.85656371745E+03 -0.19307031448E+03  0.59676341291E+03  0.10616620034E+04  0.46999998093E+01 0.  1.
</event>
<event>
 5   0  0.1818778E-04  0.1797824E+04  0.7818609E-02  0.8707458E-01
        1   -1    0    0  501    0  0.00000000000E+00  0.00000000000E+00  0.13064470657E+04  0.13064470657E+04  0.50400001928E-02 0. -1.
       -1   -1    0    0    0  501  0.00000000000E+00  0.00000000000E+00 -0.61850398086E+03  0.61850398088E+03  0.50400001928E-02 0.  1.
    10030    2    1    2    0    0  0.00000000000E+00  0.00000000000E+00  0.68794308481E+03  0.19249510466E+04  0.17978239190E+04 0.  0.
        3    1    3    3  502    0  0.26187458282E+03 -0.62648739024E+03 -0.28672939409E+03  0.73707428587E+03  0.10100000352E+00 0.  1.
       -3    1    3    3    0  502 -0.26187458282E+03  0.62648739024E+03  0.97467247890E+03  0.11878767607E+04  0.10100000352E+00 0. -1.
</event>
<event>
 5   0  0.1818778E-04  0.1666917E+04  0.7818609E-02  0.8780461E-01
       -1   -1    0    0    0  501  0.00000000000E+00  0.00000000000E+00  0.70095077230E+03  0.70095077232E+03  0.50400001928E-02 0. -1.
        1   -1    0    0  501    0  0.00000000000E+00  0.00000000000E+00 -0.99101507351E+03  0.99101507353E+03  0.50400001928E-02 0.  1.
    10030    2    1    2    0    0  0.00000000000E+00  0.00000000000E+00 -0.29006430121E+03  0.16919658458E+04  0.16669166520E+04 0.  0.
        3    1    3    3  502    0 -0.68394660335E+03 -0.47630764102E+03 -0.14596566700E+03  0.84614296148E+03  0.10100000352E+00 0. -1.
       -3    1    3    3    0  502  0.68394660335E+03  0.47630764102E+03 -0.14409863422E+03  0.84582288436E+03  0.10100000352E+00 0.  1.
</event>
<event>
 5   0  0.3628581E-04  0.1768120E+04  0.7818609E-02  0.8723439E-01
       -2   -1    0    0    0  501  0.00000000000E+00  0.00000000000E+00  0.46104239760E+03  0.46104239761E+03  0.25500000920E-02 0.  1.
        2   -1    0    0  501    0  0.00000000000E+00  0.00000000000E+00 -0.16952068761E+04  0.16952068761E+04  0.25500000920E-02 0. -1.
    10030    2    1    2    0    0  0.00000000000E+00  0.00000000000E+00 -0.12341644785E+04  0.21562492737E+04  0.17681201798E+04 0.  0.
        2    1    3    3  502    0 -0.86017537885E+03  0.41713968494E+02 -0.37342170134E+03  0.93866154954E+03  0.25500000920E-02 0.  1.
       -2    1    3    3    0  502  0.86017537885E+03 -0.41713968494E+02 -0.86074277712E+03  0.12175877241E+04  0.25500000920E-02 0. -1.
</event>
<event>
 5   0  0.3628581E-04  0.1630597E+04  0.7818609E-02  0.8801968E-01
       -2   -1    0    0    0  501  0.00000000000E+00  0.00000000000E+00  0.50508038091E+03  0.50508038092E+03  0.25500000920E-02 0.  1.
        2   -1    0    0  501    0  0.00000000000E+00  0.00000000000E+00 -0.13160518662E+04  0.13160518662E+04  0.25500000920E-02 0. -1.
    10030    2    1    2    0    0  0.00000000000E+00  0.00000000000E+00 -0.81097148532E+03  0.18211322472E+04  0.16305974094E+04 0.  0.
        2    1    3    3  502    0 -0.32363752854E+03 -0.41840953490E+03 -0.10983865310E+04  0.12191229472E+04  0.25500000920E-02 0. -1.
       -2    1    3    3    0  502  0.32363752854E+03  0.41840953490E+03  0.28741504570E+03  0.60200929999E+03  0.25500000920E-02 0.  1.
</event>
<event>
 5   0  0.1825253E-04  0.1719551E+04  0.7818609E-02  0.8750291E-01
       -1   -1    0    0    0  501  0.00000000000E+00  0.00000000000E+00  0.65207944398E+03  0.65207944400E+03  0.50400001928E-02 0. -1.
        1   -1    0    0  501    0  0.00000000000E+00  0.00000000000E+00 -0.11336258932E+04  0.11336258932E+04  0.50400001928E-02 0.  1.
    10030    2    1    2    0    0  0.00000000000E+00  0.00000000000E+00 -0.48154644923E+03  0.17857053372E+04  0.17195512696E+04 0.  0.
        4    1    3    3  502    0  0.27083086542E+03  0.81453873514E+03 -0.29153973527E+03  0.90654273967E+03  0.12699999809E+01 0.  1.
       -4    1    3    3    0  502 -0.27083086542E+03 -0.81453873514E+03 -0.19000671396E+03  0.87916259756E+03  0.12699999809E+01 0. -1.
</event>
<event>
 5   0  0.3568870E-04  0.1791332E+04  0.7818609E-02  0.8710923E-01
        2   -1    0    0  501    0  0.00000000000E+00  0.00000000000E+00  0.12307274438E+04  0.12307274438E+04  0.25500000920E-02 0.  1.
       -2   -1    0    0    0  501  0.00000000000E+00  0.00000000000E+00 -0.65182359183E+03  0.65182359184E+03  0.25500000920E-02 0. -1.
    10030    2    1    2    0    0  0.00000000000E+00  0.00000000000E+00  0.57890385193E+03  0.18825510356E+04  0.17913315527E+04 0.  0.
        1    1    3    3  502    0  0.85151328287E+03  0.42648823905E+02  0.57787879221E+03  0.10299697528E+04  0.50400001928E-02 0.  1.
       -1    1    3    3    0  502 -0.85151328287E+03 -0.42648823905E+02  0.10250597246E+01  0.85258128285E+03  0.50400001928E-02 0. -1.
</event>
<event>
 5   0  0.1330125E-04  0.1840978E+04  0.7818609E-02  0.8684806E-01
        3   -1    0    0  501    0  0.00000000000E+00  0.00000000000E+00  0.56602897929E+03  0.56602898831E+03  0.10100000352E+00 0.  1.
       -3   -1    0    0    0  501  0.00000000000E+00  0.00000000000E+00 -0.14969199707E+04  0.14969199741E+04  0.10100000352E+00 0. -1.
    10030    2    1    2    0    0  0.00000000000E+00  0.00000000000E+00 -0.93089099138E+03  0.20629489624E+04  0.18409781051E+04 0.  0.
        4    1    3    3  502    0  0.70162544106E+03  0.41076234488E+03  0.18214201407E+02  0.81322649584E+03  0.12699999809E+01 0.  1.
       -4    1    3    3    0  502 -0.70162544106E+03 -0.41076234488E+03 -0.94910519279E+03  0.12497224665E+04  0.12699999809E+01 0. -1.
</event>
<event>
 5   0  0.3575091E-04  0.1781194E+04  0.7818609E-02  0.8716365E-01
       -2   -1    0    0    0  501  0.00000000000E+00  0.00000000000E+00  0.11097184083E+04  0.11097184083E+04  0.25500000920E-02 0.  1.
        2   -1    0    0  501    0  0.00000000000E+00  0.00000000000E+00 -0.71474239895E+03  0.71474239895E+03  0.25500000920E-02 0. -1.
    10030    2    1    2    0    0  0.00000000000E+00  0.00000000000E+00  0.39497600933E+03  0.18244608072E+04  0.17811937540E+04 0.  0.
        5    1    3    3  502    0  0.69974802035E+02 -0.13461688447E+03 -0.70139524775E+03  0.71763191266E+03  0.46999998093E+01 0. -1.
       -5    1    3    3    0  502 -0.69974802035E+02  0.13461688447E+03  0.10963712571E+04  0.11068288946E+04  0.46999998093E+01 0.  1.
</event>
<event>
 5   0  0.3575091E-04  0.1798167E+04  0.7818609E-02  0.8707275E-01
        2   -1    0    0  501    0  0.00000000000E+00  0.00000000000E+00  0.17717892581E+04  0.17717892581E+04  0.25500000920E-02 0.  1.
       -2   -1    0    0    0  501  0.00000000000E+00  0.00000000000E+00 -0.45623430598E+03  0.45623430599E+03  0.25500000920E-02 0. -1.
    10030    2    1    2    0    0  0.00000000000E+00  0.00000000000E+00  0.13155549521E+04  0.22280235641E+04  0.17981668916E+04 0.  0.
        5    1    3    3  502    0  0.94116983176E+02 -0.76548560558E+03  0.12302985835E+04  0.14520616080E+04  0.46999998093E+01 0.  1.
       -5    1    3    3    0  502 -0.94116983176E+02  0.76548560558E+03  0.85256368586E+02  0.77596195606E+03  0.46999998093E+01 0. -1.
</event>
<event>
 5   0  0.3628581E-04  0.1639731E+04  0.7818609E-02  0.8796505E-01
       -2   -1    0    0    0  501  0.00000000000E+00  0.00000000000E+00  0.70070266731E+03  0.70070266732E+03  0.25500000920E-02 0.  1.
        2   -1    0    0  501    0  0.00000000000E+00  0.00000000000E+00 -0.95929319726E+03  0.95929319727E+03  0.25500000920E-02 0. -1.
    10030    2    1    2    0    0  0.00000000000E+00  0.00000000000E+00 -0.25859052995E+03  0.16599958646E+04  0.16397308341E+04 0.  0.
        2    1    3    3  502    0 -0.94857183918E+02 -0.23169445740E+03  0.66105749703E+03  0.70687850535E+03  0.25500000920E-02 0.  1.
       -2    1    3    3    0  502  0.94857183918E+02  0.23169445740E+03 -0.91964802698E+03  0.95311735923E+03  0.25500000920E-02 0. -1.
</event>
<event>
 5   0  0.1883959E-04  0.1804099E+04  0.7818609E-02  0.8704123E-01
       -1   -1    0    0    0  501  0.00000000000E+00  0.00000000000E+00  0.56787957514E+03  0.56787957516E+03  0.50400001928E-02 0.  1.
        1   -1    0    0  501    0  0.00000000000E+00  0.00000000000E+00 -0.14328626726E+04  0.14328626726E+04  0.50400001928E-02 0. -1.
    10030    2    1    2    0    0  0.00000000000E+00  0.00000000000E+00 -0.86498309748E+03  0.20007422478E+04  0.18040991611E+04 0.  0.
        5    1    3    3  502    0  0.62060276036E+03  0.63526075723E+03 -0.25725815361E+03  0.92461227736E+03  0.46999998093E+01 0. -1.
       -5    1    3    3    0  502 -0.62060276036E+03 -0.63526075723E+03 -0.60772494387E+03  0.10761299704E+04  0.46999998093E+01 0.  1.
</event>
<event>
 5   0  0.3531266E-04  0.1774351E+04  0.7818609E-02  0.8720059E-01
       -2   -1    0    0    0  501  0.00000000000E+00  0.00000000000E+00  0.78581100988E+03  0.78581100989E+03  0.25500000920E-02 0. -1.
        2   -1    0    0  501    0  0.00000000000E+00  0.00000000000E+00 -0.10016157487E+04  0.10016157487E+04  0.25500000920E-02 0.  1.
    10030    2    1    2    0    0  0.00000000000E+00  0.00000000000E+00 -0.21580473882E+03  0.17874267586E+04  0.17743513553E+04 0.  0.
        3    1    3    3  502    0 -0.28064074092E+03  0.66171893108E+03 -0.63178225860E+03  0.95696395005E+03  0.10100000352E+00 0.  1.
       -3    1    3    3    0  502  0.28064074092E+03 -0.66171893108E+03  0.41597751978E+03  0.83046280854E+03  0.10100000352E+00 0. -1.
</event>
<event>
 5   0  0.1818778E-04  0.1780459E+04  0.7818609E-02  0.8716761E-01
       -1   -1    0    0    0  501  0.00000000000E+00  0.00000000000E+00  0.44932460973E+03  0.44932460976E+03  0.50400001928E-02 0. -1.
        1   -1    0    0  501    0  0.00000000000E+00  0.00000000000E+00 -0.17637773080E+04  0.17637773080E+04  0.50400001928E-02 0.  1.
    10030    2    1    2    0    0  0.00000000000E+00  0.00000000000E+00 -0.13144526983E+04  0.22131019178E+04  0.17804589865E+04 0.  0.
        3    1    3    3  502    0  0.11132796102E+03  0.37991022261E+03  0.33388818379E+03  0.51788707420E+03  0.10100000352E+00 0. -1.
       -3    1    3    3    0  502 -0.11132796102E+03 -0.37991022261E+03 -0.16483408821E+04  0.16952148436E+04  0.10100000352E+00 0.  1.
</event>
<event>
 5   0  0.3582186E-04  0.1750581E+04  0.7818609E-02  0.8733031E-01
       -2   -1    0    0    0  501  0.00000000000E+00  0.00000000000E+00  0.73010697695E+03  0.73010697696E+03  0.25500000920E-02 0.  1.
        2   -1    0    0  501    0  0.00000000000E+00  0.00000000000E+00 -0.10493441631E+04  0.10493441631E+04  0.25500000920E-02 0. -1.
    10030    2    1    2    0    0  0.00000000000E+00  0.00000000000E+00 -0.31923718615E+03  0.17794511401E+04  0.17505810404E+04 0.  0.
        4    1    3    3  502    0  0.15331761249E+03  0.39536066850E+03  0.61872176035E+03  0.75008971339E+03  0.12699999809E+01 0.  1.
       -4    1    3    3    0  502 -0.15331761249E+03 -0.39536066850E+03 -0.93795894651E+03  0.10293614267E+04  0.12699999809E+01 0. -1.
</event>
<event>
 5   0  0.1835421E-04  0.1821315E+04  0.7818609E-02  0.8695046E-01
       -1   -1    0    0    0  501  0.00000000000E+00  0.00000000000E+00  0.44732967504E+03  0.44732967507E+03  0.50400001928E-02 0. -1.
        1   -1    0    0  501    0  0.00000000000E+00  0.00000000000E+00 -0.18538832067E+04  0.18538832067E+04  0.50400001928E-02 0.  1.
    10030    2    1    2    0    0  0.00000000000E+00  0.00000000000E+00 -0.14065535316E+04  0.23012128818E+04  0.18213148794E+04 0.  0.
        2    1    3    3  502    0 -0.37559975990E+03  0.13671175322E+03 -0.17371262835E+04  0.17825187258E+04  0.25500000920E-02 0.  1.
       -2    1    3    3    0  502  0.37559975990E+03 -0.13671175322E+03  0.33057275187E+03  0.51869415592E+03  0.25500000920E-02 0. -1.
</event>
<event>
 5   0  0.1837313E-04  0.1802031E+04  0.7818609E-02  0.8705220E-01
        1   -1    0    0  501    0  0.00000000000E+00  0.00000000000E+00  0.93787743440E+03  0.93787743441E+03  0.50400001928E-02 0. -1.
       -1   -1    0    0    0  501  0.00000000000E+00  0.00000000000E+00 -0.86560255263E+03  0.86560255265E+03  0.50400001928E-02 0.  1.
    10030    2    1    2    0    0  0.00000000000E+00  0.00000000000E+00  0.72274881766E+02  0.18034799871E+04  0.18020311887E+04 0.  0.
        1    1    3    3  502    0  0.80831633709E+03  0.43202819603E+01  0.43449656985E+03  0.91770432868E+03  0.50400001928E-02 0.  1.
       -1    1    3    3    0  502 -0.80831633709E+03 -0.43202819603E+01 -0.36222168809E+03  0.88577565838E+03  0.50400001928E-02 0. -1.
</event>
<event>
 5   0  0.3575091E-04  0.1759581E+04  0.7818609E-02  0.8728094E-01
        2   -1    0    0  501    0  0.00000000000E+00  0.00000000000E+00  0.12592399096E+04  0.12592399096E+04  0.25500000920E-02 0. -1.
       -2   -1    0    0    0  501  0.00000000000E+00  0.00000000000E+00 -0.61468169479E+03  0.61468169480E+03  0.25500000920E-02 0.  1.
    10030    2    1    2    0    0  0.00000000000E+00  0.00000000000E+00  0.64455821484E+03  0.18739216044E+04  0.17595814523E+04 0.  0.
        5    1    3    3  502    0 -0.34852642113E+03 -0.46113016574E+03  0.10286259445E+04  0.11799174207E+04  0.46999998093E+01 0. -1.
       -5    1    3    3    0  502  0.34852642113E+03  0.46113016574E+03 -0.38406772970E+03  0.69400418369E+03  0.46999998093E+01 0.  1.
</event>
<event>
 5   0  0.1883959E-04  0.1767739E+04  0.7818609E-02  0.8723646E-01
       -1   -1    0    0    0  501  0.00000000000E+00  0.00000000000E+00  0.60054024920E+03  0.60054024922E+03  0.50400001928E-02 0. -1.
        1   -1    0    0  501    0  0.00000000000E+00  0.00000000000E+00 -0.13008707642E+04  0.13008707642E+04  0.50400001928E-02 0.  1.
    10030    2    1    2    0    0  0.00000000000E+00  0.00000000000E+00 -0.70033051500E+03  0.19014110134E+04  0.17677389546E+04 0.  0.
        5    1    3    3  502    0  0.70510674894E+03  0.22600184552E+03 -0.86931181339E+03  0.11419183335E+04  0.46999998093E+01 0.  1.
       -5    1    3    3    0  502 -0.70510674894E+03 -0.22600184552E+03  0.16898129839E+03  0.75949267988E+03  0.46999998093E+01 0. -1.
</event>
<event>
 5   0  0.3531266E-04  0.1792656E+04  0.7818609E-02  0.8710215E-01
       -2   -1    0    0    0  501  0.00000000000E+00  0.00000000000E+00  0.83081862282E+03  0.83081862283E+03  0.25500000920E-02 0. -1.
        2   -1    0    0  501    0  0.00000000000E+00  0.00000000000E+00 -0.96700235069E+03  0.96700235069E+03  0.25500000920E-02 0.  1.
    10030    2    1    2    0    0  0.00000000000E+00  0.00000000000E+00 -0.13618372786E+03  0.17978209735E+04  0.17926556404E+04 0.  0.
        3    1    3    3  502    0 -0.87731930983E+03  0.18341974067E+03 -0.76576643073E+02  0.89955320306E+03  0.10100000352E+00 0. -1.
       -3    1    3    3    0  502  0.87731930983E+03 -0.18341974067E+03 -0.59607084791E+02  0.89826777045E+03  0.10100000352E+00 0.  1.
</event>
<event>
 5   0  0.3568870E-04  0.1862126E+04  0.7818609E-02  0.8673942E-01
       -2   -1    0    0    0  501  0.00000000000E+00  0.00000000000E+00  0.55854893963E+03  0.55854893964E+03  0.25500000920E-02 0. -1.
        2   -1    0    0  501    0  0.00000000000E+00  0.00000000000E+00 -0.15520185483E+04  0.15520185483E+04  0.25500000920E-02 0.  1.
    10030    2    1    2    0    0  0.00000000000E+00  0.00000000000E+00 -0.99346960870E+03  0.21105674880E+04  0.18621260048E+04 0.  0.
        1    1    3    3  502    0  0.20473686575E+03  0.90616497725E+03 -0.56684351550E+03  0.10882847611E+04  0.50400001928E-02 0. -1.
       -1    1    3    3    0  502 -0.20473686575E+03 -0.90616497725E+03 -0.42662609320E+03  0.10222827268E+04  0.50400001928E-02 0.  1.
</event>
<event>
 5   0  0.1835421E-04  0.1792153E+04  0.7818609E-02  0.8710483E-01
       -1   -1    0    0    0  501  0.00000000000E+00  0.00000000000E+00  0.14649284170E+04  0.14649284170E+04  0.50400001928E-02 0. -1.
        1   -1    0    0  501    0  0.00000000000E+00  0.00000000000E+00 -0.54811785045E+03  0.54811785047E+03  0.50400001928E-02 0.  1.
    10030    2    1    2    0    0  0.00000000000E+00  0.00000000000E+00  0.91681056654E+03  0.20130462675E+04  0.17921533584E+04 0.  0.
        2    1    3    3  502    0 -0.36753109667E+03  0.73817318789E+03  0.64504913390E+02  0.82712734581E+03  0.25500000920E-02 0.  1.
       -2    1    3    3    0  502  0.36753109667E+03 -0.73817318789E+03  0.85230565315E+03  0.11859189217E+04  0.25500000920E-02 0. -1.
</event>
<event>
 5   0  0.1835421E-04  0.1801850E+04  0.7818609E-02  0.8705317E-01
        1   -1    0    0  501    0  0.00000000000E+00  0.00000000000E+00  0.68456268477E+03  0.68456268479E+03  0.50400001928E-02 0.  1.
       -1   -1    0    0    0  501  0.00000000000E+00  0.00000000000E+00 -0.11856699764E+04  0.11856699764E+04  0.50400001928E-02 0. -1.
    10030    2    1    2    0    0  0.00000000000E+00  0.00000000000E+00 -0.50110729162E+03  0.18702326612E+04  0.18018495190E+04 0.  0.
        2    1    3    3  502    0  0.65311531652E+03  0.24657889383E+03 -0.84164377913E+03  0.10934921209E+04  0.25500000920E-02 0. -1.
       -2    1    3    3    0  502 -0.65311531652E+03 -0.24657889383E+03  0.34053648751E+03  0.77674054027E+03  0.25500000920E-02 0.  1.
</event>
<event>
 5   0  0.3531266E-04  0.1760320E+04  0.7818609E-02  0.8727690E-01
        2   -1    0    0  501    0  0.00000000000E+00  0.00000000000E+00  0.81713640171E+03  0.81713640171E+03  0.25500000920E-02 0. -1.
       -2   -1    0    0    0  501  0.00000000000E+00  0.00000000000E+00 -0.94804478284E+03  0.94804478284E+03  0.25500000920E-02 0.  1.
    10030    2    1    2    0    0  0.00000000000E+00  0.00000000000E+00 -0.13090838113E+03  0.17651811846E+04  0.17603203146E+04 0.  0.
        3    1    3    3  502    0  0.42069173805E+02 -0.45047620904E+03  0.69160291485E+03  0.82644614605E+03  0.10100000352E+00 0. -1.
       -3    1    3    3    0  502 -0.42069173805E+02  0.45047620904E+03 -0.82251129598E+03  0.93873503850E+03  0.10100000352E+00 0.  1.
</event>
<event>
 5   0  0.3531266E-04  0.1811064E+04  0.7818609E-02  0.8700438E-01
        2   -1    0    0  501    0  0.00000000000E+00  0.00000000000E+00  0.10550001681E+04  0.10550001681E+04  0.25500000920E-02 0.  1.
       -2   -1    0    0    0  501  0.00000000000E+00  0.00000000000E+00 -0.77724021612E+03  0.77724021612E+03  0.25500000920E-02 0. -1.
    10030    2    1    2    0    0  0.00000000000E+00  0.00000000000E+00  0.27775995200E+03  0.18322403842E+04  0.18110643928E+04 0.  0.
        3    1    3    3  502    0  0.78676721777E+03 -0.14173702309E+03  0.56917235375E+03  0.98135071057E+03  0.10100000352E+00 0. -1.
       -3    1    3    3    0  502 -0.78676721777E+03  0.14173702309E+03 -0.29141240175E+03  0.85088967367E+03  0.10100000352E+00 0.  1.
</event>
<event>
 5   0  0.1825253E-04  0.1874527E+04  0.7818609E-02  0.8667641E-01
        1   -1    0    0  501    0  0.00000000000E+00  0.00000000000E+00  0.52354711393E+03  0.52354711395E+03  0.50400001928E-02 0. -1.
       -1   -1    0    0    0  501  0.00000000000E+00  0.00000000000E+00 -0.16779054700E+04  0.16779054700E+04  0.50400001928E-02 0.  1.
    10030    2    1    2    0    0  0.00000000000E+00  0.00000000000E+00 -0.11543583560E+04  0.22014525839E+04  0.18745266776E+04 0.  0.
        4    1    3    3  502    0  0.38687268954E+03 -0.82075507673E+03 -0.85298071853E+03  0.12453461740E+04  0.12699999809E+01 0.  1.
       -4    1    3    3    0  502 -0.38687268954E+03  0.82075507673E+03 -0.30137763750E+03  0.95610640997E+03  0.12699999809E+01 0. -1.
</event>
<event>
 5   0  0.1825253E-04  0.1778782E+04  0.7818609E-02  0.8717665E-01
        1   -1    0    0  501    0  0.00000000000E+00  0.00000000000E+00  0.21594031204E+04  0.21594031204E+04  0.50400001928E-02 0. -1.
       -1   -1    0    0    0  501  0.00000000000E+00  0.00000000000E+00 -0.36631257098E+03  0.36631257102E+03  0.50400001928E-02 0.  1.
    10030    2    1    2    0    0  0.00000000000E+00  0.00000000000E+00  0.17930905494E+04  0.25257156914E+04  0.17787821776E+04 0.  0.
        4    1    3    3  502    0 -0.62614568289E+03  0.63162963795E+03  0.89752924280E+03  0.12635563978E+04  0.12699999809E+01 0. -1.
       -4    1    3    3    0  502  0.62614568289E+03 -0.63162963795E+03  0.89556130657E+03  0.12621592936E+04  0.12699999809E+01 0.  1.
</event>
<event>
 5   0  0.1837313E-04  0.1787900E+04  0.7818609E-02  0.8712761E-01
       -1   -1    0    0    0  501  0.00000000000E+00  0.00000000000E+00  0.98041262398E+03  0.98041262399E+03  0.50400001928E-02 0. -1.
        1   -1    0    0  501    0  0.00000000000E+00  0.00000000000E+00 -0.81511237340E+03  0.81511237342E+03  0.50400001928E-02 0.  1.
    10030    2    1    2    0    0  0.00000000000E+00  0.00000000000E+00  0.16530025058E+03  0.17955249974E+04  0.17878998416E+04 0.  0.
        1    1    3    3  502    0 -0.62328895804E+03 -0.32105901079E+03  0.63961296463E+03  0.94903780651E+03  0.50400001928E-02 0. -1.
       -1    1    3    3    0  502  0.62328895804E+03  0.32105901079E+03 -0.47431271405E+03  0.84648719090E+03  0.50400001928E-02 0.  1.
</event>
<event>
 5   0  0.1837313E-04  0.1794340E+04  0.7818609E-02  0.8709315E-01
        1   -1    0    0  501    0  0.00000000000E+00  0.00000000000E+00  0.13946866603E+04  0.13946866603E+04  0.50400001928E-02 0. -1.
       -1   -1    0    0    0  501  0.00000000000E+00  0.00000000000E+00 -0.57712919754E+03  0.57712919756E+03  0.50400001928E-02 0.  1.
    10030    2    1    2    0    0  0.00000000000E+00  0.00000000000E+00  0.81755746278E+03  0.19718158579E+04  0.17943404283E+04 0.  0.
        1    1    3    3  502    0 -0.13556996194E+03  0.36123771154E+02 -0.56499941556E+03  0.58215846728E+03  0.50400001928E-02 0.  1.
       -1    1    3    3    0  502  0.13556996194E+03 -0.36123771154E+02  0.13825568783E+04  0.13896573906E+04  0.50400001928E-02 0. -1.
</event>
<event>
 5   0  0.1835421E-04  0.1791201E+04  0.7818609E-02  0.8710993E-01
        1   -1    0    0  501    0  0.00000000000E+00  0.00000000000E+00  0.10388220757E+04  0.10388220757E+04  0.50400001928E-02 0.  1.
       -1   -1    0    0    0  501  0.00000000000E+00  0.00000000000E+00 -0.77212490340E+03  0.77212490342E+03  0.50400001928E-02 0. -1.
    10030    2    1    2    0    0  0.00000000000E+00  0.00000000000E+00  0.26669717233E+03  0.18109469792E+04  0.17912011555E+04 0.  0.
        2    1    3    3  502    0  0.47773706200E+03 -0.64030497964E+03 -0.27593156055E+03  0.84519902596E+03  0.25500000920E-02 0. -1.
       -2    1    3    3    0  502 -0.47773706200E+03  0.64030497964E+03  0.54262873288E+03  0.96574795320E+03  0.25500000920E-02 0.  1.
</event>
<event>
 5   0  0.1883959E-04  0.2073986E+04  0.7818609E-02  0.8572790E-01
       -1   -1    0    0    0  501  0.00000000000E+00  0.00000000000E+00  0.10617812614E+04  0.10617812614E+04  0.50400001928E-02 0.  1.
        1   -1    0    0  501    0  0.00000000000E+00  0.00000000000E+00 -0.10127834246E+04  0.10127834246E+04  0.50400001928E-02 0. -1.
    10030    2    1    2    0    0  0.00000000000E+00  0.00000000000E+00  0.48997836801E+02  0.20745646861E+04  0.20739859809E+04 0.  0.
        5    1    3    3  502    0  0.34396350783E+03  0.93896275085E+03 -0.25011444099E+03  0.10307964231E+04  0.46999998093E+01 0. -1.
       -5    1    3    3    0  502 -0.34396350783E+03 -0.93896275085E+03  0.29911227779E+03  0.10437682630E+04  0.46999998093E+01 0.  1.
</event>
<event>
 5   0  0.1835421E-04  0.1801934E+04  0.7818609E-02  0.8705272E-01
       -1   -1    0    0    0  501  0.00000000000E+00  0.00000000000E+00  0.70826035751E+03  0.70826035753E+03  0.50400001928E-02 0.  1.
        1   -1    0    0  501    0  0.00000000000E+00  0.00000000000E+00 -0.11461055207E+04  0.11461055207E+04  0.50400001928E-02 0. -1.
    10030    2    1    2    0    0  0.00000000000E+00  0.00000000000E+00 -0.43784516319E+03  0.18543658782E+04  0.18019335236E+04 0.  0.
        2    1    3    3  502    0 -0.64481122762E+03  0.51073853113E+03  0.15934015621E+03  0.83786911378E+03  0.25500000920E-02 0.  1.
       -2    1    3    3    0  502  0.64481122762E+03 -0.51073853113E+03 -0.59718531940E+03  0.10164967645E+04  0.25500000920E-02 0. -1.
</event>
<event>
 5   0  0.3568870E-04  0.1816812E+04  0.7818609E-02  0.8697410E-01
        2   -1    0    0  501    0  0.00000000000E+00  0.00000000000E+00  0.90942724469E+03  0.90942724470E+03  0.25500000920E-02 0.  1.
       -2   -1    0    0    0  501  0.00000000000E+00  0.00000000000E+00 -0.90738540983E+03  0.90738540984E+03  0.25500000920E-02 0. -1.
    10030    2    1    2    0    0  0.00000000000E+00  0.00000000000E+00  0.20418348590E+01  0.18168126545E+04  0.18168115072E+04 0.  0.
        1    1    3    3  502    0 -0.65705811901E+03  0.30570087989E+03  0.54876446357E+03  0.90902191185E+03  0.50400001928E-02 0.  1.
       -1    1    3    3    0  502  0.65705811901E+03 -0.30570087989E+03 -0.54672262871E+03  0.90779074268E+03  0.50400001928E-02 0. -1.
</event>
<event>
 5   0  0.3568870E-04  0.1770665E+04  0.7818609E-02  0.8722057E-01
        2   -1    0    0  501    0  0.00000000000E+00  0.00000000000E+00  0.15624094304E+04  0.15624094304E+04  0.25500000920E-02 0.  1.
       -2   -1    0    0    0  501  0.00000000000E+00  0.00000000000E+00 -0.50166957277E+03  0.50166957278E+03  0.25500000920E-02 0. -1.
    10030    2    1    2    0    0  0.00000000000E+00  0.00000000000E+00  0.10607398576E+04  0.20640790032E+04  0.17706645887E+04 0.  0.
        1    1    3    3  502    0  0.77087557833E+03  0.42381456700E+03  0.41411816614E+03  0.97229717681E+03  0.50400001928E-02 0.  1.
       -1    1    3    3    0  502 -0.77087557833E+03 -0.42381456700E+03  0.64662169148E+03  0.10917818264E+04  0.50400001928E-02 0. -1.
</event>
<event>
 5   0  0.3628581E-04  0.1784519E+04  0.7818609E-02  0.8714575E-01
       -2   -1    0    0    0  501  0.00000000000E+00  0.00000000000E+00  0.44834087032E+03  0.44834087032E+03  0.25500000920E-02 0.  1.
        2   -1    0    0  501    0  0.00000000000E+00  0.00000000000E+00 -0.17757189664E+04  0.17757189664E+04  0.25500000920E-02 0. -1.
    10030    2    1    2    0    0  0.00000000000E+00  0.00000000000E+00 -0.13273780961E+04  0.22240598367E+04  0.17845194164E+04 0.  0.
        2    1    3    3  502    0  0.44053041320E+03 -0.98102771998E+01  0.30327535288E+03  0.53491983153E+03  0.25500000920E-02 0.  1.
       -2    1    3    3    0  502 -0.44053041320E+03  0.98102771998E+01 -0.16306534490E+04  0.16891400052E+04  0.25500000920E-02 0. -1.
</event>
<event>
 5   0  0.1825253E-04  0.1848415E+04  0.7818609E-02  0.8680968E-01
        1   -1    0    0  501    0  0.00000000000E+00  0.00000000000E+00  0.96962377211E+03  0.96962377212E+03  0.50400001928E-02 0.  1.
       -1   -1    0    0    0  501  0.00000000000E+00  0.00000000000E+00 -0.88091888081E+03  0.88091888083E+03  0.50400001928E-02 0. -1.
    10030    2    1    2    0    0  0.00000000000E+00  0.00000000000E+00  0.88704891293E+02  0.18505426530E+04  0.18484154167E+04 0.  0.
        4    1    3    3  502    0  0.92789890261E+02 -0.86849291333E+03  0.34680667865E+03  0.93976932781E+03  0.12699999809E+01 0.  1.
       -4    1    3    3    0  502 -0.92789890261E+02  0.86849291333E+03 -0.25810178736E+03  0.91077332514E+03  0.12699999809E+01 0. -1.
</event>
<event>
 5   0  0.1825253E-04  0.1808942E+04  0.7818609E-02  0.8701559E-01
       -1   -1    0    0    0  501  0.00000000000E+00  0.00000000000E+00  0.58800087196E+03  0.58800087198E+03  0.50400001928E-02 0. -1.
        1   -1    0    0  501    0  0.00000000000E+00  0.00000000000E+00 -0.13912690564E+04  0.13912690564E+04  0.50400001928E-02 0.  1.
    10030    2    1    2    0    0  0.00000000000E+00  0.00000000000E+00 -0.80326818448E+03  0.19792699284E+04  0.18089415893E+04 0.  0.
        4    1    3    3  502    0  0.74708186708E+03  0.38093904012E+03 -0.77239090054E+03  0.11401031464E+04  0.12699999809E+01 0.  1.
       -4    1    3    3    0  502 -0.74708186708E+03 -0.38093904012E+03 -0.30877283937E+02  0.83916678197E+03  0.12699999809E+01 0. -1.
</event>
<event>
 5   0  0.1837313E-04  0.1427113E+04  0.7818609E-02  0.8934423E-01
        1   -1    0    0  501    0  0.00000000000E+00  0.00000000000E+00  0.63259827881E+03  0.63259827883E+03  0.50400001928E-02 0.  1.
       -1   -1    0    0    0  501  0.00000000000E+00  0.00000000000E+00 -0.80487554121E+03  0.80487554123E+03  0.50400001928E-02 0. -1.
    10030    2    1    2    0    0  0.00000000000E+00  0.00000000000E+00 -0.17227726241E+03  0.14374738201E+04  0.14271130047E+04 0.  0.
        1    1    3    3  502    0 -0.15850868835E+03 -0.26955717612E+03 -0.73218171483E+03  0.79616338715E+03  0.50400001928E-02 0. -1.
       -1    1    3    3    0  502  0.15850868835E+03  0.26955717612E+03  0.55990445243E+03  0.64131043290E+03  0.50400001928E-02 0.  1.
</event>
<event>
 5   0  0.1835421E-04  0.1800933E+04  0.7818609E-02  0.8705803E-01
        1   -1    0    0  501    0  0.00000000000E+00  0.00000000000E+00  0.69598099488E+03  0.69598099490E+03  0.50400001928E-02 0. -1.
       -1   -1    0    0    0  501  0.00000000000E+00  0.00000000000E+00 -0.11650320904E+04  0.11650320905E+04  0.50400001928E-02 0.  1.
    10030    2    1    2    0    0  0.00000000000E+00  0.00000000000E+00 -0.46905109556E+03  0.18610130853E+04  0.18009333063E+04 0.  0.
        2    1    3    3  502    0 -0.46140757207E+03 -0.66779572391E+03  0.16834204060E+03  0.82896750183E+03  0.25500000920E-02 0.  1.
       -2    1    3    3    0  502  0.46140757207E+03  0.66779572391E+03 -0.63739313616E+03  0.10320455835E+04  0.25500000920E-02 0. -1.
</event>
<event>
 5   0  0.1330125E-04  0.1792563E+04  0.7818609E-02  0.8710264E-01
       -4   -1    0    0    0  501  0.00000000000E+00  0.00000000000E+00  0.91847906927E+03  0.91847994729E+03  0.12699999809E+01 0. -1.
        4   -1    0    0  501    0  0.00000000000E+00  0.00000000000E+00 -0.87461902927E+03  0.87461995132E+03  0.12699999809E+01 0.  1.
    10030    2    1    2    0    0  0.00000000000E+00  0.00000000000E+00  0.43860040000E+02  0.17930998986E+04  0.17925634001E+04 0.  0.
        5    1    3    3  502    0  0.23371381182E+03 -0.86179024686E+03 -0.55515502708E+02  0.89465559656E+03  0.46999998093E+01 0.  1.
       -5    1    3    3    0  502 -0.23371381182E+03  0.86179024686E+03  0.99375542708E+02  0.89844430206E+03  0.46999998093E+01 0. -1.
</event>
<event>
 5   0  0.3531266E-04  0.1998804E+04  0.7818609E-02  0.8607180E-01
        2   -1    0    0  501    0  0.00000000000E+00  0.00000000000E+00  0.15961312150E+04  0.15961312150E+04  0.25500000920E-02 0. -1.
       -2   -1    0    0    0  501  0.00000000000E+00  0.00000000000E+00 -0.62576552683E+03  0.62576552683E+03  0.25500000920E-02 0.  1.
    10030    2    1    2    0    0  0.00000000000E+00  0.00000000000E+00  0.97036568818E+03  0.22218967418E+04  0.19988035328E+04 0.  0.
        3    1    3    3  502    0 -0.66281626858E+03  0.39918696438E+03 -0.21797587569E+03  0.80385889994E+03  0.10100000352E+00 0.  1.
       -3    1    3    3    0  502  0.66281626858E+03 -0.39918696438E+03  0.11883415639E+04  0.14180378419E+04  0.10100000352E+00 0. -1.
</event>
<event>
 5   0  0.3568870E-04  0.2024427E+04  0.7818609E-02  0.8595285E-01
        2   -1    0    0  501    0  0.00000000000E+00  0.00000000000E+00  0.16400348297E+04  0.16400348297E+04  0.25500000920E-02 0. -1.
       -2   -1    0    0    0  501  0.00000000000E+00  0.00000000000E+00 -0.62472847765E+03  0.62472847766E+03  0.25500000920E-02 0.  1.
    10030    2    1    2    0    0  0.00000000000E+00  0.00000000000E+00  0.10153063521E+04  0.22647633074E+04  0.20244272894E+04 0.  0.
        1    1    3    3  502    0 -0.23331789569E+03  0.72369945992E+03 -0.23979641721E+03  0.79729572335E+03  0.50400001928E-02 0.  1.
       -1    1    3    3    0  502  0.23331789569E+03 -0.72369945992E+03  0.12551027693E+04  0.14674675840E+04  0.50400001928E-02 0. -1.
</event>
<event>
 5   0  0.3531266E-04  0.1722609E+04  0.7818609E-02  0.8748574E-01
       -2   -1    0    0    0  501  0.00000000000E+00  0.00000000000E+00  0.43031784900E+03  0.43031784901E+03  0.25500000920E-02 0. -1.
        2   -1    0    0  501    0  0.00000000000E+00  0.00000000000E+00 -0.17239472690E+04  0.17239472690E+04  0.25500000920E-02 0.  1.
    10030    2    1    2    0    0  0.00000000000E+00  0.00000000000E+00 -0.12936294200E+04  0.21542651181E+04  0.17226088130E+04 0.  0.
        3    1    3    3  502    0 -0.42804442794E+03 -0.74225972944E+03 -0.75636557311E+03  0.11429175074E+04  0.10100000352E+00 0.  1.
       -3    1    3    3    0  502  0.42804442794E+03  0.74225972944E+03 -0.53726384694E+03  0.10113476107E+04  0.10100000352E+00 0. -1.
</event>
<event>
 5   0  0.1825253E-04  0.1805008E+04  0.7818609E-02  0.8703641E-01
        1   -1    0    0  501    0  0.00000000000E+00  0.00000000000E+00  0.11523468038E+04  0.11523468038E+04  0.50400001928E-02 0.  1.
       -1   -1    0    0    0  501  0.00000000000E+00  0.00000000000E+00 -0.70683012684E+03  0.70683012685E+03  0.50400001928E-02 0. -1.
    10030    2    1    2    0    0  0.00000000000E+00  0.00000000000E+00  0.44551667700E+03  0.18591769307E+04  0.18050079640E+04 0.  0.
        4    1    3    3  502    0  0.57260173896E+03 -0.23203619468E+03 -0.45485876804E+03  0.76721030941E+03  0.12699999809E+01 0. -1.
       -4    1    3    3    0  502 -0.57260173896E+03  0.23203619468E+03  0.90037544504E+03  0.10919666213E+04  0.12699999809E+01 0.  1.
</event>
<event>
 5   0  0.3628581E-04  0.1838145E+04  0.7818609E-02  0.8686273E-01
       -2   -1    0    0    0  501  0.00000000000E+00  0.00000000000E+00  0.11863836803E+04  0.11863836803E+04  0.25500000920E-02 0.  1.
        2   -1    0    0  501    0  0.00000000000E+00  0.00000000000E+00 -0.71199066355E+03  0.71199066356E+03  0.25500000920E-02 0. -1.
    10030    2    1    2    0    0  0.00000000000E+00  0.00000000000E+00  0.47439301672E+03  0.18983743438E+04  0.18381448297E+04 0.  0.
        2    1    3    3  502    0 -0.25203807845E+03 -0.74995678523E+03 -0.24582002297E+03  0.82848407131E+03  0.25500000920E-02 0. -1.
       -2    1    3    3    0  502  0.25203807845E+03  0.74995678523E+03  0.72021303969E+03  0.10698902725E+04  0.25500000920E-02 0.  1.
</event>
<event>
 5   0  0.3628581E-04  0.1793594E+04  0.7818609E-02  0.8709714E-01
       -2   -1    0    0    0  501  0.00000000000E+00  0.00000000000E+00  0.78441208036E+03  0.78441208037E+03  0.25500000920E-02 0. -1.
        2   -1    0    0  501    0  0.00000000000E+00  0.00000000000E+00 -0.10252835939E+04  0.10252835939E+04  0.25500000920E-02 0.  1.
    10030    2    1    2    0    0  0.00000000000E+00  0.00000000000E+00 -0.24087151354E+03  0.18096956743E+04  0.17935939751E+04 0.  0.
        2    1    3    3  502    0 -0.36532757624E+03  0.56161557967E+03 -0.72191535456E+03  0.98490511038E+03  0.25500000920E-02 0.  1.
       -2    1    3    3    0  502  0.36532757624E+03 -0.56161557967E+03  0.48104384102E+03  0.82479056389E+03  0.25500000920E-02 0. -1.
</event>
<event>
 5   0  0.1825253E-04  0.1823073E+04  0.7818609E-02  0.8694125E-01
       -1   -1    0    0    0  501  0.00000000000E+00  0.00000000000E+00  0.17195364449E+04  0.17195364449E+04  0.50400001928E-02 0. -1.
        1   -1    0    0  501    0  0.00000000000E+00  0.00000000000E+00 -0.48321095712E+03  0.48321095715E+03  0.50400001928E-02 0.  1.
    10030    2    1    2    0    0  0.00000000000E+00  0.00000000000E+00  0.12363254878E+04  0.22027474021E+04  0.18230730664E+04 0.  0.
        4    1    3    3  502    0 -0.24213732280E+03  0.42179833892E+03  0.15496626638E+04  0.16241922011E+04  0.12699999809E+01 0. -1.
       -4    1    3    3    0  502  0.24213732280E+03 -0.42179833892E+03 -0.31333717597E+03  0.57855520096E+03  0.12699999809E+01 0.  1.
</event>
<event>
 5   0  0.1835421E-04  0.1815597E+04  0.7818609E-02  0.8698049E-01
        1   -1    0    0  501    0  0.00000000000E+00  0.00000000000E+00  0.43822135951E+03  0.43822135954E+03  0.50400001928E-02 0.  1.
       -1   -1    0    0    0  501  0.00000000000E+00  0.00000000000E+00 -0.18805519607E+04  0.18805519607E+04  0.50400001928E-02 0. -1.
    10030    2    1    2    0    0  0.00000000000E+00  0.00000000000E+00 -0.14423306012E+04  0.23187733203E+04  0.18155969122E+04 0.  0.
        2    1    3    3  502    0 -0.80339666642E+03  0.38583189355E+03 -0.94158068982E+03  0.12964901269E+04  0.25500000920E-02 0. -1.
       -2    1    3    3    0  502  0.80339666642E+03 -0.38583189355E+03 -0.50074991139E+03  0.10222831934E+04  0.25500000920E-02 0.  1.
</event>
<event>
 5   0  0.1883959E-04  0.1712488E+04  0.7818609E-02  0.8754274E-01
       -1   -1    0    0    0  501  0.00000000000E+00  0.00000000000E+00  0.53644362781E+03  0.53644362784E+03  0.50400001928E-02 0.  1.
        1   -1    0    0  501    0  0.00000000000E+00  0.00000000000E+00 -0.13666932147E+04  0.13666932147E+04  0.50400001928E-02 0. -1.
    10030    2    1    2    0    0  0.00000000000E+00  0.00000000000E+00 -0.83024958689E+03  0.19031368426E+04  0.17124880919E+04 0.  0.
        5    1    3    3  502    0 -0.47801730130E+03 -0.67375374321E+03 -0.66532709751E+03  0.10607199836E+04  0.46999998093E+01 0.  1.
       -5    1    3    3    0  502  0.47801730130E+03  0.67375374321E+03 -0.16492248938E+03  0.84241685900E+03  0.46999998093E+01 0. -1.
</event>
<event>
 5   0  0.3582186E-04  0.1799494E+04  0.7818609E-02  0.8706568E-01
       -2   -1    0    0    0  501  0.00000000000E+00  0.00000000000E+00  0.53346636415E+03  0.53346636416E+03  0.25500000920E-02 0. -1.
        2   -1    0    0  501    0  0.00000000000E+00  0.00000000000E+00 -0.15175180990E+04  0.15175180990E+04  0.25500000920E-02 0.  1.
    10030    2    1    2    0    0  0.00000000000E+00  0.00000000000E+00 -0.98405173484E+03  0.20509844632E+04  0.17994942210E+04 0.  0.
        4    1    3    3  502    0  0.89422943223E+03 -0.19740808372E+02 -0.38089367171E+03  0.97217157901E+03  0.12699999809E+01 0.  1.
       -4    1    3    3    0  502 -0.89422943223E+03  0.19740808372E+02 -0.60315806313E+03  0.10788128841E+04  0.12699999809E+01 0. -1.
</event>
<event>
 5   0  0.1883959E-04  0.1734575E+04  0.7818609E-02  0.8741887E-01
        1   -1    0    0  501    0  0.00000000000E+00  0.00000000000E+00  0.54993861310E+03  0.54993861313E+03  0.50400001928E-02 0.  1.
       -1   -1    0    0    0  501  0.00000000000E+00  0.00000000000E+00 -0.13677670802E+04  0.13677670802E+04  0.50400001928E-02 0. -1.
    10030    2    1    2    0    0  0.00000000000E+00  0.00000000000E+00 -0.81782846712E+03  0.19177056934E+04  0.17345753730E+04 0.  0.
        5    1    3    3  502    0  0.74184059863E+03 -0.22672048314E+03  0.19895805508E+02  0.77598169072E+03  0.46999998093E+01 0.  1.
       -5    1    3    3    0  502 -0.74184059863E+03  0.22672048314E+03 -0.83772427263E+03  0.11417240026E+04  0.46999998093E+01 0. -1.
</event>
<event>
 5   0  0.3568870E-04  0.1794057E+04  0.7818609E-02  0.8709467E-01
        2   -1    0    0  501    0  0.00000000000E+00  0.00000000000E+00  0.19913444951E+04  0.19913444951E+04  0.25500000920E-02 0. -1.
       -2   -1    0    0    0  501  0.00000000000E+00  0.00000000000E+00 -0.40407860742E+03  0.40407860743E+03  0.25500000920E-02 0.  1.
    10030    2    1    2    0    0  0.00000000000E+00  0.00000000000E+00  0.15872658877E+04  0.23954231026E+04  0.17940565325E+04 0.  0.
        1    1    3    3  502    0 -0.27637639543E+03  0.26822968202E+03 -0.28806694841E+03  0.48095076781E+03  0.50400001928E-02 0.  1.
       -1    1    3    3    0  502  0.27637639543E+03 -0.26822968202E+03  0.18753328361E+04  0.19144723347E+04  0.50400001928E-02 0. -1.
</event>
<event>
 5   0  0.1883959E-04  0.1780803E+04  0.7818609E-02  0.8716575E-01
       -1   -1    0    0    0  501  0.00000000000E+00  0.00000000000E+00  0.81571584517E+03  0.81571584519E+03  0.50400001928E-02 0. -1.
        1   -1    0    0  501    0  0.00000000000E+00  0.00000000000E+00 -0.97192510829E+03  0.97192510830E+03  0.50400001928E-02 0.  1.
    10030    2    1    2    0    0  0.00000000000E+00  0.00000000000E+00 -0.15620926312E+03  0.17876409535E+04  0.17808028652E+04 0.  0.
        5    1    3    3  502    0 -0.25733684229E+03  0.51659619311E+02  0.77598654313E+03  0.81918750709E+03  0.46999998093E+01 0. -1.
       -5    1    3    3    0  502  0.25733684229E+03 -0.51659619311E+02 -0.93219580624E+03  0.96845344640E+03  0.46999998093E+01 0.  1.
</event>
<event>
 5   0  0.1837313E-04  0.1787849E+04  0.7818609E-02  0.8712788E-01
        1   -1    0    0  501    0  0.00000000000E+00  0.00000000000E+00  0.10485873238E+04  0.10485873238E+04  0.50400001928E-02 0. -1.
       -1   -1    0    0    0  501  0.00000000000E+00  0.00000000000E+00 -0.76207371085E+03  0.76207371086E+03  0.50400001928E-02 0.  1.
    10030    2    1    2    0    0  0.00000000000E+00  0.00000000000E+00  0.28651361297E+03  0.18106610347E+04  0.17878488001E+04 0.  0.
        1    1    3    3  502    0  0.65204066864E+03 -0.20149457720E+03  0.72798295666E+03  0.99785584300E+03  0.50400001928E-02 0. -1.
       -1    1    3    3    0  502 -0.65204066864E+03  0.20149457720E+03 -0.44146934369E+03  0.81280519169E+03  0.50400001928E-02 0.  1.
</event>
<event>
 5   0  0.1818778E-04  0.1808301E+04  0.7818609E-02  0.8701898E-01
       -1   -1    0    0    0  501  0.00000000000E+00  0.00000000000E+00  0.12594841015E+04  0.12594841015E+04  0.50400001928E-02 0.  1.
        1   -1    0    0  501    0  0.00000000000E+00  0.00000000000E+00 -0.64906576049E+03  0.64906576050E+03  0.50400001928E-02 0. -1.
    10030    2    1    2    0    0  0.00000000000E+00  0.00000000000E+00  0.61041834104E+03  0.19085498620E+04  0.18083008668E+04 0.  0.
        3    1    3    3  502    0 -0.60512908431E+03 -0.34544339491E+03 -0.30290613467E+03  0.75977923398E+03  0.10100000352E+00 0. -1.
       -3    1    3    3    0  502  0.60512908431E+03  0.34544339491E+03  0.91332447571E+03  0.11487706281E+04  0.10100000352E+00 0.  1.
</event>
<event>
 5   0  0.1883959E-04  0.1590179E+04  0.7818609E-02  0.8826605E-01
        1   -1    0    0  501    0  0.00000000000E+00  0.00000000000E+00  0.86093761115E+03  0.86093761117E+03  0.50400001928E-02 0. -1.
       -1   -1    0    0    0  501  0.00000000000E+00  0.00000000000E+00 -0.73427728343E+03  0.73427728345E+03  0.50400001928E-02 0.  1.
    10030    2    1    2    0    0  0.00000000000E+00  0.00000000000E+00  0.12666032772E+03  0.15952148946E+04  0.15901785187E+04 0.  0.
        5    1    3    3  502    0 -0.40216270879E+03 -0.59003665788E+03  0.41410423000E+03  0.82545896645E+03  0.46999998093E+01 0. -1.
       -5    1    3    3    0  502  0.40216270879E+03  0.59003665788E+03 -0.28744390229E+03  0.76975592817E+03  0.46999998093E+01 0.  1.
</event>
<event>
 5   0  0.3582186E-04  0.1786951E+04  0.7818609E-02  0.8713270E-01
        2   -1    0    0  501    0  0.00000000000E+00  0.00000000000E+00  0.13583285735E+04  0.13583285735E+04  0.25500000920E-02 0.  1.
       -2   -1    0    0    0  501  0.00000000000E+00  0.00000000000E+00 -0.58770618913E+03  0.58770618913E+03  0.25500000920E-02 0. -1.
    10030    2    1    2    0    0  0.00000000000E+00  0.00000000000E+00  0.77062238439E+03  0.19460347627E+04  0.17869505976E+04 0.  0.
        4    1    3    3  502    0  0.70537620001E+03  0.94186962642E+02  0.97365688099E+03  0.12060000424E+04  0.12699999809E+01 0.  1.
       -4    1    3    3    0  502 -0.70537620001E+03 -0.94186962642E+02 -0.20303449660E+03  0.74003472025E+03  0.12699999809E+01 0. -1.
</event>
<event>
 5   0  0.3531266E-04  0.1788623E+04  0.7818609E-02  0.8712373E-01
        2   -1    0    0  501    0  0.00000000000E+00  0.00000000000E+00  0.84129837580E+03  0.84129837581E+03  0.25500000920E-02 0.  1.
       -2   -1    0    0    0  501  0.00000000000E+00  0.00000000000E+00 -0.95066540247E+03  0.95066540247E+03  0.25500000920E-02 0. -1.
    10030    2    1    2    0    0  0.00000000000E+00  0.00000000000E+00 -0.10936702666E+03  0.17919637783E+04  0.17886232236E+04 0.  0.
        3    1    3    3  502    0 -0.51719570907E+03  0.21810324523E+03  0.64284437337E+03  0.85341040867E+03  0.10100000352E+00 0.  1.
       -3    1    3    3    0  502  0.51719570907E+03 -0.21810324523E+03 -0.75221140003E+03  0.93855336961E+03  0.10100000352E+00 0. -1.
</event>
<event>
 5   0  0.3628581E-04  0.1802738E+04  0.7818609E-02  0.8704845E-01
       -2   -1    0    0    0  501  0.00000000000E+00  0.00000000000E+00  0.81551415092E+03  0.81551415092E+03  0.25500000920E-02 0.  1.
        2   -1    0    0  501    0  0.00000000000E+00  0.00000000000E+00 -0.99626289320E+03  0.99626289320E+03  0.25500000920E-02 0. -1.
    10030    2    1    2    0    0  0.00000000000E+00  0.00000000000E+00 -0.18074874228E+03  0.18117770441E+04  0.18027384585E+04 0.  0.
        2    1    3    3  502    0 -0.38031856105E+03 -0.61205357604E+03 -0.63458234178E+03  0.96018047071E+03  0.25500000920E-02 0.  1.
       -2    1    3    3    0  502  0.38031856105E+03  0.61205357604E+03  0.45383359949E+03  0.85159657342E+03  0.25500000920E-02 0. -1.
</event>
<event>
 5   0  0.3568870E-04  0.1726005E+04  0.7818609E-02  0.8746670E-01
        2   -1    0    0  501    0  0.00000000000E+00  0.00000000000E+00  0.50260889546E+03  0.50260889546E+03  0.25500000920E-02 0.  1.
       -2   -1    0    0    0  501  0.00000000000E+00  0.00000000000E+00 -0.14818146754E+04  0.14818146754E+04  0.25500000920E-02 0. -1.
    10030    2    1    2    0    0  0.00000000000E+00  0.00000000000E+00 -0.97920577996E+03  0.19844235709E+04  0.17260049099E+04 0.  0.
        1    1    3    3  502    0 -0.67960827650E+03 -0.51196705983E+03 -0.65540025843E+03  0.10740238259E+04  0.50400001928E-02 0. -1.
       -1    1    3    3    0  502  0.67960827650E+03  0.51196705983E+03 -0.32380552153E+03  0.91039974497E+03  0.50400001928E-02 0.  1.
</event>
<event>
 5   0  0.3575091E-04  0.1840852E+04  0.7818609E-02  0.8684872E-01
        2   -1    0    0  501    0  0.00000000000E+00  0.00000000000E+00  0.72533490764E+03  0.72533490764E+03  0.25500000920E-02 0. -1.
       -2   -1    0    0    0  501  0.00000000000E+00  0.00000000000E+00 -0.11679896627E+04  0.11679896627E+04  0.25500000920E-02 0.  1.
    10030    2    1    2    0    0  0.00000000000E+00  0.00000000000E+00 -0.44265475506E+03  0.18933245703E+04  0.18408516226E+04 0.  0.
        5    1    3    3  502    0 -0.20161374245E+03 -0.27391243697E+02  0.70190282050E+03  0.73081327356E+03  0.46999998093E+01 0. -1.
       -5    1    3    3    0  502  0.20161374245E+03  0.27391243697E+02 -0.11445575756E+04  0.11625112968E+04  0.46999998093E+01 0.  1.
</event>
<event>
 5   0  0.3531266E-04  0.1790788E+04  0.7818609E-02  0.8711214E-01
        2   -1    0    0  501    0  0.00000000000E+00  0.00000000000E+00  0.11470447392E+04  0.11470447392E+04  0.25500000920E-02 0.  1.
       -2   -1    0    0    0  501  0.00000000000E+00  0.00000000000E+00 -0.69895285821E+03  0.69895285821E+03  0.25500000920E-02 0. -1.
    10030    2    1    2    0    0  0.00000000000E+00  0.00000000000E+00  0.44809188095E+03  0.18459975974E+04  0.17907877584E+04 0.  0.
        3    1    3    3  502    0  0.31961855168E+03  0.40969709346E+03 -0.52762804116E+03  0.74053972681E+03  0.10100000352E+00 0. -1.
       -3    1    3    3    0  502 -0.31961855168E+03 -0.40969709346E+03  0.97571992211E+03  0.11054578706E+04  0.10100000352E+00 0.  1.
</event>
<event>
 5   0  0.1837313E-04  0.1812140E+04  0.7818609E-02  0.8699870E-01
       -1   -1    0    0    0  501  0.00000000000E+00  0.00000000000E+00  0.73343627137E+03  0.73343627139E+03  0.50400001928E-02 0.  1.
        1   -1    0    0  501    0  0.00000000000E+00  0.00000000000E+00 -0.11193376798E+04  0.11193376798E+04  0.50400001928E-02 0. -1.
    10030    2    1    2    0    0  0.00000000000E+00  0.00000000000E+00 -0.38590140847E+03  0.18527739512E+04  0.18121400104E+04 0.  0.
        1    1    3    3  502    0 -0.23520073450E+03  0.73105822407E+03  0.29866087682E+03  0.82399261638E+03  0.50400001928E-02 0.  1.
       -1    1    3    3    0  502  0.23520073450E+03 -0.73105822407E+03 -0.68456228529E+03  0.10287813349E+04  0.50400001928E-02 0. -1.
</event>
<event>
 5   0  0.1818778E-04  0.1758044E+04  0.7818609E-02  0.8728935E-01
       -1   -1    0    0    0  501  0.00000000000E+00  0.00000000000E+00  0.69854065326E+03  0.69854065328E+03  0.50400001928E-02 0. -1.
        1   -1    0    0  501    0  0.00000000000E+00  0.00000000000E+00 -0.11061342504E+04  0.11061342504E+04  0.50400001928E-02 0.  1.
    10030    2    1    2    0    0  0.00000000000E+00  0.00000000000E+00 -0.40759359718E+03  0.18046749037E+04  0.17580440744E+04 0.  0.
        3    1    3    3  502    0 -0.27638375578E+03  0.51250274506E+03 -0.87977116340E+03  0.10550091726E+04  0.10100000352E+00 0.  1.
       -3    1    3    3    0  502  0.27638375578E+03 -0.51250274506E+03  0.47217756623E+03  0.74966573111E+03  0.10100000352E+00 0. -1.
</event>
<event>
 5   0  0.1883959E-04  0.1798618E+04  0.7818609E-02  0.8707035E-01
        1   -1    0    0  501    0  0.00000000000E+00  0.00000000000E+00  0.97322090219E+03  0.97322090220E+03  0.50400001928E-02 0. -1.
       -1   -1    0    0    0  501  0.00000000000E+00  0.00000000000E+00 -0.83101012419E+03  0.83101012421E+03  0.50400001928E-02 0.  1.
    10030    2    1    2    0    0  0.00000000000E+00  0.00000000000E+00  0.14221077800E+03  0.18042310264E+04  0.17986177168E+04 0.  0.
        5    1    3    3  502    0  0.16196920706E+03 -0.75129337636E+03 -0.39731939064E+03  0.86519393755E+03  0.46999998093E+01 0.  1.
       -5    1    3    3    0  502 -0.16196920706E+03  0.75129337636E+03  0.53953016864E+03  0.93903708886E+03  0.46999998093E+01 0. -1.
</event>
<event>
 5   0  0.1818778E-04  0.1741504E+04  0.7818609E-02  0.8738041E-01
       -1   -1    0    0    0  501  0.00000000000E+00  0.00000000000E+00  0.72336583337E+03  0.72336583339E+03  0.50400001928E-02 0.  1.
        1   -1    0    0  501    0  0.00000000000E+00  0.00000000000E+00 -0.10481684236E+04  0.10481684236E+04  0.50400001928E-02 0. -1.
    10030    2    1    2    0    0  0.00000000000E+00  0.00000000000E+00 -0.32480259026E+03  0.17715342570E+04  0.17415042065E+04 0.  0.
        3    1    3    3  502    0 -0.50486945504E+03  0.54260118493E+03  0.30253585558E+03  0.80052305815E+03  0.10100000352E+00 0.  1.
       -3    1    3    3    0  502  0.50486945504E+03 -0.54260118493E+03 -0.62733844584E+03  0.97101119888E+03  0.10100000352E+00 0. -1.
</event>
<event>
 5   0  0.3628581E-04  0.1772357E+04  0.7818609E-02  0.8721140E-01
       -2   -1    0    0    0  501  0.00000000000E+00  0.00000000000E+00  0.44946113412E+03  0.44946113413E+03  0.25500000920E-02 0. -1.
        2   -1    0    0  501    0  0.00000000000E+00  0.00000000000E+00 -0.17472300853E+04  0.17472300853E+04  0.25500000920E-02 0.  1.
    10030    2    1    2    0    0  0.00000000000E+00  0.00000000000E+00 -0.12977689512E+04  0.21966912194E+04  0.17723566410E+04 0.  0.
        2    1    3    3  502    0 -0.14140825834E+03  0.34003303161E+03 -0.16478996319E+04  0.16885472913E+04  0.25500000920E-02 0.  1.
       -2    1    3    3    0  502  0.14140825834E+03 -0.34003303161E+03  0.35013068072E+03  0.50814392814E+03  0.25500000920E-02 0. -1.
</event>
<event>
 5   0  0.3531266E-04  0.1754560E+04  0.7818609E-02  0.8730844E-01
        2   -1    0    0  501    0  0.00000000000E+00  0.00000000000E+00  0.14244206626E+04  0.14244206626E+04  0.25500000920E-02 0.  1.
       -2   -1    0    0    0  501  0.00000000000E+00  0.00000000000E+00 -0.54030378867E+03  0.54030378867E+03  0.25500000920E-02 0. -1.
    10030    2    1    2    0    0  0.00000000000E+00  0.00000000000E+00  0.88411687395E+03  0.19647244513E+04  0.17545596378E+04 0.  0.
        3    1    3    3  502    0 -0.50730496285E+03  0.68104072658E+03  0.19559169354E+03  0.87145333631E+03  0.10100000352E+00 0.  1.
       -3    1    3    3    0  502  0.50730496285E+03 -0.68104072658E+03  0.68852518040E+03  0.10932711150E+04  0.10100000352E+00 0. -1.
</event>
<event>
 5   0  0.1818778E-04  0.1771726E+04  0.7818609E-02  0.8721482E-01
       -1   -1    0    0    0  501  0.00000000000E+00  0.00000000000E+00  0.12515105637E+04  0.12515105637E+04  0.50400001928E-02 0.  1.
        1   -1    0    0  501    0  0.00000000000E+00  0.00000000000E+00 -0.62704449775E+03  0.62704449777E+03  0.50400001928E-02 0. -1.
    10030    2    1    2    0    0  0.00000000000E+00  0.00000000000E+00  0.62446606595E+03  0.18785550615E+04  0.17717255012E+04 0.  0.
        3    1    3    3  502    0 -0.15815265891E+02 -0.87691356385E+03  0.18011952166E+03  0.89536058289E+03  0.10100000352E+00 0. -1.
       -3    1    3    3    0  502  0.15815265891E+02  0.87691356385E+03  0.44434654428E+03  0.98319447858E+03  0.10100000352E+00 0.  1.
</event>
<event>
 5   0  0.1835421E-04  0.1789590E+04  0.7818609E-02  0.8711855E-01
       -1   -1    0    0    0  501  0.00000000000E+00  0.00000000000E+00  0.19012844919E+04  0.19012844919E+04  0.50400001928E-02 0. -1.
        1   -1    0    0  501    0  0.00000000000E+00  0.00000000000E+00 -0.42111413613E+03  0.42111413616E+03  0.50400001928E-02 0.  1.
    10030    2    1    2    0    0  0.00000000000E+00  0.00000000000E+00  0.14801703558E+04  0.23223986281E+04  0.17895896473E+04 0.  0.
        2    1    3    3  502    0  0.79735825532E+03  0.39955095032E+03  0.64617576310E+03  0.11013465695E+04  0.25500000920E-02 0.  1.
       -2    1    3    3    0  502 -0.79735825532E+03 -0.39955095032E+03  0.83399459269E+03  0.12210520586E+04  0.25500000920E-02 0. -1.
</event>
<event>
 5   0  0.3628581E-04  0.1775875E+04  0.7818609E-02  0.8719235E-01
        2   -1    0    0  501    0  0.00000000000E+00  0.00000000000E+00  0.78289967130E+03  0.78289967131E+03  0.25500000920E-02 0. -1.
       -2   -1    0    0    0  501  0.00000000000E+00  0.00000000000E+00 -0.10070673171E+04  0.10070673171E+04  0.25500000920E-02 0.  1.
    10030    2    1    2    0    0  0.00000000000E+00  0.00000000000E+00 -0.22416764584E+03  0.17899669884E+04  0.17758746257E+04 0.  0.
        2    1    3    3  502    0  0.25856762020E+02  0.46813106813E+03  0.64796727931E+03  0.79979801460E+03  0.25500000920E-02 0. -1.
       -2    1    3    3    0  502 -0.25856762020E+02 -0.46813106813E+03 -0.87213492515E+03  0.99016897385E+03  0.25500000920E-02 0.  1.
</event>
<event>
 5   0  0.1825253E-04  0.1837362E+04  0.7818609E-02  0.8686679E-01
       -1   -1    0    0    0  501  0.00000000000E+00  0.00000000000E+00  0.91708074295E+03  0.91708074296E+03  0.50400001928E-02 0. -1.
        1   -1    0    0  501    0  0.00000000000E+00  0.00000000000E+00 -0.92028427289E+03  0.92028427291E+03  0.50400001928E-02 0.  1.
    10030    2    1    2    0    0  0.00000000000E+00  0.00000000000E+00 -0.32035299456E+01  0.18373650159E+04  0.18373622231E+04 0.  0.
        4    1    3    3  502    0 -0.42080531175E+03  0.13039560277E+03  0.80455902783E+03  0.91727692972E+03  0.12699999809E+01 0. -1.
       -4    1    3    3    0  502  0.42080531175E+03 -0.13039560277E+03 -0.80776255778E+03  0.92008808615E+03  0.12699999809E+01 0.  1.
</event>
<event>
 5   0  0.1330125E-04  0.1807734E+04  0.7818609E-02  0.8702197E-01
        3   -1    0    0  501    0  0.00000000000E+00  0.00000000000E+00  0.10259250904E+04  0.10259250954E+04  0.10100000352E+00 0. -1.
       -3   -1    0    0    0  501  0.00000000000E+00  0.00000000000E+00 -0.79633066805E+03  0.79633067445E+03  0.10100000352E+00 0.  1.
    10030    2    1    2    0    0  0.00000000000E+00  0.00000000000E+00  0.22959442237E+03  0.18222557698E+04  0.18077340767E+04 0.  0.
        3    1    3    3  502    0  0.24084598190E+03 -0.24462244941E+03  0.95765314639E+03  0.10173231978E+04  0.10100000352E+00 0. -1.
       -3    1    3    3    0  502 -0.24084598190E+03  0.24462244941E+03 -0.72805872401E+03  0.80493257206E+03  0.10100000352E+00 0.  1.
</event>
<event>
 5   0  0.3568870E-04  0.1801493E+04  0.7818609E-02  0.8705506E-01
        2   -1    0    0  501    0  0.00000000000E+00  0.00000000000E+00  0.32335928939E+04  0.32335928939E+04  0.25500000920E-02 0.  1.
       -2   -1    0    0    0  501  0.00000000000E+00  0.00000000000E+00 -0.25091117913E+03  0.25091117914E+03  0.25500000920E-02 0. -1.
    10030    2    1    2    0    0  0.00000000000E+00  0.00000000000E+00  0.29826817148E+04  0.34845040731E+04  0.18014933870E+04 0.  0.
        1    1    3    3  502    0 -0.32493403226E+03 -0.81920448894E+03  0.11312076129E+04  0.14339835367E+04  0.50400001928E-02 0. -1.
       -1    1    3    3    0  502  0.32493403226E+03  0.81920448894E+03  0.18514741019E+04  0.20505205363E+04  0.50400001928E-02 0.  1.
</event>
<event>
 5   0  0.1825253E-04  0.1859760E+04  0.7818609E-02  0.8675150E-01
       -1   -1    0    0    0  501  0.00000000000E+00  0.00000000000E+00  0.99711244125E+03  0.99711244126E+03  0.50400001928E-02 0. -1.
        1   -1    0    0  501    0  0.00000000000E+00  0.00000000000E+00 -0.86718119737E+03  0.86718119739E+03  0.50400001928E-02 0.  1.
    10030    2    1    2    0    0  0.00000000000E+00  0.00000000000E+00  0.12993124388E+03  0.18642936386E+04  0.18597603725E+04 0.  0.
        4    1    3    3  502    0 -0.81832429013E+02  0.57036784073E+02 -0.86180175214E+03  0.86755611580E+03  0.12699999809E+01 0.  1.
       -4    1    3    3    0  502  0.81832429013E+02 -0.57036784073E+02  0.99173299601E+03  0.99673752285E+03  0.12699999809E+01 0. -1.
</event>
<event>
 5   0  0.1837313E-04  0.1772679E+04  0.7818609E-02  0.8720965E-01
       -1   -1    0    0    0  501  0.00000000000E+00  0.00000000000E+00  0.52937050412E+03  0.52937050415E+03  0.50400001928E-02 0.  1.
        1   -1    0    0  501    0  0.00000000000E+00  0.00000000000E+00 -0.14840226389E+04  0.14840226389E+04  0.50400001928E-02 0. -1.
    10030    2    1    2    0    0  0.00000000000E+00  0.00000000000E+00 -0.95465213479E+03  0.20133931431E+04  0.17726791165E+04 0.  0.
        1    1    3    3  502    0  0.70416850960E+02 -0.47828513474E+03 -0.13210916596E+04  0.14067687714E+04  0.50400001928E-02 0. -1.
       -1    1    3    3    0  502 -0.70416850960E+02  0.47828513474E+03  0.36643952479E+03  0.60662437172E+03  0.50400001928E-02 0.  1.
</event>
<event>
 5   0  0.1835421E-04  0.1788926E+04  0.7818609E-02  0.8712211E-01
        1   -1    0    0  501    0  0.00000000000E+00  0.00000000000E+00  0.70022548987E+03  0.70022548988E+03  0.50400001928E-02 0.  1.
       -1   -1    0    0    0  501  0.00000000000E+00  0.00000000000E+00 -0.11425802963E+04  0.11425802963E+04  0.50400001928E-02 0. -1.
    10030    2    1    2    0    0  0.00000000000E+00  0.00000000000E+00 -0.44235480642E+03  0.18428057862E+04  0.17889257645E+04 0.  0.
        2    1    3    3  502    0  0.30581563412E+03  0.61380079770E+03 -0.81274650221E+03  0.10634056132E+04  0.25500000920E-02 0. -1.
       -2    1    3    3    0  502 -0.30581563412E+03 -0.61380079770E+03  0.37039169579E+03  0.77940017298E+03  0.25500000920E-02 0.  1.
</event>
<event>
 5   0  0.3568870E-04  0.1767216E+04  0.7818609E-02  0.8723930E-01
       -2   -1    0    0    0  501  0.00000000000E+00  0.00000000000E+00  0.19971689451E+04  0.19971689451E+04  0.25500000920E-02 0.  1.
        2   -1    0    0  501    0  0.00000000000E+00  0.00000000000E+00 -0.39093506903E+03  0.39093506904E+03  0.25500000920E-02 0. -1.
    10030    2    1    2    0    0  0.00000000000E+00  0.00000000000E+00  0.16062338761E+04  0.23881040141E+04  0.17672163189E+04 0.  0.
        1    1    3    3  502    0  0.46644750680E+03  0.64782274122E+03  0.13150502396E+04  0.15383772988E+04  0.50400001928E-02 0.  1.
       -1    1    3    3    0  502 -0.46644750680E+03 -0.64782274122E+03  0.29118363646E+03  0.84972671537E+03  0.50400001928E-02 0. -1.
</event>
<event>
 5   0  0.3575091E-04  0.1756718E+04  0.7818609E-02  0.8729661E-01
       -2   -1    0    0    0  501  0.00000000000E+00  0.00000000000E+00  0.60243166056E+03  0.60243166057E+03  0.25500000920E-02 0.  1.
        2   -1    0    0  501    0  0.00000000000E+00  0.00000000000E+00 -0.12806674772E+04  0.12806674772E+04  0.25500000920E-02 0. -1.
    10030    2    1    2    0    0  0.00000000000E+00  0.00000000000E+00 -0.67823581662E+03  0.18830991377E+04  0.17567181162E+04 0.  0.
        5    1    3    3  502    0  0.19909565924E+03  0.85088870351E+03 -0.24419279271E+03  0.90736038998E+03  0.46999998093E+01 0.  1.
       -5    1    3    3    0  502 -0.19909565924E+03 -0.85088870351E+03 -0.43404302391E+03  0.97573874777E+03  0.46999998093E+01 0. -1.
</event>
<event>
 5   0  0.1818778E-04  0.1799954E+04  0.7818609E-02  0.8706324E-01
       -1   -1    0    0    0  501  0.00000000000E+00  0.00000000000E+00  0.93637559166E+03  0.93637559168E+03  0.50400001928E-02 0.  1.
        1   -1    0    0  501    0  0.00000000000E+00  0.00000000000E+00 -0.86499295440E+03  0.86499295442E+03  0.50400001928E-02 0. -1.
    10030    2    1    2    0    0  0.00000000000E+00  0.00000000000E+00  0.71382637259E+02  0.18013685461E+04  0.17999536544E+04 0.  0.
        3    1    3    3  502    0 -0.76074890098E+03 -0.60624095541E+02 -0.44169948597E+03  0.88176675908E+03  0.10100000352E+00 0. -1.
       -3    1    3    3    0  502  0.76074890098E+03  0.60624095541E+02  0.51308212323E+03  0.91960178702E+03  0.10100000352E+00 0.  1.
</event>
<event>
 5   0  0.3582186E-04  0.1782515E+04  0.7818609E-02  0.8715653E-01
        2   -1    0    0  501    0  0.00000000000E+00  0.00000000000E+00  0.13982833997E+04  0.13982833997E+04  0.25500000920E-02 0.  1.
       -2   -1    0    0    0  501  0.00000000000E+00  0.00000000000E+00 -0.56808214038E+03  0.56808214039E+03  0.25500000920E-02 0. -1.
    10030    2    1    2    0    0  0.00000000000E+00  0.00000000000E+00  0.83020125928E+03  0.19663655401E+04  0.17825148825E+04 0.  0.
        4    1    3    3  502    0  0.76123307728E+03 -0.35258503766E+03  0.83155560970E+02  0.84303527028E+03  0.12699999809E+01 0.  1.
       -4    1    3    3    0  502 -0.76123307728E+03  0.35258503766E+03  0.74704569831E+03  0.11233302698E+04  0.12699999809E+01 0. -1.
</event>
<event>
 5   0  0.1825253E-04  0.1762635E+04  0.7818609E-02  0.8726426E-01
       -1   -1    0    0    0  501  0.00000000000E+00  0.00000000000E+00  0.59206535036E+03  0.59206535038E+03  0.50400001928E-02 0. -1.
        1   -1    0    0  501    0  0.00000000000E+00  0.00000000000E+00 -0.13118828430E+04  0.13118828430E+04  0.50400001928E-02 0.  1.
    10030    2    1    2    0    0  0.00000000000E+00  0.00000000000E+00 -0.71981749268E+03  0.19039481934E+04  0.17626348177E+04 0.  0.
        4    1    3    3  502    0  0.46756735051E+03 -0.36451513017E+03  0.34446610135E+03  0.68567413198E+03  0.12699999809E+01 0. -1.
       -4    1    3    3    0  502 -0.46756735051E+03  0.36451513017E+03 -0.10642835940E+04  0.12182740614E+04  0.12699999809E+01 0.  1.
</event>
<event>
 5   0  0.1883959E-04  0.1806500E+04  0.7818609E-02  0.8702851E-01
       -1   -1    0    0    0  501  0.00000000000E+00  0.00000000000E+00  0.66707607786E+03  0.66707607787E+03  0.50400001928E-02 0.  1.
        1   -1    0    0  501    0  0.00000000000E+00  0.00000000000E+00 -0.12230395487E+04  0.12230395487E+04  0.50400001928E-02 0. -1.
    10030    2    1    2    0    0  0.00000000000E+00  0.00000000000E+00 -0.55596347085E+03  0.18901156266E+04  0.18064998480E+04 0.  0.
        5    1    3    3  502    0 -0.61603809506E+03 -0.26586197182E+03  0.35469942497E+03  0.75895934983E+03  0.46999998093E+01 0.  1.
       -5    1    3    3    0  502  0.61603809506E+03  0.26586197182E+03 -0.91066289582E+03  0.11311562768E+04  0.46999998093E+01 0. -1.
</event>
<event>
 5   0  0.1835421E-04  0.1823274E+04  0.7818609E-02  0.8694020E-01
       -1   -1    0    0    0  501  0.00000000000E+00  0.00000000000E+00  0.78359918857E+03  0.78359918859E+03  0.50400001928E-02 0.  1.
        1   -1    0    0  501    0  0.00000000000E+00  0.00000000000E+00 -0.10605952965E+04  0.10605952966E+04  0.50400001928E-02 0. -1.
    10030    2    1    2    0    0  0.00000000000E+00  0.00000000000E+00 -0.27699610797E+03  0.18441944851E+04  0.18232735547E+04 0.  0.
        2    1    3    3  502    0  0.70253378753E+03  0.26394707203E+03  0.38499230051E+03  0.84346953171E+03  0.25500000920E-02 0.  1.
       -2    1    3    3    0  502 -0.70253378753E+03 -0.26394707203E+03 -0.66198840848E+03  0.10007249534E+04  0.25500000920E-02 0. -1.
</event>
<event>
 5   0  0.1835421E-04  0.1863824E+04  0.7818609E-02  0.8673076E-01
       -1   -1    0    0    0  501  0.00000000000E+00  0.00000000000E+00  0.89519531360E+03  0.89519531362E+03  0.50400001928E-02 0.  1.
        1   -1    0    0  501    0  0.00000000000E+00  0.00000000000E+00 -0.97013419701E+03  0.97013419703E+03  0.50400001928E-02 0. -1.
    10030    2    1    2    0    0  0.00000000000E+00  0.00000000000E+00 -0.74938883414E+02  0.18653295106E+04  0.18638235826E+04 0.  0.
        2    1    3    3  502    0  0.42220902473E+03  0.17438763802E+03  0.77546025811E+03  0.90000562263E+03  0.25500000920E-02 0.  1.
       -2    1    3    3    0  502 -0.42220902473E+03 -0.17438763802E+03 -0.85039914152E+03  0.96532388801E+03  0.25500000920E-02 0. -1.
</event>
<event>
 5   0  0.1883959E-04  0.1797459E+04  0.7818609E-02  0.8707652E-01
       -1   -1    0    0    0  501  0.00000000000E+00  0.00000000000E+00  0.87133860360E+03  0.87133860361E+03  0.50400001928E-02 0.  1.
        1   -1    0    0  501    0  0.00000000000E+00  0.00000000000E+00 -0.92698126174E+03  0.92698126175E+03  0.50400001928E-02 0. -1.
    10030    2    1    2    0    0  0.00000000000E+00  0.00000000000E+00 -0.55642658141E+02  0.17983198654E+04  0.17974588264E+04 0.  0.
        5    1    3    3  502    0  0.80210752777E+03 -0.11559054266E+03  0.36089382025E+03  0.88713251499E+03  0.46999998093E+01 0.  1.
       -5    1    3    3    0  502 -0.80210752777E+03  0.11559054266E+03 -0.41653647840E+03  0.91118735038E+03  0.46999998093E+01 0. -1.
</event>
<event>
 5   0  0.1883959E-04  0.1804391E+04  0.7818609E-02  0.8703968E-01
       -1   -1    0    0    0  501  0.00000000000E+00  0.00000000000E+00  0.65617842243E+03  0.65617842245E+03  0.50400001928E-02 0. -1.
        1   -1    0    0  501    0  0.00000000000E+00  0.00000000000E+00 -0.12404496375E+04  0.12404496375E+04  0.50400001928E-02 0.  1.
    10030    2    1    2    0    0  0.00000000000E+00  0.00000000000E+00 -0.58427121505E+03  0.18966280599E+04  0.18043905190E+04 0.  0.
        5    1    3    3  502    0 -0.85486419513E+02  0.42953207477E+02 -0.12350897455E+04  0.12387984805E+04  0.46999998093E+01 0.  1.
       -5    1    3    3    0  502  0.85486419513E+02 -0.42953207477E+02  0.65081853045E+03  0.65782957940E+03  0.46999998093E+01 0. -1.
</event>
<event>
 5   0  0.1835421E-04  0.1796226E+04  0.7818609E-02  0.8708309E-01
        1   -1    0    0  501    0  0.00000000000E+00  0.00000000000E+00  0.12225171388E+04  0.12225171388E+04  0.50400001928E-02 0. -1.
       -1   -1    0    0    0  501  0.00000000000E+00  0.00000000000E+00 -0.65979176012E+03  0.65979176014E+03  0.50400001928E-02 0.  1.
    10030    2    1    2    0    0  0.00000000000E+00  0.00000000000E+00  0.56272537867E+03  0.18823088989E+04  0.17962257484E+04 0.  0.
        2    1    3    3  502    0  0.27953941073E+03 -0.19787804280E+03  0.11513979783E+04  0.12012557207E+04  0.25500000920E-02 0. -1.
       -2    1    3    3    0  502 -0.27953941073E+03  0.19787804280E+03 -0.58867259967E+03  0.68105317824E+03  0.25500000920E-02 0.  1.
</event>
<event>
 5   0  0.1835421E-04  0.1788522E+04  0.7818609E-02  0.8712427E-01
       -1   -1    0    0    0  501  0.00000000000E+00  0.00000000000E+00  0.72519841017E+03  0.72519841019E+03  0.50400001928E-02 0. -1.
        1   -1    0    0  501    0  0.00000000000E+00  0.00000000000E+00 -0.11027369311E+04  0.11027369311E+04  0.50400001928E-02 0.  1.
    10030    2    1    2    0    0  0.00000000000E+00  0.00000000000E+00 -0.37753852090E+03  0.18279353413E+04  0.17885223726E+04 0.  0.
        2    1    3    3  502    0  0.53860919641E+03 -0.52515502286E+03  0.30543104896E+03  0.81189641591E+03  0.25500000920E-02 0. -1.
       -2    1    3    3    0  502 -0.53860919641E+03  0.52515502286E+03 -0.68296956986E+03  0.10160389254E+04  0.25500000920E-02 0.  1.
</event>
<event>
 5   0  0.3575091E-04  0.1816050E+04  0.7818609E-02  0.8697811E-01
        2   -1    0    0  501    0  0.00000000000E+00  0.00000000000E+00  0.15634674252E+04  0.15634674252E+04  0.25500000920E-02 0.  1.
       -2   -1    0    0    0  501  0.00000000000E+00  0.00000000000E+00 -0.52735943497E+03  0.52735943498E+03  0.25500000920E-02 0. -1.
    10030    2    1    2    0    0  0.00000000000E+00  0.00000000000E+00  0.10361079902E+04  0.20908268602E+04  0.18160498869E+04 0.  0.
        5    1    3    3  502    0  0.19705893328E+03 -0.34966221592E+03  0.14557783343E+04  0.15101021611E+04  0.46999998093E+01 0.  1.
       -5    1    3    3    0  502 -0.19705893328E+03  0.34966221592E+03 -0.41967034405E+03  0.58072469907E+03  0.46999998093E+01 0. -1.
</event>
<event>
 5   0  0.3568870E-04  0.1803881E+04  0.7818609E-02  0.8704238E-01
        2   -1    0    0  501    0  0.00000000000E+00  0.00000000000E+00  0.16070646705E+04  0.16070646705E+04  0.25500000920E-02 0.  1.
       -2   -1    0    0    0  501  0.00000000000E+00  0.00000000000E+00 -0.50620049577E+03  0.50620049578E+03  0.25500000920E-02 0. -1.
    10030    2    1    2    0    0  0.00000000000E+00  0.00000000000E+00  0.11008641747E+04  0.21132651663E+04  0.18038812965E+04 0.  0.
        1    1    3    3  502    0  0.48474605737E+03  0.63483070647E+03  0.59643218876E+02  0.80096571686E+03  0.50400001928E-02 0. -1.
       -1    1    3    3    0  502 -0.48474605737E+03 -0.63483070647E+03  0.10412209559E+04  0.13122994494E+04  0.50400001928E-02 0.  1.
</event>
<event>
 5   0  0.1883959E-04  0.1787267E+04  0.7818609E-02  0.8713100E-01
       -1   -1    0    0    0  501  0.00000000000E+00  0.00000000000E+00  0.63611380916E+03  0.63611380918E+03  0.50400001928E-02 0.  1.
        1   -1    0    0  501    0  0.00000000000E+00  0.00000000000E+00 -0.12554056390E+04  0.12554056390E+04  0.50400001928E-02 0. -1.
    10030    2    1    2    0    0  0.00000000000E+00  0.00000000000E+00 -0.61929182979E+03  0.18915194481E+04  0.17872670344E+04 0.  0.
        5    1    3    3  502    0  0.77331338427E+03  0.38985340263E+03 -0.54286200036E+03  0.10221157015E+04  0.46999998093E+01 0.  1.
       -5    1    3    3    0  502 -0.77331338427E+03 -0.38985340263E+03 -0.76429829436E+02  0.86940374664E+03  0.46999998093E+01 0. -1.
</event>
<event>
 5   0  0.1835421E-04  0.1639445E+04  0.7818609E-02  0.8796675E-01
        1   -1    0    0  501    0  0.00000000000E+00  0.00000000000E+00  0.24084568728E+04  0.24084568728E+04  0.50400001928E-02 0.  1.
       -1   -1    0    0    0  501  0.00000000000E+00  0.00000000000E+00 -0.27899406699E+03  0.27899406704E+03  0.50400001928E-02 0. -1.
    10030    2    1    2    0    0  0.00000000000E+00  0.00000000000E+00  0.21294628058E+04  0.26874509398E+04  0.16394452454E+04 0.  0.
        2    1    3    3  502    0  0.12892712781E+03  0.59636716958E+03  0.16737562630E+03  0.63268523416E+03  0.25500000920E-02 0. -1.
       -2    1    3    3    0  502 -0.12892712781E+03 -0.59636716958E+03  0.19620871795E+04  0.20547657056E+04  0.25500000920E-02 0.  1.
</event>
<event>
 5   0  0.1837313E-04  0.1779322E+04  0.7818609E-02  0.8717374E-01
       -1   -1    0    0    0  501  0.00000000000E+00  0.00000000000E+00  0.78230093751E+03  0.78230093753E+03  0.50400001928E-02 0.  1.
        1   -1    0    0  501    0  0.00000000000E+00  0.00000000000E+00 -0.10117542307E+04  0.10117542307E+04  0.50400001928E-02 0. -1.
    10030    2    1    2    0    0  0.00000000000E+00  0.00000000000E+00 -0.22945329321E+03  0.17940551683E+04  0.17793215373E+04 0.  0.
        1    1    3    3  502    0  0.44954207155E+03  0.76638099998E+03 -0.68870697803E+02  0.89116277091E+03  0.50400001928E-02 0.  1.
       -1    1    3    3    0  502 -0.44954207155E+03 -0.76638099998E+03 -0.16058259541E+03  0.90289239735E+03  0.50400001928E-02 0. -1.
</event>
<event>
 5   0  0.3575091E-04  0.1790327E+04  0.7818609E-02  0.8711460E-01
       -2   -1    0    0    0  501  0.00000000000E+00  0.00000000000E+00  0.42615508611E+03  0.42615508612E+03  0.25500000920E-02 0.  1.
        2   -1    0    0  501    0  0.00000000000E+00  0.00000000000E+00 -0.18803438650E+04  0.18803438650E+04  0.25500000920E-02 0. -1.
    10030    2    1    2    0    0  0.00000000000E+00  0.00000000000E+00 -0.14541887789E+04  0.23064989511E+04  0.17903274580E+04 0.  0.
        5    1    3    3  502    0  0.41571255391E+02  0.24829492211E+03  0.37959229953E+03  0.45551173583E+03  0.46999998093E+01 0.  1.
       -5    1    3    3    0  502 -0.41571255391E+02 -0.24829492211E+03 -0.18337810784E+04  0.18509872153E+04  0.46999998093E+01 0. -1.
</event>
<event>
 5   0  0.3575091E-04  0.1774038E+04  0.7818609E-02  0.8720229E-01
       -2   -1    0    0    0  501  0.00000000000E+00  0.00000000000E+00  0.23392552077E+03  0.23392552078E+03  0.25500000920E-02 0. -1.
        2   -1    0    0  501    0  0.00000000000E+00  0.00000000000E+00 -0.33634742860E+04  0.33634742860E+04  0.25500000920E-02 0.  1.
    10030    2    1    2    0    0  0.00000000000E+00  0.00000000000E+00 -0.31295487652E+04  0.35973998068E+04  0.17740377380E+04 0.  0.
        5    1    3    3  502    0  0.37555225745E+02  0.62393337279E+03 -0.28858320193E+03  0.68848064830E+03  0.46999998093E+01 0. -1.
       -5    1    3    3    0  502 -0.37555225745E+02 -0.62393337279E+03 -0.28409655633E+04  0.29089191585E+04  0.46999998093E+01 0.  1.
</event>
<event>
 5   0  0.3582186E-04  0.1816063E+04  0.7818609E-02  0.8697803E-01
       -2   -1    0    0    0  501  0.00000000000E+00  0.00000000000E+00  0.40334399859E+03  0.40334399859E+03  0.25500000920E-02 0.  1.
        2   -1    0    0  501    0  0.00000000000E+00  0.00000000000E+00 -0.20442144915E+04  0.20442144915E+04  0.25500000920E-02 0. -1.
    10030    2    1    2    0    0  0.00000000000E+00  0.00000000000E+00 -0.16408704930E+04  0.24475584901E+04  0.18160634868E+04 0.  0.
        4    1    3    3  502    0  0.83956479539E+03 -0.34560023994E+03 -0.84003356601E+03  0.12369181769E+04  0.12699999809E+01 0. -1.
       -4    1    3    3    0  502 -0.83956479539E+03  0.34560023994E+03 -0.80083692695E+03  0.12106403132E+04  0.12699999809E+01 0.  1.
</event>
<event>
 5   0  0.1883959E-04  0.1885479E+04  0.7818609E-02  0.8662118E-01
       -1   -1    0    0    0  501  0.00000000000E+00  0.00000000000E+00  0.39109772982E+03  0.39109772985E+03  0.50400001928E-02 0. -1.
        1   -1    0    0  501    0  0.00000000000E+00  0.00000000000E+00 -0.22724709035E+04  0.22724709035E+04  0.50400001928E-02 0.  1.
    10030    2    1    2    0    0  0.00000000000E+00  0.00000000000E+00 -0.18813731737E+04  0.26635686334E+04  0.18854794738E+04 0.  0.
        5    1    3    3  502    0 -0.39310661891E+03 -0.79519186651E+03 -0.48979507065E+03  0.10133036167E+04  0.46999998093E+01 0. -1.
       -5    1    3    3    0  502  0.39310661891E+03  0.79519186651E+03 -0.13915781030E+04  0.16502650167E+04  0.46999998093E+01 0.  1.
</event>
<event>
 5   0  0.3628581E-04  0.1863440E+04  0.7818609E-02  0.8673272E-01
        2   -1    0    0  501    0  0.00000000000E+00  0.00000000000E+00  0.10479310160E+04  0.10479310160E+04  0.25500000920E-02 0.  1.
       -2   -1    0    0    0  501  0.00000000000E+00  0.00000000000E+00 -0.82839584570E+03  0.82839584571E+03  0.25500000920E-02 0. -1.
    10030    2    1    2    0    0  0.00000000000E+00  0.00000000000E+00  0.21953517029E+03  0.18763268617E+04  0.18634395083E+04 0.  0.
        2    1    3    3  502    0  0.95549019936E+02  0.60939565291E+03  0.81288695748E+03  0.10204302439E+04  0.25500000920E-02 0.  1.
       -2    1    3    3    0  502 -0.95549019936E+02 -0.60939565291E+03 -0.59335178719E+03  0.85589661781E+03  0.25500000920E-02 0. -1.
</event>
<event>
 5   0  0.1835421E-04  0.1788944E+04  0.7818609E-02  0.8712201E-01
       -1   -1    0    0    0  501  0.00000000000E+00  0.00000000000E+00  0.90721788144E+03  0.90721788145E+03  0.50400001928E-02 0. -1.
        1   -1    0    0  501    0  0.00000000000E+00  0.00000000000E+00 -0.88190557953E+03  0.88190557955E+03  0.50400001928E-02 0.  1.
    10030    2    1    2    0    0  0.00000000000E+00  0.00000000000E+00  0.25312301908E+02  0.17891234610E+04  0.17889443944E+04 0.  0.
        2    1    3    3  502    0  0.53665478101E+03  0.60118618231E+03  0.40084102150E+03  0.90005372301E+03  0.25500000920E-02 0. -1.
       -2    1    3    3    0  502 -0.53665478101E+03 -0.60118618231E+03 -0.37552871959E+03  0.88906973800E+03  0.25500000920E-02 0.  1.
</event>
<event>
 5   0  0.3628581E-04  0.1783302E+04  0.7818609E-02  0.8715230E-01
        2   -1    0    0  501    0  0.00000000000E+00  0.00000000000E+00  0.11866179092E+04  0.11866179092E+04  0.25500000920E-02 0.  1.
       -2   -1    0    0    0  501  0.00000000000E+00  0.00000000000E+00 -0.67000665399E+03  0.67000665400E+03  0.25500000920E-02 0. -1.
    10030    2    1    2    0    0  0.00000000000E+00  0.00000000000E+00  0.51661125516E+03  0.18566245632E+04  0.17833024364E+04 0.  0.
        2    1    3    3  502    0 -0.20069994954E+03 -0.50654146386E+03 -0.47653134589E+03  0.72384172854E+03  0.25500000920E-02 0. -1.
       -2    1    3    3    0  502  0.20069994954E+03  0.50654146386E+03  0.99314260106E+03  0.11327828346E+04  0.25500000920E-02 0.  1.
</event>
<event>
 5   0  0.1883959E-04  0.1892677E+04  0.7818609E-02  0.8658510E-01
        1   -1    0    0  501    0  0.00000000000E+00  0.00000000000E+00  0.10936594529E+04  0.10936594529E+04  0.50400001928E-02 0. -1.
       -1   -1    0    0    0  501  0.00000000000E+00  0.00000000000E+00 -0.81886239877E+03  0.81886239878E+03  0.50400001928E-02 0.  1.
    10030    2    1    2    0    0  0.00000000000E+00  0.00000000000E+00  0.27479705409E+03  0.19125218516E+04  0.18926770491E+04 0.  0.
        5    1    3    3  502    0  0.56396240184E+03  0.32888975676E+03  0.82964528091E+03  0.10557250802E+04  0.46999998093E+01 0. -1.
       -5    1    3    3    0  502 -0.56396240184E+03 -0.32888975676E+03 -0.55484822682E+03  0.85679677147E+03  0.46999998093E+01 0.  1.
</event>
<event>
 5   0  0.3582186E-04  0.1764458E+04  0.7818609E-02  0.8725432E-01
        2   -1    0    0  501    0  0.00000000000E+00  0.00000000000E+00  0.24640125062E+04  0.24640125062E+04  0.25500000920E-02 0. -1.
       -2   -1    0    0    0  501  0.00000000000E+00  0.00000000000E+00 -0.31587835642E+03  0.31587835643E+03  0.25500000920E-02 0.  1.
    10030    2    1    2    0    0  0.00000000000E+00  0.00000000000E+00  0.21481341498E+04  0.27798908626E+04  0.17644582406E+04 0.  0.
        4    1    3    3  502    0  0.60399946010E+03 -0.54866155569E+03  0.16024605036E+04  0.17982564136E+04  0.12699999809E+01 0.  1.
       -4    1    3    3    0  502 -0.60399946010E+03  0.54866155569E+03  0.54567364613E+03  0.98163444901E+03  0.12699999809E+01 0. -1.
</event>
<event>
 5   0  0.1837313E-04  0.1305152E+04  0.7818609E-02  0.9025490E-01
        1   -1    0    0  501    0  0.00000000000E+00  0.00000000000E+00  0.74016850931E+03  0.74016850932E+03  0.50400001928E-02 0.  1.
       -1   -1    0    0    0  501  0.00000000000E+00  0.00000000000E+00 -0.57534904650E+03  0.57534904652E+03  0.50400001928E-02 0. -1.
    10030    2    1    2    0    0  0.00000000000E+00  0.00000000000E+00  0.16481946281E+03  0.13155175558E+04  0.13051517093E+04 0.  0.
        1    1    3    3  502    0 -0.27677143160E+03  0.16428646550E+03 -0.48978087657E+03  0.58606976989E+03  0.50400001928E-02 0. -1.
       -1    1    3    3    0  502  0.27677143160E+03 -0.16428646550E+03  0.65460033938E+03  0.72944778596E+03  0.50400001928E-02 0.  1.
</event>
<event>
 5   0  0.1883959E-04  0.1835265E+04  0.7818609E-02  0.8687768E-01
       -1   -1    0    0    0  501  0.00000000000E+00  0.00000000000E+00  0.44368047378E+03  0.44368047380E+03  0.50400001928E-02 0.  1.
        1   -1    0    0  501    0  0.00000000000E+00  0.00000000000E+00 -0.18978734261E+04  0.18978734261E+04  0.50400001928E-02 0. -1.
    10030    2    1    2    0    0  0.00000000000E+00  0.00000000000E+00 -0.14541929523E+04  0.23415538999E+04  0.18352649737E+04 0.  0.
        5    1    3    3  502    0 -0.78214292940E+03 -0.88231920849E+02 -0.12527820126E+03  0.79702518879E+03  0.46999998093E+01 0.  1.
       -5    1    3    3    0  502  0.78214292940E+03  0.88231920849E+02 -0.13289147510E+04  0.15445287111E+04  0.46999998093E+01 0. -1.
</event>
<event>
 5   0  0.1825253E-04  0.1811926E+04  0.7818609E-02  0.8699983E-01
       -1   -1    0    0    0  501  0.00000000000E+00  0.00000000000E+00  0.12017372158E+04  0.12017372158E+04  0.50400001928E-02 0.  1.
        1   -1    0    0  501    0  0.00000000000E+00  0.00000000000E+00 -0.68298551827E+03  0.68298551828E+03  0.50400001928E-02 0. -1.
    10030    2    1    2    0    0  0.00000000000E+00  0.00000000000E+00  0.51875169754E+03  0.18847227341E+04  0.18119261742E+04 0.  0.
        4    1    3    3  502    0 -0.31220683315E+03  0.30469741144E+03 -0.56653587800E+03  0.71503715510E+03  0.12699999809E+01 0. -1.
       -4    1    3    3    0  502  0.31220683315E+03 -0.30469741144E+03  0.10852875755E+04  0.11696855790E+04  0.12699999809E+01 0.  1.
</event>
<event>
 5   0  0.3628581E-04  0.1825494E+04  0.7818609E-02  0.8692858E-01
       -2   -1    0    0    0  501  0.00000000000E+00  0.00000000000E+00  0.98900458659E+03  0.98900458659E+03  0.25500000920E-02 0.  1.
        2   -1    0    0  501    0  0.00000000000E+00  0.00000000000E+00 -0.84236927705E+03  0.84236927705E+03  0.25500000920E-02 0. -1.
    10030    2    1    2    0    0  0.00000000000E+00  0.00000000000E+00  0.14663530954E+03  0.18313738636E+04  0.18254939919E+04 0.  0.
        2    1    3    3  502    0  0.40742523755E+03  0.66122920122E+02  0.89002796160E+03  0.98107967933E+03  0.25500000920E-02 0.  1.
       -2    1    3    3    0  502 -0.40742523755E+03 -0.66122920122E+02 -0.74339265205E+03  0.85029418432E+03  0.25500000920E-02 0. -1.
</event>
<event>
 5   0  0.3531266E-04  0.1840512E+04  0.7818609E-02  0.8685048E-01
        2   -1    0    0  501    0  0.00000000000E+00  0.00000000000E+00  0.14659233181E+04  0.14659233181E+04  0.25500000920E-02 0. -1.
       -2   -1    0    0    0  501  0.00000000000E+00  0.00000000000E+00 -0.57770483058E+03  0.57770483059E+03  0.25500000920E-02 0.  1.
    10030    2    1    2    0    0  0.00000000000E+00  0.00000000000E+00  0.88821848756E+03  0.20436281487E+04  0.18405118659E+04 0.  0.
        3    1    3    3  502    0  0.62625476831E+03  0.65702636087E+03  0.61247526406E+03  0.10949907000E+04  0.10100000352E+00 0. -1.
       -3    1    3    3    0  502 -0.62625476831E+03 -0.65702636087E+03  0.27574322350E+03  0.94863744877E+03  0.10100000352E+00 0.  1.
</event>
<event>
 5   0  0.1883959E-04  0.1799767E+04  0.7818609E-02  0.8706423E-01
       -1   -1    0    0    0  501  0.00000000000E+00  0.00000000000E+00  0.86349268624E+03  0.86349268626E+03  0.50400001928E-02 0. -1.
        1   -1    0    0  501    0  0.00000000000E+00  0.00000000000E+00 -0.93780800750E+03  0.93780800752E+03  0.50400001928E-02 0.  1.
    10030    2    1    2    0    0  0.00000000000E+00  0.00000000000E+00 -0.74315321262E+02  0.18013006938E+04  0.17997670467E+04 0.  0.
        5    1    3    3  502    0  0.56765985073E+03  0.63143001369E+03 -0.33544971001E+03  0.91295682606E+03  0.46999998093E+01 0.  1.
       -5    1    3    3    0  502 -0.56765985073E+03 -0.63143001369E+03  0.26113438875E+03  0.88834386771E+03  0.46999998093E+01 0. -1.
</event>
<event>
 5   0  0.3575091E-04  0.1772243E+04  0.7818609E-02  0.8721201E-01
       -2   -1    0    0    0  501  0.00000000000E+00  0.00000000000E+00  0.79541378125E+03  0.79541378126E+03  0.25500000920E-02 0.  1.
        2   -1    0    0  501    0  0.00000000000E+00  0.00000000000E+00 -0.98717364131E+03  0.98717364131E+03  0.25500000920E-02 0. -1.
    10030    2    1    2    0    0  0.00000000000E+00  0.00000000000E+00 -0.19175986006E+03  0.17825874226E+04  0.17722432325E+04 0.  0.
        5    1    3    3  502    0  0.20574613263E+03 -0.83327534434E+03  0.12565583885E+03  0.86746224726E+03  0.46999998093E+01 0. -1.
       -5    1    3    3    0  502 -0.20574613263E+03  0.83327534434E+03 -0.31741569891E+03  0.91512517531E+03  0.46999998093E+01 0.  1.
</event>
<event>
 5   0  0.3575091E-04  0.1804914E+04  0.7818609E-02  0.8703691E-01
        2   -1    0    0  501    0  0.00000000000E+00  0.00000000000E+00  0.17370936268E+04  0.17370936269E+04  0.25500000920E-02 0. -1.
       -2   -1    0    0    0  501  0.00000000000E+00  0.00000000000E+00 -0.46884567296E+03  0.46884567297E+03  0.25500000920E-02 0.  1.
    10030    2    1    2    0    0  0.00000000000E+00  0.00000000000E+00  0.12682479539E+04  0.22059392998E+04  0.18049142146E+04 0.  0.
        5    1    3    3  502    0 -0.76355018287E+03  0.15115020843E+03  0.11922645883E+04  0.14238582112E+04  0.46999998093E+01 0. -1.
       -5    1    3    3    0  502  0.76355018287E+03 -0.15115020843E+03  0.75983365614E+02  0.78208108858E+03  0.46999998093E+01 0.  1.
</event>
<event>
 5   0  0.3575091E-04  0.1675025E+04  0.7818609E-02  0.8775738E-01
       -2   -1    0    0    0  501  0.00000000000E+00  0.00000000000E+00  0.45270364954E+03  0.45270364955E+03  0.25500000920E-02 0. -1.
        2   -1    0    0  501    0  0.00000000000E+00  0.00000000000E+00 -0.15494181238E+04  0.15494181238E+04  0.25500000920E-02 0.  1.
    10030    2    1    2    0    0  0.00000000000E+00  0.00000000000E+00 -0.10967144743E+04  0.20021217733E+04  0.16750250617E+04 0.  0.
        5    1    3    3  502    0  0.54094646758E+03 -0.31369392384E+03  0.11755159930E+03  0.63629193547E+03  0.46999998093E+01 0. -1.
       -5    1    3    3    0  502 -0.54094646758E+03  0.31369392384E+03 -0.12142660735E+04  0.13658298379E+04  0.46999998093E+01 0.  1.
</event>
<event>
 5   0  0.1825253E-04  0.1813403E+04  0.7818609E-02  0.8699204E-01
       -1   -1    0    0    0  501  0.00000000000E+00  0.00000000000E+00  0.55088769252E+03  0.55088769254E+03  0.50400001928E-02 0.  1.
        1   -1    0    0  501    0  0.00000000000E+00  0.00000000000E+00 -0.14923321307E+04  0.14923321307E+04  0.50400001928E-02 0. -1.
    10030    2    1    2    0    0  0.00000000000E+00  0.00000000000E+00 -0.94144443817E+03  0.20432198232E+04  0.18134027727E+04 0.  0.
        4    1    3    3  502    0  0.61163150031E+03 -0.51424274126E+03 -0.95346772990E+03  0.12440422075E+04  0.12699999809E+01 0. -1.
       -4    1    3    3    0  502 -0.61163150031E+03  0.51424274126E+03  0.12023291729E+02  0.79917761577E+03  0.12699999809E+01 0.  1.
</event>
<event>
 5   0  0.3582186E-04  0.1797243E+04  0.7818609E-02  0.8707767E-01
       -2   -1    0    0    0  501  0.00000000000E+00  0.00000000000E+00  0.96272283260E+03  0.96272283261E+03  0.25500000920E-02 0. -1.
        2   -1    0    0  501    0  0.00000000000E+00  0.00000000000E+00 -0.83878807180E+03  0.83878807180E+03  0.25500000920E-02 0.  1.
    10030    2    1    2    0    0  0.00000000000E+00  0.00000000000E+00  0.12393476080E+03  0.18015109044E+04  0.17972428088E+04 0.  0.
        4    1    3    3  502    0 -0.74846836224E+03 -0.32064744864E+03 -0.31906577897E+03  0.87454231447E+03  0.12699999809E+01 0.  1.
       -4    1    3    3    0  502  0.74846836224E+03  0.32064744864E+03  0.44300053977E+03  0.92696858994E+03  0.12699999809E+01 0. -1.
</event>
<event>
 5   0  0.1837313E-04  0.1776826E+04  0.7818609E-02  0.8718721E-01
       -1   -1    0    0    0  501  0.00000000000E+00  0.00000000000E+00  0.54173574220E+03  0.54173574222E+03  0.50400001928E-02 0. -1.
        1   -1    0    0  501    0  0.00000000000E+00  0.00000000000E+00 -0.14569418467E+04  0.14569418467E+04  0.50400001928E-02 0.  1.
    10030    2    1    2    0    0  0.00000000000E+00  0.00000000000E+00 -0.91520610447E+03  0.19986775889E+04  0.17768257908E+04 0.  0.
        1    1    3    3  502    0  0.12315445061E+03  0.13769877146E+03  0.51989154038E+03  0.55173832942E+03  0.50400001928E-02 0. -1.
       -1    1    3    3    0  502 -0.12315445061E+03 -0.13769877146E+03 -0.14350976448E+04  0.14469392595E+04  0.50400001928E-02 0.  1.
</event>
<event>
 5   0  0.1837313E-04  0.1848124E+04  0.7818609E-02  0.8681118E-01
       -1   -1    0    0    0  501  0.00000000000E+00  0.00000000000E+00  0.76820897244E+03  0.76820897245E+03  0.50400001928E-02 0.  1.
        1   -1    0    0  501    0  0.00000000000E+00  0.00000000000E+00 -0.11115347164E+04  0.11115347164E+04  0.50400001928E-02 0. -1.
    10030    2    1    2    0    0  0.00000000000E+00  0.00000000000E+00 -0.34332574399E+03  0.18797436889E+04  0.18481243923E+04 0.  0.
        1    1    3    3  502    0  0.90953835930E+03  0.15794743442E+03 -0.21339562142E+03  0.94749412153E+03  0.50400001928E-02 0. -1.
       -1    1    3    3    0  502 -0.90953835930E+03 -0.15794743442E+03 -0.12993012257E+03  0.93224956736E+03  0.50400001928E-02 0.  1.
</event>
<event>
 5   0  0.1835421E-04  0.1816640E+04  0.7818609E-02  0.8697500E-01
        1   -1    0    0  501    0  0.00000000000E+00  0.00000000000E+00  0.11616833770E+04  0.11616833770E+04  0.50400001928E-02 0.  1.
       -1   -1    0    0    0  501  0.00000000000E+00  0.00000000000E+00 -0.71021554505E+03  0.71021554507E+03  0.50400001928E-02 0. -1.
    10030    2    1    2    0    0  0.00000000000E+00  0.00000000000E+00  0.45146783190E+03  0.18718989220E+04  0.18166404077E+04 0.  0.
        2    1    3    3  502    0 -0.42578399493E+03  0.61142057702E+03  0.76107394508E+03  0.10650636987E+04  0.25500000920E-02 0. -1.
       -2    1    3    3    0  502  0.42578399493E+03 -0.61142057702E+03 -0.30960611317E+03  0.80683522336E+03  0.25500000920E-02 0.  1.
</event>
<event>
 5   0  0.3582186E-04  0.1800147E+04  0.7818609E-02  0.8706222E-01
        2   -1    0    0  501    0  0.00000000000E+00  0.00000000000E+00  0.14495119270E+04  0.14495119270E+04  0.25500000920E-02 0.  1.
       -2   -1    0    0    0  501  0.00000000000E+00  0.00000000000E+00 -0.55889975178E+03  0.55889975178E+03  0.25500000920E-02 0. -1.
    10030    2    1    2    0    0  0.00000000000E+00  0.00000000000E+00  0.89061217521E+03  0.20084116788E+04  0.18001465009E+04 0.  0.
        4    1    3    3  502    0 -0.82099903414E+03  0.83731341120E+01  0.85678484715E+03  0.11866724108E+04  0.12699999809E+01 0.  1.
       -4    1    3    3    0  502  0.82099903414E+03 -0.83731341120E+01  0.33827328062E+02  0.82173926793E+03  0.12699999809E+01 0. -1.
</event>
<event>
 5   0  0.1825253E-04  0.1800891E+04  0.7818609E-02  0.8705826E-01
        1   -1    0    0  501    0  0.00000000000E+00  0.00000000000E+00  0.99677365394E+03  0.99677365395E+03  0.50400001928E-02 0.  1.
       -1   -1    0    0    0  501  0.00000000000E+00  0.00000000000E+00 -0.81342646784E+03  0.81342646786E+03  0.50400001928E-02 0. -1.
    10030    2    1    2    0    0  0.00000000000E+00  0.00000000000E+00  0.18334718610E+03  0.18102001218E+04  0.18008909713E+04 0.  0.
        4    1    3    3  502    0 -0.53210573970E+03  0.15811166278E+03 -0.62097976924E+03  0.83291854513E+03  0.12699999809E+01 0. -1.
       -4    1    3    3    0  502  0.53210573970E+03 -0.15811166278E+03  0.80432695534E+03  0.97728157667E+03  0.12699999809E+01 0.  1.
</event>
<event>
 5   0  0.1837313E-04  0.1755945E+04  0.7818609E-02  0.8730085E-01
       -1   -1    0    0    0  501  0.00000000000E+00  0.00000000000E+00  0.67628741296E+03  0.67628741298E+03  0.50400001928E-02 0.  1.
        1   -1    0    0  501    0  0.00000000000E+00  0.00000000000E+00 -0.11398043400E+04  0.11398043400E+04  0.50400001928E-02 0. -1.
    10030    2    1    2    0    0  0.00000000000E+00  0.00000000000E+00 -0.46351692707E+03  0.18160917530E+04  0.17559445645E+04 0.  0.
        1    1    3    3  502    0  0.14902902527E+03  0.71647323173E+03 -0.73344259998E+03  0.10360895664E+04  0.50400001928E-02 0. -1.
       -1    1    3    3    0  502 -0.14902902527E+03 -0.71647323173E+03  0.26992567291E+03  0.78000218659E+03  0.50400001928E-02 0.  1.
</event>
<event>
 5   0  0.3568870E-04  0.1818094E+04  0.7818609E-02  0.8696736E-01
       -2   -1    0    0    0  501  0.00000000000E+00  0.00000000000E+00  0.60603366488E+03  0.60603366488E+03  0.25500000920E-02 0. -1.
        2   -1    0    0  501    0  0.00000000000E+00  0.00000000000E+00 -0.13635654453E+04  0.13635654453E+04  0.25500000920E-02 0.  1.
    10030    2    1    2    0    0  0.00000000000E+00  0.00000000000E+00 -0.75753178044E+03  0.19695991102E+04  0.18180941275E+04 0.  0.
        1    1    3    3  502    0  0.13510403058E+03  0.58828020599E+03  0.35761277798E+03  0.70157936033E+03  0.50400001928E-02 0. -1.
       -1    1    3    3    0  502 -0.13510403058E+03 -0.58828020599E+03 -0.11151445584E+04  0.12680197499E+04  0.50400001928E-02 0.  1.
</event>
<event>
 5   0  0.3575091E-04  0.1786290E+04  0.7818609E-02  0.8713624E-01
       -2   -1    0    0    0  501  0.00000000000E+00  0.00000000000E+00  0.78350953325E+03  0.78350953325E+03  0.25500000920E-02 0. -1.
        2   -1    0    0  501    0  0.00000000000E+00  0.00000000000E+00 -0.10181220071E+04  0.10181220071E+04  0.25500000920E-02 0.  1.
    10030    2    1    2    0    0  0.00000000000E+00  0.00000000000E+00 -0.23461247383E+03  0.18016315403E+04  0.17862903443E+04 0.  0.
        5    1    3    3  502    0  0.57970982158E+03  0.47117698472E+02 -0.80091980740E+03  0.98983745264E+03  0.46999998093E+01 0.  1.
       -5    1    3    3    0  502 -0.57970982158E+03 -0.47117698472E+02  0.56630733358E+03  0.81179408769E+03  0.46999998093E+01 0. -1.
</event>
<event>
 5   0  0.1825253E-04  0.1703020E+04  0.7818609E-02  0.8759644E-01
        1   -1    0    0  501    0  0.00000000000E+00  0.00000000000E+00  0.75125971635E+03  0.75125971636E+03  0.50400001928E-02 0.  1.
       -1   -1    0    0    0  501  0.00000000000E+00  0.00000000000E+00 -0.96513800964E+03  0.96513800965E+03  0.50400001928E-02 0. -1.
    10030    2    1    2    0    0  0.00000000000E+00  0.00000000000E+00 -0.21387829329E+03  0.17163977260E+04  0.17030200320E+04 0.  0.
        4    1    3    3  502    0 -0.40999957555E+03  0.45089331086E+03  0.49242829779E+03  0.78351239371E+03  0.12699999809E+01 0.  1.
       -4    1    3    3    0  502  0.40999957555E+03 -0.45089331086E+03 -0.70630659109E+03  0.93288533231E+03  0.12699999809E+01 0. -1.
</event>
<event>
 5   0  0.3582186E-04  0.1812342E+04  0.7818609E-02  0.8699763E-01
        2   -1    0    0  501    0  0.00000000000E+00  0.00000000000E+00  0.89202162234E+03  0.89202162235E+03  0.25500000920E-02 0. -1.
       -2   -1    0    0    0  501  0.00000000000E+00  0.00000000000E+00 -0.92054516346E+03  0.92054516347E+03  0.25500000920E-02 0.  1.
    10030    2    1    2    0    0  0.00000000000E+00  0.00000000000E+00 -0.28523541119E+02  0.18125667858E+04  0.18123423409E+04 0.  0.
        4    1    3    3  502    0  0.66654003565E+03  0.60920475327E+03 -0.90024216125E+02  0.90747563214E+03  0.12699999809E+01 0.  1.
       -4    1    3    3    0  502 -0.66654003565E+03 -0.60920475327E+03  0.61500675006E+02  0.90509115368E+03  0.12699999809E+01 0. -1.
</event>
<event>
 5   0  0.3628581E-04  0.1801111E+04  0.7818609E-02  0.8705709E-01
       -2   -1    0    0    0  501  0.00000000000E+00  0.00000000000E+00  0.76537310353E+03  0.76537310354E+03  0.25500000920E-02 0.  1.
        2   -1    0    0  501    0  0.00000000000E+00  0.00000000000E+00 -0.10596144612E+04  0.10596144612E+04  0.25500000920E-02 0. -1.
    10030    2    1    2    0    0  0.00000000000E+00  0.00000000000E+00 -0.29424135764E+03  0.18249875647E+04  0.18011112222E+04 0.  0.
        2    1    3    3  502    0  0.13048242427E+03 -0.17705224497E+03 -0.10319826617E+04  0.10551594071E+04  0.25500000920E-02 0. -1.
       -2    1    3    3    0  502 -0.13048242427E+03  0.17705224497E+03  0.73774130403E+03  0.76982815756E+03  0.25500000920E-02 0.  1.
</event>
<event>
 5   0  0.1837313E-04  0.1792684E+04  0.7818609E-02  0.8710200E-01
       -1   -1    0    0    0  501  0.00000000000E+00  0.00000000000E+00  0.40663181515E+03  0.40663181518E+03  0.50400001928E-02 0. -1.
        1   -1    0    0  501    0  0.00000000000E+00  0.00000000000E+00 -0.19758144537E+04  0.19758144537E+04  0.50400001928E-02 0.  1.
    10030    2    1    2    0    0  0.00000000000E+00  0.00000000000E+00 -0.15691826385E+04  0.23824462689E+04  0.17926840410E+04 0.  0.
        1    1    3    3  502    0 -0.29750892829E+03 -0.48992680866E+03 -0.17004226541E+04  0.17944294477E+04  0.50400001928E-02 0. -1.
       -1    1    3    3    0  502  0.29750892829E+03  0.48992680866E+03  0.13124001555E+03  0.58801682115E+03  0.50400001928E-02 0.  1.
</event>
<event>
 5   0  0.3628581E-04  0.1870149E+04  0.7818609E-02  0.8669859E-01
       -2   -1    0    0    0  501  0.00000000000E+00  0.00000000000E+00  0.45153021154E+03  0.45153021155E+03  0.25500000920E-02 0. -1.
        2   -1    0    0  501    0  0.00000000000E+00  0.00000000000E+00 -0.19364480117E+04  0.19364480117E+04  0.25500000920E-02 0.  1.
    10030    2    1    2    0    0  0.00000000000E+00  0.00000000000E+00 -0.14849178002E+04  0.23879782233E+04  0.18701494917E+04 0.  0.
        2    1    3    3  502    0 -0.76698352348E+03  0.46035423387E+03 -0.39469626596E+03  0.97773968330E+03  0.25500000920E-02 0.  1.
       -2    1    3    3    0  502  0.76698352348E+03 -0.46035423387E+03 -0.10902215342E+04  0.14102385400E+04  0.25500000920E-02 0. -1.
</event>
<event>
 5   0  0.1835421E-04  0.1803221E+04  0.7818609E-02  0.8704589E-01
        1   -1    0    0  501    0  0.00000000000E+00  0.00000000000E+00  0.90748759089E+03  0.90748759091E+03  0.50400001928E-02 0.  1.
       -1   -1    0    0    0  501  0.00000000000E+00  0.00000000000E+00 -0.89577111935E+03  0.89577111936E+03  0.50400001928E-02 0. -1.
    10030    2    1    2    0    0  0.00000000000E+00  0.00000000000E+00  0.11716471545E+02  0.18032587103E+04  0.18032206466E+04 0.  0.
        2    1    3    3  502    0 -0.67546307446E+03  0.23345703272E+03 -0.54383384174E+03  0.89805779241E+03  0.25500000920E-02 0. -1.
       -2    1    3    3    0  502  0.67546307446E+03 -0.23345703272E+03  0.55555031329E+03  0.90520091785E+03  0.25500000920E-02 0.  1.
</event>
<event>
 5   0  0.1825253E-04  0.1770764E+04  0.7818609E-02  0.8722003E-01
       -1   -1    0    0    0  501  0.00000000000E+00  0.00000000000E+00  0.75789112849E+03  0.75789112850E+03  0.50400001928E-02 0.  1.
        1   -1    0    0  501    0  0.00000000000E+00  0.00000000000E+00 -0.10343187538E+04  0.10343187538E+04  0.50400001928E-02 0. -1.
    10030    2    1    2    0    0  0.00000000000E+00  0.00000000000E+00 -0.27642762535E+03  0.17922098823E+04  0.17707636856E+04 0.  0.
        4    1    3    3  502    0  0.72303430682E+02 -0.49711912385E+03 -0.87611455382E+03  0.10099175876E+04  0.12699999809E+01 0. -1.
       -4    1    3    3    0  502 -0.72303430682E+02  0.49711912385E+03  0.59968692847E+03  0.78229229477E+03  0.12699999809E+01 0.  1.
</event>
<event>
 5   0  0.3568870E-04  0.1802270E+04  0.7818609E-02  0.8705093E-01
        2   -1    0    0  501    0  0.00000000000E+00  0.00000000000E+00  0.10701061544E+04  0.10701061544E+04  0.25500000920E-02 0.  1.
       -2   -1    0    0    0  501  0.00000000000E+00  0.00000000000E+00 -0.75884462416E+03  0.75884462416E+03  0.25500000920E-02 0. -1.
    10030    2    1    2    0    0  0.00000000000E+00  0.00000000000E+00  0.31126153024E+03  0.18289507786E+04  0.18022700159E+04 0.  0.
        1    1    3    3  502    0  0.24317665552E+03 -0.34470046728E+03  0.96371746033E+03  0.10520003048E+04  0.50400001928E-02 0.  1.
       -1    1    3    3    0  502 -0.24317665552E+03  0.34470046728E+03 -0.65245593009E+03  0.77695047376E+03  0.50400001928E-02 0. -1.
</event>
<event>
 5   0  0.3628581E-04  0.1775387E+04  0.7818609E-02  0.8719499E-01
        2   -1    0    0  501    0  0.00000000000E+00  0.00000000000E+00  0.11380941994E+04  0.11380941994E+04  0.25500000920E-02 0.  1.
       -2   -1    0    0    0  501  0.00000000000E+00  0.00000000000E+00 -0.69238501964E+03  0.69238501965E+03  0.25500000920E-02 0. -1.
    10030    2    1    2    0    0  0.00000000000E+00  0.00000000000E+00  0.44570917974E+03  0.18304792190E+04  0.17753865772E+04 0.  0.
        2    1    3    3  502    0  0.24666909564E+03 -0.20778213396E+03  0.10755495041E+04  0.11228649935E+04  0.25500000920E-02 0.  1.
       -2    1    3    3    0  502 -0.24666909564E+03  0.20778213396E+03 -0.62984032436E+03  0.70761422550E+03  0.25500000920E-02 0. -1.
</event>
<event>
 5   0  0.1837313E-04  0.1887086E+04  0.7818609E-02  0.8661311E-01
       -1   -1    0    0    0  501  0.00000000000E+00  0.00000000000E+00  0.53123371835E+03  0.53123371837E+03  0.50400001928E-02 0. -1.
        1   -1    0    0  501    0  0.00000000000E+00  0.00000000000E+00 -0.16758607412E+04  0.16758607412E+04  0.50400001928E-02 0.  1.
    10030    2    1    2    0    0  0.00000000000E+00  0.00000000000E+00 -0.11446270228E+04  0.22070944596E+04  0.18870863605E+04 0.  0.
        1    1    3    3  502    0  0.26326843199E+03  0.81502537451E+03 -0.10352907399E+04  0.13436530596E+04  0.50400001928E-02 0.  1.
       -1    1    3    3    0  502 -0.26326843199E+03 -0.81502537451E+03 -0.10933628290E+03  0.86344139995E+03  0.50400001928E-02 0. -1.
</event>
<event>
 5   0  0.1835421E-04  0.1799780E+04  0.7818609E-02  0.8706417E-01
       -1   -1    0    0    0  501  0.00000000000E+00  0.00000000000E+00  0.96089063226E+03  0.96089063228E+03  0.50400001928E-02 0.  1.
        1   -1    0    0  501    0  0.00000000000E+00  0.00000000000E+00 -0.84276178525E+03  0.84276178526E+03  0.50400001928E-02 0. -1.
    10030    2    1    2    0    0  0.00000000000E+00  0.00000000000E+00  0.11812884702E+03  0.18036524175E+04  0.17997798806E+04 0.  0.
        2    1    3    3  502    0  0.38329565580E+03 -0.14804403575E+03  0.86139265309E+03  0.95437408760E+03  0.25500000920E-02 0.  1.
       -2    1    3    3    0  502 -0.38329565580E+03  0.14804403575E+03 -0.74326380607E+03  0.84927832994E+03  0.25500000920E-02 0. -1.
</event>
<event>
 5   0  0.3568870E-04  0.1742508E+04  0.7818609E-02  0.8737485E-01
       -2   -1    0    0    0  501  0.00000000000E+00  0.00000000000E+00  0.83937593667E+03  0.83937593668E+03  0.25500000920E-02 0.  1.
        2   -1    0    0  501    0  0.00000000000E+00  0.00000000000E+00 -0.90434225656E+03  0.90434225656E+03  0.25500000920E-02 0. -1.
    10030    2    1    2    0    0  0.00000000000E+00  0.00000000000E+00 -0.64966319883E+02  0.17437181932E+04  0.17425075365E+04 0.  0.
        1    1    3    3  502    0  0.68593117599E+03 -0.25809623009E+03 -0.50394517394E+03  0.88942452212E+03  0.50400001928E-02 0. -1.
       -1    1    3    3    0  502 -0.68593117599E+03  0.25809623009E+03  0.43897885406E+03  0.85429367112E+03  0.50400001928E-02 0.  1.
</event>
<event>
 5   0  0.1835421E-04  0.1823414E+04  0.7818609E-02  0.8693946E-01
        1   -1    0    0  501    0  0.00000000000E+00  0.00000000000E+00  0.72753296061E+03  0.72753296063E+03  0.50400001928E-02 0. -1.
       -1   -1    0    0    0  501  0.00000000000E+00  0.00000000000E+00 -0.11425047789E+04  0.11425047789E+04  0.50400001928E-02 0.  1.
    10030    2    1    2    0    0  0.00000000000E+00  0.00000000000E+00 -0.41497181827E+03  0.18700377395E+04  0.18234142528E+04 0.  0.
        2    1    3    3  502    0  0.79406977681E+03 -0.64752344126E+02 -0.66206910574E+03  0.10358934199E+04  0.25500000920E-02 0. -1.
       -2    1    3    3    0  502 -0.79406977681E+03  0.64752344126E+02  0.24709728748E+03  0.83414431965E+03  0.25500000920E-02 0.  1.
</event>
<event>
 5   0  0.1818778E-04  0.1801637E+04  0.7818609E-02  0.8705430E-01
        1   -1    0    0  501    0  0.00000000000E+00  0.00000000000E+00  0.12213471029E+04  0.12213471029E+04  0.50400001928E-02 0. -1.
       -1   -1    0    0    0  501  0.00000000000E+00  0.00000000000E+00 -0.66440863425E+03  0.66440863427E+03  0.50400001928E-02 0.  1.
    10030    2    1    2    0    0  0.00000000000E+00  0.00000000000E+00  0.55693846868E+03  0.18857557372E+04  0.18016365456E+04 0.  0.
        3    1    3    3  502    0  0.76579334785E+03  0.38403660893E+03 -0.13010996687E+02  0.85679219466E+03  0.10100000352E+00 0.  1.
       -3    1    3    3    0  502 -0.76579334785E+03 -0.38403660893E+03  0.56994946537E+03  0.10289635425E+04  0.10100000352E+00 0. -1.
</event>
<event>
 5   0  0.3582186E-04  0.1823791E+04  0.7818609E-02  0.8693749E-01
       -2   -1    0    0    0  501  0.00000000000E+00  0.00000000000E+00  0.29078796727E+03  0.29078796728E+03  0.25500000920E-02 0. -1.
        2   -1    0    0  501    0  0.00000000000E+00  0.00000000000E+00 -0.28596558491E+04  0.28596558491E+04  0.25500000920E-02 0.  1.
    10030    2    1    2    0    0  0.00000000000E+00  0.00000000000E+00 -0.25688678818E+04  0.31504438164E+04  0.18237911190E+04 0.  0.
        4    1    3    3  502    0 -0.23648440880E+03 -0.54077429281E+03 -0.83675369750E+02  0.59612489612E+03  0.12699999809E+01 0. -1.
       -4    1    3    3    0  502  0.23648440880E+03  0.54077429281E+03 -0.24851925121E+04  0.25543189202E+04  0.12699999809E+01 0.  1.
</event>
<event>
 5   0  0.3582186E-04  0.1743478E+04  0.7818609E-02  0.8736948E-01
       -2   -1    0    0    0  501  0.00000000000E+00  0.00000000000E+00  0.76515005197E+03  0.76515005197E+03  0.25500000920E-02 0. -1.
        2   -1    0    0  501    0  0.00000000000E+00  0.00000000000E+00 -0.99317645363E+03  0.99317645363E+03  0.25500000920E-02 0.  1.
    10030    2    1    2    0    0  0.00000000000E+00  0.00000000000E+00 -0.22802640166E+03  0.17583265056E+04  0.17434781503E+04 0.  0.
        4    1    3    3  502    0 -0.36149354660E+03 -0.42077644024E+03  0.56416972987E+03  0.79121393687E+03  0.12699999809E+01 0. -1.
       -4    1    3    3    0  502  0.36149354660E+03  0.42077644024E+03 -0.79219613153E+03  0.96711256874E+03  0.12699999809E+01 0.  1.
</event>
<event>
 5   0  0.3582186E-04  0.1805899E+04  0.7818609E-02  0.8703169E-01
        2   -1    0    0  501    0  0.00000000000E+00  0.00000000000E+00  0.67288285641E+03  0.67288285642E+03  0.25500000920E-02 0.  1.
       -2   -1    0    0    0  501  0.00000000000E+00  0.00000000000E+00 -0.12116791829E+04  0.12116791829E+04  0.25500000920E-02 0. -1.
    10030    2    1    2    0    0  0.00000000000E+00  0.00000000000E+00 -0.53879632653E+03  0.18845620394E+04  0.18058993878E+04 0.  0.
        4    1    3    3  502    0  0.86855050827E+03  0.24088908751E+03 -0.32568264428E+03  0.95837275398E+03  0.12699999809E+01 0.  1.
       -4    1    3    3    0  502 -0.86855050827E+03 -0.24088908751E+03 -0.21311368225E+03  0.92618928538E+03  0.12699999809E+01 0. -1.
</event>
<event>
 5   0  0.3531266E-04  0.1700077E+04  0.7818609E-02  0.8761321E-01
       -2   -1    0    0    0  501  0.00000000000E+00  0.00000000000E+00  0.76632659744E+03  0.76632659744E+03  0.25500000920E-02 0.  1.
        2   -1    0    0  501    0  0.00000000000E+00  0.00000000000E+00 -0.94289477626E+03  0.94289477627E+03  0.25500000920E-02 0. -1.
    10030    2    1    2    0    0  0.00000000000E+00  0.00000000000E+00 -0.17656817883E+03  0.17092213737E+04  0.17000768755E+04 0.  0.
        3    1    3    3  502    0 -0.58736554997E+03 -0.58537863176E+03  0.99533233819E+02  0.83520854081E+03  0.10100000352E+00 0. -1.
       -3    1    3    3    0  502  0.58736554997E+03  0.58537863176E+03 -0.27610141265E+03  0.87401283290E+03  0.10100000352E+00 0.  1.
</event>
<event>
 5   0  0.1837313E-04  0.1715930E+04  0.7818609E-02  0.8752330E-01
       -1   -1    0    0    0  501  0.00000000000E+00  0.00000000000E+00  0.82131567507E+03  0.82131567509E+03  0.50400001928E-02 0. -1.
        1   -1    0    0  501    0  0.00000000000E+00  0.00000000000E+00 -0.89625009550E+03  0.89625009551E+03  0.50400001928E-02 0.  1.
    10030    2    1    2    0    0  0.00000000000E+00  0.00000000000E+00 -0.74934420425E+02  0.17175657706E+04  0.17159303625E+04 0.  0.
        1    1    3    3  502    0 -0.49062449493E+03  0.24435318950E+03 -0.69815945964E+03  0.88760774408E+03  0.50400001928E-02 0.  1.
       -1    1    3    3    0  502  0.49062449493E+03 -0.24435318950E+03  0.62322503921E+03  0.82995802651E+03  0.50400001928E-02 0. -1.
</event>
<event>
 5   0  0.3628581E-04  0.1853056E+04  0.7818609E-02  0.8678583E-01
       -2   -1    0    0    0  501  0.00000000000E+00  0.00000000000E+00  0.87545240364E+03  0.87545240365E+03  0.25500000920E-02 0. -1.
        2   -1    0    0  501    0  0.00000000000E+00  0.00000000000E+00 -0.98058298630E+03  0.98058298630E+03  0.25500000920E-02 0.  1.
    10030    2    1    2    0    0  0.00000000000E+00  0.00000000000E+00 -0.10513058266E+03  0.18560353900E+04  0.18530555656E+04 0.  0.
        2    1    3    3  502    0 -0.40572814005E+03  0.25237764626E+03 -0.84765785210E+03  0.97305376737E+03  0.25500000920E-02 0.  1.
       -2    1    3    3    0  502  0.40572814005E+03 -0.25237764626E+03  0.74252726944E+03  0.88298162259E+03  0.25500000920E-02 0. -1.
</event>
<event>
 5   0  0.3568870E-04  0.1762509E+04  0.7818609E-02  0.8726495E-01
        2   -1    0    0  501    0  0.00000000000E+00  0.00000000000E+00  0.68403364512E+03  0.68403364512E+03  0.25500000920E-02 0.  1.
       -2   -1    0    0    0  501  0.00000000000E+00  0.00000000000E+00 -0.11353379270E+04  0.11353379270E+04  0.25500000920E-02 0. -1.
    10030    2    1    2    0    0  0.00000000000E+00  0.00000000000E+00 -0.45130428190E+03  0.18193715721E+04  0.17625088263E+04 0.  0.
        1    1    3    3  502    0 -0.34895162277E+03  0.57964693750E+03 -0.80853912692E+03  0.10542738387E+04  0.50400001928E-02 0. -1.
       -1    1    3    3    0  502  0.34895162277E+03 -0.57964693750E+03  0.35723484502E+03  0.76509773344E+03  0.50400001928E-02 0.  1.
</event>
<event>
 5   0  0.1835421E-04  0.1857421E+04  0.7818609E-02  0.8676346E-01
        1   -1    0    0  501    0  0.00000000000E+00  0.00000000000E+00  0.92959330305E+03  0.92959330307E+03  0.50400001928E-02 0.  1.
       -1   -1    0    0    0  501  0.00000000000E+00  0.00000000000E+00 -0.92782829237E+03  0.92782829238E+03  0.50400001928E-02 0. -1.
    10030    2    1    2    0    0  0.00000000000E+00  0.00000000000E+00  0.17650106872E+01  0.18574215954E+04  0.18574207568E+04 0.  0.
        2    1    3    3  502    0 -0.80731030827E+02 -0.36144122340E+03  0.85255519168E+03  0.92952009778E+03  0.25500000920E-02 0.  1.
       -2    1    3    3    0  502  0.80731030827E+02  0.36144122340E+03 -0.85079018099E+03  0.92790149767E+03  0.25500000920E-02 0. -1.
</event>
<event>
 5   0  0.1835421E-04  0.1806400E+04  0.7818609E-02  0.8702903E-01
        1   -1    0    0  501    0  0.00000000000E+00  0.00000000000E+00  0.12482836657E+04  0.12482836657E+04  0.50400001928E-02 0. -1.
       -1   -1    0    0    0  501  0.00000000000E+00  0.00000000000E+00 -0.65351359371E+03  0.65351359373E+03  0.50400001928E-02 0.  1.
    10030    2    1    2    0    0  0.00000000000E+00  0.00000000000E+00  0.59477007197E+03  0.19017972594E+04  0.18064001155E+04 0.  0.
        2    1    3    3  502    0 -0.30974589056E+03 -0.21595746933E+03  0.11611968852E+04  0.12210480545E+04  0.25500000920E-02 0. -1.
       -2    1    3    3    0  502  0.30974589056E+03  0.21595746933E+03 -0.56642681320E+03  0.68074920491E+03  0.25500000920E-02 0.  1.
</event>
<event>
 5   0  0.3582186E-04  0.1819047E+04  0.7818609E-02  0.8696236E-01
       -2   -1    0    0    0  501  0.00000000000E+00  0.00000000000E+00  0.87338194052E+03  0.87338194053E+03  0.25500000920E-02 0. -1.
        2   -1    0    0  501    0  0.00000000000E+00  0.00000000000E+00 -0.94716045013E+03  0.94716045014E+03  0.25500000920E-02 0.  1.
    10030    2    1    2    0    0  0.00000000000E+00  0.00000000000E+00 -0.73778509610E+02  0.18205423907E+04  0.18190468185E+04 0.  0.
        4    1    3    3  502    0 -0.80860314384E+02 -0.64747980820E+03 -0.67102105658E+03  0.93596974510E+03  0.12699999809E+01 0.  1.
       -4    1    3    3    0  502  0.80860314384E+02  0.64747980820E+03  0.59724254697E+03  0.88457264556E+03  0.12699999809E+01 0. -1.
</event>
<event>
 5   0  0.3582186E-04  0.1568192E+04  0.7818609E-02  0.8840331E-01
       -2   -1    0    0    0  501  0.00000000000E+00  0.00000000000E+00  0.25293628739E+03  0.25293628740E+03  0.25500000920E-02 0. -1.
        2   -1    0    0  501    0  0.00000000000E+00  0.00000000000E+00 -0.24306777352E+04  0.24306777352E+04  0.25500000920E-02 0.  1.
    10030    2    1    2    0    0  0.00000000000E+00  0.00000000000E+00 -0.21777414478E+04  0.26836140226E+04  0.15681920829E+04 0.  0.
        4    1    3    3  502    0 -0.52011149571E+03 -0.35265945687E+03 -0.28635512340E+03  0.69056899011E+03  0.12699999809E+01 0. -1.
       -4    1    3    3    0  502  0.52011149571E+03  0.35265945687E+03 -0.18913863244E+04  0.19930450325E+04  0.12699999809E+01 0.  1.
</event>
<event>
 5   0  0.3582186E-04  0.1774758E+04  0.7818609E-02  0.8719839E-01
        2   -1    0    0  501    0  0.00000000000E+00  0.00000000000E+00  0.22756097372E+04  0.22756097372E+04  0.25500000920E-02 0. -1.
       -2   -1    0    0    0  501  0.00000000000E+00  0.00000000000E+00 -0.34603533316E+03  0.34603533317E+03  0.25500000920E-02 0.  1.
    10030    2    1    2    0    0  0.00000000000E+00  0.00000000000E+00  0.19295744041E+04  0.26216450704E+04  0.17747578692E+04 0.  0.
        4    1    3    3  502    0 -0.10039318682E+03  0.52870087359E+02  0.22648487734E+04  0.22676894888E+04  0.12699999809E+01 0. -1.
       -4    1    3    3    0  502  0.10039318682E+03 -0.52870087359E+02 -0.33527436937E+03  0.35395558161E+03  0.12699999809E+01 0.  1.
</event>
<event>
 5   0  0.1818778E-04  0.1681366E+04  0.7818609E-02  0.8772064E-01
        1   -1    0    0  501    0  0.00000000000E+00  0.00000000000E+00  0.16963229791E+04  0.16963229791E+04  0.50400001928E-02 0. -1.
       -1   -1    0    0    0  501  0.00000000000E+00  0.00000000000E+00 -0.41663526206E+03  0.41663526209E+03  0.50400001928E-02 0.  1.
    10030    2    1    2    0    0  0.00000000000E+00  0.00000000000E+00  0.12796877170E+04  0.21129582412E+04  0.16813660743E+04 0.  0.
        3    1    3    3  502    0  0.72181150882E+03 -0.42541901905E+03  0.55318897178E+03  0.10039976318E+04  0.10100000352E+00 0.  1.
       -3    1    3    3    0  502 -0.72181150882E+03  0.42541901905E+03  0.72649874525E+03  0.11089606093E+04  0.10100000352E+00 0. -1.
</event>
<event>
 5   0  0.1330125E-04  0.1807706E+04  0.7818609E-02  0.8702212E-01
        3   -1    0    0  501    0  0.00000000000E+00  0.00000000000E+00  0.67115748292E+03  0.67115749052E+03  0.10100000352E+00 0.  1.
       -3   -1    0    0    0  501  0.00000000000E+00  0.00000000000E+00 -0.12172253834E+04  0.12172253876E+04  0.10100000352E+00 0. -1.
    10030    2    1    2    0    0  0.00000000000E+00  0.00000000000E+00 -0.54606790048E+03  0.18883828781E+04  0.18077056570E+04 0.  0.
        5    1    3    3  502    0  0.45087934757E+03  0.33515686989E+03  0.46659446146E+03  0.73031143697E+03  0.46999998093E+01 0.  1.
       -5    1    3    3    0  502 -0.45087934757E+03 -0.33515686989E+03 -0.10126623619E+04  0.11580714411E+04  0.46999998093E+01 0. -1.
</event>
<event>
 5   0  0.1818778E-04  0.1420392E+04  0.7818609E-02  0.8939189E-01
        1   -1    0    0  501    0  0.00000000000E+00  0.00000000000E+00  0.71858261732E+03  0.71858261734E+03  0.50400001928E-02 0. -1.
       -1   -1    0    0    0  501  0.00000000000E+00  0.00000000000E+00 -0.70190742303E+03  0.70190742305E+03  0.50400001928E-02 0.  1.
    10030    2    1    2    0    0  0.00000000000E+00  0.00000000000E+00  0.16675194292E+02  0.14204900404E+04  0.14203921616E+04 0.  0.
        3    1    3    3  502    0 -0.32716690951E+03  0.39508701858E+03 -0.48286477830E+03  0.70447877417E+03  0.10100000352E+00 0.  1.
       -3    1    3    3    0  502  0.32716690951E+03 -0.39508701858E+03  0.49953997260E+03  0.71601126622E+03  0.10100000352E+00 0. -1.
</event>
<event>
 5   0  0.3628581E-04  0.1815551E+04  0.7818609E-02  0.8698073E-01
       -2   -1    0    0    0  501  0.00000000000E+00  0.00000000000E+00  0.48979057779E+03  0.48979057780E+03  0.25500000920E-02 0.  1.
        2   -1    0    0  501    0  0.00000000000E+00  0.00000000000E+00 -0.16824670588E+04  0.16824670588E+04  0.25500000920E-02 0. -1.
    10030    2    1    2    0    0  0.00000000000E+00  0.00000000000E+00 -0.11926764810E+04  0.21722576366E+04  0.18155511701E+04 0.  0.
        2    1    3    3  502    0 -0.61738694386E+03 -0.22350122233E+03 -0.13463435616E+04  0.14979186962E+04  0.25500000920E-02 0. -1.
       -2    1    3    3    0  502  0.61738694386E+03  0.22350122233E+03  0.15366708054E+03  0.67433894036E+03  0.25500000920E-02 0.  1.
</event>
<event>
 5   0  0.1835421E-04  0.1782536E+04  0.7818609E-02  0.8715642E-01
        1   -1    0    0  501    0  0.00000000000E+00  0.00000000000E+00  0.15143609856E+04  0.15143609857E+04  0.50400001928E-02 0.  1.
       -1   -1    0    0    0  501  0.00000000000E+00  0.00000000000E+00 -0.52455058102E+03  0.52455058104E+03  0.50400001928E-02 0. -1.
    10030    2    1    2    0    0  0.00000000000E+00  0.00000000000E+00  0.98981040462E+03  0.20389115667E+04  0.17825363221E+04 0.  0.
        2    1    3    3  502    0 -0.45096142392E+03 -0.76830836390E+03  0.46475096494E+03  0.10048171014E+04  0.25500000920E-02 0. -1.
       -2    1    3    3    0  502  0.45096142392E+03  0.76830836390E+03  0.52505943969E+03  0.10340944653E+04  0.25500000920E-02 0.  1.
</event>
<event>
 5   0  0.1835421E-04  0.1806204E+04  0.7818609E-02  0.8703007E-01
        1   -1    0    0  501    0  0.00000000000E+00  0.00000000000E+00  0.11824801177E+04  0.11824801177E+04  0.50400001928E-02 0.  1.
       -1   -1    0    0    0  501  0.00000000000E+00  0.00000000000E+00 -0.68973081057E+03  0.68973081059E+03  0.50400001928E-02 0. -1.
    10030    2    1    2    0    0  0.00000000000E+00  0.00000000000E+00  0.49274930717E+03  0.18722109283E+04  0.18062037206E+04 0.  0.
        2    1    3    3  502    0  0.82243912209E+02 -0.78617445172E+03 -0.20634583818E+03  0.81695344701E+03  0.25500000920E-02 0. -1.
       -2    1    3    3    0  502 -0.82243912209E+02  0.78617445172E+03  0.69909514535E+03  0.10552574813E+04  0.25500000920E-02 0.  1.
</event>
<event>
 5   0  0.1837313E-04  0.1795097E+04  0.7818609E-02  0.8708911E-01
       -1   -1    0    0    0  501  0.00000000000E+00  0.00000000000E+00  0.86892182201E+03  0.86892182202E+03  0.50400001928E-02 0. -1.
        1   -1    0    0  501    0  0.00000000000E+00  0.00000000000E+00 -0.92711859975E+03  0.92711859977E+03  0.50400001928E-02 0.  1.
    10030    2    1    2    0    0  0.00000000000E+00  0.00000000000E+00 -0.58196777742E+02  0.17960404218E+04  0.17950973043E+04 0.  0.
        1    1    3    3  502    0 -0.15910942288E+03 -0.58276917285E+03 -0.69326780815E+03  0.91954117424E+03  0.50400001928E-02 0.  1.
       -1    1    3    3    0  502  0.15910942288E+03  0.58276917285E+03  0.63507103041E+03  0.87649924755E+03  0.50400001928E-02 0. -1.
</event>
<event>
 5   0  0.3628581E-04  0.1783978E+04  0.7818609E-02  0.8714867E-01
       -2   -1    0    0    0  501  0.00000000000E+00  0.00000000000E+00  0.85604684515E+03  0.85604684515E+03  0.25500000920E-02 0. -1.
        2   -1    0    0  501    0  0.00000000000E+00  0.00000000000E+00 -0.92943990369E+03  0.92943990369E+03  0.25500000920E-02 0.  1.
    10030    2    1    2    0    0  0.00000000000E+00  0.00000000000E+00 -0.73393058537E+02  0.17854867488E+04  0.17839776874E+04 0.  0.
        2    1    3    3  502    0  0.65592104225E+03 -0.54764537127E+03  0.21944226898E+03  0.88221469935E+03  0.25500000920E-02 0.  1.
       -2    1    3    3    0  502 -0.65592104225E+03  0.54764537127E+03 -0.29283532751E+03  0.90327204949E+03  0.25500000920E-02 0. -1.
</event>
<event>
 5   0  0.3582186E-04  0.1804867E+04  0.7818609E-02  0.8703715E-01
       -2   -1    0    0    0  501  0.00000000000E+00  0.00000000000E+00  0.76359104489E+03  0.76359104490E+03  0.25500000920E-02 0.  1.
        2   -1    0    0  501    0  0.00000000000E+00  0.00000000000E+00 -0.10665219765E+04  0.10665219765E+04  0.25500000920E-02 0. -1.
    10030    2    1    2    0    0  0.00000000000E+00  0.00000000000E+00 -0.30293093156E+03  0.18301130214E+04  0.18048674526E+04 0.  0.
        4    1    3    3  502    0 -0.46741703149E+03 -0.69866904848E+03  0.18140656188E+03  0.85995760025E+03  0.12699999809E+01 0. -1.
       -4    1    3    3    0  502  0.46741703149E+03  0.69866904848E+03 -0.48433749344E+03  0.97015542110E+03  0.12699999809E+01 0.  1.
</event>
<event>
 5   0  0.1837313E-04  0.1596374E+04  0.7818609E-02  0.8822779E-01
        1   -1    0    0  501    0  0.00000000000E+00  0.00000000000E+00  0.19280634824E+04  0.19280634824E+04  0.50400001928E-02 0. -1.
       -1   -1    0    0    0  501  0.00000000000E+00  0.00000000000E+00 -0.33043638983E+03  0.33043638987E+03  0.50400001928E-02 0.  1.
    10030    2    1    2    0    0  0.00000000000E+00  0.00000000000E+00  0.15976270926E+04  0.22584998723E+04  0.15963738116E+04 0.  0.
        1    1    3    3  502    0  0.39787904475E+03  0.67253526567E+03  0.10290817567E+04  0.12921380266E+04  0.50400001928E-02 0. -1.
       -1    1    3    3    0  502 -0.39787904475E+03 -0.67253526567E+03  0.56854533589E+03  0.96636184569E+03  0.50400001928E-02 0.  1.
</event>
<event>
 5   0  0.3568870E-04  0.1779914E+04  0.7818609E-02  0.8717055E-01
        2   -1    0    0  501    0  0.00000000000E+00  0.00000000000E+00  0.20770880764E+04  0.20770880764E+04  0.25500000920E-02 0. -1.
       -2   -1    0    0    0  501  0.00000000000E+00  0.00000000000E+00 -0.38131430616E+03  0.38131430616E+03  0.25500000920E-02 0.  1.
    10030    2    1    2    0    0  0.00000000000E+00  0.00000000000E+00  0.16957737702E+04  0.24584023825E+04  0.17799139290E+04 0.  0.
        1    1    3    3  502    0 -0.83439925866E+03 -0.24981529298E+03  0.59548909067E+03  0.10551004979E+04  0.50400001928E-02 0.  1.
       -1    1    3    3    0  502  0.83439925866E+03  0.24981529298E+03  0.11002846795E+04  0.14033018847E+04  0.50400001928E-02 0. -1.
</event>
<event>
 5   0  0.1835421E-04  0.1791368E+04  0.7818609E-02  0.8710904E-01
        1   -1    0    0  501    0  0.00000000000E+00  0.00000000000E+00  0.24718501475E+04  0.24718501475E+04  0.50400001928E-02 0.  1.
       -1   -1    0    0    0  501  0.00000000000E+00  0.00000000000E+00 -0.32455423177E+03  0.32455423181E+03  0.50400001928E-02 0. -1.
    10030    2    1    2    0    0  0.00000000000E+00  0.00000000000E+00  0.21472959157E+04  0.27964043793E+04  0.17913675510E+04 0.  0.
        2    1    3    3  502    0  0.28686738058E+02  0.12521409682E+03  0.24573955952E+04  0.24607508224E+04  0.25500000920E-02 0.  1.
       -2    1    3    3    0  502 -0.28686738058E+02 -0.12521409682E+03 -0.31009967949E+03  0.33565355682E+03  0.25500000920E-02 0. -1.
</event>
<event>
 5   0  0.1825253E-04  0.1801719E+04  0.7818609E-02  0.8705386E-01
        1   -1    0    0  501    0  0.00000000000E+00  0.00000000000E+00  0.17201181582E+04  0.17201181582E+04  0.50400001928E-02 0.  1.
       -1   -1    0    0    0  501  0.00000000000E+00  0.00000000000E+00 -0.47179755604E+03  0.47179755607E+03  0.50400001928E-02 0. -1.
    10030    2    1    2    0    0  0.00000000000E+00  0.00000000000E+00  0.12483206022E+04  0.21919157143E+04  0.18017186719E+04 0.  0.
        4    1    3    3  502    0  0.99487928891E+02  0.35957566432E+03 -0.37339201501E+03  0.52784061623E+03  0.12699999809E+01 0. -1.
       -4    1    3    3    0  502 -0.99487928891E+02 -0.35957566432E+03  0.16217126172E+04  0.16640750981E+04  0.12699999809E+01 0.  1.
</event>
<event>
 5   0  0.1837313E-04  0.1786181E+04  0.7818609E-02  0.8713683E-01
       -1   -1    0    0    0  501  0.00000000000E+00  0.00000000000E+00  0.24074420560E+04  0.24074420560E+04  0.50400001928E-02 0. -1.
        1   -1    0    0  501    0  0.00000000000E+00  0.00000000000E+00 -0.33131029414E+03  0.33131029418E+03  0.50400001928E-02 0.  1.
    10030    2    1    2    0    0  0.00000000000E+00  0.00000000000E+00  0.20761317619E+04  0.27387523502E+04  0.17861806580E+04 0.  0.
        1    1    3    3  502    0  0.54251794670E+03  0.24500037381E+03  0.17228950668E+02  0.59552308303E+03  0.50400001928E-02 0.  1.
       -1    1    3    3    0  502 -0.54251794670E+03 -0.24500037381E+03  0.20589028112E+04  0.21432292672E+04  0.50400001928E-02 0. -1.
</event>
<event>
 5   0  0.1837313E-04  0.1832866E+04  0.7818609E-02  0.8689015E-01
        1   -1    0    0  501    0  0.00000000000E+00  0.00000000000E+00  0.16850375647E+04  0.16850375647E+04  0.50400001928E-02 0. -1.
       -1   -1    0    0    0  501  0.00000000000E+00  0.00000000000E+00 -0.49841564840E+03  0.49841564842E+03  0.50400001928E-02 0.  1.
    10030    2    1    2    0    0  0.00000000000E+00  0.00000000000E+00  0.11866219163E+04  0.21834532131E+04  0.18328656147E+04 0.  0.
        1    1    3    3  502    0 -0.77208366725E+03 -0.26829636898E+01  0.11814318473E+04  0.14113474403E+04  0.50400001928E-02 0. -1.
       -1    1    3    3    0  502  0.77208366725E+03  0.26829636898E+01  0.51900689992E+01  0.77210577279E+03  0.50400001928E-02 0.  1.
</event>
<event>
 5   0  0.1837313E-04  0.1826816E+04  0.7818609E-02  0.8692168E-01
        1   -1    0    0  501    0  0.00000000000E+00  0.00000000000E+00  0.12639222302E+04  0.12639222302E+04  0.50400001928E-02 0.  1.
       -1   -1    0    0    0  501  0.00000000000E+00  0.00000000000E+00 -0.66009905555E+03  0.66009905557E+03  0.50400001928E-02 0. -1.
    10030    2    1    2    0    0  0.00000000000E+00  0.00000000000E+00  0.60382317463E+03  0.19240212857E+04  0.18268156672E+04 0.  0.
        1    1    3    3  502    0 -0.22004706447E+02 -0.65553278058E+03 -0.36760760198E+03  0.75189279992E+03  0.50400001928E-02 0. -1.
       -1    1    3    3    0  502  0.22004706447E+02  0.65553278058E+03  0.97143077661E+03  0.11721284858E+04  0.50400001928E-02 0.  1.
</event>
<event>
 5   0  0.1835421E-04  0.1791100E+04  0.7818609E-02  0.8711047E-01
        1   -1    0    0  501    0  0.00000000000E+00  0.00000000000E+00  0.29908189709E+03  0.29908189713E+03  0.50400001928E-02 0. -1.
       -1   -1    0    0    0  501  0.00000000000E+00  0.00000000000E+00 -0.26815712589E+04  0.26815712589E+04  0.50400001928E-02 0.  1.
    10030    2    1    2    0    0  0.00000000000E+00  0.00000000000E+00 -0.23824893618E+04  0.29806531560E+04  0.17910995722E+04 0.  0.
        2    1    3    3  502    0  0.15489698750E+03 -0.49859275348E+03  0.19611446519E+02  0.52246762522E+03  0.25500000920E-02 0. -1.
       -2    1    3    3    0  502 -0.15489698750E+03  0.49859275348E+03 -0.24021008083E+04  0.24581855308E+04  0.25500000920E-02 0.  1.
</event>
<event>
 5   0  0.1825253E-04  0.1798586E+04  0.7818609E-02  0.8707052E-01
        1   -1    0    0  501    0  0.00000000000E+00  0.00000000000E+00  0.12457894896E+04  0.12457894896E+04  0.50400001928E-02 0. -1.
       -1   -1    0    0    0  501  0.00000000000E+00  0.00000000000E+00 -0.64916872093E+03  0.64916872095E+03  0.50400001928E-02 0.  1.
    10030    2    1    2    0    0  0.00000000000E+00  0.00000000000E+00  0.59662076866E+03  0.18949582105E+04  0.17985856327E+04 0.  0.
        4    1    3    3  502    0 -0.71217834214E+03  0.27375598344E+03  0.79982627241E+03  0.11053795766E+04  0.12699999809E+01 0. -1.
       -4    1    3    3    0  502  0.71217834214E+03 -0.27375598344E+03 -0.20320550375E+03  0.78957863392E+03  0.12699999809E+01 0.  1.
</event>
<event>
 5   0  0.3628581E-04  0.1819450E+04  0.7818609E-02  0.8696024E-01
       -2   -1    0    0    0  501  0.00000000000E+00  0.00000000000E+00  0.97021299702E+03  0.97021299702E+03  0.25500000920E-02 0.  1.
        2   -1    0    0  501    0  0.00000000000E+00  0.00000000000E+00 -0.85300793469E+03  0.85300793469E+03  0.25500000920E-02 0. -1.
    10030    2    1    2    0    0  0.00000000000E+00  0.00000000000E+00  0.11720506232E+03  0.18232209317E+04  0.18194497902E+04 0.  0.
        2    1    3    3  502    0 -0.84779844414E+03 -0.12926243152E+03 -0.24555319924E+03  0.89205793071E+03  0.25500000920E-02 0. -1.
       -2    1    3    3    0  502  0.84779844414E+03  0.12926243152E+03  0.36275826157E+03  0.93116300100E+03  0.25500000920E-02 0.  1.
</event>
<event>
 5   0  0.1835421E-04  0.1794008E+04  0.7818609E-02  0.8709493E-01
        1   -1    0    0  501    0  0.00000000000E+00  0.00000000000E+00  0.86063261753E+03  0.86063261754E+03  0.50400001928E-02 0. -1.
       -1   -1    0    0    0  501  0.00000000000E+00  0.00000000000E+00 -0.93491213558E+03  0.93491213559E+03  0.50400001928E-02 0.  1.
    10030    2    1    2    0    0  0.00000000000E+00  0.00000000000E+00 -0.74279518048E+02  0.17955447531E+04  0.17940076682E+04 0.  0.
        2    1    3    3  502    0 -0.78330841694E+03 -0.30103707211E+03 -0.35430317985E+03  0.91089304426E+03  0.25500000920E-02 0.  1.
       -2    1    3    3    0  502  0.78330841694E+03  0.30103707211E+03  0.28002366180E+03  0.88465170887E+03  0.25500000920E-02 0. -1.
</event>
<event>
 5   0  0.1883959E-04  0.1809920E+04  0.7818609E-02  0.8701042E-01
       -1   -1    0    0    0  501  0.00000000000E+00  0.00000000000E+00  0.57677912315E+03  0.57677912317E+03  0.50400001928E-02 0. -1.
        1   -1    0    0  501    0  0.00000000000E+00  0.00000000000E+00 -0.14198720704E+04  0.14198720705E+04  0.50400001928E-02 0.  1.
    10030    2    1    2    0    0  0.00000000000E+00  0.00000000000E+00 -0.84309294729E+03  0.19966511936E+04  0.18099199627E+04 0.  0.
        5    1    3    3  502    0 -0.14088500490E+02 -0.49497170910E+03  0.41405366583E+03  0.64549051646E+03  0.46999998093E+01 0. -1.
       -5    1    3    3    0  502  0.14088500490E+02  0.49497170910E+03 -0.12571466131E+04  0.13511606772E+04  0.46999998093E+01 0.  1.
</event>
<event>
 5   0  0.3568870E-04  0.1821203E+04  0.7818609E-02  0.8695105E-01
        2   -1    0    0  501    0  0.00000000000E+00  0.00000000000E+00  0.77303484275E+03  0.77303484276E+03  0.25500000920E-02 0.  1.
       -2   -1    0    0    0  501  0.00000000000E+00  0.00000000000E+00 -0.10726491292E+04  0.10726491292E+04  0.25500000920E-02 0. -1.
    10030    2    1    2    0    0  0.00000000000E+00  0.00000000000E+00 -0.29961428641E+03  0.18456839719E+04  0.18212030649E+04 0.  0.
        1    1    3    3  502    0 -0.71820334107E+03  0.47705545567E+03 -0.44665610595E+03  0.97103018692E+03  0.50400001928E-02 0.  1.
       -1    1    3    3    0  502  0.71820334107E+03 -0.47705545567E+03  0.14704181954E+03  0.87465378500E+03  0.50400001928E-02 0. -1.
</event>
<event>
 5   0  0.3568870E-04  0.1807174E+04  0.7818609E-02  0.8702494E-01
        2   -1    0    0  501    0  0.00000000000E+00  0.00000000000E+00  0.48512617968E+03  0.48512617968E+03  0.25500000920E-02 0. -1.
       -2   -1    0    0    0  501  0.00000000000E+00  0.00000000000E+00 -0.16830044361E+04  0.16830044361E+04  0.25500000920E-02 0.  1.
    10030    2    1    2    0    0  0.00000000000E+00  0.00000000000E+00 -0.11978782564E+04  0.21681306158E+04  0.18071740508E+04 0.  0.
        1    1    3    3  502    0  0.55392034512E+03  0.26983900990E+03  0.19400215360E+03  0.64597033649E+03  0.50400001928E-02 0.  1.
       -1    1    3    3    0  502 -0.55392034512E+03 -0.26983900990E+03 -0.13918804100E+04  0.15221602793E+04  0.50400001928E-02 0. -1.
</event>
<event>
 5   0  0.3628581E-04  0.1795598E+04  0.7818609E-02  0.8708644E-01
       -2   -1    0    0    0  501  0.00000000000E+00  0.00000000000E+00  0.41361386499E+03  0.41361386500E+03  0.25500000920E-02 0. -1.
        2   -1    0    0  501    0  0.00000000000E+00  0.00000000000E+00 -0.19487816648E+04  0.19487816648E+04  0.25500000920E-02 0.  1.
    10030    2    1    2    0    0  0.00000000000E+00  0.00000000000E+00 -0.15351677998E+04  0.23623955298E+04  0.17955980802E+04 0.  0.
        2    1    3    3  502    0  0.83745055071E+03 -0.26838421328E+03 -0.52970916347E+03  0.10266183851E+04  0.25500000920E-02 0.  1.
       -2    1    3    3    0  502 -0.83745055071E+03  0.26838421328E+03 -0.10054586364E+04  0.13357771447E+04  0.25500000920E-02 0. -1.
</event>
<event>
 5   0  0.3575091E-04  0.1779245E+04  0.7818609E-02  0.8717415E-01
        2   -1    0    0  501    0  0.00000000000E+00  0.00000000000E+00  0.11067493329E+04  0.11067493329E+04  0.25500000920E-02 0. -1.
       -2   -1    0    0    0  501  0.00000000000E+00  0.00000000000E+00 -0.71509268514E+03  0.71509268514E+03  0.25500000920E-02 0.  1.
    10030    2    1    2    0    0  0.00000000000E+00  0.00000000000E+00  0.39165664779E+03  0.18218420181E+04  0.17792451796E+04 0.  0.
        5    1    3    3  502    0 -0.51820224093E+03 -0.45935863460E+03 -0.37598778528E+03  0.78799290756E+03  0.46999998093E+01 0.  1.
       -5    1    3    3    0  502  0.51820224093E+03  0.45935863460E+03  0.76764443307E+03  0.10338491105E+04  0.46999998093E+01 0. -1.
</event>
<event>
 5   0  0.1825253E-04  0.1825749E+04  0.7818609E-02  0.8692725E-01
        1   -1    0    0  501    0  0.00000000000E+00  0.00000000000E+00  0.71953363423E+03  0.71953363425E+03  0.50400001928E-02 0.  1.
       -1   -1    0    0    0  501  0.00000000000E+00  0.00000000000E+00 -0.11581669951E+04  0.11581669951E+04  0.50400001928E-02 0. -1.
    10030    2    1    2    0    0  0.00000000000E+00  0.00000000000E+00 -0.43863336084E+03  0.18777006293E+04  0.18257492786E+04 0.  0.
        4    1    3    3  502    0 -0.50212164777E+03  0.62176027792E+03 -0.67303488251E+03  0.10448394893E+04  0.12699999809E+01 0. -1.
       -4    1    3    3    0  502  0.50212164777E+03 -0.62176027792E+03  0.23440152167E+03  0.83286114006E+03  0.12699999809E+01 0.  1.
</event>
<event>
 5   0  0.3568870E-04  0.1769561E+04  0.7818609E-02  0.8722656E-01
        2   -1    0    0  501    0  0.00000000000E+00  0.00000000000E+00  0.23021969726E+04  0.23021969726E+04  0.25500000920E-02 0.  1.
       -2   -1    0    0    0  501  0.00000000000E+00  0.00000000000E+00 -0.34003907599E+03  0.34003907600E+03  0.25500000920E-02 0. -1.
    10030    2    1    2    0    0  0.00000000000E+00  0.00000000000E+00  0.19621578966E+04  0.26422360486E+04  0.17695614500E+04 0.  0.
        1    1    3    3  502    0 -0.60943377571E+03 -0.36823454908E+03  0.17652797506E+04  0.19034754551E+04  0.50400001928E-02 0.  1.
       -1    1    3    3    0  502  0.60943377571E+03  0.36823454908E+03  0.19687814597E+03  0.73876059350E+03  0.50400001928E-02 0. -1.
</event>
<event>
 5   0  0.1837313E-04  0.1758247E+04  0.7818609E-02  0.8728824E-01
        1   -1    0    0  501    0  0.00000000000E+00  0.00000000000E+00  0.79557551568E+03  0.79557551569E+03  0.50400001928E-02 0. -1.
       -1   -1    0    0    0  501  0.00000000000E+00  0.00000000000E+00 -0.97144561353E+03  0.97144561354E+03  0.50400001928E-02 0.  1.
    10030    2    1    2    0    0  0.00000000000E+00  0.00000000000E+00 -0.17587009785E+03  0.17670211292E+04  0.17582472465E+04 0.  0.
        1    1    3    3  502    0  0.87109555704E+03  0.11675994226E+03 -0.10848190731E+03  0.88555557581E+03  0.50400001928E-02 0.  1.
       -1    1    3    3    0  502 -0.87109555704E+03 -0.11675994226E+03 -0.67388190541E+02  0.88146555342E+03  0.50400001928E-02 0. -1.
</event>
<event>
 5   0  0.1330125E-04  0.1819440E+04  0.7818609E-02  0.8696029E-01
        4   -1    0    0  501    0  0.00000000000E+00  0.00000000000E+00  0.10039569613E+04  0.10039577645E+04  0.12699999809E+01 0.  1.
       -4   -1    0    0    0  501  0.00000000000E+00  0.00000000000E+00 -0.82432734592E+03  0.82432832424E+03  0.12699999809E+01 0. -1.
    10030    2    1    2    0    0  0.00000000000E+00  0.00000000000E+00  0.17962961534E+03  0.18282860888E+04  0.18194403600E+04 0.  0.
        3    1    3    3  502    0 -0.33517608079E+03 -0.73918638906E+03  0.50272775403E+03  0.95471185589E+03  0.10100000352E+00 0.  1.
       -3    1    3    3    0  502  0.33517608079E+03  0.73918638906E+03 -0.32309813870E+03  0.87357423287E+03  0.10100000352E+00 0. -1.
</event>
<event>
 5   0  0.1837313E-04  0.1796381E+04  0.7818609E-02  0.8708226E-01
        1   -1    0    0  501    0  0.00000000000E+00  0.00000000000E+00  0.15839770199E+04  0.15839770199E+04  0.50400001928E-02 0. -1.
       -1   -1    0    0    0  501  0.00000000000E+00  0.00000000000E+00 -0.50931709984E+03  0.50931709986E+03  0.50400001928E-02 0.  1.
    10030    2    1    2    0    0  0.00000000000E+00  0.00000000000E+00  0.10746599201E+04  0.20932941198E+04  0.17963814539E+04 0.  0.
        1    1    3    3  502    0  0.13370195883E+03 -0.70503144648E+03  0.11668000506E+04  0.13698057937E+04  0.50400001928E-02 0. -1.
       -1    1    3    3    0  502 -0.13370195883E+03  0.70503144648E+03 -0.92140130519E+02  0.72348832609E+03  0.50400001928E-02 0.  1.
</event>
<event>
 5   0  0.1883959E-04  0.1757397E+04  0.7818609E-02  0.8729289E-01
       -1   -1    0    0    0  501  0.00000000000E+00  0.00000000000E+00  0.87787725490E+03  0.87787725491E+03  0.50400001928E-02 0.  1.
        1   -1    0    0  501    0  0.00000000000E+00  0.00000000000E+00 -0.87952054036E+03  0.87952054038E+03  0.50400001928E-02 0. -1.
    10030    2    1    2    0    0  0.00000000000E+00  0.00000000000E+00 -0.16432854641E+01  0.17573977953E+04  0.17573970270E+04 0.  0.
        5    1    3    3  502    0 -0.53158049817E+03 -0.52204263151E+03 -0.46663581404E+03  0.87913446531E+03  0.46999998093E+01 0. -1.
       -5    1    3    3    0  502  0.53158049817E+03  0.52204263151E+03  0.46499252858E+03  0.87826332998E+03  0.46999998093E+01 0.  1.
</event>
<event>
 5   0  0.1835421E-04  0.1805720E+04  0.7818609E-02  0.8703263E-01
       -1   -1    0    0    0  501  0.00000000000E+00  0.00000000000E+00  0.66581669745E+03  0.66581669747E+03  0.50400001928E-02 0. -1.
        1   -1    0    0  501    0  0.00000000000E+00  0.00000000000E+00 -0.12242956676E+04  0.12242956676E+04  0.50400001928E-02 0.  1.
    10030    2    1    2    0    0  0.00000000000E+00  0.00000000000E+00 -0.55847897012E+03  0.18901123650E+04  0.18057203528E+04 0.  0.
        2    1    3    3  502    0 -0.63024387344E+03  0.64277327504E+03 -0.35169656139E+03  0.96646536121E+03  0.25500000920E-02 0.  1.
       -2    1    3    3    0  502  0.63024387344E+03 -0.64277327504E+03 -0.20678240874E+03  0.92364700384E+03  0.25500000920E-02 0. -1.
</event>
<event>
 5   0  0.3568870E-04  0.1609615E+04  0.7818609E-02  0.8814663E-01
        2   -1    0    0  501    0  0.00000000000E+00  0.00000000000E+00  0.88072442709E+03  0.88072442710E+03  0.25500000920E-02 0. -1.
       -2   -1    0    0    0  501  0.00000000000E+00  0.00000000000E+00 -0.73543450778E+03  0.73543450778E+03  0.25500000920E-02 0.  1.
    10030    2    1    2    0    0  0.00000000000E+00  0.00000000000E+00  0.14528991931E+03  0.16161589349E+04  0.16096150292E+04 0.  0.
        1    1    3    3  502    0 -0.55842212011E+03  0.55463075795E+03  0.24144922722E+03  0.82325468188E+03  0.50400001928E-02 0. -1.
       -1    1    3    3    0  502  0.55842212011E+03 -0.55463075795E+03 -0.96159307905E+02  0.79290425300E+03  0.50400001928E-02 0.  1.
</event>
<event>
 5   0  0.3531266E-04  0.1833558E+04  0.7818609E-02  0.8688655E-01
        2   -1    0    0  501    0  0.00000000000E+00  0.00000000000E+00  0.20027167974E+04  0.20027167974E+04  0.25500000920E-02 0. -1.
       -2   -1    0    0    0  501  0.00000000000E+00  0.00000000000E+00 -0.41967175232E+03  0.41967175233E+03  0.25500000920E-02 0.  1.
    10030    2    1    2    0    0  0.00000000000E+00  0.00000000000E+00  0.15830450450E+04  0.24223885497E+04  0.18335579268E+04 0.  0.
        3    1    3    3  502    0  0.12891747786E+02 -0.35874390265E+03 -0.32296016342E+03  0.48287333972E+03  0.10100000352E+00 0.  1.
       -3    1    3    3    0  502 -0.12891747786E+02  0.35874390265E+03  0.19060052085E+04  0.19395152100E+04  0.10100000352E+00 0. -1.
</event>
<event>
 5   0  0.1837313E-04  0.1802818E+04  0.7818609E-02  0.8704802E-01
        1   -1    0    0  501    0  0.00000000000E+00  0.00000000000E+00  0.14224390746E+04  0.14224390746E+04  0.50400001928E-02 0.  1.
       -1   -1    0    0    0  501  0.00000000000E+00  0.00000000000E+00 -0.57122911049E+03  0.57122911051E+03  0.50400001928E-02 0. -1.
    10030    2    1    2    0    0  0.00000000000E+00  0.00000000000E+00  0.85120996414E+03  0.19936681851E+04  0.18028184682E+04 0.  0.
        1    1    3    3  502    0 -0.41438886646E+03  0.28153237166E+03  0.12543080796E+04  0.13506544220E+04  0.50400001928E-02 0.  1.
       -1    1    3    3    0  502  0.41438886646E+03 -0.28153237166E+03 -0.40309811547E+03  0.64301376320E+03  0.50400001928E-02 0. -1.
</event>
<event>
 5   0  0.1835421E-04  0.1757133E+04  0.7818609E-02  0.8729434E-01
        1   -1    0    0  501    0  0.00000000000E+00  0.00000000000E+00  0.71770813472E+03  0.71770813474E+03  0.50400001928E-02 0. -1.
       -1   -1    0    0    0  501  0.00000000000E+00  0.00000000000E+00 -0.10754771524E+04  0.10754771524E+04  0.50400001928E-02 0.  1.
    10030    2    1    2    0    0  0.00000000000E+00  0.00000000000E+00 -0.35776901769E+03  0.17931852872E+04  0.17571325516E+04 0.  0.
        2    1    3    3  502    0 -0.37279090687E+03  0.65577702627E+03  0.28075900485E+03  0.80488644369E+03  0.25500000920E-02 0. -1.
       -2    1    3    3    0  502  0.37279090687E+03 -0.65577702627E+03 -0.63852802254E+03  0.98829884347E+03  0.25500000920E-02 0.  1.
</event>
<event>
 5   0  0.1330125E-04  0.1784214E+04  0.7818609E-02  0.8714740E-01
       -3   -1    0    0    0  501  0.00000000000E+00  0.00000000000E+00  0.78568209745E+03  0.78568210395E+03  0.10100000352E+00 0. -1.
        3   -1    0    0  501    0  0.00000000000E+00  0.00000000000E+00 -0.10129472698E+04  0.10129472748E+04  0.10100000352E+00 0.  1.
    10030    2    1    2    0    0  0.00000000000E+00  0.00000000000E+00 -0.22726517233E+03  0.17986293788E+04  0.17842136037E+04 0.  0.
        3    1    3    3  502    0  0.23534434266E+03 -0.59180434141E+03 -0.74336791119E+03  0.97888467131E+03  0.10100000352E+00 0.  1.
       -3    1    3    3    0  502 -0.23534434266E+03  0.59180434141E+03  0.51610273886E+03  0.81974470745E+03  0.10100000352E+00 0. -1.
</event>
<event>
 5   0  0.1825253E-04  0.1724674E+04  0.7818609E-02  0.8747416E-01
        1   -1    0    0  501    0  0.00000000000E+00  0.00000000000E+00  0.12731482228E+04  0.12731482228E+04  0.50400001928E-02 0. -1.
       -1   -1    0    0    0  501  0.00000000000E+00  0.00000000000E+00 -0.58408385451E+03  0.58408385453E+03  0.50400001928E-02 0.  1.
    10030    2    1    2    0    0  0.00000000000E+00  0.00000000000E+00  0.68906436833E+03  0.18572320774E+04  0.17246742549E+04 0.  0.
        4    1    3    3  502    0  0.75907676320E+02  0.10731263741E+01 -0.58047743813E+03  0.58542189573E+03  0.12699999809E+01 0.  1.
       -4    1    3    3    0  502 -0.75907676320E+02 -0.10731263741E+01  0.12695418065E+04  0.12718101817E+04  0.12699999809E+01 0. -1.
</event>
<event>
 5   0  0.1835421E-04  0.1803229E+04  0.7818609E-02  0.8704584E-01
       -1   -1    0    0    0  501  0.00000000000E+00  0.00000000000E+00  0.59348557267E+03  0.59348557269E+03  0.50400001928E-02 0.  1.
        1   -1    0    0  501    0  0.00000000000E+00  0.00000000000E+00 -0.13697193657E+04  0.13697193657E+04  0.50400001928E-02 0. -1.
    10030    2    1    2    0    0  0.00000000000E+00  0.00000000000E+00 -0.77623379301E+03  0.19632049384E+04  0.18032289729E+04 0.  0.
        2    1    3    3  502    0 -0.33577067040E+03 -0.24554104638E+03  0.48277206321E+03  0.63726071084E+03  0.25500000920E-02 0.  1.
       -2    1    3    3    0  502  0.33577067040E+03  0.24554104638E+03 -0.12590058562E+04  0.13259442275E+04  0.25500000920E-02 0. -1.
</event>
<event>
 5   0  0.1818778E-04  0.1788878E+04  0.7818609E-02  0.8712237E-01
       -1   -1    0    0    0  501  0.00000000000E+00  0.00000000000E+00  0.13666730748E+04  0.13666730748E+04  0.50400001928E-02 0. -1.
        1   -1    0    0  501    0  0.00000000000E+00  0.00000000000E+00 -0.58537825208E+03  0.58537825210E+03  0.50400001928E-02 0.  1.
    10030    2    1    2    0    0  0.00000000000E+00  0.00000000000E+00  0.78129482276E+03  0.19520513270E+04  0.17888775204E+04 0.  0.
        3    1    3    3  502    0  0.25849763790E+03 -0.70187745015E+03 -0.14456883233E+03  0.76180912393E+03  0.10100000352E+00 0.  1.
       -3    1    3    3    0  502 -0.25849763790E+03  0.70187745015E+03  0.92586365509E+03  0.11902422030E+04  0.10100000352E+00 0. -1.
</event>
<event>
 5   0  0.3568870E-04  0.1759598E+04  0.7818609E-02  0.8728085E-01
        2   -1    0    0  501    0  0.00000000000E+00  0.00000000000E+00  0.99171368443E+03  0.99171368443E+03  0.25500000920E-02 0.  1.
       -2   -1    0    0    0  501  0.00000000000E+00  0.00000000000E+00 -0.78051354462E+03  0.78051354463E+03  0.25500000920E-02 0. -1.
    10030    2    1    2    0    0  0.00000000000E+00  0.00000000000E+00  0.21120013981E+03  0.17722272291E+04  0.17595976393E+04 0.  0.
        1    1    3    3  502    0  0.31226732716E+03 -0.81437058043E+03  0.22190896233E+03  0.89997439600E+03  0.50400001928E-02 0.  1.
       -1    1    3    3    0  502 -0.31226732716E+03  0.81437058043E+03 -0.10708822519E+02  0.87225283306E+03  0.50400001928E-02 0. -1.
</event>
<event>
 5   0  0.1883959E-04  0.1788702E+04  0.7818609E-02  0.8712331E-01
       -1   -1    0    0    0  501  0.00000000000E+00  0.00000000000E+00  0.45514644389E+03  0.45514644391E+03  0.50400001928E-02 0.  1.
        1   -1    0    0  501    0  0.00000000000E+00  0.00000000000E+00 -0.17573769608E+04  0.17573769608E+04  0.50400001928E-02 0. -1.
    10030    2    1    2    0    0  0.00000000000E+00  0.00000000000E+00 -0.13022305169E+04  0.22125234047E+04  0.17887021824E+04 0.  0.
        5    1    3    3  502    0  0.24486830887E+03 -0.77646099817E+03 -0.19329642176E+03  0.83680210745E+03  0.46999998093E+01 0.  1.
       -5    1    3    3    0  502 -0.24486830887E+03  0.77646099817E+03 -0.11089340951E+04  0.13757212972E+04  0.46999998093E+01 0. -1.
</event>
<event>
 5   0  0.3628581E-04  0.1755647E+04  0.7818609E-02  0.8730248E-01
        2   -1    0    0  501    0  0.00000000000E+00  0.00000000000E+00  0.48499331886E+03  0.48499331886E+03  0.25500000920E-02 0.  1.
       -2   -1    0    0    0  501  0.00000000000E+00  0.00000000000E+00 -0.15888353096E+04  0.15888353096E+04  0.25500000920E-02 0. -1.
    10030    2    1    2    0    0  0.00000000000E+00  0.00000000000E+00 -0.11038419907E+04  0.20738286284E+04  0.17556474702E+04 0.  0.
        2    1    3    3  502    0 -0.34692509510E+03 -0.59269028136E+03 -0.11977602757E+04  0.13806768157E+04  0.25500000920E-02 0. -1.
       -2    1    3    3    0  502  0.34692509510E+03  0.59269028136E+03  0.93918285034E+02  0.69315181274E+03  0.25500000920E-02 0.  1.
</event>
<event>
 5   0  0.1835421E-04  0.1742119E+04  0.7818609E-02  0.8737700E-01
       -1   -1    0    0    0  501  0.00000000000E+00  0.00000000000E+00  0.84337380574E+03  0.84337380575E+03  0.50400001928E-02 0. -1.
        1   -1    0    0  501    0  0.00000000000E+00  0.00000000000E+00 -0.89965413140E+03  0.89965413141E+03  0.50400001928E-02 0.  1.
    10030    2    1    2    0    0  0.00000000000E+00  0.00000000000E+00 -0.56280325659E+02  0.17430279372E+04  0.17421190874E+04 0.  0.
        2    1    3    3  502    0 -0.36088045515E+02  0.85986769533E+03 -0.16263472388E+03  0.87585664005E+03  0.25500000920E-02 0. -1.
       -2    1    3    3    0  502  0.36088045515E+02 -0.85986769533E+03  0.10635439822E+03  0.86717129711E+03  0.25500000920E-02 0.  1.
</event>
<event>
 5   0  0.3531266E-04  0.1960722E+04  0.7818609E-02  0.8625208E-01
        2   -1    0    0  501    0  0.00000000000E+00  0.00000000000E+00  0.14620446204E+04  0.14620446204E+04  0.25500000920E-02 0. -1.
       -2   -1    0    0    0  501  0.00000000000E+00  0.00000000000E+00 -0.65737217067E+03  0.65737217067E+03  0.25500000920E-02 0.  1.
    10030    2    1    2    0    0  0.00000000000E+00  0.00000000000E+00  0.80467244976E+03  0.21194167911E+04  0.19607217505E+04 0.  0.
        3    1    3    3  502    0 -0.14344914952E+03  0.64323471905E+03  0.11868752992E+04  0.13575719312E+04  0.10100000352E+00 0. -1.
       -3    1    3    3    0  502  0.14344914952E+03 -0.64323471905E+03 -0.38220284943E+03  0.76184485993E+03  0.10100000352E+00 0.  1.
</event>
<event>
 5   0  0.1837313E-04  0.1824974E+04  0.7818609E-02  0.8693130E-01
       -1   -1    0    0    0  501  0.00000000000E+00  0.00000000000E+00  0.11851273759E+04  0.11851273759E+04  0.50400001928E-02 0.  1.
        1   -1    0    0  501    0  0.00000000000E+00  0.00000000000E+00 -0.70256764586E+03  0.70256764587E+03  0.50400001928E-02 0. -1.
    10030    2    1    2    0    0  0.00000000000E+00  0.00000000000E+00  0.48255973000E+03  0.18876950217E+04  0.18249735894E+04 0.  0.
        1    1    3    3  502    0 -0.26558537671E+03 -0.66499140807E+03  0.82630000429E+03  0.10933987663E+04  0.50400001928E-02 0.  1.
       -1    1    3    3    0  502  0.26558537671E+03  0.66499140807E+03 -0.34374027429E+03  0.79429625539E+03  0.50400001928E-02 0. -1.
</event>
<event>
 5   0  0.3531266E-04  0.1761931E+04  0.7818609E-02  0.8726810E-01
        2   -1    0    0  501    0  0.00000000000E+00  0.00000000000E+00  0.10871108554E+04  0.10871108554E+04  0.25500000920E-02 0.  1.
       -2   -1    0    0    0  501  0.00000000000E+00  0.00000000000E+00 -0.71391091615E+03  0.71391091615E+03  0.25500000920E-02 0. -1.
    10030    2    1    2    0    0  0.00000000000E+00  0.00000000000E+00  0.37319993925E+03  0.18010217716E+04  0.17619311073E+04 0.  0.
        3    1    3    3  502    0 -0.13115548857E+03  0.29327278607E+03 -0.65189787380E+03  0.72676099049E+03  0.10100000352E+00 0. -1.
       -3    1    3    3    0  502  0.13115548857E+03 -0.29327278607E+03  0.10250978130E+04  0.10742607811E+04  0.10100000352E+00 0.  1.
</event>
<event>
 5   0  0.1818778E-04  0.1548186E+04  0.7818609E-02  0.8853027E-01
       -1   -1    0    0    0  501  0.00000000000E+00  0.00000000000E+00  0.69066044247E+03  0.69066044249E+03  0.50400001928E-02 0.  1.
        1   -1    0    0  501    0  0.00000000000E+00  0.00000000000E+00 -0.86760433514E+03  0.86760433515E+03  0.50400001928E-02 0. -1.
    10030    2    1    2    0    0  0.00000000000E+00  0.00000000000E+00 -0.17694389267E+03  0.15582647776E+04  0.15481860276E+04 0.  0.
        3    1    3    3  502    0 -0.33107027509E+02 -0.48360250198E+03 -0.69593434150E+03  0.84811088490E+03  0.10100000352E+00 0. -1.
       -3    1    3    3    0  502  0.33107027509E+02  0.48360250198E+03  0.51899044883E+03  0.71015389274E+03  0.10100000352E+00 0.  1.
</event>
<event>
 5   0  0.1883959E-04  0.1789284E+04  0.7818609E-02  0.8712019E-01
        1   -1    0    0  501    0  0.00000000000E+00  0.00000000000E+00  0.11011301524E+04  0.11011301524E+04  0.50400001928E-02 0.  1.
       -1   -1    0    0    0  501  0.00000000000E+00  0.00000000000E+00 -0.72687513123E+03  0.72687513125E+03  0.50400001928E-02 0. -1.
    10030    2    1    2    0    0  0.00000000000E+00  0.00000000000E+00  0.37425502116E+03  0.18280052837E+04  0.17892837942E+04 0.  0.
        5    1    3    3  502    0  0.13019173557E+03  0.12142693988E+03 -0.70858268670E+03  0.73062021846E+03  0.46999998093E+01 0. -1.
       -5    1    3    3    0  502 -0.13019173557E+03 -0.12142693988E+03  0.10828377079E+04  0.10973850652E+04  0.46999998093E+01 0.  1.
</event>
<event>
 5   0  0.1818778E-04  0.1763726E+04  0.7818609E-02  0.8725831E-01
        1   -1    0    0  501    0  0.00000000000E+00  0.00000000000E+00  0.98638633777E+03  0.98638633778E+03  0.50400001928E-02 0. -1.
       -1   -1    0    0    0  501  0.00000000000E+00  0.00000000000E+00 -0.78841542661E+03  0.78841542662E+03  0.50400001928E-02 0.  1.
    10030    2    1    2    0    0  0.00000000000E+00  0.00000000000E+00  0.19797091116E+03  0.17748017644E+04  0.17637258351E+04 0.  0.
        3    1    3    3  502    0 -0.71528809282E+03  0.51134053550E+03  0.16705637232E+03  0.89499387748E+03  0.10100000352E+00 0.  1.
       -3    1    3    3    0  502  0.71528809282E+03 -0.51134053550E+03  0.30914538836E+02  0.87980788693E+03  0.10100000352E+00 0. -1.
</event>
<event>
 5   0  0.3575091E-04  0.1725399E+04  0.7818609E-02  0.8747010E-01
        2   -1    0    0  501    0  0.00000000000E+00  0.00000000000E+00  0.67064352880E+03  0.67064352880E+03  0.25500000920E-02 0.  1.
       -2   -1    0    0    0  501  0.00000000000E+00  0.00000000000E+00 -0.11097553427E+04  0.11097553427E+04  0.25500000920E-02 0. -1.
    10030    2    1    2    0    0  0.00000000000E+00  0.00000000000E+00 -0.43911181389E+03  0.17803988715E+04  0.17253987819E+04 0.  0.
        5    1    3    3  502    0  0.66391071564E+03  0.54153051423E+03 -0.32374691347E+03  0.91589676829E+03  0.46999998093E+01 0.  1.
       -5    1    3    3    0  502 -0.66391071564E+03 -0.54153051423E+03 -0.11536490042E+03  0.86450210320E+03  0.46999998093E+01 0. -1.
</event>
<event>
 5   0  0.3568870E-04  0.1808836E+04  0.7818609E-02  0.8701615E-01
        2   -1    0    0  501    0  0.00000000000E+00  0.00000000000E+00  0.89293368882E+03  0.89293368883E+03  0.25500000920E-02 0. -1.
       -2   -1    0    0    0  501  0.00000000000E+00  0.00000000000E+00 -0.91604998177E+03  0.91604998178E+03  0.25500000920E-02 0.  1.
    10030    2    1    2    0    0  0.00000000000E+00  0.00000000000E+00 -0.23116292950E+02  0.18089836706E+04  0.18088359676E+04 0.  0.
        1    1    3    3  502    0 -0.35073202847E+03  0.83172590620E+03  0.44934965082E+02  0.90376993198E+03  0.50400001928E-02 0. -1.
       -1    1    3    3    0  502  0.35073202847E+03 -0.83172590620E+03 -0.68051258032E+02  0.90521373862E+03  0.50400001928E-02 0.  1.
</event>
<event>
 5   0  0.3568870E-04  0.1842389E+04  0.7818609E-02  0.8684077E-01
       -2   -1    0    0    0  501  0.00000000000E+00  0.00000000000E+00  0.13659086419E+04  0.13659086419E+04  0.25500000920E-02 0.  1.
        2   -1    0    0  501    0  0.00000000000E+00  0.00000000000E+00 -0.62127089074E+03  0.62127089075E+03  0.25500000920E-02 0. -1.
    10030    2    1    2    0    0  0.00000000000E+00  0.00000000000E+00  0.74463775119E+03  0.19871795327E+04  0.18423889694E+04 0.  0.
        1    1    3    3  502    0  0.35738351488E+03  0.12198444591E+03 -0.53394971949E+03  0.65399196075E+03  0.50400001928E-02 0. -1.
       -1    1    3    3    0  502 -0.35738351488E+03 -0.12198444591E+03  0.12785874707E+04  0.13331875719E+04  0.50400001928E-02 0.  1.
</event>
<event>
 5   0  0.1835421E-04  0.1722677E+04  0.7818609E-02  0.8748535E-01
        1   -1    0    0  501    0  0.00000000000E+00  0.00000000000E+00  0.85447824068E+03  0.85447824070E+03  0.50400001928E-02 0. -1.
       -1   -1    0    0    0  501  0.00000000000E+00  0.00000000000E+00 -0.86825393824E+03  0.86825393825E+03  0.50400001928E-02 0.  1.
    10030    2    1    2    0    0  0.00000000000E+00  0.00000000000E+00 -0.13775697553E+02  0.17227321789E+04  0.17226770999E+04 0.  0.
        2    1    3    3  502    0 -0.69985292127E+02 -0.42574605362E+03  0.73862002684E+03  0.85540469214E+03  0.25500000920E-02 0. -1.
       -2    1    3    3    0  502  0.69985292127E+02  0.42574605362E+03 -0.75239572439E+03  0.86732748681E+03  0.25500000920E-02 0.  1.
</event>
<event>
 5   0  0.3575091E-04  0.1737632E+04  0.7818609E-02  0.8740188E-01
        2   -1    0    0  501    0  0.00000000000E+00  0.00000000000E+00  0.41962610930E+03  0.41962610931E+03  0.25500000920E-02 0.  1.
       -2   -1    0    0    0  501  0.00000000000E+00  0.00000000000E+00 -0.17988433107E+04  0.17988433107E+04  0.25500000920E-02 0. -1.
    10030    2    1    2    0    0  0.00000000000E+00  0.00000000000E+00 -0.13792172014E+04  0.22184694200E+04  0.17376324349E+04 0.  0.
        5    1    3    3  502    0  0.36857884403E+03  0.45932822361E+03 -0.15050984521E+04  0.16162228255E+04  0.46999998093E+01 0. -1.
       -5    1    3    3    0  502 -0.36857884403E+03 -0.45932822361E+03  0.12588125070E+03  0.60224659447E+03  0.46999998093E+01 0.  1.
</event>
<event>
 5   0  0.3628581E-04  0.1806460E+04  0.7818609E-02  0.8702872E-01
       -2   -1    0    0    0  501  0.00000000000E+00  0.00000000000E+00  0.82122136794E+03  0.82122136794E+03  0.25500000920E-02 0.  1.
        2   -1    0    0  501    0  0.00000000000E+00  0.00000000000E+00 -0.99342844303E+03  0.99342844304E+03  0.25500000920E-02 0. -1.
    10030    2    1    2    0    0  0.00000000000E+00  0.00000000000E+00 -0.17220707510E+03  0.18146498110E+04  0.18064602569E+04 0.  0.
        2    1    3    3  502    0 -0.29745265806E+03 -0.38512525979E+03  0.67828315455E+03  0.83478595296E+03  0.25500000920E-02 0.  1.
       -2    1    3    3    0  502  0.29745265806E+03  0.38512525979E+03 -0.85049022964E+03  0.97986385802E+03  0.25500000920E-02 0. -1.
</event>
<event>
 5   0  0.1883959E-04  0.1787421E+04  0.7818609E-02  0.8713018E-01
       -1   -1    0    0    0  501  0.00000000000E+00  0.00000000000E+00  0.92549683764E+03  0.92549683765E+03  0.50400001928E-02 0. -1.
        1   -1    0    0  501    0  0.00000000000E+00  0.00000000000E+00 -0.86301596841E+03  0.86301596842E+03  0.50400001928E-02 0.  1.
    10030    2    1    2    0    0  0.00000000000E+00  0.00000000000E+00  0.62480869232E+02  0.17885128061E+04  0.17874211027E+04 0.  0.
        5    1    3    3  502    0 -0.59492264059E+03  0.75373941385E+02  0.69427799067E+03  0.91741931397E+03  0.46999998093E+01 0. -1.
       -5    1    3    3    0  502  0.59492264059E+03 -0.75373941385E+02 -0.63179712144E+03  0.87109349210E+03  0.46999998093E+01 0.  1.
</event>
<event>
 5   0  0.1825253E-04  0.1802535E+04  0.7818609E-02  0.8704953E-01
       -1   -1    0    0    0  501  0.00000000000E+00  0.00000000000E+00  0.89531847604E+03  0.89531847606E+03  0.50400001928E-02 0. -1.
        1   -1    0    0  501    0  0.00000000000E+00  0.00000000000E+00 -0.90725604581E+03  0.90725604582E+03  0.50400001928E-02 0.  1.
    10030    2    1    2    0    0  0.00000000000E+00  0.00000000000E+00 -0.11937569762E+02  0.18025745219E+04  0.18025349931E+04 0.  0.
        4    1    3    3  502    0 -0.38370655049E+03  0.29968760562E+03 -0.76442995019E+03  0.90631017842E+03  0.12699999809E+01 0.  1.
       -4    1    3    3    0  502  0.38370655049E+03 -0.29968760562E+03  0.75249238043E+03  0.89626434346E+03  0.12699999809E+01 0. -1.
</event>
<event>
 5   0  0.1818778E-04  0.1756283E+04  0.7818609E-02  0.8729899E-01
       -1   -1    0    0    0  501  0.00000000000E+00  0.00000000000E+00  0.52775488482E+03  0.52775488484E+03  0.50400001928E-02 0.  1.
        1   -1    0    0  501    0  0.00000000000E+00  0.00000000000E+00 -0.14611568918E+04  0.14611568918E+04  0.50400001928E-02 0. -1.
    10030    2    1    2    0    0  0.00000000000E+00  0.00000000000E+00 -0.93340200697E+03  0.19889117766E+04  0.17562832199E+04 0.  0.
        3    1    3    3  502    0  0.72859970668E+03  0.40836002304E+02 -0.10198766753E+04  0.12540628193E+04  0.10100000352E+00 0. -1.
       -3    1    3    3    0  502 -0.72859970668E+03 -0.40836002304E+02  0.86474668344E+02  0.73484895736E+03  0.10100000352E+00 0.  1.
</event>
<event>
 5   0  0.1818778E-04  0.1844028E+04  0.7818609E-02  0.8683230E-01
       -1   -1    0    0    0  501  0.00000000000E+00  0.00000000000E+00  0.83842145984E+03  0.83842145986E+03  0.50400001928E-02 0.  1.
        1   -1    0    0  501    0  0.00000000000E+00  0.00000000000E+00 -0.10139409479E+04  0.10139409479E+04  0.50400001928E-02 0. -1.
    10030    2    1    2    0    0  0.00000000000E+00  0.00000000000E+00 -0.17551948807E+03  0.18523624078E+04  0.18440280364E+04 0.  0.
        3    1    3    3  502    0 -0.62176848478E+03 -0.46892346295E+03 -0.58357397506E+03  0.97316178374E+03  0.10100000352E+00 0. -1.
       -3    1    3    3    0  502  0.62176848478E+03  0.46892346295E+03  0.40805448699E+03  0.87920062404E+03  0.10100000352E+00 0.  1.
</event>
<event>
 5   0  0.3628581E-04  0.1789757E+04  0.7818609E-02  0.8711766E-01
       -2   -1    0    0    0  501  0.00000000000E+00  0.00000000000E+00  0.81080796093E+03  0.81080796093E+03  0.25500000920E-02 0.  1.
        2   -1    0    0  501    0  0.00000000000E+00  0.00000000000E+00 -0.98766596197E+03  0.98766596197E+03  0.25500000920E-02 0. -1.
    10030    2    1    2    0    0  0.00000000000E+00  0.00000000000E+00 -0.17685800104E+03  0.17984739229E+04  0.17897568826E+04 0.  0.
        2    1    3    3  502    0  0.29555284157E+03 -0.58072799681E+03 -0.70477674635E+03  0.95984725381E+03  0.25500000920E-02 0. -1.
       -2    1    3    3    0  502 -0.29555284157E+03  0.58072799681E+03  0.52791874532E+03  0.83862666909E+03  0.25500000920E-02 0.  1.
</event>
<event>
 5   0  0.3628581E-04  0.1704858E+04  0.7818609E-02  0.8758598E-01
       -2   -1    0    0    0  501  0.00000000000E+00  0.00000000000E+00  0.49692531801E+03  0.49692531801E+03  0.25500000920E-02 0.  1.
        2   -1    0    0  501    0  0.00000000000E+00  0.00000000000E+00 -0.14622626256E+04  0.14622626256E+04  0.25500000920E-02 0. -1.
    10030    2    1    2    0    0  0.00000000000E+00  0.00000000000E+00 -0.96533730756E+03  0.19591879436E+04  0.17048581410E+04 0.  0.
        2    1    3    3  502    0  0.54820912569E+03  0.34878478481E+03 -0.11167525617E+04  0.12920218093E+04  0.25500000920E-02 0. -1.
       -2    1    3    3    0  502 -0.54820912569E+03 -0.34878478481E+03  0.15141525410E+03  0.66716613432E+03  0.25500000920E-02 0.  1.
</event>
<event>
 5   0  0.1825253E-04  0.1915645E+04  0.7818609E-02  0.8647108E-01
        1   -1    0    0  501    0  0.00000000000E+00  0.00000000000E+00  0.24582846305E+04  0.24582846305E+04  0.50400001928E-02 0. -1.
       -1   -1    0    0    0  501  0.00000000000E+00  0.00000000000E+00 -0.37319682008E+03  0.37319682011E+03  0.50400001928E-02 0.  1.
    10030    2    1    2    0    0  0.00000000000E+00  0.00000000000E+00  0.20850878104E+04  0.28314814506E+04  0.19156450684E+04 0.  0.
        4    1    3    3  502    0 -0.51727257673E+03  0.71109005989E+03  0.48125698419E+03  0.10024120359E+04  0.12699999809E+01 0.  1.
       -4    1    3    3    0  502  0.51727257673E+03 -0.71109005989E+03  0.16038308262E+04  0.18290694147E+04  0.12699999809E+01 0. -1.
</event>
<event>
 5   0  0.1837313E-04  0.1763761E+04  0.7818609E-02  0.8725812E-01
        1   -1    0    0  501    0  0.00000000000E+00  0.00000000000E+00  0.20501786460E+04  0.20501786460E+04  0.50400001928E-02 0. -1.
       -1   -1    0    0    0  501  0.00000000000E+00  0.00000000000E+00 -0.37933922167E+03  0.37933922171E+03  0.50400001928E-02 0.  1.
    10030    2    1    2    0    0  0.00000000000E+00  0.00000000000E+00  0.16708394243E+04  0.24295178677E+04  0.17637609497E+04 0.  0.
        1    1    3    3  502    0 -0.34837387841E+02 -0.73990170139E+03  0.14946555106E+04  0.16681316695E+04  0.50400001928E-02 0. -1.
       -1    1    3    3    0  502  0.34837387841E+02  0.73990170139E+03  0.17618391366E+03  0.76138619817E+03  0.50400001928E-02 0.  1.
</event>
<event>
 5   0  0.1837313E-04  0.1800123E+04  0.7818609E-02  0.8706234E-01
       -1   -1    0    0    0  501  0.00000000000E+00  0.00000000000E+00  0.50238995695E+03  0.50238995697E+03  0.50400001928E-02 0.  1.
        1   -1    0    0  501    0  0.00000000000E+00  0.00000000000E+00 -0.16125144016E+04  0.16125144016E+04  0.50400001928E-02 0. -1.
    10030    2    1    2    0    0  0.00000000000E+00  0.00000000000E+00 -0.11101244447E+04  0.21149043586E+04  0.18001233745E+04 0.  0.
        1    1    3    3  502    0 -0.79041049516E+03 -0.36975207309E+03 -0.81418802753E+03  0.11934686802E+04  0.50400001928E-02 0. -1.
       -1    1    3    3    0  502  0.79041049516E+03  0.36975207309E+03 -0.29593641714E+03  0.92143567840E+03  0.50400001928E-02 0.  1.
</event>
<event>
 5   0  0.1330125E-04  0.1807442E+04  0.7818609E-02  0.8702352E-01
        3   -1    0    0  501    0  0.00000000000E+00  0.00000000000E+00  0.11368619232E+04  0.11368619277E+04  0.10100000352E+00 0.  1.
       -3   -1    0    0    0  501  0.00000000000E+00  0.00000000000E+00 -0.71839124827E+03  0.71839125537E+03  0.10100000352E+00 0. -1.
    10030    2    1    2    0    0  0.00000000000E+00  0.00000000000E+00  0.41847067490E+03  0.18552531830E+04  0.18074420232E+04 0.  0.
        3    1    3    3  502    0  0.84206687304E+03 -0.29889900136E+03  0.34807009029E+03  0.95894214092E+03  0.10100000352E+00 0. -1.
       -3    1    3    3    0  502 -0.84206687304E+03  0.29889900136E+03  0.70400584613E+02  0.89631104210E+03  0.10100000352E+00 0.  1.
</event>
<event>
 5   0  0.1883959E-04  0.1803348E+04  0.7818609E-02  0.8704521E-01
       -1   -1    0    0    0  501  0.00000000000E+00  0.00000000000E+00  0.80854998115E+03  0.80854998117E+03  0.50400001928E-02 0. -1.
        1   -1    0    0  501    0  0.00000000000E+00  0.00000000000E+00 -0.10055238226E+04  0.10055238226E+04  0.50400001928E-02 0.  1.
    10030    2    1    2    0    0  0.00000000000E+00  0.00000000000E+00 -0.19697384145E+03  0.18140738038E+04  0.18033482945E+04 0.  0.
        5    1    3    3  502    0 -0.66529904790E+03  0.58351818769E+03 -0.27236715755E+03  0.92591698170E+03  0.46999998093E+01 0.  1.
       -5    1    3    3    0  502  0.66529904790E+03 -0.58351818769E+03  0.75393316108E+02  0.88815682208E+03  0.46999998093E+01 0. -1.
</event>
<event>
 5   0  0.3582186E-04  0.1760688E+04  0.7818609E-02  0.8727489E-01
       -2   -1    0    0    0  501  0.00000000000E+00  0.00000000000E+00  0.49919807443E+03  0.49919807444E+03  0.25500000920E-02 0.  1.
        2   -1    0    0  501    0  0.00000000000E+00  0.00000000000E+00 -0.15525012837E+04  0.15525012837E+04  0.25500000920E-02 0. -1.
    10030    2    1    2    0    0  0.00000000000E+00  0.00000000000E+00 -0.10533032093E+04  0.20516993582E+04  0.17606881057E+04 0.  0.
        4    1    3    3  502    0  0.31919016598E+03  0.61403514370E+03  0.10741908124E+03  0.70032991631E+03  0.12699999809E+01 0.  1.
       -4    1    3    3    0  502 -0.31919016598E+03 -0.61403514370E+03 -0.11607222905E+04  0.13513694419E+04  0.12699999809E+01 0. -1.
</event>
<event>
 5   0  0.3531266E-04  0.1811131E+04  0.7818609E-02  0.8700402E-01
        2   -1    0    0  501    0  0.00000000000E+00  0.00000000000E+00  0.12328784671E+04  0.12328784671E+04  0.25500000920E-02 0. -1.
       -2   -1    0    0    0  501  0.00000000000E+00  0.00000000000E+00 -0.66515009631E+03  0.66515009632E+03  0.25500000920E-02 0.  1.
    10030    2    1    2    0    0  0.00000000000E+00  0.00000000000E+00  0.56772837077E+03  0.18980285634E+04  0.18111313935E+04 0.  0.
        3    1    3    3  502    0  0.58884029050E+03 -0.56128341012E+03  0.70079313948E+03  0.10737238885E+04  0.10100000352E+00 0. -1.
       -3    1    3    3    0  502 -0.58884029050E+03  0.56128341012E+03 -0.13306476871E+03  0.82430467490E+03  0.10100000352E+00 0.  1.
</event>
<event>
 5   0  0.3568870E-04  0.1792550E+04  0.7818609E-02  0.8710272E-01
        2   -1    0    0  501    0  0.00000000000E+00  0.00000000000E+00  0.11307199263E+04  0.11307199263E+04  0.25500000920E-02 0. -1.
       -2   -1    0    0    0  501  0.00000000000E+00  0.00000000000E+00 -0.71043985293E+03  0.71043985294E+03  0.25500000920E-02 0.  1.
    10030    2    1    2    0    0  0.00000000000E+00  0.00000000000E+00  0.42028007337E+03  0.18411597792E+04  0.17925495788E+04 0.  0.
        1    1    3    3  502    0 -0.82686705465E+03  0.21412634666E+03  0.48907258482E+03  0.98425159976E+03  0.50400001928E-02 0.  1.
       -1    1    3    3    0  502  0.82686705465E+03 -0.21412634666E+03 -0.68792511451E+02  0.85690817947E+03  0.50400001928E-02 0. -1.
</event>
<event>
 5   0  0.3531266E-04  0.1704042E+04  0.7818609E-02  0.8759062E-01
        2   -1    0    0  501    0  0.00000000000E+00  0.00000000000E+00  0.11812817373E+04  0.11812817373E+04  0.25500000920E-02 0. -1.
       -2   -1    0    0    0  501  0.00000000000E+00  0.00000000000E+00 -0.61453579541E+03  0.61453579542E+03  0.25500000920E-02 0.  1.
    10030    2    1    2    0    0  0.00000000000E+00  0.00000000000E+00  0.56674594186E+03  0.17958175327E+04  0.17040421497E+04 0.  0.
        3    1    3    3  502    0  0.24955660061E+03  0.57617314775E+03  0.89031244654E+03  0.10894541091E+04  0.10100000352E+00 0. -1.
       -3    1    3    3    0  502 -0.24955660061E+03 -0.57617314775E+03 -0.32356650468E+03  0.70636342363E+03  0.10100000352E+00 0.  1.
</event>
<event>
 5   0  0.3575091E-04  0.1850019E+04  0.7818609E-02  0.8680143E-01
        2   -1    0    0  501    0  0.00000000000E+00  0.00000000000E+00  0.12808593137E+04  0.12808593137E+04  0.25500000920E-02 0. -1.
       -2   -1    0    0    0  501  0.00000000000E+00  0.00000000000E+00 -0.66802252987E+03  0.66802252987E+03  0.25500000920E-02 0.  1.
    10030    2    1    2    0    0  0.00000000000E+00  0.00000000000E+00  0.61283678379E+03  0.19488818435E+04  0.18500193287E+04 0.  0.
        5    1    3    3  502    0  0.71896735908E+03 -0.55710629030E+03  0.12907955461E+03  0.91867573362E+03  0.46999998093E+01 0. -1.
       -5    1    3    3    0  502 -0.71896735908E+03  0.55710629030E+03  0.48375722918E+03  0.10302061099E+04  0.46999998093E+01 0.  1.
</event>
<event>
 5   0  0.3575091E-04  0.1799765E+04  0.7818609E-02  0.8706424E-01
        2   -1    0    0  501    0  0.00000000000E+00  0.00000000000E+00  0.10137376894E+04  0.10137376894E+04  0.25500000920E-02 0.  1.
       -2   -1    0    0    0  501  0.00000000000E+00  0.00000000000E+00 -0.79881470385E+03  0.79881470386E+03  0.25500000920E-02 0. -1.
    10030    2    1    2    0    0  0.00000000000E+00  0.00000000000E+00  0.21492298552E+03  0.18125523932E+04  0.17997650648E+04 0.  0.
        5    1    3    3  502    0  0.56558749617E+03  0.38679608216E+03  0.69492929093E+03  0.97593505644E+03  0.46999998093E+01 0.  1.
       -5    1    3    3    0  502 -0.56558749617E+03 -0.38679608216E+03 -0.48000630541E+03  0.83661733680E+03  0.46999998093E+01 0. -1.
</event>
<event>
 5   0  0.1837313E-04  0.1817903E+04  0.7818609E-02  0.8696837E-01
        1   -1    0    0  501    0  0.00000000000E+00  0.00000000000E+00  0.11754304255E+04  0.11754304256E+04  0.50400001928E-02 0. -1.
       -1   -1    0    0    0  501  0.00000000000E+00  0.00000000000E+00 -0.70288517249E+03  0.70288517251E+03  0.50400001928E-02 0.  1.
    10030    2    1    2    0    0  0.00000000000E+00  0.00000000000E+00  0.47254525305E+03  0.18783155981E+04  0.18179027669E+04 0.  0.
        1    1    3    3  502    0  0.19580841764E+03 -0.34872639398E+03  0.10796341475E+04  0.11513300686E+04  0.50400001928E-02 0. -1.
       -1    1    3    3    0  502 -0.19580841764E+03  0.34872639398E+03 -0.60708889447E+03  0.72698552949E+03  0.50400001928E-02 0.  1.
</event>
<event>
 5   0  0.3568870E-04  0.1710640E+04  0.7818609E-02  0.8755319E-01
       -2   -1    0    0    0  501  0.00000000000E+00  0.00000000000E+00  0.68712688301E+03  0.68712688301E+03  0.25500000920E-02 0.  1.
        2   -1    0    0  501    0  0.00000000000E+00  0.00000000000E+00 -0.10646828654E+04  0.10646828654E+04  0.25500000920E-02 0. -1.
    10030    2    1    2    0    0  0.00000000000E+00  0.00000000000E+00 -0.37755598236E+03  0.17518097484E+04  0.17106399021E+04 0.  0.
        1    1    3    3  502    0 -0.75928259618E+03  0.19647191741E+03  0.16069892329E+03  0.80058442351E+03  0.50400001928E-02 0.  1.
       -1    1    3    3    0  502  0.75928259618E+03 -0.19647191741E+03 -0.53825490565E+03  0.95122532487E+03  0.50400001928E-02 0. -1.
</event>
<event>
 5   0  0.1818778E-04  0.1799058E+04  0.7818609E-02  0.8706800E-01
       -1   -1    0    0    0  501  0.00000000000E+00  0.00000000000E+00  0.11183790218E+04  0.11183790219E+04  0.50400001928E-02 0. -1.
        1   -1    0    0  501    0  0.00000000000E+00  0.00000000000E+00 -0.72350496347E+03  0.72350496349E+03  0.50400001928E-02 0.  1.
    10030    2    1    2    0    0  0.00000000000E+00  0.00000000000E+00  0.39487405838E+03  0.18418839853E+04  0.17990583908E+04 0.  0.
        3    1    3    3  502    0 -0.19753158388E+03 -0.19819249242E+03  0.10726873108E+04  0.11085833607E+04  0.10100000352E+00 0. -1.
       -3    1    3    3    0  502  0.19753158388E+03  0.19819249242E+03 -0.67781325245E+03  0.73330062462E+03  0.10100000352E+00 0.  1.
</event>
<event>
 5   0  0.1835421E-04  0.1524233E+04  0.7818609E-02  0.8868496E-01
        1   -1    0    0  501    0  0.00000000000E+00  0.00000000000E+00  0.48265079017E+03  0.48265079020E+03  0.50400001928E-02 0.  1.
       -1   -1    0    0    0  501  0.00000000000E+00  0.00000000000E+00 -0.12033989257E+04  0.12033989257E+04  0.50400001928E-02 0. -1.
    10030    2    1    2    0    0  0.00000000000E+00  0.00000000000E+00 -0.72074813555E+03  0.16860497159E+04  0.15242328463E+04 0.  0.
        2    1    3    3  502    0  0.36814450906E+03  0.42046734458E+03 -0.93355246027E+03  0.10880456624E+04  0.25500000920E-02 0. -1.
       -2    1    3    3    0  502 -0.36814450906E+03 -0.42046734458E+03  0.21280432471E+03  0.59800405353E+03  0.25500000920E-02 0.  1.
</event>
<event>
 5   0  0.1825253E-04  0.1835370E+04  0.7818609E-02  0.8687713E-01
        1   -1    0    0  501    0  0.00000000000E+00  0.00000000000E+00  0.61346514284E+03  0.61346514286E+03  0.50400001928E-02 0.  1.
       -1   -1    0    0    0  501  0.00000000000E+00  0.00000000000E+00 -0.13727682718E+04  0.13727682718E+04  0.50400001928E-02 0. -1.
    10030    2    1    2    0    0  0.00000000000E+00  0.00000000000E+00 -0.75930312899E+03  0.19862334147E+04  0.18353697001E+04 0.  0.
        4    1    3    3  502    0  0.46359870738E+02  0.84304979686E+03 -0.76873398881E+03  0.11418562764E+04  0.12699999809E+01 0. -1.
       -4    1    3    3    0  502 -0.46359870738E+02 -0.84304979686E+03  0.94308598121E+01  0.84437713826E+03  0.12699999809E+01 0.  1.
</event>
<event>
 5   0  0.3582186E-04  0.1661101E+04  0.7818609E-02  0.8783866E-01
       -2   -1    0    0    0  501  0.00000000000E+00  0.00000000000E+00  0.36411978910E+03  0.36411978911E+03  0.25500000920E-02 0.  1.
        2   -1    0    0  501    0  0.00000000000E+00  0.00000000000E+00 -0.18944693275E+04  0.18944693275E+04  0.25500000920E-02 0. -1.
    10030    2    1    2    0    0  0.00000000000E+00  0.00000000000E+00 -0.15303495384E+04  0.22585891166E+04  0.16611005653E+04 0.  0.
        4    1    3    3  502    0 -0.45939102539E+03  0.27466180341E+03 -0.16286962597E+04  0.17143897864E+04  0.12699999809E+01 0. -1.
       -4    1    3    3    0  502  0.45939102539E+03 -0.27466180341E+03  0.98346721332E+02  0.54419933017E+03  0.12699999809E+01 0.  1.
</event>
<event>
 5   0  0.1883959E-04  0.1803377E+04  0.7818609E-02  0.8704506E-01
        1   -1    0    0  501    0  0.00000000000E+00  0.00000000000E+00  0.83348460098E+03  0.83348460099E+03  0.50400001928E-02 0. -1.
       -1   -1    0    0    0  501  0.00000000000E+00  0.00000000000E+00 -0.97547354131E+03  0.97547354132E+03  0.50400001928E-02 0.  1.
    10030    2    1    2    0    0  0.00000000000E+00  0.00000000000E+00 -0.14198894033E+03  0.18089581423E+04  0.18033770270E+04 0.  0.
        5    1    3    3  502    0 -0.64646497953E+03  0.50906839808E+03  0.29886398782E+03  0.87544810063E+03  0.46999998093E+01 0. -1.
       -5    1    3    3    0  502  0.64646497953E+03 -0.50906839808E+03 -0.44085292815E+03  0.93351004169E+03  0.46999998093E+01 0.  1.
</event>
<event>
 5   0  0.1818778E-04  0.1804061E+04  0.7818609E-02  0.8704143E-01
        1   -1    0    0  501    0  0.00000000000E+00  0.00000000000E+00  0.10378578269E+04  0.10378578269E+04  0.50400001928E-02 0.  1.
       -1   -1    0    0    0  501  0.00000000000E+00  0.00000000000E+00 -0.78397890189E+03  0.78397890190E+03  0.50400001928E-02 0. -1.
    10030    2    1    2    0    0  0.00000000000E+00  0.00000000000E+00  0.25387892501E+03  0.18218367288E+04  0.18040605749E+04 0.  0.
        3    1    3    3  502    0  0.69114358976E+02  0.57207443230E+03 -0.57388183816E+03  0.81325661699E+03  0.10100000352E+00 0. -1.
       -3    1    3    3    0  502 -0.69114358976E+02 -0.57207443230E+03  0.82776076317E+03  0.10085801118E+04  0.10100000352E+00 0.  1.
</event>
<event>
 5   0  0.1883959E-04  0.1789057E+04  0.7818609E-02  0.8712141E-01
       -1   -1    0    0    0  501  0.00000000000E+00  0.00000000000E+00  0.15903974979E+04  0.15903974979E+04  0.50400001928E-02 0. -1.
        1   -1    0    0  501    0  0.00000000000E+00  0.00000000000E+00 -0.50313262584E+03  0.50313262587E+03  0.50400001928E-02 0.  1.
    10030    2    1    2    0    0  0.00000000000E+00  0.00000000000E+00  0.10872648720E+04  0.20935301237E+04  0.17890565886E+04 0.  0.
        5    1    3    3  502    0 -0.53368827288E+03 -0.84852151896E+02 -0.29051918637E+03  0.61355240031E+03  0.46999998093E+01 0.  1.
       -5    1    3    3    0  502  0.53368827288E+03  0.84852151896E+02  0.13777840584E+04  0.14799777234E+04  0.46999998093E+01 0. -1.
</event>
<event>
 5   0  0.3575091E-04  0.1772163E+04  0.7818609E-02  0.8721244E-01
       -2   -1    0    0    0  501  0.00000000000E+00  0.00000000000E+00  0.38017877140E+03  0.38017877141E+03  0.25500000920E-02 0.  1.
        2   -1    0    0  501    0  0.00000000000E+00  0.00000000000E+00 -0.20651879844E+04  0.20651879844E+04  0.25500000920E-02 0. -1.
    10030    2    1    2    0    0  0.00000000000E+00  0.00000000000E+00 -0.16850092130E+04  0.24453667558E+04  0.17721632325E+04 0.  0.
        5    1    3    3  502    0 -0.63764491575E+00  0.79419349049E+03 -0.30034328243E+03  0.84910063256E+03  0.46999998093E+01 0.  1.
       -5    1    3    3    0  502  0.63764491575E+00 -0.79419349049E+03 -0.13846659306E+04  0.15962661233E+04  0.46999998093E+01 0. -1.
</event>
<event>
 5   0  0.3568870E-04  0.1776703E+04  0.7818609E-02  0.8718788E-01
       -2   -1    0    0    0  501  0.00000000000E+00  0.00000000000E+00  0.91129861166E+03  0.91129861166E+03  0.25500000920E-02 0.  1.
        2   -1    0    0  501    0  0.00000000000E+00  0.00000000000E+00 -0.86598188162E+03  0.86598188162E+03  0.25500000920E-02 0. -1.
    10030    2    1    2    0    0  0.00000000000E+00  0.00000000000E+00  0.45316730036E+02  0.17772804933E+04  0.17767026611E+04 0.  0.
        1    1    3    3  502    0  0.27599653567E+03 -0.74066406285E+03 -0.38294945524E+03  0.87829814242E+03  0.50400001928E-02 0. -1.
       -1    1    3    3    0  502 -0.27599653567E+03  0.74066406285E+03  0.42826618527E+03  0.89898235086E+03  0.50400001928E-02 0.  1.
</event>
<event>
 5   0  0.1835421E-04  0.1798542E+04  0.7818609E-02  0.8707075E-01
        1   -1    0    0  501    0  0.00000000000E+00  0.00000000000E+00  0.93261193626E+03  0.93261193628E+03  0.50400001928E-02 0.  1.
       -1   -1    0    0    0  501  0.00000000000E+00  0.00000000000E+00 -0.86712222204E+03  0.86712222205E+03  0.50400001928E-02 0. -1.
    10030    2    1    2    0    0  0.00000000000E+00  0.00000000000E+00  0.65489714229E+02  0.17997341583E+04  0.17985422258E+04 0.  0.
        2    1    3    3  502    0 -0.73696948894E+03 -0.51053138281E+03  0.10294984484E+03  0.90242173679E+03  0.25500000920E-02 0.  1.
       -2    1    3    3    0  502  0.73696948894E+03  0.51053138281E+03 -0.37460130609E+02  0.89731242154E+03  0.25500000920E-02 0. -1.
</event>
<event>
 5   0  0.3575091E-04  0.1816850E+04  0.7818609E-02  0.8697390E-01
       -2   -1    0    0    0  501  0.00000000000E+00  0.00000000000E+00  0.11393849420E+04  0.11393849420E+04  0.25500000920E-02 0.  1.
        2   -1    0    0  501    0  0.00000000000E+00  0.00000000000E+00 -0.72428172463E+03  0.72428172463E+03  0.25500000920E-02 0. -1.
    10030    2    1    2    0    0  0.00000000000E+00  0.00000000000E+00  0.41510321734E+03  0.18636666666E+04  0.18168496809E+04 0.  0.
        5    1    3    3  502    0  0.17889533254E+03  0.29326732920E+03  0.10701759274E+04  0.11239696936E+04  0.46999998093E+01 0.  1.
       -5    1    3    3    0  502 -0.17889533254E+03 -0.29326732920E+03 -0.65507271011E+03  0.73969697303E+03  0.46999998093E+01 0. -1.
</event>
<event>
 5   0  0.3568870E-04  0.1808524E+04  0.7818609E-02  0.8701779E-01
        2   -1    0    0  501    0  0.00000000000E+00  0.00000000000E+00  0.75291418421E+03  0.75291418421E+03  0.25500000920E-02 0. -1.
       -2   -1    0    0    0  501  0.00000000000E+00  0.00000000000E+00 -0.10860335126E+04  0.10860335126E+04  0.25500000920E-02 0.  1.
    10030    2    1    2    0    0  0.00000000000E+00  0.00000000000E+00 -0.33311932836E+03  0.18389476968E+04  0.18085243002E+04 0.  0.
        1    1    3    3  502    0  0.68878697647E+03 -0.14470256193E+03  0.41072650472E+03  0.81490035715E+03  0.50400001928E-02 0. -1.
       -1    1    3    3    0  502 -0.68878697647E+03  0.14470256193E+03 -0.74384583307E+03  0.10240473396E+04  0.50400001928E-02 0.  1.
</event>
<event>
 5   0  0.1330125E-04  0.1715224E+04  0.7818609E-02  0.8752729E-01
       -3   -1    0    0    0  501  0.00000000000E+00  0.00000000000E+00  0.14226282506E+04  0.14226282542E+04  0.10100000352E+00 0. -1.
        3   -1    0    0  501    0  0.00000000000E+00  0.00000000000E+00 -0.51699940824E+03  0.51699941811E+03  0.10100000352E+00 0.  1.
    10030    2    1    2    0    0  0.00000000000E+00  0.00000000000E+00  0.90562884238E+03  0.19396276723E+04  0.17152235735E+04 0.  0.
        1    1    3    3  502    0 -0.17220296363E+03 -0.76619243377E+03  0.63057752970E+02  0.78783309558E+03  0.50400001928E-02 0.  1.
       -1    1    3    3    0  502  0.17220296363E+03  0.76619243377E+03  0.84257108941E+03  0.11517945767E+04  0.50400001928E-02 0. -1.
</event>
<event>
 5   0  0.3568870E-04  0.1787130E+04  0.7818609E-02  0.8713174E-01
        2   -1    0    0  501    0  0.00000000000E+00  0.00000000000E+00  0.15118376953E+04  0.15118376953E+04  0.25500000920E-02 0. -1.
       -2   -1    0    0    0  501  0.00000000000E+00  0.00000000000E+00 -0.52813783121E+03  0.52813783121E+03  0.25500000920E-02 0.  1.
    10030    2    1    2    0    0  0.00000000000E+00  0.00000000000E+00  0.98369986405E+03  0.20399755265E+04  0.17871303047E+04 0.  0.
        1    1    3    3  502    0 -0.66716056778E+03  0.45411862604E+03  0.54003402928E+02  0.80885308757E+03  0.50400001928E-02 0.  1.
       -1    1    3    3    0  502  0.66716056778E+03 -0.45411862604E+03  0.92969646112E+03  0.12311224389E+04  0.50400001928E-02 0. -1.
</event>
<event>
 5   0  0.3531266E-04  0.1789599E+04  0.7818609E-02  0.8711850E-01
       -2   -1    0    0    0  501  0.00000000000E+00  0.00000000000E+00  0.72636129545E+03  0.72636129545E+03  0.25500000920E-02 0.  1.
        2   -1    0    0  501    0  0.00000000000E+00  0.00000000000E+00 -0.11022971095E+04  0.11022971095E+04  0.25500000920E-02 0. -1.
    10030    2    1    2    0    0  0.00000000000E+00  0.00000000000E+00 -0.37593581405E+03  0.18286584050E+04  0.17895987890E+04 0.  0.
        3    1    3    3  502    0  0.26624911717E+02  0.55673078916E+03  0.52731598530E+03  0.76728105417E+03  0.10100000352E+00 0.  1.
       -3    1    3    3    0  502 -0.26624911717E+02 -0.55673078916E+03 -0.90325179935E+03  0.10613773508E+04  0.10100000352E+00 0. -1.
</event>
<event>
 5   0  0.1825253E-04  0.1780686E+04  0.7818609E-02  0.8716638E-01
        1   -1    0    0  501    0  0.00000000000E+00  0.00000000000E+00  0.19888850643E+04  0.19888850643E+04  0.50400001928E-02 0.  1.
       -1   -1    0    0    0  501  0.00000000000E+00  0.00000000000E+00 -0.39857032048E+03  0.39857032051E+03  0.50400001928E-02 0. -1.
    10030    2    1    2    0    0  0.00000000000E+00  0.00000000000E+00  0.15903147438E+04  0.23874553848E+04  0.17806858875E+04 0.  0.
        4    1    3    3  502    0  0.66494810278E+03 -0.50767287983E+03  0.12036380946E+04  0.14658219564E+04  0.12699999809E+01 0. -1.
       -4    1    3    3    0  502 -0.66494810278E+03  0.50767287983E+03  0.38667664918E+03  0.92163342834E+03  0.12699999809E+01 0.  1.
</event>
<event>
 5   0  0.1825253E-04  0.1768768E+04  0.7818609E-02  0.8723087E-01
        1   -1    0    0  501    0  0.00000000000E+00  0.00000000000E+00  0.62854927248E+03  0.62854927250E+03  0.50400001928E-02 0.  1.
       -1   -1    0    0    0  501  0.00000000000E+00  0.00000000000E+00 -0.12443502600E+04  0.12443502600E+04  0.50400001928E-02 0. -1.
    10030    2    1    2    0    0  0.00000000000E+00  0.00000000000E+00 -0.61580098751E+03  0.18728995325E+04  0.17687684423E+04 0.  0.
        4    1    3    3  502    0  0.11228575447E+03  0.61449177175E+03 -0.97079637609E+03  0.11544069668E+04  0.12699999809E+01 0. -1.
       -4    1    3    3    0  502 -0.11228575447E+03 -0.61449177175E+03  0.35499538858E+03  0.71849256573E+03  0.12699999809E+01 0.  1.
</event>
<event>
 5   0  0.1837313E-04  0.1732035E+04  0.7818609E-02  0.8743301E-01
        1   -1    0    0  501    0  0.00000000000E+00  0.00000000000E+00  0.14728960008E+04  0.14728960009E+04  0.50400001928E-02 0.  1.
       -1   -1    0    0    0  501  0.00000000000E+00  0.00000000000E+00 -0.50919177743E+03  0.50919177746E+03  0.50400001928E-02 0. -1.
    10030    2    1    2    0    0  0.00000000000E+00  0.00000000000E+00  0.96370422341E+03  0.19820877783E+04  0.17320352568E+04 0.  0.
        1    1    3    3  502    0 -0.17473254559E+03 -0.54746727467E+03  0.12232537964E+04  0.13515183054E+04  0.50400001928E-02 0.  1.
       -1    1    3    3    0  502  0.17473254559E+03  0.54746727467E+03 -0.25954957300E+03  0.63056947293E+03  0.50400001928E-02 0. -1.
</event>
<event>
 5   0  0.3575091E-04  0.1798164E+04  0.7818609E-02  0.8707276E-01
       -2   -1    0    0    0  501  0.00000000000E+00  0.00000000000E+00  0.11144639222E+04  0.11144639222E+04  0.25500000920E-02 0. -1.
        2   -1    0    0  501    0  0.00000000000E+00  0.00000000000E+00 -0.72532493058E+03  0.72532493059E+03  0.25500000920E-02 0.  1.
    10030    2    1    2    0    0  0.00000000000E+00  0.00000000000E+00  0.38913899160E+03  0.18397888528E+04  0.17981640270E+04 0.  0.
        5    1    3    3  502    0  0.62973237515E+02 -0.69478056966E+03 -0.38569257418E+03  0.79716153971E+03  0.46999998093E+01 0.  1.
       -5    1    3    3    0  502 -0.62973237515E+02  0.69478056966E+03  0.77483156578E+03  0.10426273131E+04  0.46999998093E+01 0. -1.
</event>
<event>
 5   0  0.1837313E-04  0.1811112E+04  0.7818609E-02  0.8700412E-01
       -1   -1    0    0    0  501  0.00000000000E+00  0.00000000000E+00  0.98161059480E+03  0.98161059481E+03  0.50400001928E-02 0. -1.
        1   -1    0    0  501    0  0.00000000000E+00  0.00000000000E+00 -0.83539446063E+03  0.83539446065E+03  0.50400001928E-02 0.  1.
    10030    2    1    2    0    0  0.00000000000E+00  0.00000000000E+00  0.14621613417E+03  0.18170050555E+04  0.18111124244E+04 0.  0.
        1    1    3    3  502    0  0.63761488612E+03  0.49886811029E+03 -0.33393346686E+03  0.87574750630E+03  0.50400001928E-02 0.  1.
       -1    1    3    3    0  502 -0.63761488612E+03 -0.49886811029E+03  0.48014960103E+03  0.94125754917E+03  0.50400001928E-02 0. -1.
</event>
<event>
 5   0  0.1330125E-04  0.1794903E+04  0.7818609E-02  0.8709015E-01
        3   -1    0    0  501    0  0.00000000000E+00  0.00000000000E+00  0.62768569443E+03  0.62768570255E+03  0.10100000352E+00 0. -1.
       -3   -1    0    0    0  501  0.00000000000E+00  0.00000000000E+00 -0.12831569562E+04  0.12831569602E+04  0.10100000352E+00 0.  1.
    10030    2    1    2    0    0  0.00000000000E+00  0.00000000000E+00 -0.65547126179E+03  0.19108426627E+04  0.17949030912E+04 0.  0.
        3    1    3    3  502    0 -0.73743630666E+03 -0.21987399616E+03 -0.81936866365E+03  0.11240648993E+04  0.10100000352E+00 0.  1.
       -3    1    3    3    0  502  0.73743630666E+03  0.21987399616E+03  0.16389740187E+03  0.78677776348E+03  0.10100000352E+00 0. -1.
</event>
<event>
 5   0  0.3575091E-04  0.1791271E+04  0.7818609E-02  0.8710955E-01
        2   -1    0    0  501    0  0.00000000000E+00  0.00000000000E+00  0.18055512341E+04  0.18055512341E+04  0.25500000920E-02 0.  1.
       -2   -1    0    0    0  501  0.00000000000E+00  0.00000000000E+00 -0.44427577727E+03  0.44427577728E+03  0.25500000920E-02 0. -1.
    10030    2    1    2    0    0  0.00000000000E+00  0.00000000000E+00  0.13612754568E+04  0.22498270114E+04  0.17912706975E+04 0.  0.
        5    1    3    3  502    0 -0.67977979871E+03  0.27202347016E+03  0.13284721550E+04  0.15168908002E+04  0.46999998093E+01 0.  1.
       -5    1    3    3    0  502  0.67977979871E+03 -0.27202347016E+03  0.32803301801E+02  0.73293621118E+03  0.46999998093E+01 0. -1.
</event>
<event>
 5   0  0.3568870E-04  0.1815933E+04  0.7818609E-02  0.8697872E-01
       -2   -1    0    0    0  501  0.00000000000E+00  0.00000000000E+00  0.52251180020E+03  0.52251180021E+03  0.25500000920E-02 0.  1.
        2   -1    0    0  501    0  0.00000000000E+00  0.00000000000E+00 -0.15777686819E+04  0.15777686819E+04  0.25500000920E-02 0. -1.
    10030    2    1    2    0    0  0.00000000000E+00  0.00000000000E+00 -0.10552568817E+04  0.21002804821E+04  0.18159325475E+04 0.  0.
        1    1    3    3  502    0 -0.27268154931E+03  0.86262626888E+03 -0.61664377841E+03  0.10948647663E+04  0.50400001928E-02 0. -1.
       -1    1    3    3    0  502  0.27268154931E+03 -0.86262626888E+03 -0.43861310327E+03  0.10054157158E+04  0.50400001928E-02 0.  1.
</event>
<event>
 5   0  0.3582186E-04  0.1814525E+04  0.7818609E-02  0.8698613E-01
        2   -1    0    0  501    0  0.00000000000E+00  0.00000000000E+00  0.14707421808E+04  0.14707421808E+04  0.25500000920E-02 0.  1.
       -2   -1    0    0    0  501  0.00000000000E+00  0.00000000000E+00 -0.55966633202E+03  0.55966633203E+03  0.25500000920E-02 0. -1.
    10030    2    1    2    0    0  0.00000000000E+00  0.00000000000E+00  0.91107584879E+03  0.20304085128E+04  0.18145246008E+04 0.  0.
        4    1    3    3  502    0 -0.69772185180E+03 -0.57987008471E+03  0.44700349494E+03  0.10113747253E+04  0.12699999809E+01 0. -1.
       -4    1    3    3    0  502  0.69772185180E+03  0.57987008471E+03  0.46407235385E+03  0.10190337875E+04  0.12699999809E+01 0.  1.
</event>
<event>
 5   0  0.3575091E-04  0.1798887E+04  0.7818609E-02  0.8706892E-01
       -2   -1    0    0    0  501  0.00000000000E+00  0.00000000000E+00  0.62975472952E+03  0.62975472952E+03  0.25500000920E-02 0.  1.
        2   -1    0    0  501    0  0.00000000000E+00  0.00000000000E+00 -0.12846243576E+04  0.12846243576E+04  0.25500000920E-02 0. -1.
    10030    2    1    2    0    0  0.00000000000E+00  0.00000000000E+00 -0.65486962811E+03  0.19143790872E+04  0.17988866166E+04 0.  0.
        5    1    3    3  502    0  0.53656761735E+02  0.34082595021E+03  0.55651615386E+03  0.65480813672E+03  0.46999998093E+01 0.  1.
       -5    1    3    3    0  502 -0.53656761735E+02 -0.34082595021E+03 -0.12113857820E+04  0.12595709504E+04  0.46999998093E+01 0. -1.
</event>
<event>
 5   0  0.1825253E-04  0.1812821E+04  0.7818609E-02  0.8699511E-01
       -1   -1    0    0    0  501  0.00000000000E+00  0.00000000000E+00  0.95717565361E+03  0.95717565362E+03  0.50400001928E-02 0.  1.
        1   -1    0    0  501    0  0.00000000000E+00  0.00000000000E+00 -0.85833729885E+03  0.85833729887E+03  0.50400001928E-02 0. -1.
    10030    2    1    2    0    0  0.00000000000E+00  0.00000000000E+00  0.98838354757E+02  0.18155129525E+04  0.18128205262E+04 0.  0.
        4    1    3    3  502    0  0.17327203153E+03  0.70063014358E+03 -0.49973102553E+03  0.87786018578E+03  0.12699999809E+01 0. -1.
       -4    1    3    3    0  502 -0.17327203153E+03 -0.70063014358E+03  0.59856938029E+03  0.93765276671E+03  0.12699999809E+01 0.  1.
</event>
<event>
 5   0  0.3568870E-04  0.1827874E+04  0.7818609E-02  0.8691615E-01
       -2   -1    0    0    0  501  0.00000000000E+00  0.00000000000E+00  0.10498143810E+04  0.10498143810E+04  0.25500000920E-02 0.  1.
        2   -1    0    0  501    0  0.00000000000E+00  0.00000000000E+00 -0.79564620213E+03  0.79564620213E+03  0.25500000920E-02 0. -1.
    10030    2    1    2    0    0  0.00000000000E+00  0.00000000000E+00  0.25416817885E+03  0.18454605831E+04  0.18278739838E+04 0.  0.
        1    1    3    3  502    0 -0.60799380777E+03  0.29832608512E+03 -0.49251905676E+03  0.83739473646E+03  0.50400001928E-02 0. -1.
       -1    1    3    3    0  502  0.60799380777E+03 -0.29832608512E+03  0.74668723561E+03  0.10080658467E+04  0.50400001928E-02 0.  1.
</event>
<event>
 5   0  0.1825253E-04  0.1798373E+04  0.7818609E-02  0.8707165E-01
        1   -1    0    0  501    0  0.00000000000E+00  0.00000000000E+00  0.92054065976E+03  0.92054065977E+03  0.50400001928E-02 0.  1.
       -1   -1    0    0    0  501  0.00000000000E+00  0.00000000000E+00 -0.87832755943E+03  0.87832755945E+03  0.50400001928E-02 0. -1.
    10030    2    1    2    0    0  0.00000000000E+00  0.00000000000E+00  0.42213100327E+02  0.17988682192E+04  0.17983728546E+04 0.  0.
        4    1    3    3  502    0  0.39014747223E+02 -0.51317131350E+03  0.75864788468E+03  0.91674160663E+03  0.12699999809E+01 0.  1.
       -4    1    3    3    0  502 -0.39014747223E+02  0.51317131350E+03 -0.71643478435E+03  0.88212661259E+03  0.12699999809E+01 0. -1.
</event>
<event>
 5   0  0.1835421E-04  0.1833239E+04  0.7818609E-02  0.8688820E-01
       -1   -1    0    0    0  501  0.00000000000E+00  0.00000000000E+00  0.13494844610E+04  0.13494844610E+04  0.50400001928E-02 0. -1.
        1   -1    0    0  501    0  0.00000000000E+00  0.00000000000E+00 -0.62260194992E+03  0.62260194994E+03  0.50400001928E-02 0.  1.
    10030    2    1    2    0    0  0.00000000000E+00  0.00000000000E+00  0.72688251110E+03  0.19720864110E+04  0.18332393808E+04 0.  0.
        2    1    3    3  502    0 -0.87500928376E+03  0.92029394452E+02  0.63997304769E+03  0.10879688221E+04  0.25500000920E-02 0. -1.
       -2    1    3    3    0  502  0.87500928376E+03 -0.92029394452E+02  0.86909463408E+02  0.88411758887E+03  0.25500000920E-02 0.  1.
</event>
<event>
 5   0  0.1330125E-04  0.1779383E+04  0.7818609E-02  0.8717341E-01
       -4   -1    0    0    0  501  0.00000000000E+00  0.00000000000E+00  0.81082966363E+03  0.81083065822E+03  0.12699999809E+01 0. -1.
        4   -1    0    0  501    0  0.00000000000E+00  0.00000000000E+00 -0.97622201760E+03  0.97622284369E+03  0.12699999809E+01 0.  1.
    10030    2    1    2    0    0  0.00000000000E+00  0.00000000000E+00 -0.16539235397E+03  0.17870535019E+04  0.17793834854E+04 0.  0.
        4    1    3    3  502    0 -0.57707020842E+03 -0.57843294367E+03 -0.43628634377E+03  0.92625163019E+03  0.12699999809E+01 0. -1.
       -4    1    3    3    0  502  0.57707020842E+03  0.57843294367E+03  0.27089398979E+03  0.86080187173E+03  0.12699999809E+01 0.  1.
</event>
<event>
 5   0  0.1837313E-04  0.1597867E+04  0.7818609E-02  0.8821859E-01
        1   -1    0    0  501    0  0.00000000000E+00  0.00000000000E+00  0.81951985692E+03  0.81951985694E+03  0.50400001928E-02 0. -1.
       -1   -1    0    0    0  501  0.00000000000E+00  0.00000000000E+00 -0.77886429278E+03  0.77886429280E+03  0.50400001928E-02 0.  1.
    10030    2    1    2    0    0  0.00000000000E+00  0.00000000000E+00  0.40655564141E+02  0.15983841497E+04  0.15978670205E+04 0.  0.
        1    1    3    3  502    0  0.14322742078E+03  0.71820451416E+03  0.33974748128E+03  0.80731664747E+03  0.50400001928E-02 0. -1.
       -1    1    3    3    0  502 -0.14322742078E+03 -0.71820451416E+03 -0.29909191714E+03  0.79106750227E+03  0.50400001928E-02 0.  1.
</event>
<event>
 5   0  0.1825253E-04  0.1836334E+04  0.7818609E-02  0.8687213E-01
        1   -1    0    0  501    0  0.00000000000E+00  0.00000000000E+00  0.76977839081E+03  0.76977839083E+03  0.50400001928E-02 0. -1.
       -1   -1    0    0    0  501  0.00000000000E+00  0.00000000000E+00 -0.10951600266E+04  0.10951600266E+04  0.50400001928E-02 0.  1.
    10030    2    1    2    0    0  0.00000000000E+00  0.00000000000E+00 -0.32538163583E+03  0.18649384175E+04  0.18363338727E+04 0.  0.
        4    1    3    3  502    0 -0.88273658035E+03  0.22745967076E+03 -0.27425248362E+03  0.95193372131E+03  0.12699999809E+01 0.  1.
       -4    1    3    3    0  502  0.88273658035E+03 -0.22745967076E+03 -0.51129152213E+02  0.91300469616E+03  0.12699999809E+01 0. -1.
</event>
<event>
 5   0  0.3582186E-04  0.1796932E+04  0.7818609E-02  0.8707933E-01
       -2   -1    0    0    0  501  0.00000000000E+00  0.00000000000E+00  0.84004609596E+03  0.84004609597E+03  0.25500000920E-02 0.  1.
        2   -1    0    0  501    0  0.00000000000E+00  0.00000000000E+00 -0.96094834325E+03  0.96094834325E+03  0.25500000920E-02 0. -1.
    10030    2    1    2    0    0  0.00000000000E+00  0.00000000000E+00 -0.12090224728E+03  0.18009944392E+04  0.17969317229E+04 0.  0.
        4    1    3    3  502    0  0.45641243542E+03 -0.39487527892E+03 -0.72753877514E+03  0.94527936576E+03  0.12699999809E+01 0. -1.
       -4    1    3    3    0  502 -0.45641243542E+03  0.39487527892E+03  0.60663652785E+03  0.85571507345E+03  0.12699999809E+01 0.  1.
</event>
<event>
 5   0  0.3582186E-04  0.1794502E+04  0.7818609E-02  0.8709229E-01
        2   -1    0    0  501    0  0.00000000000E+00  0.00000000000E+00  0.91757252873E+03  0.91757252874E+03  0.25500000920E-02 0. -1.
       -2   -1    0    0    0  501  0.00000000000E+00  0.00000000000E+00 -0.87737927159E+03  0.87737927159E+03  0.25500000920E-02 0.  1.
    10030    2    1    2    0    0  0.00000000000E+00  0.00000000000E+00  0.40193257143E+02  0.17949518003E+04  0.17945017324E+04 0.  0.
        4    1    3    3  502    0 -0.85572000995E+03 -0.25386366878E+03  0.11151980507E+03  0.89952308341E+03  0.12699999809E+01 0. -1.
       -4    1    3    3    0  502  0.85572000995E+03  0.25386366878E+03 -0.71326547929E+02  0.89542871693E+03  0.12699999809E+01 0.  1.
</event>
<event>
 5   0  0.1818778E-04  0.1798019E+04  0.7818609E-02  0.8707354E-01
        1   -1    0    0  501    0  0.00000000000E+00  0.00000000000E+00  0.10221763607E+04  0.10221763607E+04  0.50400001928E-02 0. -1.
       -1   -1    0    0    0  501  0.00000000000E+00  0.00000000000E+00 -0.79068354742E+03  0.79068354744E+03  0.50400001928E-02 0.  1.
    10030    2    1    2    0    0  0.00000000000E+00  0.00000000000E+00  0.23149281325E+03  0.18128599081E+04  0.17980189443E+04 0.  0.
        3    1    3    3  502    0  0.74046569560E+03  0.51749048161E+01  0.62976001928E+03  0.97206682799E+03  0.10100000352E+00 0. -1.
       -3    1    3    3    0  502 -0.74046569560E+03 -0.51749048161E+01 -0.39826720603E+03  0.84079308013E+03  0.10100000352E+00 0.  1.
</event>
<event>
 5   0  0.3628581E-04  0.1816002E+04  0.7818609E-02  0.8697836E-01
       -2   -1    0    0    0  501  0.00000000000E+00  0.00000000000E+00  0.70938874083E+03  0.70938874083E+03  0.25500000920E-02 0. -1.
        2   -1    0    0  501    0  0.00000000000E+00  0.00000000000E+00 -0.11622198359E+04  0.11622198359E+04  0.25500000920E-02 0.  1.
    10030    2    1    2    0    0  0.00000000000E+00  0.00000000000E+00 -0.45283109509E+03  0.18716085768E+04  0.18160018348E+04 0.  0.
        2    1    3    3  502    0 -0.19733060560E+03  0.60049386357E+03  0.44541413376E+03  0.77325674821E+03  0.25500000920E-02 0. -1.
       -2    1    3    3    0  502  0.19733060560E+03 -0.60049386357E+03 -0.89824522885E+03  0.10983518285E+04  0.25500000920E-02 0.  1.
</event>
<event>
 5   0  0.1883959E-04  0.1808225E+04  0.7818609E-02  0.8701938E-01
       -1   -1    0    0    0  501  0.00000000000E+00  0.00000000000E+00  0.52223847057E+03  0.52223847060E+03  0.50400001928E-02 0.  1.
        1   -1    0    0  501    0  0.00000000000E+00  0.00000000000E+00 -0.15652223626E+04  0.15652223626E+04  0.50400001928E-02 0. -1.
    10030    2    1    2    0    0  0.00000000000E+00  0.00000000000E+00 -0.10429838920E+04  0.20874608332E+04  0.18082249117E+04 0.  0.
        5    1    3    3  502    0 -0.43566496919E+03 -0.48806976322E+03  0.19887432141E+03  0.68380490263E+03  0.46999998093E+01 0.  1.
       -5    1    3    3    0  502  0.43566496919E+03  0.48806976322E+03 -0.12418582134E+04  0.14036559306E+04  0.46999998093E+01 0. -1.
</event>
<event>
 5   0  0.3568870E-04  0.1880139E+04  0.7818609E-02  0.8664806E-01
       -2   -1    0    0    0  501  0.00000000000E+00  0.00000000000E+00  0.74403212196E+03  0.74403212196E+03  0.25500000920E-02 0. -1.
        2   -1    0    0  501    0  0.00000000000E+00  0.00000000000E+00 -0.11877581375E+04  0.11877581375E+04  0.25500000920E-02 0.  1.
    10030    2    1    2    0    0  0.00000000000E+00  0.00000000000E+00 -0.44372601559E+03  0.19317902595E+04  0.18801385135E+04 0.  0.
        1    1    3    3  502    0 -0.23490599922E+03  0.50457270603E+03  0.55654865945E+03  0.78709647090E+03  0.50400001928E-02 0. -1.
       -1    1    3    3    0  502  0.23490599922E+03 -0.50457270603E+03 -0.10002746750E+04  0.11446937886E+04  0.50400001928E-02 0.  1.
</event>
<event>
 5   0  0.3582186E-04  0.1751520E+04  0.7818609E-02  0.8732514E-01
        2   -1    0    0  501    0  0.00000000000E+00  0.00000000000E+00  0.15002151643E+04  0.15002151643E+04  0.25500000920E-02 0.  1.
       -2   -1    0    0    0  501  0.00000000000E+00  0.00000000000E+00 -0.51123020062E+03  0.51123020062E+03  0.25500000920E-02 0. -1.
    10030    2    1    2    0    0  0.00000000000E+00  0.00000000000E+00  0.98898496369E+03  0.20114453649E+04  0.17515196824E+04 0.  0.
        4    1    3    3  502    0  0.44543124769E+03 -0.70472585875E+03  0.80243967457E+03  0.11571337765E+04  0.12699999809E+01 0.  1.
       -4    1    3    3    0  502 -0.44543124769E+03  0.70472585875E+03  0.18654528912E+03  0.85431158848E+03  0.12699999809E+01 0. -1.
</event>
<event>
 5   0  0.1818778E-04  0.1805925E+04  0.7818609E-02  0.8703155E-01
       -1   -1    0    0    0  501  0.00000000000E+00  0.00000000000E+00  0.79975977130E+03  0.79975977132E+03  0.50400001928E-02 0.  1.
        1   -1    0    0  501    0  0.00000000000E+00  0.00000000000E+00 -0.10194825929E+04  0.10194825929E+04  0.50400001928E-02 0. -1.
    10030    2    1    2    0    0  0.00000000000E+00  0.00000000000E+00 -0.21972282157E+03  0.18192423642E+04  0.18059248770E+04 0.  0.
        3    1    3    3  502    0 -0.27451684165E+03  0.79981564776E+03  0.20913856876E+03  0.87109328886E+03  0.10100000352E+00 0.  1.
       -3    1    3    3    0  502  0.27451684165E+03 -0.79981564776E+03 -0.42886139034E+03  0.94814907535E+03  0.10100000352E+00 0. -1.
</event>
<event>
 5   0  0.3582186E-04  0.1817063E+04  0.7818609E-02  0.8697278E-01
       -2   -1    0    0    0  501  0.00000000000E+00  0.00000000000E+00  0.47157127907E+03  0.47157127908E+03  0.25500000920E-02 0.  1.
        2   -1    0    0  501    0  0.00000000000E+00  0.00000000000E+00 -0.17503815415E+04  0.17503815415E+04  0.25500000920E-02 0. -1.
    10030    2    1    2    0    0  0.00000000000E+00  0.00000000000E+00 -0.12788102624E+04  0.22219528206E+04  0.18170631936E+04 0.  0.
        4    1    3    3  502    0  0.26232777364E+03  0.74404259935E+03 -0.88436959470E+02  0.79387527936E+03  0.12699999809E+01 0.  1.
       -4    1    3    3    0  502 -0.26232777364E+03 -0.74404259935E+03 -0.11903733030E+04  0.14280775412E+04  0.12699999809E+01 0. -1.
</event>
<event>
 5   0  0.3575091E-04  0.1795757E+04  0.7818609E-02  0.8708559E-01
        2   -1    0    0  501    0  0.00000000000E+00  0.00000000000E+00  0.16842883251E+04  0.16842883251E+04  0.25500000920E-02 0.  1.
       -2   -1    0    0    0  501  0.00000000000E+00  0.00000000000E+00 -0.47865060279E+03  0.47865060280E+03  0.25500000920E-02 0. -1.
    10030    2    1    2    0    0  0.00000000000E+00  0.00000000000E+00  0.12056377223E+04  0.21629389279E+04  0.17957568010E+04 0.  0.
        5    1    3    3  502    0 -0.76310587185E+03 -0.29836915675E+03  0.16058105249E+03  0.83496292718E+03  0.46999998093E+01 0.  1.
       -5    1    3    3    0  502  0.76310587185E+03  0.29836915675E+03  0.10450566698E+04  0.13279760007E+04  0.46999998093E+01 0. -1.
</event>
<event>
 5   0  0.3568870E-04  0.1852731E+04  0.7818609E-02  0.8678749E-01
        2   -1    0    0  501    0  0.00000000000E+00  0.00000000000E+00  0.10512605173E+04  0.10512605173E+04  0.25500000920E-02 0.  1.
       -2   -1    0    0    0  501  0.00000000000E+00  0.00000000000E+00 -0.81630904754E+03  0.81630904754E+03  0.25500000920E-02 0. -1.
    10030    2    1    2    0    0  0.00000000000E+00  0.00000000000E+00  0.23495146977E+03  0.18675695648E+04  0.18527314664E+04 0.  0.
        1    1    3    3  502    0  0.57875755507E+02  0.35059209297E+03 -0.74488095312E+03  0.82529513089E+03  0.50400001928E-02 0. -1.
       -1    1    3    3    0  502 -0.57875755507E+02 -0.35059209297E+03  0.97983242288E+03  0.10422744340E+04  0.50400001928E-02 0.  1.
</event>
<event>
 5   0  0.1825253E-04  0.1802191E+04  0.7818609E-02  0.8705135E-01
        1   -1    0    0  501    0  0.00000000000E+00  0.00000000000E+00  0.71107733631E+03  0.71107733633E+03  0.50400001928E-02 0. -1.
       -1   -1    0    0    0  501  0.00000000000E+00  0.00000000000E+00 -0.11418914667E+04  0.11418914667E+04  0.50400001928E-02 0.  1.
    10030    2    1    2    0    0  0.00000000000E+00  0.00000000000E+00 -0.43081413036E+03  0.18529688030E+04  0.18021910470E+04 0.  0.
        4    1    3    3  502    0  0.79511491559E+03 -0.29170992767E+03 -0.53175969329E+03  0.10000361969E+04  0.12699999809E+01 0.  1.
       -4    1    3    3    0  502 -0.79511491559E+03  0.29170992767E+03  0.10094556293E+03  0.85293260606E+03  0.12699999809E+01 0. -1.
</event>
<event>
 5   0  0.3568870E-04  0.1794497E+04  0.7818609E-02  0.8709231E-01
       -2   -1    0    0    0  501  0.00000000000E+00  0.00000000000E+00  0.53926236708E+03  0.53926236709E+03  0.25500000920E-02 0.  1.
        2   -1    0    0  501    0  0.00000000000E+00  0.00000000000E+00 -0.14928818726E+04  0.14928818726E+04  0.25500000920E-02 0. -1.
    10030    2    1    2    0    0  0.00000000000E+00  0.00000000000E+00 -0.95361950555E+03  0.20321442397E+04  0.17944971579E+04 0.  0.
        1    1    3    3  502    0  0.88291515602E+03  0.15591395836E+03 -0.43747220183E+03  0.99761228067E+03  0.50400001928E-02 0. -1.
       -1    1    3    3    0  502 -0.88291515602E+03 -0.15591395836E+03 -0.51614730372E+03  0.10345319591E+04  0.50400001928E-02 0.  1.
</event>
<event>
 5   0  0.1835421E-04  0.1832645E+04  0.7818609E-02  0.8689129E-01
        1   -1    0    0  501    0  0.00000000000E+00  0.00000000000E+00  0.15483706716E+04  0.15483706716E+04  0.50400001928E-02 0.  1.
       -1   -1    0    0    0  501  0.00000000000E+00  0.00000000000E+00 -0.54227777328E+03  0.54227777330E+03  0.50400001928E-02 0. -1.
    10030    2    1    2    0    0  0.00000000000E+00  0.00000000000E+00  0.10060928983E+04  0.20906484449E+04  0.18326450830E+04 0.  0.
        2    1    3    3  502    0  0.85975128139E+03  0.31283817616E+03  0.44479939477E+03  0.10172937098E+04  0.25500000920E-02 0. -1.
       -2    1    3    3    0  502 -0.85975128139E+03 -0.31283817616E+03  0.56129350352E+03  0.10733547351E+04  0.25500000920E-02 0.  1.
</event>
<event>
 5   0  0.3531266E-04  0.1797303E+04  0.7818609E-02  0.8707735E-01
        2   -1    0    0  501    0  0.00000000000E+00  0.00000000000E+00  0.78128996861E+03  0.78128996861E+03  0.25500000920E-02 0. -1.
       -2   -1    0    0    0  501  0.00000000000E+00  0.00000000000E+00 -0.10336425263E+04  0.10336425263E+04  0.25500000920E-02 0.  1.
    10030    2    1    2    0    0  0.00000000000E+00  0.00000000000E+00 -0.25235255770E+03  0.18149324949E+04  0.17973030206E+04 0.  0.
        3    1    3    3  502    0  0.80230967572E+03  0.39856310478E+03 -0.54621060659E+02  0.89751703868E+03  0.10100000352E+00 0. -1.
       -3    1    3    3    0  502 -0.80230967572E+03 -0.39856310478E+03 -0.19773149704E+03  0.91741545625E+03  0.10100000352E+00 0.  1.
</event>
<event>
 5   0  0.1825253E-04  0.1788675E+04  0.7818609E-02  0.8712345E-01
       -1   -1    0    0    0  501  0.00000000000E+00  0.00000000000E+00  0.47681944279E+03  0.47681944282E+03  0.50400001928E-02 0.  1.
        1   -1    0    0  501    0  0.00000000000E+00  0.00000000000E+00 -0.16774466780E+04  0.16774466780E+04  0.50400001928E-02 0. -1.
    10030    2    1    2    0    0  0.00000000000E+00  0.00000000000E+00 -0.12006272352E+04  0.21542661209E+04  0.17886745823E+04 0.  0.
        4    1    3    3  502    0 -0.36695226947E+03  0.56445326065E+03 -0.13093480685E+04  0.14722959719E+04  0.12699999809E+01 0. -1.
       -4    1    3    3    0  502  0.36695226947E+03 -0.56445326065E+03  0.10872083329E+03  0.68197014892E+03  0.12699999809E+01 0.  1.
</event>
<event>
 5   0  0.1825253E-04  0.1808985E+04  0.7818609E-02  0.8701536E-01
       -1   -1    0    0    0  501  0.00000000000E+00  0.00000000000E+00  0.89615971354E+03  0.89615971356E+03  0.50400001928E-02 0.  1.
        1   -1    0    0  501    0  0.00000000000E+00  0.00000000000E+00 -0.91290295400E+03  0.91290295402E+03  0.50400001928E-02 0. -1.
    10030    2    1    2    0    0  0.00000000000E+00  0.00000000000E+00 -0.16743240461E+02  0.18090626676E+04  0.18089851849E+04 0.  0.
        4    1    3    3  502    0  0.35013984077E+03  0.78575976469E+03  0.27108429858E+03  0.90194491280E+03  0.12699999809E+01 0.  1.
       -4    1    3    3    0  502 -0.35013984077E+03 -0.78575976469E+03 -0.28782753904E+03  0.90711775477E+03  0.12699999809E+01 0. -1.
</event>
<event>
 5   0  0.3568870E-04  0.1723319E+04  0.7818609E-02  0.8748175E-01
        2   -1    0    0  501    0  0.00000000000E+00  0.00000000000E+00  0.10457515401E+04  0.10457515401E+04  0.25500000920E-02 0. -1.
       -2   -1    0    0    0  501  0.00000000000E+00  0.00000000000E+00 -0.70997450332E+03  0.70997450332E+03  0.25500000920E-02 0.  1.
    10030    2    1    2    0    0  0.00000000000E+00  0.00000000000E+00  0.33577703683E+03  0.17557260435E+04  0.17233188101E+04 0.  0.
        1    1    3    3  502    0 -0.53086233819E+02  0.83873618777E+03  0.36162333331E+03  0.91491419058E+03  0.50400001928E-02 0. -1.
       -1    1    3    3    0  502  0.53086233819E+02 -0.83873618777E+03 -0.25846296483E+02  0.84081185289E+03  0.50400001928E-02 0.  1.
</event>
<event>
 5   0  0.3582186E-04  0.1818735E+04  0.7818609E-02  0.8696400E-01
       -2   -1    0    0    0  501  0.00000000000E+00  0.00000000000E+00  0.28225887155E+03  0.28225887156E+03  0.25500000920E-02 0.  1.
        2   -1    0    0  501    0  0.00000000000E+00  0.00000000000E+00 -0.29297540101E+04  0.29297540101E+04  0.25500000920E-02 0. -1.
    10030    2    1    2    0    0  0.00000000000E+00  0.00000000000E+00 -0.26474951385E+04  0.32120128816E+04  0.18187347919E+04 0.  0.
        4    1    3    3  502    0 -0.26574590234E+03 -0.75906395665E+02  0.20628964808E+03  0.34487635076E+03  0.12699999809E+01 0.  1.
       -4    1    3    3    0  502  0.26574590234E+03  0.75906395665E+02 -0.28537847866E+04  0.28671365309E+04  0.12699999809E+01 0. -1.
</event>
<event>
 5   0  0.1883959E-04  0.1807953E+04  0.7818609E-02  0.8702082E-01
        1   -1    0    0  501    0  0.00000000000E+00  0.00000000000E+00  0.80581434969E+03  0.80581434971E+03  0.50400001928E-02 0.  1.
       -1   -1    0    0    0  501  0.00000000000E+00  0.00000000000E+00 -0.10140966326E+04  0.10140966326E+04  0.50400001928E-02 0. -1.
    10030    2    1    2    0    0  0.00000000000E+00  0.00000000000E+00 -0.20828228292E+03  0.18199109823E+04  0.18079531173E+04 0.  0.
        5    1    3    3  502    0  0.12467615866E+03 -0.55631011526E+03 -0.81029824218E+03  0.99077263797E+03  0.46999998093E+01 0. -1.
       -5    1    3    3    0  502 -0.12467615866E+03  0.55631011526E+03  0.60201595926E+03  0.82913834435E+03  0.46999998093E+01 0.  1.
</event>
<event>
 5   0  0.3568870E-04  0.1780596E+04  0.7818609E-02  0.8716687E-01
       -2   -1    0    0    0  501  0.00000000000E+00  0.00000000000E+00  0.91018182131E+03  0.91018182132E+03  0.25500000920E-02 0.  1.
        2   -1    0    0  501    0  0.00000000000E+00  0.00000000000E+00 -0.87084900529E+03  0.87084900529E+03  0.25500000920E-02 0. -1.
    10030    2    1    2    0    0  0.00000000000E+00  0.00000000000E+00  0.39332816028E+02  0.17810308266E+04  0.17805964548E+04 0.  0.
        1    1    3    3  502    0 -0.40221468110E+03  0.29977005305E+03 -0.71603473969E+03  0.87426796971E+03  0.50400001928E-02 0. -1.
       -1    1    3    3    0  502  0.40221468110E+03 -0.29977005305E+03  0.75536755572E+03  0.90676285690E+03  0.50400001928E-02 0.  1.
</event>
<event>
 5   0  0.3531266E-04  0.1764087E+04  0.7818609E-02  0.8725634E-01
       -2   -1    0    0    0  501  0.00000000000E+00  0.00000000000E+00  0.48846187414E+03  0.48846187415E+03  0.25500000920E-02 0.  1.
        2   -1    0    0  501    0  0.00000000000E+00  0.00000000000E+00 -0.15927556279E+04  0.15927556279E+04  0.25500000920E-02 0. -1.
    10030    2    1    2    0    0  0.00000000000E+00  0.00000000000E+00 -0.11042937538E+04  0.20812175021E+04  0.17640866182E+04 0.  0.
        3    1    3    3  502    0  0.33082934041E+03  0.26717889850E+03  0.35954008707E+03  0.55686775871E+03  0.10100000352E+00 0.  1.
       -3    1    3    3    0  502 -0.33082934041E+03 -0.26717889850E+03 -0.14638338409E+04  0.15243497434E+04  0.10100000352E+00 0. -1.
</event>
<event>
 5   0  0.1837313E-04  0.1815775E+04  0.7818609E-02  0.8697955E-01
        1   -1    0    0  501    0  0.00000000000E+00  0.00000000000E+00  0.15822495270E+04  0.15822495270E+04  0.50400001928E-02 0.  1.
       -1   -1    0    0    0  501  0.00000000000E+00  0.00000000000E+00 -0.52094157630E+03  0.52094157632E+03  0.50400001928E-02 0. -1.
    10030    2    1    2    0    0  0.00000000000E+00  0.00000000000E+00  0.10613079507E+04  0.21031911033E+04  0.18157748349E+04 0.  0.
        1    1    3    3  502    0 -0.61542417005E+03  0.17911850181E+03  0.12754156590E+04  0.14274156543E+04  0.50400001928E-02 0.  1.
       -1    1    3    3    0  502  0.61542417005E+03 -0.17911850181E+03 -0.21410770831E+03  0.67577544906E+03  0.50400001928E-02 0. -1.
</event>
<event>
 5   0  0.1825253E-04  0.1789316E+04  0.7818609E-02  0.8712002E-01
        1   -1    0    0  501    0  0.00000000000E+00  0.00000000000E+00  0.15074814495E+04  0.15074814495E+04  0.50400001928E-02 0.  1.
       -1   -1    0    0    0  501  0.00000000000E+00  0.00000000000E+00 -0.53096032027E+03  0.53096032030E+03  0.50400001928E-02 0. -1.
    10030    2    1    2    0    0  0.00000000000E+00  0.00000000000E+00  0.97652112925E+03  0.20384417698E+04  0.17893158841E+04 0.  0.
        4    1    3    3  502    0 -0.14354804484E+03 -0.87564134137E+03  0.61843928179E+03  0.10815833570E+04  0.12699999809E+01 0.  1.
       -4    1    3    3    0  502  0.14354804484E+03  0.87564134137E+03  0.35808184746E+03  0.95685841287E+03  0.12699999809E+01 0. -1.
</event>
<event>
 5   0  0.1818778E-04  0.1746282E+04  0.7818609E-02  0.8735399E-01
       -1   -1    0    0    0  501  0.00000000000E+00  0.00000000000E+00  0.35281004936E+03  0.35281004940E+03  0.50400001928E-02 0.  1.
        1   -1    0    0  501    0  0.00000000000E+00  0.00000000000E+00 -0.21608661055E+04  0.21608661055E+04  0.50400001928E-02 0. -1.
    10030    2    1    2    0    0  0.00000000000E+00  0.00000000000E+00 -0.18080560561E+04  0.25136761549E+04  0.17462820819E+04 0.  0.
        3    1    3    3  502    0 -0.87205313484E+00  0.66608069439E+03 -0.17166591755E+04  0.18413535746E+04  0.10100000352E+00 0. -1.
       -3    1    3    3    0  502  0.87205313484E+00 -0.66608069439E+03 -0.91396880660E+02  0.67232258025E+03  0.10100000352E+00 0.  1.
</event>
<event>
 5   0  0.1883959E-04  0.1665911E+04  0.7818609E-02  0.8781049E-01
       -1   -1    0    0    0  501  0.00000000000E+00  0.00000000000E+00  0.91667532392E+03  0.91667532393E+03  0.50400001928E-02 0.  1.
        1   -1    0    0  501    0  0.00000000000E+00  0.00000000000E+00 -0.75688136884E+03  0.75688136886E+03  0.50400001928E-02 0. -1.
    10030    2    1    2    0    0  0.00000000000E+00  0.00000000000E+00  0.15979395507E+03  0.16735566928E+04  0.16659105306E+04 0.  0.
        5    1    3    3  502    0 -0.37216090987E+03 -0.17225348975E+03 -0.64842533089E+03  0.76723693036E+03  0.46999998093E+01 0. -1.
       -5    1    3    3    0  502  0.37216090987E+03  0.17225348975E+03  0.80821928596E+03  0.90631976243E+03  0.46999998093E+01 0.  1.
</event>
<event>
 5   0  0.1818778E-04  0.1809533E+04  0.7818609E-02  0.8701247E-01
        1   -1    0    0  501    0  0.00000000000E+00  0.00000000000E+00  0.78001193570E+03  0.78001193572E+03  0.50400001928E-02 0.  1.
       -1   -1    0    0    0  501  0.00000000000E+00  0.00000000000E+00 -0.10494736515E+04  0.10494736515E+04  0.50400001928E-02 0. -1.
    10030    2    1    2    0    0  0.00000000000E+00  0.00000000000E+00 -0.26946171580E+03  0.18294855872E+04  0.18095325080E+04 0.  0.
        3    1    3    3  502    0 -0.33964051550E+03  0.35171607914E+03 -0.90440180237E+03  0.10281062739E+04  0.10100000352E+00 0. -1.
       -3    1    3    3    0  502  0.33964051550E+03 -0.35171607914E+03  0.63494008658E+03  0.80137931333E+03  0.10100000352E+00 0.  1.
</event>
<event>
 5   0  0.3582186E-04  0.1751287E+04  0.7818609E-02  0.8732642E-01
       -2   -1    0    0    0  501  0.00000000000E+00  0.00000000000E+00  0.51390580270E+03  0.51390580271E+03  0.25500000920E-02 0. -1.
        2   -1    0    0  501    0  0.00000000000E+00  0.00000000000E+00 -0.14920071101E+04  0.14920071101E+04  0.25500000920E-02 0.  1.
    10030    2    1    2    0    0  0.00000000000E+00  0.00000000000E+00 -0.97810130741E+03  0.20059129128E+04  0.17512865118E+04 0.  0.
        4    1    3    3  502    0  0.22888094167E+03  0.34081304460E+03 -0.13749441585E+04  0.14349261545E+04  0.12699999809E+01 0.  1.
       -4    1    3    3    0  502 -0.22888094167E+03 -0.34081304460E+03  0.39684285111E+03  0.57098675835E+03  0.12699999809E+01 0. -1.
</event>
<event>
 5   0  0.3568870E-04  0.1928444E+04  0.7818609E-02  0.8640826E-01
        2   -1    0    0  501    0  0.00000000000E+00  0.00000000000E+00  0.14693387388E+04  0.14693387388E+04  0.25500000920E-02 0. -1.
       -2   -1    0    0    0  501  0.00000000000E+00  0.00000000000E+00 -0.63275022221E+03  0.63275022221E+03  0.25500000920E-02 0.  1.
    10030    2    1    2    0    0  0.00000000000E+00  0.00000000000E+00  0.83658851663E+03  0.21020889611E+04  0.19284443611E+04 0.  0.
        1    1    3    3  502    0 -0.92110835486E+03  0.16277826004E+03  0.67343683501E+03  0.11525860203E+04  0.50400001928E-02 0. -1.
       -1    1    3    3    0  502  0.92110835486E+03 -0.16277826004E+03  0.16315168162E+03  0.94950294079E+03  0.50400001928E-02 0.  1.
</event>
<event>
 5   0  0.1835421E-04  0.1766253E+04  0.7818609E-02  0.8724454E-01
       -1   -1    0    0    0  501  0.00000000000E+00  0.00000000000E+00  0.63795591860E+03  0.63795591861E+03  0.50400001928E-02 0.  1.
        1   -1    0    0  501    0  0.00000000000E+00  0.00000000000E+00 -0.12225177432E+04  0.12225177432E+04  0.50400001928E-02 0. -1.
    10030    2    1    2    0    0  0.00000000000E+00  0.00000000000E+00 -0.58456182464E+03  0.18604736619E+04  0.17662530169E+04 0.  0.
        2    1    3    3  502    0 -0.25825628450E+02  0.61362414324E+03  0.37616656685E+03  0.72021027366E+03  0.25500000920E-02 0.  1.
       -2    1    3    3    0  502  0.25825628450E+02 -0.61362414324E+03 -0.96072839150E+03  0.11402633882E+04  0.25500000920E-02 0. -1.
</event>
<event>
 5   0  0.3575091E-04  0.1889148E+04  0.7818609E-02  0.8660277E-01
       -2   -1    0    0    0  501  0.00000000000E+00  0.00000000000E+00  0.41050811255E+03  0.41050811256E+03  0.25500000920E-02 0.  1.
        2   -1    0    0  501    0  0.00000000000E+00  0.00000000000E+00 -0.21734535134E+04  0.21734535134E+04  0.25500000920E-02 0. -1.
    10030    2    1    2    0    0  0.00000000000E+00  0.00000000000E+00 -0.17629454008E+04  0.25839616259E+04  0.18891482732E+04 0.  0.
        5    1    3    3  502    0 -0.93718317371E+03 -0.51813354799E+02 -0.10262344861E+04  0.13907466467E+04  0.46999998093E+01 0.  1.
       -5    1    3    3    0  502  0.93718317371E+03  0.51813354799E+02 -0.73671091474E+03  0.11932149793E+04  0.46999998093E+01 0. -1.
</event>
<event>
 5   0  0.1835421E-04  0.1896758E+04  0.7818609E-02  0.8656472E-01
        1   -1    0    0  501    0  0.00000000000E+00  0.00000000000E+00  0.17068766926E+04  0.17068766926E+04  0.50400001928E-02 0.  1.
       -1   -1    0    0    0  501  0.00000000000E+00  0.00000000000E+00 -0.52694043489E+03  0.52694043491E+03  0.50400001928E-02 0. -1.
    10030    2    1    2    0    0  0.00000000000E+00  0.00000000000E+00  0.11799362577E+04  0.22338171275E+04  0.18967575984E+04 0.  0.
        2    1    3    3  502    0  0.49199344236E+03  0.67057593163E+02  0.15415551311E+04  0.16195513237E+04  0.25500000920E-02 0.  1.
       -2    1    3    3    0  502 -0.49199344236E+03 -0.67057593163E+02 -0.36161887335E+03  0.61426580378E+03  0.25500000920E-02 0. -1.
</event>
<event>
 5   0  0.3628581E-04  0.1803770E+04  0.7818609E-02  0.8704297E-01
        2   -1    0    0  501    0  0.00000000000E+00  0.00000000000E+00  0.20081987475E+04  0.20081987476E+04  0.25500000920E-02 0. -1.
       -2   -1    0    0    0  501  0.00000000000E+00  0.00000000000E+00 -0.40503784674E+03  0.40503784675E+03  0.25500000920E-02 0.  1.
    10030    2    1    2    0    0  0.00000000000E+00  0.00000000000E+00  0.16031609008E+04  0.24132365943E+04  0.18037699372E+04 0.  0.
        2    1    3    3  502    0  0.29620892813E+03 -0.51765221441E+03 -0.10353894331E+03  0.60532954412E+03  0.25500000920E-02 0.  1.
       -2    1    3    3    0  502 -0.29620892813E+03  0.51765221441E+03  0.17066998441E+04  0.18079070502E+04  0.25500000920E-02 0. -1.
</event>
<event>
 5   0  0.3531266E-04  0.1795139E+04  0.7818609E-02  0.8708889E-01
        2   -1    0    0  501    0  0.00000000000E+00  0.00000000000E+00  0.14400271904E+04  0.14400271904E+04  0.25500000920E-02 0. -1.
       -2   -1    0    0    0  501  0.00000000000E+00  0.00000000000E+00 -0.55945535856E+03  0.55945535857E+03  0.25500000920E-02 0.  1.
    10030    2    1    2    0    0  0.00000000000E+00  0.00000000000E+00  0.88057183182E+03  0.19994825490E+04  0.17951389118E+04 0.  0.
        3    1    3    3  502    0 -0.58309928268E+02  0.19409748016E+03  0.14142086476E+04  0.14286567078E+04  0.10100000352E+00 0. -1.
       -3    1    3    3    0  502  0.58309928268E+02 -0.19409748016E+03 -0.53363681580E+03  0.57082584115E+03  0.10100000352E+00 0.  1.
</event>
<event>
 5   0  0.1330125E-04  0.1835312E+04  0.7818609E-02  0.8687743E-01
        3   -1    0    0  501    0  0.00000000000E+00  0.00000000000E+00  0.55774912686E+03  0.55774913601E+03  0.10100000352E+00 0.  1.
       -3   -1    0    0    0  501  0.00000000000E+00  0.00000000000E+00 -0.15098052440E+04  0.15098052474E+04  0.10100000352E+00 0. -1.
    10030    2    1    2    0    0  0.00000000000E+00  0.00000000000E+00 -0.95205611714E+03  0.20675543834E+04  0.18353120383E+04 0.  0.
        1    1    3    3  502    0  0.44449746757E+03  0.79109480981E+03 -0.32204356403E+03  0.96287125512E+03  0.50400001928E-02 0.  1.
       -1    1    3    3    0  502 -0.44449746757E+03 -0.79109480981E+03 -0.63001255311E+03  0.11046831283E+04  0.50400001928E-02 0. -1.
</event>
<event>
 5   0  0.3568870E-04  0.1743602E+04  0.7818609E-02  0.8736880E-01
        2   -1    0    0  501    0  0.00000000000E+00  0.00000000000E+00  0.14821217388E+04  0.14821217388E+04  0.25500000920E-02 0.  1.
       -2   -1    0    0    0  501  0.00000000000E+00  0.00000000000E+00 -0.51280347842E+03  0.51280347842E+03  0.25500000920E-02 0. -1.
    10030    2    1    2    0    0  0.00000000000E+00  0.00000000000E+00  0.96931826039E+03  0.19949252172E+04  0.17436022288E+04 0.  0.
        1    1    3    3  502    0 -0.69198562225E+03  0.18901007989E+03  0.10515205325E+04  0.12728960452E+04  0.50400001928E-02 0.  1.
       -1    1    3    3    0  502  0.69198562225E+03 -0.18901007989E+03 -0.82202272062E+02  0.72202917203E+03  0.50400001928E-02 0. -1.
</event>
<event>
 5   0  0.3582186E-04  0.1791475E+04  0.7818609E-02  0.8710846E-01
        2   -1    0    0  501    0  0.00000000000E+00  0.00000000000E+00  0.12464648800E+04  0.12464648800E+04  0.25500000920E-02 0. -1.
       -2   -1    0    0    0  501  0.00000000000E+00  0.00000000000E+00 -0.64369684813E+03  0.64369684813E+03  0.25500000920E-02 0.  1.
    10030    2    1    2    0    0  0.00000000000E+00  0.00000000000E+00  0.60276803190E+03  0.18901617282E+04  0.17914748277E+04 0.  0.
        4    1    3    3  502    0  0.77196201153E+03  0.33344684752E+03  0.62698008092E+03  0.10489126666E+04  0.12699999809E+01 0. -1.
       -4    1    3    3    0  502 -0.77196201153E+03 -0.33344684752E+03 -0.24212049025E+02  0.84124906156E+03  0.12699999809E+01 0.  1.
</event>
<event>
 5   0  0.1883959E-04  0.1925897E+04  0.7818609E-02  0.8642072E-01
       -1   -1    0    0    0  501  0.00000000000E+00  0.00000000000E+00  0.76641464469E+03  0.76641464471E+03  0.50400001928E-02 0. -1.
        1   -1    0    0  501    0  0.00000000000E+00  0.00000000000E+00 -0.12098798370E+04  0.12098798370E+04  0.50400001928E-02 0.  1.
    10030    2    1    2    0    0  0.00000000000E+00  0.00000000000E+00 -0.44346519232E+03  0.19762944817E+04  0.19258968045E+04 0.  0.
        5    1    3    3  502    0  0.22600134981E+03  0.81144554038E+03  0.25709023465E+03  0.88070310199E+03  0.46999998093E+01 0. -1.
       -5    1    3    3    0  502 -0.22600134981E+03 -0.81144554038E+03 -0.70055542696E+03  0.10955913797E+04  0.46999998093E+01 0.  1.
</event>
<event>
 5   0  0.1835421E-04  0.1818239E+04  0.7818609E-02  0.8696660E-01
       -1   -1    0    0    0  501  0.00000000000E+00  0.00000000000E+00  0.40226330120E+03  0.40226330123E+03  0.50400001928E-02 0. -1.
        1   -1    0    0  501    0  0.00000000000E+00  0.00000000000E+00 -0.20546208374E+04  0.20546208374E+04  0.50400001928E-02 0.  1.
    10030    2    1    2    0    0  0.00000000000E+00  0.00000000000E+00 -0.16523575362E+04  0.24568841387E+04  0.18182393251E+04 0.  0.
        2    1    3    3  502    0  0.28675038780E+03  0.83632994652E+03 -0.54009464122E+03  0.10360385060E+04  0.25500000920E-02 0. -1.
       -2    1    3    3    0  502 -0.28675038780E+03 -0.83632994652E+03 -0.11122628950E+04  0.14208456327E+04  0.25500000920E-02 0.  1.
</event>
<event>
 5   0  0.1883959E-04  0.1743930E+04  0.7818609E-02  0.8736699E-01
        1   -1    0    0  501    0  0.00000000000E+00  0.00000000000E+00  0.13621508354E+04  0.13621508354E+04  0.50400001928E-02 0. -1.
       -1   -1    0    0    0  501  0.00000000000E+00  0.00000000000E+00 -0.55817804326E+03  0.55817804328E+03  0.50400001928E-02 0.  1.
    10030    2    1    2    0    0  0.00000000000E+00  0.00000000000E+00  0.80397279213E+03  0.19203288787E+04  0.17439296866E+04 0.  0.
        5    1    3    3  502    0 -0.53256010400E+03  0.42324865408E+03  0.10026343281E+04  0.12116341747E+04  0.46999998093E+01 0. -1.
       -5    1    3    3    0  502  0.53256010400E+03 -0.42324865408E+03 -0.19866153594E+03  0.70869470396E+03  0.46999998093E+01 0.  1.
</event>
<event>
 5   0  0.3531266E-04  0.1801887E+04  0.7818609E-02  0.8705297E-01
       -2   -1    0    0    0  501  0.00000000000E+00  0.00000000000E+00  0.36281522156E+03  0.36281522157E+03  0.25500000920E-02 0. -1.
        2   -1    0    0  501    0  0.00000000000E+00  0.00000000000E+00 -0.22372253254E+04  0.22372253254E+04  0.25500000920E-02 0.  1.
    10030    2    1    2    0    0  0.00000000000E+00  0.00000000000E+00 -0.18744101038E+04  0.26000405470E+04  0.18018872352E+04 0.  0.
        3    1    3    3  502    0 -0.71434241775E+03 -0.42142451485E+03 -0.14449438333E+04  0.16660571428E+04  0.10100000352E+00 0. -1.
       -3    1    3    3    0  502  0.71434241775E+03  0.42142451485E+03 -0.42946627055E+03  0.93398340417E+03  0.10100000352E+00 0.  1.
</event>
<event>
 5   0  0.3628581E-04  0.1831948E+04  0.7818609E-02  0.8689492E-01
       -2   -1    0    0    0  501  0.00000000000E+00  0.00000000000E+00  0.47638957632E+03  0.47638957633E+03  0.25500000920E-02 0. -1.
        2   -1    0    0  501    0  0.00000000000E+00  0.00000000000E+00 -0.17611806067E+04  0.17611806067E+04  0.25500000920E-02 0.  1.
    10030    2    1    2    0    0  0.00000000000E+00  0.00000000000E+00 -0.12847910303E+04  0.22375701830E+04  0.18319476882E+04 0.  0.
        2    1    3    3  502    0 -0.44040486697E+03 -0.21263655617E+03  0.30358097545E+03  0.57561459374E+03  0.25500000920E-02 0. -1.
       -2    1    3    3    0  502  0.44040486697E+03  0.21263655617E+03 -0.15883720058E+04  0.16619555892E+04  0.25500000920E-02 0.  1.
</event>
<event>
 5   0  0.3575091E-04  0.1791337E+04  0.7818609E-02  0.8710920E-01
       -2   -1    0    0    0  501  0.00000000000E+00  0.00000000000E+00  0.71599599798E+03  0.71599599799E+03  0.25500000920E-02 0. -1.
        2   -1    0    0  501    0  0.00000000000E+00  0.00000000000E+00 -0.11204280085E+04  0.11204280085E+04  0.25500000920E-02 0.  1.
    10030    2    1    2    0    0  0.00000000000E+00  0.00000000000E+00 -0.40443201055E+03  0.18364240065E+04  0.17913368976E+04 0.  0.
        5    1    3    3  502    0  0.80818389489E+03  0.38045016742E+03 -0.13501974138E+03  0.90341350356E+03  0.46999998093E+01 0.  1.
       -5    1    3    3    0  502 -0.80818389489E+03 -0.38045016742E+03 -0.26941226917E+03  0.93301050296E+03  0.46999998093E+01 0. -1.
</event>
<event>
 5   0  0.1825253E-04  0.1802468E+04  0.7818609E-02  0.8704988E-01
        1   -1    0    0  501    0  0.00000000000E+00  0.00000000000E+00  0.94491222688E+03  0.94491222689E+03  0.50400001928E-02 0.  1.
       -1   -1    0    0    0  501  0.00000000000E+00  0.00000000000E+00 -0.85957481902E+03  0.85957481904E+03  0.50400001928E-02 0. -1.
    10030    2    1    2    0    0  0.00000000000E+00  0.00000000000E+00  0.85337407856E+02  0.18044870459E+04  0.18024680374E+04 0.  0.
        4    1    3    3  502    0  0.79297629901E+03 -0.14261800503E+03  0.44694010119E+03  0.92136223772E+03  0.12699999809E+01 0.  1.
       -4    1    3    3    0  502 -0.79297629901E+03  0.14261800503E+03 -0.36160269333E+03  0.88312480821E+03  0.12699999809E+01 0. -1.
</event>
<event>
 5   0  0.1837313E-04  0.1780962E+04  0.7818609E-02  0.8716489E-01
       -1   -1    0    0    0  501  0.00000000000E+00  0.00000000000E+00  0.45552687660E+03  0.45552687663E+03  0.50400001928E-02 0. -1.
        1   -1    0    0  501    0  0.00000000000E+00  0.00000000000E+00 -0.17407463833E+04  0.17407463833E+04  0.50400001928E-02 0.  1.
    10030    2    1    2    0    0  0.00000000000E+00  0.00000000000E+00 -0.12852195066E+04  0.21962732599E+04  0.17809623948E+04 0.  0.
        1    1    3    3  502    0  0.26150914216E+03  0.71396165733E+03 -0.71029053567E+02  0.76365791167E+03  0.50400001928E-02 0. -1.
       -1    1    3    3    0  502 -0.26150914216E+03 -0.71396165733E+03 -0.12141904531E+04  0.14326153482E+04  0.50400001928E-02 0.  1.
</event>
<event>
 5   0  0.3628581E-04  0.1826401E+04  0.7818609E-02  0.8692384E-01
       -2   -1    0    0    0  501  0.00000000000E+00  0.00000000000E+00  0.85494306072E+03  0.85494306073E+03  0.25500000920E-02 0.  1.
        2   -1    0    0  501    0  0.00000000000E+00  0.00000000000E+00 -0.97542767865E+03  0.97542767866E+03  0.25500000920E-02 0. -1.
    10030    2    1    2    0    0  0.00000000000E+00  0.00000000000E+00 -0.12048461793E+03  0.18303707394E+04  0.18264009692E+04 0.  0.
        2    1    3    3  502    0  0.21575416681E+03  0.72044155243E+03 -0.57939261647E+03  0.94935857029E+03  0.25500000920E-02 0. -1.
       -2    1    3    3    0  502 -0.21575416681E+03 -0.72044155243E+03  0.45890799854E+03  0.88101216909E+03  0.25500000920E-02 0.  1.
</event>
<event>
 5   0  0.1330125E-04  0.1793543E+04  0.7818609E-02  0.8709741E-01
        3   -1    0    0  501    0  0.00000000000E+00  0.00000000000E+00  0.10476359328E+04  0.10476359377E+04  0.10100000352E+00 0. -1.
       -3   -1    0    0    0  501  0.00000000000E+00  0.00000000000E+00 -0.76763208469E+03  0.76763209134E+03  0.10100000352E+00 0.  1.
    10030    2    1    2    0    0  0.00000000000E+00  0.00000000000E+00  0.28000384809E+03  0.18152680290E+04  0.17935428242E+04 0.  0.
        4    1    3    3  502    0 -0.26125447213E+03  0.79642774516E+03  0.46268396543E+03  0.95740749800E+03  0.12699999809E+01 0.  1.
       -4    1    3    3    0  502  0.26125447213E+03 -0.79642774516E+03 -0.18268011733E+03  0.85786053099E+03  0.12699999809E+01 0. -1.
</event>
<event>
 5   0  0.1825253E-04  0.1829649E+04  0.7818609E-02  0.8690689E-01
       -1   -1    0    0    0  501  0.00000000000E+00  0.00000000000E+00  0.76774686396E+03  0.76774686397E+03  0.50400001928E-02 0.  1.
        1   -1    0    0  501    0  0.00000000000E+00  0.00000000000E+00 -0.10900780098E+04  0.10900780098E+04  0.50400001928E-02 0. -1.
    10030    2    1    2    0    0  0.00000000000E+00  0.00000000000E+00 -0.32233114579E+03  0.18578248737E+04  0.18296491177E+04 0.  0.
        4    1    3    3  502    0  0.82332571744E+03 -0.10840158365E+03  0.22852331436E+03  0.86130172323E+03  0.12699999809E+01 0.  1.
       -4    1    3    3    0  502 -0.82332571744E+03  0.10840158365E+03 -0.55085446015E+03  0.99652315051E+03  0.12699999809E+01 0. -1.
</event>
<event>
 5   0  0.3582186E-04  0.1803271E+04  0.7818609E-02  0.8704562E-01
       -2   -1    0    0    0  501  0.00000000000E+00  0.00000000000E+00  0.10655093456E+04  0.10655093456E+04  0.25500000920E-02 0.  1.
        2   -1    0    0  501    0  0.00000000000E+00  0.00000000000E+00 -0.76296481383E+03  0.76296481383E+03  0.25500000920E-02 0. -1.
    10030    2    1    2    0    0  0.00000000000E+00  0.00000000000E+00  0.30254453174E+03  0.18284741594E+04  0.18032705171E+04 0.  0.
        4    1    3    3  502    0 -0.24592893792E+03  0.81175741326E+03 -0.15880136620E+03  0.86293141518E+03  0.12699999809E+01 0. -1.
       -4    1    3    3    0  502  0.24592893792E+03 -0.81175741326E+03  0.46134589794E+03  0.96554274423E+03  0.12699999809E+01 0.  1.
</event>
<event>
 5   0  0.1883959E-04  0.1754372E+04  0.7818609E-02  0.8730948E-01
        1   -1    0    0  501    0  0.00000000000E+00  0.00000000000E+00  0.58754763331E+03  0.58754763333E+03  0.50400001928E-02 0.  1.
       -1   -1    0    0    0  501  0.00000000000E+00  0.00000000000E+00 -0.13096044297E+04  0.13096044297E+04  0.50400001928E-02 0. -1.
    10030    2    1    2    0    0  0.00000000000E+00  0.00000000000E+00 -0.72205679638E+03  0.18971520630E+04  0.17543716633E+04 0.  0.
        5    1    3    3  502    0  0.93898004296E+02 -0.87164931940E+03 -0.39243556455E+03  0.96052961097E+03  0.46999998093E+01 0. -1.
       -5    1    3    3    0  502 -0.93898004296E+02  0.87164931940E+03 -0.32962123182E+03  0.93662245205E+03  0.46999998093E+01 0.  1.
</event>
<event>
 5   0  0.3531266E-04  0.1748966E+04  0.7818609E-02  0.8733919E-01
        2   -1    0    0  501    0  0.00000000000E+00  0.00000000000E+00  0.95176296846E+03  0.95176296846E+03  0.25500000920E-02 0.  1.
       -2   -1    0    0    0  501  0.00000000000E+00  0.00000000000E+00 -0.80347825183E+03  0.80347825183E+03  0.25500000920E-02 0. -1.
    10030    2    1    2    0    0  0.00000000000E+00  0.00000000000E+00  0.14828471663E+03  0.17552412203E+04  0.17489663760E+04 0.  0.
        3    1    3    3  502    0  0.28995045695E+03  0.80342497333E+03 -0.11403470757E+03  0.86172320381E+03  0.10100000352E+00 0.  1.
       -3    1    3    3    0  502 -0.28995045695E+03 -0.80342497333E+03  0.26231942420E+03  0.89351801648E+03  0.10100000352E+00 0. -1.
</event>
<event>
 5   0  0.3568870E-04  0.1776825E+04  0.7818609E-02  0.8718722E-01
       -2   -1    0    0    0  501  0.00000000000E+00  0.00000000000E+00  0.60844585330E+03  0.60844585330E+03  0.25500000920E-02 0.  1.
        2   -1    0    0  501    0  0.00000000000E+00  0.00000000000E+00 -0.12972015374E+04  0.12972015374E+04  0.25500000920E-02 0. -1.
    10030    2    1    2    0    0  0.00000000000E+00  0.00000000000E+00 -0.68875568405E+03  0.19056473907E+04  0.17768251420E+04 0.  0.
        1    1    3    3  502    0 -0.61359371647E+03  0.63228775452E+03 -0.46662344112E+03  0.99700676489E+03  0.50400001928E-02 0.  1.
       -1    1    3    3    0  502  0.61359371647E+03 -0.63228775452E+03 -0.22213224293E+03  0.90864062576E+03  0.50400001928E-02 0. -1.
</event>
<event>
 5   0  0.1837313E-04  0.1828174E+04  0.7818609E-02  0.8691459E-01
        1   -1    0    0  501    0  0.00000000000E+00  0.00000000000E+00  0.26232595590E+04  0.26232595590E+04  0.50400001928E-02 0.  1.
       -1   -1    0    0    0  501  0.00000000000E+00  0.00000000000E+00 -0.31851775957E+03  0.31851775961E+03  0.50400001928E-02 0. -1.
    10030    2    1    2    0    0  0.00000000000E+00  0.00000000000E+00  0.23047417995E+04  0.29417773187E+04  0.18281736871E+04 0.  0.
        1    1    3    3  502    0 -0.47313257621E+02 -0.81810596008E+03  0.18040581498E+04  0.19814544441E+04  0.50400001928E-02 0.  1.
       -1    1    3    3    0  502  0.47313257621E+02  0.81810596008E+03  0.50068364966E+03  0.96032287453E+03  0.50400001928E-02 0. -1.
</event>
<event>
 5   0  0.1835421E-04  0.1823441E+04  0.7818609E-02  0.8693932E-01
       -1   -1    0    0    0  501  0.00000000000E+00  0.00000000000E+00  0.87282543638E+03  0.87282543639E+03  0.50400001928E-02 0.  1.
        1   -1    0    0  501    0  0.00000000000E+00  0.00000000000E+00 -0.95234836103E+03  0.95234836104E+03  0.50400001928E-02 0. -1.
    10030    2    1    2    0    0  0.00000000000E+00  0.00000000000E+00 -0.79522924651E+02  0.18251737974E+04  0.18234405653E+04 0.  0.
        2    1    3    3  502    0 -0.21438567072E+03 -0.67962365096E+03 -0.60897092754E+03  0.93738738702E+03  0.25500000920E-02 0. -1.
       -2    1    3    3    0  502  0.21438567072E+03  0.67962365096E+03  0.52944800289E+03  0.88778641042E+03  0.25500000920E-02 0.  1.
</event>
<event>
 5   0  0.1825253E-04  0.1750288E+04  0.7818609E-02  0.8733192E-01
       -1   -1    0    0    0  501  0.00000000000E+00  0.00000000000E+00  0.57085090884E+03  0.57085090887E+03  0.50400001928E-02 0.  1.
        1   -1    0    0  501    0  0.00000000000E+00  0.00000000000E+00 -0.13416410361E+04  0.13416410361E+04  0.50400001928E-02 0. -1.
    10030    2    1    2    0    0  0.00000000000E+00  0.00000000000E+00 -0.77079012723E+03  0.19124919449E+04  0.17502879818E+04 0.  0.
        4    1    3    3  502    0  0.96528301930E+02 -0.39469842154E+03  0.46152910114E+03  0.61491079121E+03  0.12699999809E+01 0.  1.
       -4    1    3    3    0  502 -0.96528301930E+02  0.39469842154E+03 -0.12323192284E+04  0.12975811537E+04  0.12699999809E+01 0. -1.
</event>
<event>
 5   0  0.1825253E-04  0.1782577E+04  0.7818609E-02  0.8715620E-01
        1   -1    0    0  501    0  0.00000000000E+00  0.00000000000E+00  0.75901870514E+03  0.75901870516E+03  0.50400001928E-02 0. -1.
       -1   -1    0    0    0  501  0.00000000000E+00  0.00000000000E+00 -0.10466076752E+04  0.10466076752E+04  0.50400001928E-02 0.  1.
    10030    2    1    2    0    0  0.00000000000E+00  0.00000000000E+00 -0.28758897001E+03  0.18056263803E+04  0.17825765649E+04 0.  0.
        4    1    3    3  502    0 -0.35104826146E+03  0.13007615316E+03  0.67551455724E+03  0.77231872788E+03  0.12699999809E+01 0. -1.
       -4    1    3    3    0  502  0.35104826146E+03 -0.13007615316E+03 -0.96310352725E+03  0.10333076524E+04  0.12699999809E+01 0.  1.
</event>
<event>
 5   0  0.1837313E-04  0.1769842E+04  0.7818609E-02  0.8722504E-01
        1   -1    0    0  501    0  0.00000000000E+00  0.00000000000E+00  0.49604438546E+03  0.49604438549E+03  0.50400001928E-02 0. -1.
       -1   -1    0    0    0  501  0.00000000000E+00  0.00000000000E+00 -0.15786595153E+04  0.15786595154E+04  0.50400001928E-02 0.  1.
    10030    2    1    2    0    0  0.00000000000E+00  0.00000000000E+00 -0.10826151299E+04  0.20747039008E+04  0.17698420146E+04 0.  0.
        1    1    3    3  502    0 -0.48845596563E+03 -0.14212958266E+03  0.30750058145E+03  0.59442968991E+03  0.50400001928E-02 0. -1.
       -1    1    3    3    0  502  0.48845596563E+03  0.14212958266E+03 -0.13901157113E+04  0.14802742109E+04  0.50400001928E-02 0.  1.
</event>
<event>
 5   0  0.3575091E-04  0.1406539E+04  0.7818609E-02  0.8949099E-01
        2   -1    0    0  501    0  0.00000000000E+00  0.00000000000E+00  0.14781718453E+04  0.14781718453E+04  0.25500000920E-02 0. -1.
       -2   -1    0    0    0  501  0.00000000000E+00  0.00000000000E+00 -0.33459428452E+03  0.33459428453E+03  0.25500000920E-02 0.  1.
    10030    2    1    2    0    0  0.00000000000E+00  0.00000000000E+00  0.11435775608E+04  0.18127661299E+04  0.14065388029E+04 0.  0.
        5    1    3    3  502    0  0.85817240224E+02 -0.57559927340E+03  0.62933240799E+02  0.58537321860E+03  0.46999998093E+01 0.  1.
       -5    1    3    3    0  502 -0.85817240224E+02  0.57559927340E+03  0.10806443200E+04  0.12273929113E+04  0.46999998093E+01 0. -1.
</event>
<event>
 5   0  0.3628581E-04  0.1793464E+04  0.7818609E-02  0.8709783E-01
       -2   -1    0    0    0  501  0.00000000000E+00  0.00000000000E+00  0.75796661736E+03  0.75796661736E+03  0.25500000920E-02 0. -1.
        2   -1    0    0  501    0  0.00000000000E+00  0.00000000000E+00 -0.10609023251E+04  0.10609023251E+04  0.25500000920E-02 0.  1.
    10030    2    1    2    0    0  0.00000000000E+00  0.00000000000E+00 -0.30293570771E+03  0.18188689424E+04  0.17934642976E+04 0.  0.
        2    1    3    3  502    0 -0.42774115234E+03  0.43320698611E+03  0.51626400962E+03  0.79822259668E+03  0.25500000920E-02 0. -1.
       -2    1    3    3    0  502  0.42774115234E+03 -0.43320698611E+03 -0.81919971733E+03  0.10206463458E+04  0.25500000920E-02 0.  1.
</event>
<event>
 5   0  0.1835421E-04  0.1926472E+04  0.7818609E-02  0.8641790E-01
       -1   -1    0    0    0  501  0.00000000000E+00  0.00000000000E+00  0.49601405974E+03  0.49601405976E+03  0.50400001928E-02 0. -1.
        1   -1    0    0  501    0  0.00000000000E+00  0.00000000000E+00 -0.18705598023E+04  0.18705598023E+04  0.50400001928E-02 0.  1.
    10030    2    1    2    0    0  0.00000000000E+00  0.00000000000E+00 -0.13745457426E+04  0.23665738621E+04  0.19264723840E+04 0.  0.
        2    1    3    3  502    0  0.11796959796E+03  0.85962344912E+03 -0.12011035547E+04  0.14817283994E+04  0.25500000920E-02 0.  1.
       -2    1    3    3    0  502 -0.11796959796E+03 -0.85962344912E+03 -0.17344218784E+03  0.88484546269E+03  0.25500000920E-02 0. -1.
</event>
<event>
 5   0  0.1837313E-04  0.1827250E+04  0.7818609E-02  0.8691941E-01
       -1   -1    0    0    0  501  0.00000000000E+00  0.00000000000E+00  0.61224769443E+03  0.61224769445E+03  0.50400001928E-02 0.  1.
        1   -1    0    0  501    0  0.00000000000E+00  0.00000000000E+00 -0.13633544387E+04  0.13633544387E+04  0.50400001928E-02 0. -1.
    10030    2    1    2    0    0  0.00000000000E+00  0.00000000000E+00 -0.75110674423E+03  0.19756021331E+04  0.18272499684E+04 0.  0.
        1    1    3    3  502    0  0.89751404097E+03 -0.14126234983E+03 -0.47939313286E+03  0.10272800402E+04  0.50400001928E-02 0. -1.
       -1    1    3    3    0  502 -0.89751404097E+03  0.14126234983E+03 -0.27171361137E+03  0.94832209288E+03  0.50400001928E-02 0.  1.
</event>
<event>
 5   0  0.1818778E-04  0.1804983E+04  0.7818609E-02  0.8703654E-01
       -1   -1    0    0    0  501  0.00000000000E+00  0.00000000000E+00  0.43301519740E+03  0.43301519742E+03  0.50400001928E-02 0. -1.
        1   -1    0    0  501    0  0.00000000000E+00  0.00000000000E+00 -0.18809745474E+04  0.18809745474E+04  0.50400001928E-02 0.  1.
    10030    2    1    2    0    0  0.00000000000E+00  0.00000000000E+00 -0.14479593500E+04  0.23139897449E+04  0.18049826204E+04 0.  0.
        3    1    3    3  502    0 -0.27702011651E+03  0.76473735865E+03 -0.12253178185E+04  0.14707029405E+04  0.10100000352E+00 0.  1.
       -3    1    3    3    0  502  0.27702011651E+03 -0.76473735865E+03 -0.22264153157E+03  0.84328680438E+03  0.10100000352E+00 0. -1.
</event>
<event>
 5   0  0.1837313E-04  0.1768747E+04  0.7818609E-02  0.8723098E-01
       -1   -1    0    0    0  501  0.00000000000E+00  0.00000000000E+00  0.64272566635E+03  0.64272566637E+03  0.50400001928E-02 0. -1.
        1   -1    0    0  501    0  0.00000000000E+00  0.00000000000E+00 -0.12168750815E+04  0.12168750815E+04  0.50400001928E-02 0.  1.
    10030    2    1    2    0    0  0.00000000000E+00  0.00000000000E+00 -0.57414941514E+03  0.18596007479E+04  0.17687474072E+04 0.  0.
        1    1    3    3  502    0 -0.40767813340E+03  0.27844556517E+03 -0.10585104347E+04  0.11679801940E+04  0.50400001928E-02 0.  1.
       -1    1    3    3    0  502  0.40767813340E+03 -0.27844556517E+03  0.48436101956E+03  0.69162055385E+03  0.50400001928E-02 0. -1.
</event>
<event>
 5   0  0.1825253E-04  0.1599385E+04  0.7818609E-02  0.8820926E-01
        1   -1    0    0  501    0  0.00000000000E+00  0.00000000000E+00  0.12224954806E+04  0.12224954806E+04  0.50400001928E-02 0. -1.
       -1   -1    0    0    0  501  0.00000000000E+00  0.00000000000E+00 -0.52311687948E+03  0.52311687950E+03  0.50400001928E-02 0.  1.
    10030    2    1    2    0    0  0.00000000000E+00  0.00000000000E+00  0.69937860108E+03  0.17456123601E+04  0.15993849080E+04 0.  0.
        4    1    3    3  502    0  0.35420604858E+03 -0.62226973996E+03 -0.38995000811E+02  0.71708003535E+03  0.12699999809E+01 0.  1.
       -4    1    3    3    0  502 -0.35420604858E+03  0.62226973996E+03  0.73837360190E+03  0.10285323247E+04  0.12699999809E+01 0. -1.
</event>
<event>
 5   0  0.1825253E-04  0.1692285E+04  0.7818609E-02  0.8765777E-01
       -1   -1    0    0    0  501  0.00000000000E+00  0.00000000000E+00  0.48956206835E+03  0.48956206838E+03  0.50400001928E-02 0.  1.
        1   -1    0    0  501    0  0.00000000000E+00  0.00000000000E+00 -0.14624448195E+04  0.14624448195E+04  0.50400001928E-02 0. -1.
    10030    2    1    2    0    0  0.00000000000E+00  0.00000000000E+00 -0.97288275113E+03  0.19520068879E+04  0.16922854496E+04 0.  0.
        4    1    3    3  502    0  0.68471932303E+03 -0.39207954951E+03 -0.83893845736E+03  0.11516884442E+04  0.12699999809E+01 0.  1.
       -4    1    3    3    0  502 -0.68471932303E+03  0.39207954951E+03 -0.13394429377E+03  0.80031844363E+03  0.12699999809E+01 0. -1.
</event>
<event>
 5   0  0.1818778E-04  0.1761504E+04  0.7818609E-02  0.8727043E-01
       -1   -1    0    0    0  501  0.00000000000E+00  0.00000000000E+00  0.52981198280E+03  0.52981198282E+03  0.50400001928E-02 0.  1.
        1   -1    0    0  501    0  0.00000000000E+00  0.00000000000E+00 -0.14641505728E+04  0.14641505728E+04  0.50400001928E-02 0. -1.
    10030    2    1    2    0    0  0.00000000000E+00  0.00000000000E+00 -0.93433859002E+03  0.19939625556E+04  0.17615044912E+04 0.  0.
        3    1    3    3  502    0  0.15363123344E+02  0.86523439854E+03 -0.28165840242E+03  0.91005387524E+03  0.10100000352E+00 0.  1.
       -3    1    3    3    0  502 -0.15363123344E+02 -0.86523439854E+03 -0.65268018760E+03  0.10839086804E+04  0.10100000352E+00 0. -1.
</event>
<event>
 5   0  0.3628581E-04  0.1762465E+04  0.7818609E-02  0.8726519E-01
       -2   -1    0    0    0  501  0.00000000000E+00  0.00000000000E+00  0.89365273932E+03  0.89365273933E+03  0.25500000920E-02 0. -1.
        2   -1    0    0  501    0  0.00000000000E+00  0.00000000000E+00 -0.86898494779E+03  0.86898494780E+03  0.25500000920E-02 0.  1.
    10030    2    1    2    0    0  0.00000000000E+00  0.00000000000E+00  0.24667791532E+02  0.17626376871E+04  0.17624650681E+04 0.  0.
        2    1    3    3  502    0 -0.86393152569E+03  0.13737690658E+03  0.11874301721E+03  0.88280801972E+03  0.25500000920E-02 0.  1.
       -2    1    3    3    0  502  0.86393152569E+03 -0.13737690658E+03 -0.94075225680E+02  0.87982966740E+03  0.25500000920E-02 0. -1.
</event>
<event>
 5   0  0.1883959E-04  0.1812006E+04  0.7818609E-02  0.8699941E-01
        1   -1    0    0  501    0  0.00000000000E+00  0.00000000000E+00  0.17715846117E+04  0.17715846117E+04  0.50400001928E-02 0. -1.
       -1   -1    0    0    0  501  0.00000000000E+00  0.00000000000E+00 -0.46333730535E+03  0.46333730538E+03  0.50400001928E-02 0.  1.
    10030    2    1    2    0    0  0.00000000000E+00  0.00000000000E+00  0.13082473063E+04  0.22349219170E+04  0.18120057839E+04 0.  0.
        5    1    3    3  502    0 -0.37174966490E+03 -0.16241350036E+03 -0.34503667117E+03  0.53258647458E+03  0.46999998093E+01 0.  1.
       -5    1    3    3    0  502  0.37174966490E+03  0.16241350036E+03  0.16532839775E+04  0.17023354425E+04  0.46999998093E+01 0. -1.
</event>
<event>
 5   0  0.3568870E-04  0.1791995E+04  0.7818609E-02  0.8710568E-01
       -2   -1    0    0    0  501  0.00000000000E+00  0.00000000000E+00  0.10275149169E+04  0.10275149169E+04  0.25500000920E-02 0. -1.
        2   -1    0    0  501    0  0.00000000000E+00  0.00000000000E+00 -0.78131337522E+03  0.78131337523E+03  0.25500000920E-02 0.  1.
    10030    2    1    2    0    0  0.00000000000E+00  0.00000000000E+00  0.24620154165E+03  0.18088282921E+04  0.17919945846E+04 0.  0.
        1    1    3    3  502    0  0.41376358307E+03  0.73137676572E+03 -0.19078480057E+03  0.86169084726E+03  0.50400001928E-02 0.  1.
       -1    1    3    3    0  502 -0.41376358307E+03 -0.73137676572E+03  0.43698634222E+03  0.94713744484E+03  0.50400001928E-02 0. -1.
</event>
<event>
 5   0  0.1818778E-04  0.1776057E+04  0.7818609E-02  0.8719137E-01
       -1   -1    0    0    0  501  0.00000000000E+00  0.00000000000E+00  0.70184814517E+03  0.70184814518E+03  0.50400001928E-02 0.  1.
        1   -1    0    0  501    0  0.00000000000E+00  0.00000000000E+00 -0.11235969487E+04  0.11235969487E+04  0.50400001928E-02 0. -1.
    10030    2    1    2    0    0  0.00000000000E+00  0.00000000000E+00 -0.42174880354E+03  0.18254450939E+04  0.17760567946E+04 0.  0.
        3    1    3    3  502    0  0.86272918147E+03  0.96324857120E+02 -0.40319893352E+03  0.95715699279E+03  0.10100000352E+00 0. -1.
       -3    1    3    3    0  502 -0.86272918147E+03 -0.96324857120E+02 -0.18549870021E+02  0.86828810111E+03  0.10100000352E+00 0.  1.
</event>
<event>
 5   0  0.3568870E-04  0.1763664E+04  0.7818609E-02  0.8725865E-01
       -2   -1    0    0    0  501  0.00000000000E+00  0.00000000000E+00  0.64021282952E+03  0.64021282953E+03  0.25500000920E-02 0. -1.
        2   -1    0    0  501    0  0.00000000000E+00  0.00000000000E+00 -0.12146388221E+04  0.12146388221E+04  0.25500000920E-02 0.  1.
    10030    2    1    2    0    0  0.00000000000E+00  0.00000000000E+00 -0.57442599259E+03  0.18548516516E+04  0.17636636382E+04 0.  0.
        1    1    3    3  502    0  0.18545871511E+03 -0.45413062951E+03 -0.10579029018E+04  0.11660995297E+04  0.50400001928E-02 0.  1.
       -1    1    3    3    0  502 -0.18545871511E+03  0.45413062951E+03  0.48347690919E+03  0.68875212189E+03  0.50400001928E-02 0. -1.
</event>
<event>
 5   0  0.1837313E-04  0.1754934E+04  0.7818609E-02  0.8730639E-01
       -1   -1    0    0    0  501  0.00000000000E+00  0.00000000000E+00  0.43834323978E+03  0.43834323981E+03  0.50400001928E-02 0. -1.
        1   -1    0    0  501    0  0.00000000000E+00  0.00000000000E+00 -0.17564970002E+04  0.17564970002E+04  0.50400001928E-02 0.  1.
    10030    2    1    2    0    0  0.00000000000E+00  0.00000000000E+00 -0.13181537604E+04  0.21948402400E+04  0.17549342845E+04 0.  0.
        1    1    3    3  502    0  0.76345074907E+03 -0.43117336771E+03 -0.70205814823E+03  0.11232333519E+04  0.50400001928E-02 0.  1.
       -1    1    3    3    0  502 -0.76345074907E+03  0.43117336771E+03 -0.61609561219E+03  0.10716068881E+04  0.50400001928E-02 0. -1.
</event>
<event>
 5   0  0.3575091E-04  0.1925792E+04  0.7818609E-02  0.8642123E-01
        2   -1    0    0  501    0  0.00000000000E+00  0.00000000000E+00  0.66072432979E+03  0.66072432979E+03  0.25500000920E-02 0.  1.
       -2   -1    0    0    0  501  0.00000000000E+00  0.00000000000E+00 -0.14032617506E+04  0.14032617506E+04  0.25500000920E-02 0. -1.
    10030    2    1    2    0    0  0.00000000000E+00  0.00000000000E+00 -0.74253742078E+03  0.20639860804E+04  0.19257924911E+04 0.  0.
        5    1    3    3  502    0 -0.57319173852E+03 -0.60634612763E+03  0.14378128658E+03  0.84669920513E+03  0.46999998093E+01 0.  1.
       -5    1    3    3    0  502  0.57319173852E+03  0.60634612763E+03 -0.88631870736E+03  0.12172868752E+04  0.46999998093E+01 0. -1.
</event>
<event>
 5   0  0.1835421E-04  0.1779043E+04  0.7818609E-02  0.8717524E-01
        1   -1    0    0  501    0  0.00000000000E+00  0.00000000000E+00  0.14862940731E+04  0.14862940731E+04  0.50400001928E-02 0.  1.
       -1   -1    0    0    0  501  0.00000000000E+00  0.00000000000E+00 -0.53236339649E+03  0.53236339652E+03  0.50400001928E-02 0. -1.
    10030    2    1    2    0    0  0.00000000000E+00  0.00000000000E+00  0.95393067656E+03  0.20186574696E+04  0.17790430697E+04 0.  0.
        2    1    3    3  502    0 -0.88360684298E+03 -0.98430325472E+02  0.44489202259E+03  0.99417226560E+03  0.25500000920E-02 0. -1.
       -2    1    3    3    0  502  0.88360684298E+03  0.98430325472E+02  0.50903865397E+03  0.10244852040E+04  0.25500000920E-02 0.  1.
</event>
<event>
 5   0  0.3531266E-04  0.1410275E+04  0.7818609E-02  0.8946414E-01
        2   -1    0    0  501    0  0.00000000000E+00  0.00000000000E+00  0.13529754593E+04  0.13529754593E+04  0.25500000920E-02 0.  1.
       -2   -1    0    0    0  501  0.00000000000E+00  0.00000000000E+00 -0.36750042052E+03  0.36750042053E+03  0.25500000920E-02 0. -1.
    10030    2    1    2    0    0  0.00000000000E+00  0.00000000000E+00  0.98547503875E+03  0.17204758798E+04  0.14102752217E+04 0.  0.
        3    1    3    3  502    0 -0.36948902928E+03 -0.42697961503E+03 -0.22519896748E+02  0.56510254854E+03  0.10100000352E+00 0. -1.
       -3    1    3    3    0  502  0.36948902928E+03  0.42697961503E+03  0.10079949355E+04  0.11553733313E+04  0.10100000352E+00 0.  1.
</event>
<event>
 5   0  0.3628581E-04  0.1814706E+04  0.7818609E-02  0.8698518E-01
        2   -1    0    0  501    0  0.00000000000E+00  0.00000000000E+00  0.19909143485E+04  0.19909143485E+04  0.25500000920E-02 0. -1.
       -2   -1    0    0    0  501  0.00000000000E+00  0.00000000000E+00 -0.41352314416E+03  0.41352314417E+03  0.25500000920E-02 0.  1.
    10030    2    1    2    0    0  0.00000000000E+00  0.00000000000E+00  0.15773912043E+04  0.24044374927E+04  0.18147056634E+04 0.  0.
        2    1    3    3  502    0 -0.75183350849E+03  0.11973331877E+03  0.14427812025E+04  0.16313207196E+04  0.25500000920E-02 0. -1.
       -2    1    3    3    0  502  0.75183350849E+03 -0.11973331877E+03  0.13461000186E+03  0.77311677302E+03  0.25500000920E-02 0.  1.
</event>
<event>
 5   0  0.1330125E-04  0.1781069E+04  0.7818609E-02  0.8716432E-01
        4   -1    0    0  501    0  0.00000000000E+00  0.00000000000E+00  0.13404940655E+04  0.13404946671E+04  0.12699999809E+01 0.  1.
       -4   -1    0    0    0  501  0.00000000000E+00  0.00000000000E+00 -0.59161019541E+03  0.59161155855E+03  0.12699999809E+01 0. -1.
    10030    2    1    2    0    0  0.00000000000E+00  0.00000000000E+00  0.74888387005E+03  0.19321062256E+04  0.17810691778E+04 0.  0.
        1    1    3    3  502    0  0.46823479524E+03  0.24152624988E+03  0.11532908435E+04  0.12679347470E+04  0.50400001928E-02 0.  1.
       -1    1    3    3    0  502 -0.46823479524E+03 -0.24152624988E+03 -0.40440697345E+03  0.66417147865E+03  0.50400001928E-02 0. -1.
</event>
<event>
 5   0  0.3575091E-04  0.1793994E+04  0.7818609E-02  0.8709500E-01
       -2   -1    0    0    0  501  0.00000000000E+00  0.00000000000E+00  0.94337322777E+03  0.94337322777E+03  0.25500000920E-02 0. -1.
        2   -1    0    0  501    0  0.00000000000E+00  0.00000000000E+00 -0.85290037614E+03  0.85290037614E+03  0.25500000920E-02 0.  1.
    10030    2    1    2    0    0  0.00000000000E+00  0.00000000000E+00  0.90472851633E+02  0.17962736039E+04  0.17939937356E+04 0.  0.
        5    1    3    3  502    0  0.34764667101E+03 -0.63954847182E+03  0.57002159819E+03  0.92456863892E+03  0.46999998093E+01 0. -1.
       -5    1    3    3    0  502 -0.34764667101E+03  0.63954847182E+03 -0.47954874655E+03  0.87170496499E+03  0.46999998093E+01 0.  1.
</event>
<event>
 5   0  0.3575091E-04  0.1816764E+04  0.7818609E-02  0.8697435E-01
        2   -1    0    0  501    0  0.00000000000E+00  0.00000000000E+00  0.99303012909E+03  0.99303012909E+03  0.25500000920E-02 0.  1.
       -2   -1    0    0    0  501  0.00000000000E+00  0.00000000000E+00 -0.83094978117E+03  0.83094978117E+03  0.25500000920E-02 0. -1.
    10030    2    1    2    0    0  0.00000000000E+00  0.00000000000E+00  0.16208034792E+03  0.18239799103E+04  0.18167643419E+04 0.  0.
        5    1    3    3  502    0 -0.26170996012E+03 -0.76678016245E+02  0.95094813488E+03  0.98929068864E+03  0.46999998093E+01 0.  1.
       -5    1    3    3    0  502  0.26170996012E+03  0.76678016245E+02 -0.78886778695E+03  0.83468922162E+03  0.46999998093E+01 0. -1.
</event>
<event>
 5   0  0.3531266E-04  0.1837537E+04  0.7818609E-02  0.8686588E-01
       -2   -1    0    0    0  501  0.00000000000E+00  0.00000000000E+00  0.13984851958E+04  0.13984851958E+04  0.25500000920E-02 0. -1.
        2   -1    0    0  501    0  0.00000000000E+00  0.00000000000E+00 -0.60360717676E+03  0.60360717676E+03  0.25500000920E-02 0.  1.
    10030    2    1    2    0    0  0.00000000000E+00  0.00000000000E+00  0.79487801907E+03  0.20020923726E+04  0.18375371570E+04 0.  0.
        3    1    3    3  502    0  0.17393727730E+03  0.34790985306E+03 -0.50947171099E+03  0.64098118287E+03  0.10100000352E+00 0.  1.
       -3    1    3    3    0  502 -0.17393727730E+03 -0.34790985306E+03  0.13043497301E+04  0.13611111897E+04  0.10100000352E+00 0. -1.
</event>
<event>
 5   0  0.3568870E-04  0.1823752E+04  0.7818609E-02  0.8693770E-01
        2   -1    0    0  501    0  0.00000000000E+00  0.00000000000E+00  0.12292287338E+04  0.12292287338E+04  0.25500000920E-02 0. -1.
       -2   -1    0    0    0  501  0.00000000000E+00  0.00000000000E+00 -0.67645484184E+03  0.67645484184E+03  0.25500000920E-02 0.  1.
    10030    2    1    2    0    0  0.00000000000E+00  0.00000000000E+00  0.55277389199E+03  0.19056835757E+04  0.18237518787E+04 0.  0.
        1    1    3    3  502    0  0.88520521215E+03  0.20134370514E+03  0.36621507531E+03  0.97889786833E+03  0.50400001928E-02 0. -1.
       -1    1    3    3    0  502 -0.88520521215E+03 -0.20134370514E+03  0.18655881669E+03  0.92678570734E+03  0.50400001928E-02 0.  1.
</event>
<event>
 5   0  0.1883959E-04  0.1699087E+04  0.7818609E-02  0.8761885E-01
       -1   -1    0    0    0  501  0.00000000000E+00  0.00000000000E+00  0.29656851170E+03  0.29656851174E+03  0.50400001928E-02 0. -1.
        1   -1    0    0  501    0  0.00000000000E+00  0.00000000000E+00 -0.24335845278E+04  0.24335845278E+04  0.50400001928E-02 0.  1.
    10030    2    1    2    0    0  0.00000000000E+00  0.00000000000E+00 -0.21370160161E+04  0.27301530395E+04  0.16990874510E+04 0.  0.
        5    1    3    3  502    0  0.47491347235E+03 -0.36215470188E+03 -0.97730190391E+02  0.60520419233E+03  0.46999998093E+01 0. -1.
       -5    1    3    3    0  502 -0.47491347235E+03  0.36215470188E+03 -0.20392858257E+04  0.21249488472E+04  0.46999998093E+01 0.  1.
</event>
<event>
 5   0  0.1837313E-04  0.1789221E+04  0.7818609E-02  0.8712053E-01
       -1   -1    0    0    0  501  0.00000000000E+00  0.00000000000E+00  0.63640087302E+03  0.63640087304E+03  0.50400001928E-02 0.  1.
        1   -1    0    0  501    0  0.00000000000E+00  0.00000000000E+00 -0.12575839973E+04  0.12575839973E+04  0.50400001928E-02 0. -1.
    10030    2    1    2    0    0  0.00000000000E+00  0.00000000000E+00 -0.62118312432E+03  0.18939848704E+04  0.17892205608E+04 0.  0.
        1    1    3    3  502    0 -0.54337079763E+03  0.69372842341E+03 -0.47395412906E+03  0.10005715695E+04  0.50400001928E-02 0. -1.
       -1    1    3    3    0  502  0.54337079763E+03 -0.69372842341E+03 -0.14722899526E+03  0.89341330091E+03  0.50400001928E-02 0.  1.
</event>
<event>
 5   0  0.1330125E-04  0.1784943E+04  0.7818609E-02  0.8714348E-01
       -3   -1    0    0    0  501  0.00000000000E+00  0.00000000000E+00  0.98677249976E+03  0.98677250493E+03  0.10100000352E+00 0. -1.
        3   -1    0    0  501    0  0.00000000000E+00  0.00000000000E+00 -0.80718214173E+03  0.80718214805E+03  0.10100000352E+00 0.  1.
    10030    2    1    2    0    0  0.00000000000E+00  0.00000000000E+00  0.17959035803E+03  0.17939546530E+04  0.17849427442E+04 0.  0.
        5    1    3    3  502    0  0.15976165021E+03  0.32110765429E+03  0.91114158242E+03  0.97920119676E+03  0.46999998093E+01 0. -1.
       -5    1    3    3    0  502 -0.15976165021E+03 -0.32110765429E+03 -0.73155122439E+03  0.81475345622E+03  0.46999998093E+01 0.  1.
</event>
<event>
 5   0  0.3628581E-04  0.1736498E+04  0.7818609E-02  0.8740817E-01
        2   -1    0    0  501    0  0.00000000000E+00  0.00000000000E+00  0.11230017142E+04  0.11230017142E+04  0.25500000920E-02 0. -1.
       -2   -1    0    0    0  501  0.00000000000E+00  0.00000000000E+00 -0.67128725880E+03  0.67128725880E+03  0.25500000920E-02 0.  1.
    10030    2    1    2    0    0  0.00000000000E+00  0.00000000000E+00  0.45171445538E+03  0.17942889730E+04  0.17364984795E+04 0.  0.
        2    1    3    3  502    0  0.43778872425E+03  0.17871669905E+03 -0.52656504590E+03  0.70772125386E+03  0.25500000920E-02 0.  1.
       -2    1    3    3    0  502 -0.43778872425E+03 -0.17871669905E+03  0.97827950128E+03  0.10865677191E+04  0.25500000920E-02 0. -1.
</event>
<event>
 5   0  0.1835421E-04  0.1794570E+04  0.7818609E-02  0.8709192E-01
       -1   -1    0    0    0  501  0.00000000000E+00  0.00000000000E+00  0.18527177893E+04  0.18527177893E+04  0.50400001928E-02 0.  1.
        1   -1    0    0  501    0  0.00000000000E+00  0.00000000000E+00 -0.43456202713E+03  0.43456202716E+03  0.50400001928E-02 0. -1.
    10030    2    1    2    0    0  0.00000000000E+00  0.00000000000E+00  0.14181557622E+04  0.22872798165E+04  0.17945704759E+04 0.  0.
        2    1    3    3  502    0  0.19066609299E+03  0.35581981310E+03  0.17304411492E+04  0.17769040124E+04  0.25500000920E-02 0.  1.
       -2    1    3    3    0  502 -0.19066609299E+03 -0.35581981310E+03 -0.31228538704E+03  0.51037580406E+03  0.25500000920E-02 0. -1.
</event>
<event>
 5   0  0.3568870E-04  0.1793248E+04  0.7818609E-02  0.8709899E-01
        2   -1    0    0  501    0  0.00000000000E+00  0.00000000000E+00  0.55856156993E+03  0.55856156993E+03  0.25500000920E-02 0.  1.
       -2   -1    0    0    0  501  0.00000000000E+00  0.00000000000E+00 -0.14392940606E+04  0.14392940606E+04  0.25500000920E-02 0. -1.
    10030    2    1    2    0    0  0.00000000000E+00  0.00000000000E+00 -0.88073249065E+03  0.19978556305E+04  0.17932477242E+04 0.  0.
        1    1    3    3  502    0  0.13843175769E+03  0.80486607113E+03 -0.28056847727E+02  0.81716579145E+03  0.50400001928E-02 0.  1.
       -1    1    3    3    0  502 -0.13843175769E+03 -0.80486607113E+03 -0.85267564293E+03  0.11806898391E+04  0.50400001928E-02 0. -1.
</event>
<event>
 5   0  0.3575091E-04  0.1801001E+04  0.7818609E-02  0.8705767E-01
       -2   -1    0    0    0  501  0.00000000000E+00  0.00000000000E+00  0.57693347718E+03  0.57693347718E+03  0.25500000920E-02 0.  1.
        2   -1    0    0  501    0  0.00000000000E+00  0.00000000000E+00 -0.14055362962E+04  0.14055362962E+04  0.25500000920E-02 0. -1.
    10030    2    1    2    0    0  0.00000000000E+00  0.00000000000E+00 -0.82860281904E+03  0.19824697734E+04  0.18010007692E+04 0.  0.
        5    1    3    3  502    0 -0.44440359039E+03 -0.16413784084E+03 -0.12572587671E+04  0.13435614907E+04  0.46999998093E+01 0. -1.
       -5    1    3    3    0  502  0.44440359039E+03  0.16413784084E+03  0.42865594802E+03  0.63890828271E+03  0.46999998093E+01 0.  1.
</event>
<event>
 5   0  0.1330125E-04  0.1846905E+04  0.7818609E-02  0.8681746E-01
        3   -1    0    0  501    0  0.00000000000E+00  0.00000000000E+00  0.17282155403E+04  0.17282155433E+04  0.10100000352E+00 0. -1.
       -3   -1    0    0    0  501  0.00000000000E+00  0.00000000000E+00 -0.49343647936E+03  0.49343648970E+03  0.10100000352E+00 0.  1.
    10030    2    1    2    0    0  0.00000000000E+00  0.00000000000E+00  0.12347790610E+04  0.22216520330E+04  0.18469050940E+04 0.  0.
        5    1    3    3  502    0  0.70826707745E+02 -0.71255732890E+03 -0.84006570861E+02  0.72099484287E+03  0.46999998093E+01 0. -1.
       -5    1    3    3    0  502 -0.70826707745E+02  0.71255732890E+03  0.13187856318E+04  0.15006571901E+04  0.46999998093E+01 0.  1.
</event>
<event>
 5   0  0.1818778E-04  0.1795008E+04  0.7818609E-02  0.8708958E-01
       -1   -1    0    0    0  501  0.00000000000E+00  0.00000000000E+00  0.10642312091E+04  0.10642312091E+04  0.50400001928E-02 0. -1.
        1   -1    0    0  501    0  0.00000000000E+00  0.00000000000E+00 -0.75689734443E+03  0.75689734445E+03  0.50400001928E-02 0.  1.
    10030    2    1    2    0    0  0.00000000000E+00  0.00000000000E+00  0.30733386466E+03  0.18211285536E+04  0.17950083856E+04 0.  0.
        3    1    3    3  502    0  0.62948883085E+03  0.47635270772E+03  0.58690025752E+03  0.98367678269E+03  0.10100000352E+00 0. -1.
       -3    1    3    3    0  502 -0.62948883085E+03 -0.47635270772E+03 -0.27956639286E+03  0.83745177087E+03  0.10100000352E+00 0.  1.
</event>
<event>
 5   0  0.1883959E-04  0.1784000E+04  0.7818609E-02  0.8714855E-01
        1   -1    0    0  501    0  0.00000000000E+00  0.00000000000E+00  0.57719127027E+03  0.57719127029E+03  0.50400001928E-02 0.  1.
       -1   -1    0    0    0  501  0.00000000000E+00  0.00000000000E+00 -0.13785095329E+04  0.13785095329E+04  0.50400001928E-02 0. -1.
    10030    2    1    2    0    0  0.00000000000E+00  0.00000000000E+00 -0.80131826260E+03  0.19557008032E+04  0.17839996282E+04 0.  0.
        5    1    3    3  502    0 -0.20499555360E+03  0.86791223827E+03 -0.38024576326E+03  0.96948633864E+03  0.46999998093E+01 0.  1.
       -5    1    3    3    0  502  0.20499555360E+03 -0.86791223827E+03 -0.42107249934E+03  0.98621446452E+03  0.46999998093E+01 0. -1.
</event>
<event>
 5   0  0.3568870E-04  0.1794204E+04  0.7818609E-02  0.8709388E-01
       -2   -1    0    0    0  501  0.00000000000E+00  0.00000000000E+00  0.64765480957E+03  0.64765480958E+03  0.25500000920E-02 0. -1.
        2   -1    0    0  501    0  0.00000000000E+00  0.00000000000E+00 -0.12426245613E+04  0.12426245613E+04  0.25500000920E-02 0.  1.
    10030    2    1    2    0    0  0.00000000000E+00  0.00000000000E+00 -0.59496975174E+03  0.18902793709E+04  0.17942037494E+04 0.  0.
        1    1    3    3  502    0  0.45072617166E+03  0.29778586904E+03 -0.10520496415E+04  0.11826406698E+04  0.50400001928E-02 0.  1.
       -1    1    3    3    0  502 -0.45072617166E+03 -0.29778586904E+03  0.45707988977E+03  0.70763870109E+03  0.50400001928E-02 0. -1.
</event>
<event>
 5   0  0.3582186E-04  0.1711486E+04  0.7818609E-02  0.8754840E-01
        2   -1    0    0  501    0  0.00000000000E+00  0.00000000000E+00  0.55046785738E+03  0.55046785739E+03  0.25500000920E-02 0.  1.
       -2   -1    0    0    0  501  0.00000000000E+00  0.00000000000E+00 -0.13303164174E+04  0.13303164174E+04  0.25500000920E-02 0. -1.
    10030    2    1    2    0    0  0.00000000000E+00  0.00000000000E+00 -0.77984856003E+03  0.18807842748E+04  0.17114864042E+04 0.  0.
        4    1    3    3  502    0 -0.36091684009E+03 -0.43989868886E+03 -0.10923069443E+04  0.12316281482E+04  0.12699999809E+01 0. -1.
       -4    1    3    3    0  502  0.36091684009E+03  0.43989868886E+03  0.31245838427E+03  0.64915612662E+03  0.12699999809E+01 0.  1.
</event>
<event>
 5   0  0.1330125E-04  0.1778959E+04  0.7818609E-02  0.8717569E-01
       -4   -1    0    0    0  501  0.00000000000E+00  0.00000000000E+00  0.53042379579E+03  0.53042531617E+03  0.12699999809E+01 0.  1.
        4   -1    0    0  501    0  0.00000000000E+00  0.00000000000E+00 -0.14915842099E+04  0.14915847506E+04  0.12699999809E+01 0. -1.
    10030    2    1    2    0    0  0.00000000000E+00  0.00000000000E+00 -0.96116041413E+03  0.20220100668E+04  0.17789590688E+04 0.  0.
        2    1    3    3  502    0 -0.60341106566E+03 -0.73807426006E+02  0.25745771339E+03  0.66017946385E+03  0.25500000920E-02 0.  1.
       -2    1    3    3    0  502  0.60341106566E+03  0.73807426006E+02 -0.12186181275E+04  0.13618306029E+04  0.25500000920E-02 0. -1.
</event>
<event>
 5   0  0.1825253E-04  0.1723598E+04  0.7818609E-02  0.8748019E-01
        1   -1    0    0  501    0  0.00000000000E+00  0.00000000000E+00  0.10028202652E+04  0.10028202652E+04  0.50400001928E-02 0. -1.
       -1   -1    0    0    0  501  0.00000000000E+00  0.00000000000E+00 -0.74060890844E+03  0.74060890846E+03  0.50400001928E-02 0.  1.
    10030    2    1    2    0    0  0.00000000000E+00  0.00000000000E+00  0.26221135671E+03  0.17434291736E+04  0.17235981225E+04 0.  0.
        4    1    3    3  502    0 -0.65725699213E+03 -0.39084543660E+03 -0.27089508200E+03  0.81125376262E+03  0.12699999809E+01 0.  1.
       -4    1    3    3    0  502  0.65725699213E+03  0.39084543660E+03  0.53310643871E+03  0.93217541101E+03  0.12699999809E+01 0. -1.
</event>
<event>
 5   0  0.3531266E-04  0.1800977E+04  0.7818609E-02  0.8705780E-01
        2   -1    0    0  501    0  0.00000000000E+00  0.00000000000E+00  0.14885994867E+04  0.14885994867E+04  0.25500000920E-02 0. -1.
       -2   -1    0    0    0  501  0.00000000000E+00  0.00000000000E+00 -0.54472638147E+03  0.54472638147E+03  0.25500000920E-02 0.  1.
    10030    2    1    2    0    0  0.00000000000E+00  0.00000000000E+00  0.94387310522E+03  0.20333258682E+04  0.18009768592E+04 0.  0.
        3    1    3    3  502    0 -0.20551165450E+03  0.31265615992E+03 -0.45281415045E+03  0.58739218544E+03  0.10100000352E+00 0.  1.
       -3    1    3    3    0  502  0.20551165450E+03 -0.31265615992E+03  0.13966872557E+04  0.14459336827E+04  0.10100000352E+00 0. -1.
</event>
<event>
 5   0  0.1837313E-04  0.1842424E+04  0.7818609E-02  0.8684058E-01
       -1   -1    0    0    0  501  0.00000000000E+00  0.00000000000E+00  0.21599020810E+04  0.21599020810E+04  0.50400001928E-02 0.  1.
        1   -1    0    0  501    0  0.00000000000E+00  0.00000000000E+00 -0.39290293927E+03  0.39290293930E+03  0.50400001928E-02 0. -1.
    10030    2    1    2    0    0  0.00000000000E+00  0.00000000000E+00  0.17669991417E+04  0.25528050203E+04  0.18424243552E+04 0.  0.
        1    1    3    3  502    0  0.38079863958E+03 -0.82413485475E+03  0.66695152189E+03  0.11265124035E+04  0.50400001928E-02 0.  1.
       -1    1    3    3    0  502 -0.38079863958E+03  0.82413485475E+03  0.11000476198E+04  0.14262926168E+04  0.50400001928E-02 0. -1.
</event>
<event>
 5   0  0.3531266E-04  0.1730997E+04  0.7818609E-02  0.8743881E-01
        2   -1    0    0  501    0  0.00000000000E+00  0.00000000000E+00  0.11850361684E+04  0.11850361684E+04  0.25500000920E-02 0. -1.
       -2   -1    0    0    0  501  0.00000000000E+00  0.00000000000E+00 -0.63212189857E+03  0.63212189858E+03  0.25500000920E-02 0.  1.
    10030    2    1    2    0    0  0.00000000000E+00  0.00000000000E+00  0.55291426983E+03  0.18171580670E+04  0.17309966062E+04 0.  0.
        3    1    3    3  502    0  0.40639338399E+03  0.59090661549E+02  0.10762456471E+04  0.11519340224E+04  0.10100000352E+00 0. -1.
       -3    1    3    3    0  502 -0.40639338399E+03 -0.59090661549E+02 -0.52333137729E+03  0.66522404458E+03  0.10100000352E+00 0.  1.
</event>
<event>
 5   0  0.1835421E-04  0.1437011E+04  0.7818609E-02  0.8927455E-01
        1   -1    0    0  501    0  0.00000000000E+00  0.00000000000E+00  0.10321317334E+04  0.10321317335E+04  0.50400001928E-02 0. -1.
       -1   -1    0    0    0  501  0.00000000000E+00  0.00000000000E+00 -0.50017849385E+03  0.50017849388E+03  0.50400001928E-02 0.  1.
    10030    2    1    2    0    0  0.00000000000E+00  0.00000000000E+00  0.53195323959E+03  0.15323102273E+04  0.14370109198E+04 0.  0.
        2    1    3    3  502    0  0.60076128030E+03  0.50247303408E+01  0.68620692180E+03  0.91204128380E+03  0.25500000920E-02 0. -1.
       -2    1    3    3    0  502 -0.60076128030E+03 -0.50247303408E+01 -0.15425368222E+03  0.62026894353E+03  0.25500000920E-02 0.  1.
</event>
<event>
 5   0  0.3568870E-04  0.1814267E+04  0.7818609E-02  0.8698749E-01
       -2   -1    0    0    0  501  0.00000000000E+00  0.00000000000E+00  0.69954538887E+03  0.69954538888E+03  0.25500000920E-02 0. -1.
        2   -1    0    0  501    0  0.00000000000E+00  0.00000000000E+00 -0.11763231662E+04  0.11763231662E+04  0.25500000920E-02 0.  1.
    10030    2    1    2    0    0  0.00000000000E+00  0.00000000000E+00 -0.47677777737E+03  0.18758685551E+04  0.18142672866E+04 0.  0.
        1    1    3    3  502    0  0.55746226628E+03 -0.13142856174E+03  0.48895465669E+03  0.75306991806E+03  0.50400001928E-02 0. -1.
       -1    1    3    3    0  502 -0.55746226628E+03  0.13142856174E+03 -0.96573243406E+03  0.11227986371E+04  0.50400001928E-02 0.  1.
</event>
<event>
 5   0  0.3628581E-04  0.1795957E+04  0.7818609E-02  0.8708453E-01
        2   -1    0    0  501    0  0.00000000000E+00  0.00000000000E+00  0.63540525307E+03  0.63540525308E+03  0.25500000920E-02 0. -1.
       -2   -1    0    0    0  501  0.00000000000E+00  0.00000000000E+00 -0.12690565210E+04  0.12690565210E+04  0.25500000920E-02 0.  1.
    10030    2    1    2    0    0  0.00000000000E+00  0.00000000000E+00 -0.63365126794E+03  0.19044617741E+04  0.17959567700E+04 0.  0.
        2    1    3    3  502    0  0.98346813588E+02  0.72251518542E+03  0.23892242691E+03  0.76732275803E+03  0.25500000920E-02 0. -1.
       -2    1    3    3    0  502 -0.98346813588E+02 -0.72251518542E+03 -0.87257369485E+03  0.11371390161E+04  0.25500000920E-02 0.  1.
</event>
<event>
 5   0  0.1883959E-04  0.1841378E+04  0.7818609E-02  0.8684599E-01
       -1   -1    0    0    0  501  0.00000000000E+00  0.00000000000E+00  0.66734495475E+03  0.66734495477E+03  0.50400001928E-02 0. -1.
        1   -1    0    0  501    0  0.00000000000E+00  0.00000000000E+00 -0.12702106023E+04  0.12702106023E+04  0.50400001928E-02 0.  1.
    10030    2    1    2    0    0  0.00000000000E+00  0.00000000000E+00 -0.60286564756E+03  0.19375555571E+04  0.18413784369E+04 0.  0.
        5    1    3    3  502    0  0.47390226062E+02 -0.89245302894E+02  0.66147989154E+03  0.66916985476E+03  0.46999998093E+01 0. -1.
       -5    1    3    3    0  502 -0.47390226062E+02  0.89245302894E+02 -0.12643455391E+04  0.12683857023E+04  0.46999998093E+01 0.  1.
</event>
<event>
 5   0  0.1825253E-04  0.1787486E+04  0.7818609E-02  0.8712982E-01
       -1   -1    0    0    0  501  0.00000000000E+00  0.00000000000E+00  0.10802937286E+04  0.10802937286E+04  0.50400001928E-02 0.  1.
        1   -1    0    0  501    0  0.00000000000E+00  0.00000000000E+00 -0.73940720985E+03  0.73940720987E+03  0.50400001928E-02 0. -1.
    10030    2    1    2    0    0  0.00000000000E+00  0.00000000000E+00  0.34088651876E+03  0.18197009385E+04  0.17874864718E+04 0.  0.
        4    1    3    3  502    0  0.61423142495E+03 -0.53262807114E+03 -0.20746443117E+03  0.83905661828E+03  0.12699999809E+01 0. -1.
       -4    1    3    3    0  502 -0.61423142495E+03  0.53262807114E+03  0.54835094993E+03  0.98064432021E+03  0.12699999809E+01 0.  1.
</event>
<event>
 5   0  0.1330125E-04  0.1807681E+04  0.7818609E-02  0.8702226E-01
       -3   -1    0    0    0  501  0.00000000000E+00  0.00000000000E+00  0.67105078309E+03  0.67105079069E+03  0.10100000352E+00 0. -1.
        3   -1    0    0  501    0  0.00000000000E+00  0.00000000000E+00 -0.12173855327E+04  0.12173855369E+04  0.10100000352E+00 0.  1.
    10030    2    1    2    0    0  0.00000000000E+00  0.00000000000E+00 -0.54633474961E+03  0.18884363276E+04  0.18076808636E+04 0.  0.
        3    1    3    3  502    0  0.14693135713E+03 -0.45585557747E+02 -0.12036077361E+04  0.12133995465E+04  0.10100000352E+00 0.  1.
       -3    1    3    3    0  502 -0.14693135713E+03  0.45585557747E+02  0.65727298653E+03  0.67503678107E+03  0.10100000352E+00 0. -1.
</event>
<event>
 5   0  0.3582186E-04  0.1775215E+04  0.7818609E-02  0.8719592E-01
        2   -1    0    0  501    0  0.00000000000E+00  0.00000000000E+00  0.13741435571E+04  0.13741435571E+04  0.25500000920E-02 0. -1.
       -2   -1    0    0    0  501  0.00000000000E+00  0.00000000000E+00 -0.57333672547E+03  0.57333672547E+03  0.25500000920E-02 0.  1.
    10030    2    1    2    0    0  0.00000000000E+00  0.00000000000E+00  0.80080683165E+03  0.19474802826E+04  0.17752148798E+04 0.  0.
        4    1    3    3  502    0  0.56137962450E+03  0.26595043751E+03 -0.29513035925E+03  0.68773560318E+03  0.12699999809E+01 0.  1.
       -4    1    3    3    0  502 -0.56137962450E+03 -0.26595043751E+03  0.10959371909E+04  0.12597446794E+04  0.12699999809E+01 0. -1.
</event>
<event>
 5   0  0.3575091E-04  0.1785693E+04  0.7818609E-02  0.8713945E-01
       -2   -1    0    0    0  501  0.00000000000E+00  0.00000000000E+00  0.70137380370E+03  0.70137380371E+03  0.25500000920E-02 0.  1.
        2   -1    0    0  501    0  0.00000000000E+00  0.00000000000E+00 -0.11365904593E+04  0.11365904593E+04  0.25500000920E-02 0. -1.
    10030    2    1    2    0    0  0.00000000000E+00  0.00000000000E+00 -0.43521665559E+03  0.18379642630E+04  0.17856928893E+04 0.  0.
        5    1    3    3  502    0 -0.70394719653E+03 -0.49206967439E+03 -0.46862939110E+03  0.97842210531E+03  0.46999998093E+01 0. -1.
       -5    1    3    3    0  502  0.70394719653E+03  0.49206967439E+03  0.33412735505E+02  0.85954215769E+03  0.46999998093E+01 0.  1.
</event>
<event>
 5   0  0.1825253E-04  0.1848711E+04  0.7818609E-02  0.8680816E-01
       -1   -1    0    0    0  501  0.00000000000E+00  0.00000000000E+00  0.48519265096E+03  0.48519265099E+03  0.50400001928E-02 0. -1.
        1   -1    0    0  501    0  0.00000000000E+00  0.00000000000E+00 -0.17610181999E+04  0.17610181999E+04  0.50400001928E-02 0.  1.
    10030    2    1    2    0    0  0.00000000000E+00  0.00000000000E+00 -0.12758255489E+04  0.22462108509E+04  0.18487109983E+04 0.  0.
        4    1    3    3  502    0  0.83757040489E+02  0.83347683212E+03 -0.11127528602E+04  0.13928098981E+04  0.12699999809E+01 0.  1.
       -4    1    3    3    0  502 -0.83757040489E+02 -0.83347683212E+03 -0.16307268876E+03  0.85340095279E+03  0.12699999809E+01 0. -1.
</event>
<event>
 5   0  0.3582186E-04  0.1783069E+04  0.7818609E-02  0.8715356E-01
       -2   -1    0    0    0  501  0.00000000000E+00  0.00000000000E+00  0.10163946655E+04  0.10163946655E+04  0.25500000920E-02 0. -1.
        2   -1    0    0  501    0  0.00000000000E+00  0.00000000000E+00 -0.78201259377E+03  0.78201259378E+03  0.25500000920E-02 0.  1.
    10030    2    1    2    0    0  0.00000000000E+00  0.00000000000E+00  0.23438207169E+03  0.17984072592E+04  0.17830686231E+04 0.  0.
        4    1    3    3  502    0 -0.72606158186E+02  0.69719528758E+03 -0.43843710648E+03  0.82678995668E+03  0.12699999809E+01 0.  1.
       -4    1    3    3    0  502  0.72606158186E+02 -0.69719528758E+03  0.67281917817E+03  0.97161730256E+03  0.12699999809E+01 0. -1.
</event>
<event>
 5   0  0.1330125E-04  0.1835700E+04  0.7818609E-02  0.8687542E-01
       -3   -1    0    0    0  501  0.00000000000E+00  0.00000000000E+00  0.92237618908E+03  0.92237619461E+03  0.10100000352E+00 0. -1.
        3   -1    0    0  501    0  0.00000000000E+00  0.00000000000E+00 -0.91334576495E+03  0.91334577054E+03  0.10100000352E+00 0.  1.
    10030    2    1    2    0    0  0.00000000000E+00  0.00000000000E+00  0.90304241281E+01  0.18357219651E+04  0.18356997534E+04 0.  0.
        1    1    3    3  502    0 -0.83604739182E+03 -0.11651245234E+03 -0.35590280462E+03  0.91608798665E+03  0.50400001928E-02 0.  1.
       -1    1    3    3    0  502  0.83604739182E+03  0.11651245234E+03  0.36493322875E+03  0.91963397849E+03  0.50400001928E-02 0. -1.
</event>
<event>
 5   0  0.1818778E-04  0.1775737E+04  0.7818609E-02  0.8719309E-01
        1   -1    0    0  501    0  0.00000000000E+00  0.00000000000E+00  0.14806707253E+04  0.14806707253E+04  0.50400001928E-02 0.  1.
       -1   -1    0    0    0  501  0.00000000000E+00  0.00000000000E+00 -0.53240119851E+03  0.53240119854E+03  0.50400001928E-02 0. -1.
    10030    2    1    2    0    0  0.00000000000E+00  0.00000000000E+00  0.94826952681E+03  0.20130719239E+04  0.17757374455E+04 0.  0.
        3    1    3    3  502    0 -0.16245856920E+03 -0.11350383074E+03 -0.50700658986E+03  0.54436348028E+03  0.10100000352E+00 0. -1.
       -3    1    3    3    0  502  0.16245856920E+03  0.11350383074E+03  0.14552761167E+04  0.14687084436E+04  0.10100000352E+00 0.  1.
</event>
<event>
 5   0  0.1835421E-04  0.1804721E+04  0.7818609E-02  0.8703793E-01
        1   -1    0    0  501    0  0.00000000000E+00  0.00000000000E+00  0.69467686793E+03  0.69467686795E+03  0.50400001928E-02 0. -1.
       -1   -1    0    0    0  501  0.00000000000E+00  0.00000000000E+00 -0.11721344388E+04  0.11721344388E+04  0.50400001928E-02 0.  1.
    10030    2    1    2    0    0  0.00000000000E+00  0.00000000000E+00 -0.47745757091E+03  0.18668113068E+04  0.18047212314E+04 0.  0.
        2    1    3    3  502    0 -0.44403752793E+02 -0.23499679558E+03  0.66129772119E+03  0.70321395269E+03  0.25500000920E-02 0. -1.
       -2    1    3    3    0  502  0.44403752793E+02  0.23499679558E+03 -0.11387552921E+04  0.11635973541E+04  0.25500000920E-02 0.  1.
</event>
<event>
 5   0  0.1835421E-04  0.1674369E+04  0.7818609E-02  0.8776119E-01
       -1   -1    0    0    0  501  0.00000000000E+00  0.00000000000E+00  0.47233833838E+03  0.47233833841E+03  0.50400001928E-02 0. -1.
        1   -1    0    0  501    0  0.00000000000E+00  0.00000000000E+00 -0.14838462452E+04  0.14838462452E+04  0.50400001928E-02 0.  1.
    10030    2    1    2    0    0  0.00000000000E+00  0.00000000000E+00 -0.10115079068E+04  0.19561845836E+04  0.16743685017E+04 0.  0.
        2    1    3    3  502    0  0.63578203361E+03 -0.42438873618E+03 -0.10689413778E+03  0.77184904635E+03  0.25500000920E-02 0.  1.
       -2    1    3    3    0  502 -0.63578203361E+03  0.42438873618E+03 -0.90461376904E+03  0.11843355373E+04  0.25500000920E-02 0. -1.
</event>
<event>
 5   0  0.1837313E-04  0.1815687E+04  0.7818609E-02  0.8698001E-01
       -1   -1    0    0    0  501  0.00000000000E+00  0.00000000000E+00  0.64504641711E+03  0.64504641713E+03  0.50400001928E-02 0. -1.
        1   -1    0    0  501    0  0.00000000000E+00  0.00000000000E+00 -0.12777065746E+04  0.12777065746E+04  0.50400001928E-02 0.  1.
    10030    2    1    2    0    0  0.00000000000E+00  0.00000000000E+00 -0.63266015744E+03  0.19227529917E+04  0.18156872507E+04 0.  0.
        1    1    3    3  502    0 -0.36739926550E+03 -0.55429387269E+03 -0.97079925028E+03  0.11767221855E+04  0.50400001928E-02 0.  1.
       -1    1    3    3    0  502  0.36739926550E+03  0.55429387269E+03  0.33813909283E+03  0.74603080615E+03  0.50400001928E-02 0. -1.
</event>
<event>
 5   0  0.1883959E-04  0.1805666E+04  0.7818609E-02  0.8703292E-01
       -1   -1    0    0    0  501  0.00000000000E+00  0.00000000000E+00  0.88399721541E+03  0.88399721542E+03  0.50400001928E-02 0.  1.
        1   -1    0    0  501    0  0.00000000000E+00  0.00000000000E+00 -0.92207000969E+03  0.92207000970E+03  0.50400001928E-02 0. -1.
    10030    2    1    2    0    0  0.00000000000E+00  0.00000000000E+00 -0.38072794280E+02  0.18060672251E+04  0.18056658838E+04 0.  0.
        5    1    3    3  502    0 -0.36560449634E+03 -0.41574538297E+03  0.69426610831E+03  0.88799684141E+03  0.46999998093E+01 0.  1.
       -5    1    3    3    0  502  0.36560449634E+03  0.41574538297E+03 -0.73233890259E+03  0.91807038371E+03  0.46999998093E+01 0. -1.
</event>
<event>
 5   0  0.1835421E-04  0.1935900E+04  0.7818609E-02  0.8637190E-01
        1   -1    0    0  501    0  0.00000000000E+00  0.00000000000E+00  0.32354858884E+03  0.32354858888E+03  0.50400001928E-02 0. -1.
       -1   -1    0    0    0  501  0.00000000000E+00  0.00000000000E+00 -0.28957853523E+04  0.28957853523E+04  0.50400001928E-02 0.  1.
    10030    2    1    2    0    0  0.00000000000E+00  0.00000000000E+00 -0.25722367635E+04  0.32193339412E+04  0.19359000639E+04 0.  0.
        2    1    3    3  502    0  0.35296233295E+03  0.26860725606E+03 -0.27168433856E+04  0.27528113354E+04  0.25500000920E-02 0.  1.
       -2    1    3    3    0  502 -0.35296233295E+03 -0.26860725606E+03  0.14460662216E+03  0.46652260574E+03  0.25500000920E-02 0. -1.
</event>
<event>
 5   0  0.3582186E-04  0.1810813E+04  0.7818609E-02  0.8700570E-01
       -2   -1    0    0    0  501  0.00000000000E+00  0.00000000000E+00  0.11266466272E+04  0.11266466272E+04  0.25500000920E-02 0.  1.
        2   -1    0    0  501    0  0.00000000000E+00  0.00000000000E+00 -0.72761115987E+03  0.72761115987E+03  0.25500000920E-02 0. -1.
    10030    2    1    2    0    0  0.00000000000E+00  0.00000000000E+00  0.39903546734E+03  0.18542577871E+04  0.18108127006E+04 0.  0.
        4    1    3    3  502    0  0.69433847792E+03  0.42720062224E+03  0.60286240365E+03  0.10139284907E+04  0.12699999809E+01 0.  1.
       -4    1    3    3    0  502 -0.69433847792E+03 -0.42720062224E+03 -0.20382693631E+03  0.84032929642E+03  0.12699999809E+01 0. -1.
</event>
<event>
 5   0  0.3582186E-04  0.1886480E+04  0.7818609E-02  0.8661615E-01
        2   -1    0    0  501    0  0.00000000000E+00  0.00000000000E+00  0.11912412025E+04  0.11912412025E+04  0.25500000920E-02 0. -1.
       -2   -1    0    0    0  501  0.00000000000E+00  0.00000000000E+00 -0.74686982114E+03  0.74686982115E+03  0.25500000920E-02 0.  1.
    10030    2    1    2    0    0  0.00000000000E+00  0.00000000000E+00  0.44437138136E+03  0.19381110237E+04  0.18864804307E+04 0.  0.
        4    1    3    3  502    0  0.65602656389E+03  0.30882328064E+03  0.84198612284E+03  0.11111637661E+04  0.12699999809E+01 0. -1.
       -4    1    3    3    0  502 -0.65602656389E+03 -0.30882328064E+03 -0.39761474148E+03  0.82694725753E+03  0.12699999809E+01 0.  1.
</event>
<event>
 5   0  0.3568870E-04  0.1819969E+04  0.7818609E-02  0.8695752E-01
        2   -1    0    0  501    0  0.00000000000E+00  0.00000000000E+00  0.13441341529E+04  0.13441341529E+04  0.25500000920E-02 0. -1.
       -2   -1    0    0    0  501  0.00000000000E+00  0.00000000000E+00 -0.61606327588E+03  0.61606327589E+03  0.25500000920E-02 0.  1.
    10030    2    1    2    0    0  0.00000000000E+00  0.00000000000E+00  0.72807087703E+03  0.19601974288E+04  0.18199688893E+04 0.  0.
        1    1    3    3  502    0  0.89222816565E+03  0.17877056548E+03  0.37098844328E+03  0.98268125032E+03  0.50400001928E-02 0.  1.
       -1    1    3    3    0  502 -0.89222816565E+03 -0.17877056548E+03  0.35708243376E+03  0.97751617848E+03  0.50400001928E-02 0. -1.
</event>
<event>
 5   0  0.1825253E-04  0.1819740E+04  0.7818609E-02  0.8695872E-01
        1   -1    0    0  501    0  0.00000000000E+00  0.00000000000E+00  0.10901140941E+04  0.10901140941E+04  0.50400001928E-02 0. -1.
       -1   -1    0    0    0  501  0.00000000000E+00  0.00000000000E+00 -0.75942800664E+03  0.75942800665E+03  0.50400001928E-02 0.  1.
    10030    2    1    2    0    0  0.00000000000E+00  0.00000000000E+00  0.33068608743E+03  0.18495421007E+04  0.18197397325E+04 0.  0.
        4    1    3    3  502    0  0.61235918886E+03 -0.67254104629E+03  0.18953037715E+03  0.92909558813E+03  0.12699999809E+01 0. -1.
       -4    1    3    3    0  502 -0.61235918886E+03  0.67254104629E+03  0.14115571029E+03  0.92044651260E+03  0.12699999809E+01 0.  1.
</event>
<event>
 5   0  0.1825253E-04  0.2119449E+04  0.7818609E-02  0.8552724E-01
        1   -1    0    0  501    0  0.00000000000E+00  0.00000000000E+00  0.13460992609E+04  0.13460992609E+04  0.50400001928E-02 0.  1.
       -1   -1    0    0    0  501  0.00000000000E+00  0.00000000000E+00 -0.83427467874E+03  0.83427467875E+03  0.50400001928E-02 0. -1.
    10030    2    1    2    0    0  0.00000000000E+00  0.00000000000E+00  0.51182458212E+03  0.21803739396E+04  0.21194494836E+04 0.  0.
        4    1    3    3  502    0 -0.88249270980E+02  0.10493170160E+04  0.37833205165E+03  0.11189239867E+04  0.12699999809E+01 0. -1.
       -4    1    3    3    0  502  0.88249270980E+02 -0.10493170160E+04  0.13349253047E+03  0.10614499529E+04  0.12699999809E+01 0.  1.
</event>
<event>
 5   0  0.3575091E-04  0.1792968E+04  0.7818609E-02  0.8710048E-01
        2   -1    0    0  501    0  0.00000000000E+00  0.00000000000E+00  0.11008845068E+04  0.11008845068E+04  0.25500000920E-02 0.  1.
       -2   -1    0    0    0  501  0.00000000000E+00  0.00000000000E+00 -0.73003441863E+03  0.73003441863E+03  0.25500000920E-02 0. -1.
    10030    2    1    2    0    0  0.00000000000E+00  0.00000000000E+00  0.37085008819E+03  0.18309189255E+04  0.17929680208E+04 0.  0.
        5    1    3    3  502    0 -0.50277296916E+03  0.44204500064E+03  0.79426388968E+03  0.10387789262E+04  0.46999998093E+01 0. -1.
       -5    1    3    3    0  502  0.50277296916E+03 -0.44204500064E+03 -0.42341380149E+03  0.79213999924E+03  0.46999998093E+01 0.  1.
</event>
<event>
 5   0  0.1883959E-04  0.1803695E+04  0.7818609E-02  0.8704337E-01
       -1   -1    0    0    0  501  0.00000000000E+00  0.00000000000E+00  0.64824523449E+03  0.64824523451E+03  0.50400001928E-02 0.  1.
        1   -1    0    0  501    0  0.00000000000E+00  0.00000000000E+00 -0.12546620182E+04  0.12546620182E+04  0.50400001928E-02 0. -1.
    10030    2    1    2    0    0  0.00000000000E+00  0.00000000000E+00 -0.60641678367E+03  0.19029072527E+04  0.18036947349E+04 0.  0.
        5    1    3    3  502    0 -0.54138014156E+03  0.18707736932E+03 -0.10380981976E+04  0.11856476533E+04  0.46999998093E+01 0. -1.
       -5    1    3    3    0  502  0.54138014156E+03 -0.18707736932E+03  0.43168141397E+03  0.71725959941E+03  0.46999998093E+01 0.  1.
</event>
<event>
 5   0  0.1883959E-04  0.1809411E+04  0.7818609E-02  0.8701311E-01
       -1   -1    0    0    0  501  0.00000000000E+00  0.00000000000E+00  0.31503187826E+03  0.31503187830E+03  0.50400001928E-02 0.  1.
        1   -1    0    0  501    0  0.00000000000E+00  0.00000000000E+00 -0.25981248883E+04  0.25981248883E+04  0.50400001928E-02 0. -1.
    10030    2    1    2    0    0  0.00000000000E+00  0.00000000000E+00 -0.22830930101E+04  0.29131567666E+04  0.18094111347E+04 0.  0.
        5    1    3    3  502    0 -0.62610925223E+03 -0.59447301513E+03 -0.70637165073E+03  0.11155240743E+04  0.46999998093E+01 0.  1.
       -5    1    3    3    0  502  0.62610925223E+03  0.59447301513E+03 -0.15767213593E+04  0.17976326923E+04  0.46999998093E+01 0. -1.
</event>
<event>
 5   0  0.3628581E-04  0.1803717E+04  0.7818609E-02  0.8704325E-01
        2   -1    0    0  501    0  0.00000000000E+00  0.00000000000E+00  0.23595373361E+04  0.23595373361E+04  0.25500000920E-02 0. -1.
       -2   -1    0    0    0  501  0.00000000000E+00  0.00000000000E+00 -0.34470698156E+03  0.34470698157E+03  0.25500000920E-02 0.  1.
    10030    2    1    2    0    0  0.00000000000E+00  0.00000000000E+00  0.20148303546E+04  0.27042443177E+04  0.18037172650E+04 0.  0.
        2    1    3    3  502    0  0.26820309101E+02  0.47057840091E+03  0.21601765062E+04  0.22110011077E+04  0.25500000920E-02 0. -1.
       -2    1    3    3    0  502 -0.26820309101E+02 -0.47057840091E+03 -0.14534615164E+03  0.49324320997E+03  0.25500000920E-02 0.  1.
</event>
<event>
 5   0  0.1818778E-04  0.1764214E+04  0.7818609E-02  0.8725565E-01
        1   -1    0    0  501    0  0.00000000000E+00  0.00000000000E+00  0.82943437712E+03  0.82943437713E+03  0.50400001928E-02 0.  1.
       -1   -1    0    0    0  501  0.00000000000E+00  0.00000000000E+00 -0.93812416415E+03  0.93812416417E+03  0.50400001928E-02 0. -1.
    10030    2    1    2    0    0  0.00000000000E+00  0.00000000000E+00 -0.10868978703E+03  0.17675585413E+04  0.17642136285E+04 0.  0.
        3    1    3    3  502    0 -0.71227074198E+03  0.61424651762E+02 -0.57205453603E+03  0.91561400171E+03  0.10100000352E+00 0. -1.
       -3    1    3    3    0  502  0.71227074198E+03 -0.61424651762E+02  0.46336474899E+03  0.85194453959E+03  0.10100000352E+00 0.  1.
</event>
<event>
 5   0  0.3531266E-04  0.1790047E+04  0.7818609E-02  0.8711610E-01
       -2   -1    0    0    0  501  0.00000000000E+00  0.00000000000E+00  0.57232586881E+03  0.57232586882E+03  0.25500000920E-02 0. -1.
        2   -1    0    0  501    0  0.00000000000E+00  0.00000000000E+00 -0.13996692945E+04  0.13996692945E+04  0.25500000920E-02 0.  1.
    10030    2    1    2    0    0  0.00000000000E+00  0.00000000000E+00 -0.82734342568E+03  0.19719951633E+04  0.17900468653E+04 0.  0.
        3    1    3    3  502    0 -0.27899862500E+03  0.58315789348E+03 -0.10955830079E+04  0.12720909948E+04  0.10100000352E+00 0.  1.
       -3    1    3    3    0  502  0.27899862500E+03 -0.58315789348E+03  0.26823958225E+03  0.69990416855E+03  0.10100000352E+00 0. -1.
</event>
<event>
 5   0  0.1330125E-04  0.1771564E+04  0.7818609E-02  0.8721569E-01
        3   -1    0    0  501    0  0.00000000000E+00  0.00000000000E+00  0.94580300166E+03  0.94580300705E+03  0.10100000352E+00 0.  1.
       -3   -1    0    0    0  501  0.00000000000E+00  0.00000000000E+00 -0.82956994832E+03  0.82956995447E+03  0.10100000352E+00 0. -1.
    10030    2    1    2    0    0  0.00000000000E+00  0.00000000000E+00  0.11623305333E+03  0.17753729615E+04  0.17715640067E+04 0.  0.
        3    1    3    3  502    0 -0.88110125348E+03  0.80681888737E+02  0.10016817102E+03  0.89043958736E+03  0.10100000352E+00 0.  1.
       -3    1    3    3    0  502  0.88110125348E+03 -0.80681888737E+02  0.16064882313E+02  0.88493337416E+03  0.10100000352E+00 0. -1.
</event>
<event>
 5   0  0.3582186E-04  0.1809792E+04  0.7818609E-02  0.8701110E-01
        2   -1    0    0  501    0  0.00000000000E+00  0.00000000000E+00  0.14312299846E+04  0.14312299846E+04  0.25500000920E-02 0.  1.
       -2   -1    0    0    0  501  0.00000000000E+00  0.00000000000E+00 -0.57212085609E+03  0.57212085609E+03  0.25500000920E-02 0. -1.
    10030    2    1    2    0    0  0.00000000000E+00  0.00000000000E+00  0.85910912855E+03  0.20033508407E+04  0.18097917273E+04 0.  0.
        4    1    3    3  502    0  0.47302415907E+03 -0.77110627312E+03  0.45376041414E+03  0.10120557622E+04  0.12699999809E+01 0. -1.
       -4    1    3    3    0  502 -0.47302415907E+03  0.77110627312E+03  0.40534871441E+03  0.99129507851E+03  0.12699999809E+01 0.  1.
</event>
<event>
 5   0  0.3582186E-04  0.1931120E+04  0.7818609E-02  0.8639519E-01
        2   -1    0    0  501    0  0.00000000000E+00  0.00000000000E+00  0.14959186442E+04  0.14959186442E+04  0.25500000920E-02 0.  1.
       -2   -1    0    0    0  501  0.00000000000E+00  0.00000000000E+00 -0.62323301765E+03  0.62323301766E+03  0.25500000920E-02 0. -1.
    10030    2    1    2    0    0  0.00000000000E+00  0.00000000000E+00  0.87268562659E+03  0.21191516619E+04  0.19311197693E+04 0.  0.
        4    1    3    3  502    0  0.95598071706E+03  0.65991646057E+02  0.30626751136E+03  0.10060096571E+04  0.12699999809E+01 0. -1.
       -4    1    3    3    0  502 -0.95598071706E+03 -0.65991646057E+02  0.56641811523E+03  0.11131420048E+04  0.12699999809E+01 0.  1.
</event>
<event>
 5   0  0.1835421E-04  0.1806528E+04  0.7818609E-02  0.8702836E-01
       -1   -1    0    0    0  501  0.00000000000E+00  0.00000000000E+00  0.93287647905E+03  0.93287647907E+03  0.50400001928E-02 0.  1.
        1   -1    0    0  501    0  0.00000000000E+00  0.00000000000E+00 -0.87459156523E+03  0.87459156524E+03  0.50400001928E-02 0. -1.
    10030    2    1    2    0    0  0.00000000000E+00  0.00000000000E+00  0.58284913823E+02  0.18074680443E+04  0.18065280513E+04 0.  0.
        2    1    3    3  502    0  0.53319201676E+03 -0.72200550240E+03  0.13068530309E+03  0.90700844576E+03  0.25500000920E-02 0.  1.
       -2    1    3    3    0  502 -0.53319201676E+03  0.72200550240E+03 -0.72400389266E+02  0.90045959854E+03  0.25500000920E-02 0. -1.
</event>
<event>
 5   0  0.3568870E-04  0.1721697E+04  0.7818609E-02  0.8749086E-01
        2   -1    0    0  501    0  0.00000000000E+00  0.00000000000E+00  0.12420723512E+04  0.12420723512E+04  0.25500000920E-02 0.  1.
       -2   -1    0    0    0  501  0.00000000000E+00  0.00000000000E+00 -0.59663195451E+03  0.59663195451E+03  0.25500000920E-02 0. -1.
    10030    2    1    2    0    0  0.00000000000E+00  0.00000000000E+00  0.64544039669E+03  0.18387043057E+04  0.17216969008E+04 0.  0.
        1    1    3    3  502    0  0.31677334820E+03 -0.26756672540E+03 -0.48295161079E+03  0.63653716707E+03  0.50400001928E-02 0. -1.
       -1    1    3    3    0  502 -0.31677334820E+03  0.26756672540E+03  0.11283920075E+04  0.12021671386E+04  0.50400001928E-02 0.  1.
</event>
<event>
 5   0  0.1837313E-04  0.1832017E+04  0.7818609E-02  0.8689456E-01
        1   -1    0    0  501    0  0.00000000000E+00  0.00000000000E+00  0.16221227699E+04  0.16221227699E+04  0.50400001928E-02 0.  1.
       -1   -1    0    0    0  501  0.00000000000E+00  0.00000000000E+00 -0.51726741907E+03  0.51726741909E+03  0.50400001928E-02 0. -1.
    10030    2    1    2    0    0  0.00000000000E+00  0.00000000000E+00  0.11048553509E+04  0.21393901890E+04  0.18320166578E+04 0.  0.
        1    1    3    3  502    0 -0.44741675593E+03 -0.32927830747E+03  0.14029565700E+04  0.15089377371E+04  0.50400001928E-02 0.  1.
       -1    1    3    3    0  502  0.44741675593E+03  0.32927830747E+03 -0.29810121910E+03  0.63045245191E+03  0.50400001928E-02 0. -1.
</event>
<event>
 5   0  0.1883959E-04  0.1741683E+04  0.7818609E-02  0.8737942E-01
       -1   -1    0    0    0  501  0.00000000000E+00  0.00000000000E+00  0.63275448858E+03  0.63275448860E+03  0.50400001928E-02 0.  1.
        1   -1    0    0  501    0  0.00000000000E+00  0.00000000000E+00 -0.11985130175E+04  0.11985130175E+04  0.50400001928E-02 0. -1.
    10030    2    1    2    0    0  0.00000000000E+00  0.00000000000E+00 -0.56575852890E+03  0.18312675061E+04  0.17416825100E+04 0.  0.
        5    1    3    3  502    0 -0.66801897747E+03 -0.14548477056E+03  0.28424076215E+03  0.74042560301E+03  0.46999998093E+01 0.  1.
       -5    1    3    3    0  502  0.66801897747E+03  0.14548477056E+03 -0.84999929105E+03  0.10908419031E+04  0.46999998093E+01 0. -1.
</event>
<event>
 5   0  0.3568870E-04  0.1815998E+04  0.7818609E-02  0.8697838E-01
       -2   -1    0    0    0  501  0.00000000000E+00  0.00000000000E+00  0.77475747100E+03  0.77475747100E+03  0.25500000920E-02 0.  1.
        2   -1    0    0  501    0  0.00000000000E+00  0.00000000000E+00 -0.10641547063E+04  0.10641547063E+04  0.25500000920E-02 0. -1.
    10030    2    1    2    0    0  0.00000000000E+00  0.00000000000E+00 -0.28939723531E+03  0.18389121773E+04  0.18159975870E+04 0.  0.
        1    1    3    3  502    0  0.88528370190E+03 -0.17004468218E+02  0.58949508801E+02  0.88740713847E+03  0.50400001928E-02 0.  1.
       -1    1    3    3    0  502 -0.88528370190E+03  0.17004468218E+02 -0.34834674411E+03  0.95150503885E+03  0.50400001928E-02 0. -1.
</event>
<event>
 5   0  0.1883959E-04  0.1806935E+04  0.7818609E-02  0.8702620E-01
       -1   -1    0    0    0  501  0.00000000000E+00  0.00000000000E+00  0.65041633315E+03  0.65041633317E+03  0.50400001928E-02 0.  1.
        1   -1    0    0  501    0  0.00000000000E+00  0.00000000000E+00 -0.12549713165E+04  0.12549713165E+04  0.50400001928E-02 0. -1.
    10030    2    1    2    0    0  0.00000000000E+00  0.00000000000E+00 -0.60455498330E+03  0.19053876496E+04  0.18069353523E+04 0.  0.
        5    1    3    3  502    0  0.33326112313E+03  0.23783356306E+03 -0.11515176702E+04  0.12221468057E+04  0.46999998093E+01 0. -1.
       -5    1    3    3    0  502 -0.33326112313E+03 -0.23783356306E+03  0.54696268692E+03  0.68324084391E+03  0.46999998093E+01 0.  1.
</event>
<event>
 5   0  0.1818778E-04  0.1697114E+04  0.7818609E-02  0.8763012E-01
        1   -1    0    0  501    0  0.00000000000E+00  0.00000000000E+00  0.13175723749E+04  0.13175723749E+04  0.50400001928E-02 0. -1.
       -1   -1    0    0    0  501  0.00000000000E+00  0.00000000000E+00 -0.54649680558E+03  0.54649680561E+03  0.50400001928E-02 0.  1.
    10030    2    1    2    0    0  0.00000000000E+00  0.00000000000E+00  0.77107556932E+03  0.18640691805E+04  0.16971141317E+04 0.  0.
        3    1    3    3  502    0  0.15364913465E+03  0.26605573045E+02 -0.53062433525E+03  0.55306248151E+03  0.10100000352E+00 0.  1.
       -3    1    3    3    0  502 -0.15364913465E+03 -0.26605573045E+02  0.13016999046E+04  0.13110066990E+04  0.10100000352E+00 0. -1.
</event>
<event>
 5   0  0.1825253E-04  0.1798478E+04  0.7818609E-02  0.8707109E-01
       -1   -1    0    0    0  501  0.00000000000E+00  0.00000000000E+00  0.12484103455E+04  0.12484103455E+04  0.50400001928E-02 0.  1.
        1   -1    0    0  501    0  0.00000000000E+00  0.00000000000E+00 -0.64772851523E+03  0.64772851525E+03  0.50400001928E-02 0. -1.
    10030    2    1    2    0    0  0.00000000000E+00  0.00000000000E+00  0.60068183026E+03  0.18961388608E+04  0.17984782228E+04 0.  0.
        4    1    3    3  502    0  0.60244655457E+02  0.56601697410E+03  0.10342930584E+04  0.11805796784E+04  0.12699999809E+01 0.  1.
       -4    1    3    3    0  502 -0.60244655457E+02 -0.56601697410E+03 -0.43361122810E+03  0.71555918239E+03  0.12699999809E+01 0. -1.
</event>
<event>
 5   0  0.3575091E-04  0.1815692E+04  0.7818609E-02  0.8697999E-01
        2   -1    0    0  501    0  0.00000000000E+00  0.00000000000E+00  0.24269270809E+04  0.24269270809E+04  0.25500000920E-02 0.  1.
       -2   -1    0    0    0  501  0.00000000000E+00  0.00000000000E+00 -0.33959997330E+03  0.33959997331E+03  0.25500000920E-02 0. -1.
    10030    2    1    2    0    0  0.00000000000E+00  0.00000000000E+00  0.20873271076E+04  0.27665270542E+04  0.18156920134E+04 0.  0.
        5    1    3    3  502    0  0.29254965428E+03  0.53276537383E+03  0.20711435613E+04  0.21584906729E+04  0.46999998093E+01 0.  1.
       -5    1    3    3    0  502 -0.29254965428E+03 -0.53276537383E+03  0.16183546325E+02  0.60803638127E+03  0.46999998093E+01 0. -1.
</event>
<event>
 5   0  0.3568870E-04  0.1794402E+04  0.7818609E-02  0.8709282E-01
        2   -1    0    0  501    0  0.00000000000E+00  0.00000000000E+00  0.64452723786E+03  0.64452723787E+03  0.25500000920E-02 0. -1.
       -2   -1    0    0    0  501  0.00000000000E+00  0.00000000000E+00 -0.12489301802E+04  0.12489301802E+04  0.25500000920E-02 0.  1.
    10030    2    1    2    0    0  0.00000000000E+00  0.00000000000E+00 -0.60440294233E+03  0.18934574181E+04  0.17944018717E+04 0.  0.
        1    1    3    3  502    0 -0.19886276374E+03 -0.18310543290E+03  0.60053372209E+03  0.65857023145E+03  0.50400001928E-02 0. -1.
       -1    1    3    3    0  502  0.19886276374E+03  0.18310543290E+03 -0.12049366644E+04  0.12348871866E+04  0.50400001928E-02 0.  1.
</event>
<event>
 5   0  0.1835421E-04  0.1639185E+04  0.7818609E-02  0.8796830E-01
       -1   -1    0    0    0  501  0.00000000000E+00  0.00000000000E+00  0.11979939396E+04  0.11979939397E+04  0.50400001928E-02 0. -1.
        1   -1    0    0  501    0  0.00000000000E+00  0.00000000000E+00 -0.56071373470E+03  0.56071373472E+03  0.50400001928E-02 0.  1.
    10030    2    1    2    0    0  0.00000000000E+00  0.00000000000E+00  0.63728020494E+03  0.17587076744E+04  0.16391847438E+04 0.  0.
        2    1    3    3  502    0 -0.98306229837E+01  0.65734499918E+03  0.84374738291E+03  0.10696301862E+04  0.25500000920E-02 0. -1.
       -2    1    3    3    0  502  0.98306229837E+01 -0.65734499918E+03 -0.20646717797E+03  0.68907748816E+03  0.25500000920E-02 0.  1.
</event>
<event>
 5   0  0.1883959E-04  0.1799398E+04  0.7818609E-02  0.8706620E-01
        1   -1    0    0  501    0  0.00000000000E+00  0.00000000000E+00  0.23758849712E+04  0.23758849712E+04  0.50400001928E-02 0. -1.
       -1   -1    0    0    0  501  0.00000000000E+00  0.00000000000E+00 -0.34069758295E+03  0.34069758299E+03  0.50400001928E-02 0.  1.
    10030    2    1    2    0    0  0.00000000000E+00  0.00000000000E+00  0.20351873882E+04  0.27165825542E+04  0.17993979739E+04 0.  0.
        5    1    3    3  502    0 -0.49490709769E+03 -0.15305912195E+03 -0.92922342486E+02  0.52632383747E+03  0.46999998093E+01 0.  1.
       -5    1    3    3    0  502  0.49490709769E+03  0.15305912195E+03  0.21281097307E+04  0.21902587167E+04  0.46999998093E+01 0. -1.
</event>
<event>
 5   0  0.3531266E-04  0.1779525E+04  0.7818609E-02  0.8717264E-01
        2   -1    0    0  501    0  0.00000000000E+00  0.00000000000E+00  0.86696220045E+03  0.86696220045E+03  0.25500000920E-02 0.  1.
       -2   -1    0    0    0  501  0.00000000000E+00  0.00000000000E+00 -0.91316245540E+03  0.91316245540E+03  0.25500000920E-02 0. -1.
    10030    2    1    2    0    0  0.00000000000E+00  0.00000000000E+00 -0.46200254946E+02  0.17801246559E+04  0.17795250284E+04 0.  0.
        3    1    3    3  502    0 -0.76690752611E+03  0.20522348497E+03  0.37879822657E+03  0.87963170648E+03  0.10100000352E+00 0.  1.
       -3    1    3    3    0  502  0.76690752611E+03 -0.20522348497E+03 -0.42499848152E+03  0.90049294938E+03  0.10100000352E+00 0. -1.
</event>
<event>
 5   0  0.3568870E-04  0.1872949E+04  0.7818609E-02  0.8668440E-01
        2   -1    0    0  501    0  0.00000000000E+00  0.00000000000E+00  0.11456233796E+04  0.11456233796E+04  0.25500000920E-02 0.  1.
       -2   -1    0    0    0  501  0.00000000000E+00  0.00000000000E+00 -0.76550881076E+03  0.76550881076E+03  0.25500000920E-02 0. -1.
    10030    2    1    2    0    0  0.00000000000E+00  0.00000000000E+00  0.38011456885E+03  0.19111321904E+04  0.18729493222E+04 0.  0.
        1    1    3    3  502    0 -0.37970772264E+03 -0.12521690181E+03 -0.67404053441E+03  0.78370139032E+03  0.50400001928E-02 0. -1.
       -1    1    3    3    0  502  0.37970772264E+03  0.12521690181E+03  0.10541551033E+04  0.11274308000E+04  0.50400001928E-02 0.  1.
</event>
<event>
 5   0  0.1883959E-04  0.1812112E+04  0.7818609E-02  0.8699885E-01
        1   -1    0    0  501    0  0.00000000000E+00  0.00000000000E+00  0.12874827491E+04  0.12874827491E+04  0.50400001928E-02 0.  1.
       -1   -1    0    0    0  501  0.00000000000E+00  0.00000000000E+00 -0.63763000509E+03  0.63763000511E+03  0.50400001928E-02 0. -1.
    10030    2    1    2    0    0  0.00000000000E+00  0.00000000000E+00  0.64985274398E+03  0.19251127542E+04  0.18121121730E+04 0.  0.
        5    1    3    3  502    0 -0.30396469195E+03 -0.64963548329E+03  0.91306893683E+03  0.11610933505E+04  0.46999998093E+01 0.  1.
       -5    1    3    3    0  502  0.30396469195E+03  0.64963548329E+03 -0.26321619285E+03  0.76401940373E+03  0.46999998093E+01 0. -1.
</event>
<event>
 5   0  0.1835421E-04  0.1782658E+04  0.7818609E-02  0.8715576E-01
       -1   -1    0    0    0  501  0.00000000000E+00  0.00000000000E+00  0.62873152592E+03  0.62873152594E+03  0.50400001928E-02 0. -1.
        1   -1    0    0  501    0  0.00000000000E+00  0.00000000000E+00 -0.12636039810E+04  0.12636039810E+04  0.50400001928E-02 0.  1.
    10030    2    1    2    0    0  0.00000000000E+00  0.00000000000E+00 -0.63487245509E+03  0.18923355070E+04  0.17826583062E+04 0.  0.
        2    1    3    3  502    0  0.25291279839E+03 -0.23726261066E+03  0.55418415573E+03  0.65374192804E+03  0.25500000920E-02 0. -1.
       -2    1    3    3    0  502 -0.25291279839E+03  0.23726261066E+03 -0.11890566108E+04  0.12385935789E+04  0.25500000920E-02 0.  1.
</event>
<event>
 5   0  0.1883959E-04  0.1798411E+04  0.7818609E-02  0.8707145E-01
        1   -1    0    0  501    0  0.00000000000E+00  0.00000000000E+00  0.14234939820E+04  0.14234939820E+04  0.50400001928E-02 0.  1.
       -1   -1    0    0    0  501  0.00000000000E+00  0.00000000000E+00 -0.56801826818E+03  0.56801826820E+03  0.50400001928E-02 0. -1.
    10030    2    1    2    0    0  0.00000000000E+00  0.00000000000E+00  0.85547571381E+03  0.19915122502E+04  0.17984110614E+04 0.  0.
        5    1    3    3  502    0 -0.60266954367E+02 -0.73604495778E+03 -0.14032864321E+03  0.75173699108E+03  0.46999998093E+01 0. -1.
       -5    1    3    3    0  502  0.60266954367E+02  0.73604495778E+03  0.99580435702E+03  0.12397752591E+04  0.46999998093E+01 0.  1.
</event>
<event>
 5   0  0.1835421E-04  0.1823368E+04  0.7818609E-02  0.8693970E-01
        1   -1    0    0  501    0  0.00000000000E+00  0.00000000000E+00  0.53929082603E+03  0.53929082606E+03  0.50400001928E-02 0. -1.
       -1   -1    0    0    0  501  0.00000000000E+00  0.00000000000E+00 -0.15412237822E+04  0.15412237822E+04  0.50400001928E-02 0.  1.
    10030    2    1    2    0    0  0.00000000000E+00  0.00000000000E+00 -0.10019329561E+04  0.20805146082E+04  0.18233681434E+04 0.  0.
        2    1    3    3  502    0 -0.12017999598E+03 -0.15513816605E+03  0.51490552562E+03  0.55103428416E+03  0.25500000920E-02 0. -1.
       -2    1    3    3    0  502  0.12017999598E+03  0.15513816605E+03 -0.15168384818E+04  0.15294803241E+04  0.25500000920E-02 0.  1.
</event>
<event>
 5   0  0.1883959E-04  0.1798147E+04  0.7818609E-02  0.8707285E-01
        1   -1    0    0  501    0  0.00000000000E+00  0.00000000000E+00  0.15136814403E+04  0.15136814404E+04  0.50400001928E-02 0.  1.
       -1   -1    0    0    0  501  0.00000000000E+00  0.00000000000E+00 -0.53401823963E+03  0.53401823966E+03  0.50400001928E-02 0. -1.
    10030    2    1    2    0    0  0.00000000000E+00  0.00000000000E+00  0.97966320071E+03  0.20476996800E+04  0.17981473779E+04 0.  0.
        5    1    3    3  502    0  0.84317594056E+02 -0.15693643606E+03  0.14933656109E+04  0.15039619143E+04  0.46999998093E+01 0.  1.
       -5    1    3    3    0  502 -0.84317594056E+02  0.15693643606E+03 -0.51370241023E+03  0.54373776575E+03  0.46999998093E+01 0. -1.
</event>
<event>
 5   0  0.1330125E-04  0.1796395E+04  0.7818609E-02  0.8708219E-01
        4   -1    0    0  501    0  0.00000000000E+00  0.00000000000E+00  0.11859778656E+04  0.11859785455E+04  0.12699999809E+01 0. -1.
       -4   -1    0    0    0  501  0.00000000000E+00  0.00000000000E+00 -0.68024597495E+03  0.68024716048E+03  0.12699999809E+01 0.  1.
    10030    2    1    2    0    0  0.00000000000E+00  0.00000000000E+00  0.50573189060E+03  0.18662257060E+04  0.17963946228E+04 0.  0.
        3    1    3    3  502    0 -0.19354087951E+03  0.56400217082E+03  0.95069310887E+03  0.11222183024E+04  0.10100000352E+00 0. -1.
       -3    1    3    3    0  502  0.19354087951E+03 -0.56400217082E+03 -0.44496121827E+03  0.74400740365E+03  0.10100000352E+00 0.  1.
</event>
<event>
 5   0  0.3531266E-04  0.1724482E+04  0.7818609E-02  0.8747523E-01
        2   -1    0    0  501    0  0.00000000000E+00  0.00000000000E+00  0.15467793008E+04  0.15467793008E+04  0.25500000920E-02 0. -1.
       -2   -1    0    0    0  501  0.00000000000E+00  0.00000000000E+00 -0.48064996404E+03  0.48064996405E+03  0.25500000920E-02 0.  1.
    10030    2    1    2    0    0  0.00000000000E+00  0.00000000000E+00  0.10661293368E+04  0.20274292649E+04  0.17244818530E+04 0.  0.
        3    1    3    3  502    0 -0.43637934866E+03  0.51877376787E+02  0.14052385930E+04  0.14723497246E+04  0.10100000352E+00 0. -1.
       -3    1    3    3    0  502  0.43637934866E+03 -0.51877376787E+02 -0.33910925621E+03  0.55507954025E+03  0.10100000352E+00 0.  1.
</event>
<event>
 5   0  0.3628581E-04  0.1820833E+04  0.7818609E-02  0.8695298E-01
       -2   -1    0    0    0  501  0.00000000000E+00  0.00000000000E+00  0.17428656480E+04  0.17428656480E+04  0.25500000920E-02 0. -1.
        2   -1    0    0  501    0  0.00000000000E+00  0.00000000000E+00 -0.47557220202E+03  0.47557220203E+03  0.25500000920E-02 0.  1.
    10030    2    1    2    0    0  0.00000000000E+00  0.00000000000E+00  0.12672934460E+04  0.22184378501E+04  0.18208332753E+04 0.  0.
        2    1    3    3  502    0 -0.49687486426E+03  0.51483346492E+03 -0.52239583616E+02  0.71740302581E+03  0.25500000920E-02 0.  1.
       -2    1    3    3    0  502  0.49687486426E+03 -0.51483346492E+03  0.13195330296E+04  0.15010348243E+04  0.25500000920E-02 0. -1.
</event>
<event>
 5   0  0.3568870E-04  0.1795065E+04  0.7818609E-02  0.8708928E-01
       -2   -1    0    0    0  501  0.00000000000E+00  0.00000000000E+00  0.53529546837E+03  0.53529546837E+03  0.25500000920E-02 0. -1.
        2   -1    0    0  501    0  0.00000000000E+00  0.00000000000E+00 -0.15048972179E+04  0.15048972179E+04  0.25500000920E-02 0.  1.
    10030    2    1    2    0    0  0.00000000000E+00  0.00000000000E+00 -0.96960174951E+03  0.20401926863E+04  0.17950650808E+04 0.  0.
        1    1    3    3  502    0 -0.58458675243E+03  0.53460097527E+03 -0.96434792648E+03  0.12480011207E+04  0.50400001928E-02 0. -1.
       -1    1    3    3    0  502  0.58458675243E+03 -0.53460097527E+03 -0.52538230241E+01  0.79219156557E+03  0.50400001928E-02 0.  1.
</event>
<event>
 5   0  0.1835421E-04  0.1800209E+04  0.7818609E-02  0.8706189E-01
       -1   -1    0    0    0  501  0.00000000000E+00  0.00000000000E+00  0.37281509963E+03  0.37281509966E+03  0.50400001928E-02 0. -1.
        1   -1    0    0  501    0  0.00000000000E+00  0.00000000000E+00 -0.21731624874E+04  0.21731624874E+04  0.50400001928E-02 0.  1.
    10030    2    1    2    0    0  0.00000000000E+00  0.00000000000E+00 -0.18003473877E+04  0.25459775870E+04  0.18002086427E+04 0.  0.
        2    1    3    3  502    0 -0.31396121284E+03 -0.60139665454E+03 -0.17367921031E+04  0.18645901396E+04  0.25500000920E-02 0.  1.
       -2    1    3    3    0  502  0.31396121284E+03  0.60139665454E+03 -0.63555284578E+02  0.68138744739E+03  0.25500000920E-02 0. -1.
</event>
<event>
 5   0  0.3582186E-04  0.1801534E+04  0.7818609E-02  0.8705484E-01
        2   -1    0    0  501    0  0.00000000000E+00  0.00000000000E+00  0.18121581232E+04  0.18121581232E+04  0.25500000920E-02 0.  1.
       -2   -1    0    0    0  501  0.00000000000E+00  0.00000000000E+00 -0.44774290609E+03  0.44774290610E+03  0.25500000920E-02 0. -1.
    10030    2    1    2    0    0  0.00000000000E+00  0.00000000000E+00  0.13644152171E+04  0.22599010293E+04  0.18015337292E+04 0.  0.
        4    1    3    3  502    0  0.18048424101E+03 -0.56430238298E+03 -0.16892924105E+03  0.61607665275E+03  0.12699999809E+01 0. -1.
       -4    1    3    3    0  502 -0.18048424101E+03  0.56430238298E+03  0.15333444581E+04  0.16438243765E+04  0.12699999809E+01 0.  1.
</event>
<event>
 5   0  0.1825253E-04  0.1799530E+04  0.7818609E-02  0.8706550E-01
       -1   -1    0    0    0  501  0.00000000000E+00  0.00000000000E+00  0.35031250838E+03  0.35031250842E+03  0.50400001928E-02 0. -1.
        1   -1    0    0  501    0  0.00000000000E+00  0.00000000000E+00 -0.23110135670E+04  0.23110135670E+04  0.50400001928E-02 0.  1.
    10030    2    1    2    0    0  0.00000000000E+00  0.00000000000E+00 -0.19607010586E+04  0.26613260754E+04  0.17995298937E+04 0.  0.
        4    1    3    3  502    0 -0.48964132803E+03  0.71581920997E+03 -0.13347612298E+04  0.15917710026E+04  0.12699999809E+01 0.  1.
       -4    1    3    3    0  502  0.48964132803E+03 -0.71581920997E+03 -0.62593982887E+03  0.10695550728E+04  0.12699999809E+01 0. -1.
</event>
<event>
 5   0  0.1835421E-04  0.1748220E+04  0.7818609E-02  0.8734331E-01
       -1   -1    0    0    0  501  0.00000000000E+00  0.00000000000E+00  0.17455383384E+04  0.17455383384E+04  0.50400001928E-02 0. -1.
        1   -1    0    0  501    0  0.00000000000E+00  0.00000000000E+00 -0.43772634274E+03  0.43772634277E+03  0.50400001928E-02 0.  1.
    10030    2    1    2    0    0  0.00000000000E+00  0.00000000000E+00  0.13078119957E+04  0.21832646812E+04  0.17482197951E+04 0.  0.
        2    1    3    3  502    0 -0.76405128298E+03 -0.22362816167E+02  0.11834444915E+04  0.14088347394E+04  0.25500000920E-02 0. -1.
       -2    1    3    3    0  502  0.76405128298E+03  0.22362816167E+02  0.12436750415E+03  0.77442994174E+03  0.25500000920E-02 0.  1.
</event>
<event>
 5   0  0.3531266E-04  0.1806388E+04  0.7818609E-02  0.8702910E-01
       -2   -1    0    0    0  501  0.00000000000E+00  0.00000000000E+00  0.23189301982E+04  0.23189301982E+04  0.25500000920E-02 0. -1.
        2   -1    0    0  501    0  0.00000000000E+00  0.00000000000E+00 -0.35178265868E+03  0.35178265869E+03  0.25500000920E-02 0.  1.
    10030    2    1    2    0    0  0.00000000000E+00  0.00000000000E+00  0.19671475395E+04  0.26707128569E+04  0.18063880319E+04 0.  0.
        3    1    3    3  502    0 -0.38884338527E+03 -0.39809978642E+03 -0.68204914599E+02  0.56065545462E+03  0.10100000352E+00 0.  1.
       -3    1    3    3    0  502  0.38884338527E+03  0.39809978642E+03  0.20353524541E+04  0.21100574023E+04  0.10100000352E+00 0. -1.
</event>
<event>
 5   0  0.1883959E-04  0.1904213E+04  0.7818609E-02  0.8652762E-01
       -1   -1    0    0    0  501  0.00000000000E+00  0.00000000000E+00  0.10176799322E+04  0.10176799322E+04  0.50400001928E-02 0.  1.
        1   -1    0    0  501    0  0.00000000000E+00  0.00000000000E+00 -0.89075864992E+03  0.89075864993E+03  0.50400001928E-02 0. -1.
    10030    2    1    2    0    0  0.00000000000E+00  0.00000000000E+00  0.12692128230E+03  0.19084385822E+04  0.19042134360E+04 0.  0.
        5    1    3    3  502    0 -0.35605643109E+03 -0.61355331888E+03  0.69989821509E+03  0.99654576349E+03  0.46999998093E+01 0.  1.
       -5    1    3    3    0  502  0.35605643109E+03  0.61355331888E+03 -0.57297693280E+03  0.91189281867E+03  0.46999998093E+01 0. -1.
</event>
<event>
 5   0  0.3531266E-04  0.1781214E+04  0.7818609E-02  0.8716354E-01
        2   -1    0    0  501    0  0.00000000000E+00  0.00000000000E+00  0.69046272922E+03  0.69046272923E+03  0.25500000920E-02 0. -1.
       -2   -1    0    0    0  501  0.00000000000E+00  0.00000000000E+00 -0.11487676156E+04  0.11487676156E+04  0.25500000920E-02 0.  1.
    10030    2    1    2    0    0  0.00000000000E+00  0.00000000000E+00 -0.45830488633E+03  0.18392303448E+04  0.17812144431E+04 0.  0.
        3    1    3    3  502    0  0.71808858111E+03 -0.51621020078E+03 -0.33772977933E+03  0.94667079587E+03  0.10100000352E+00 0.  1.
       -3    1    3    3    0  502 -0.71808858111E+03  0.51621020078E+03 -0.12057510700E+03  0.89255954891E+03  0.10100000352E+00 0. -1.
</event>
<event>
 5   0  0.1825253E-04  0.1789769E+04  0.7818609E-02  0.8711759E-01
       -1   -1    0    0    0  501  0.00000000000E+00  0.00000000000E+00  0.83221846891E+03  0.83221846893E+03  0.50400001928E-02 0. -1.
        1   -1    0    0  501    0  0.00000000000E+00  0.00000000000E+00 -0.96226940577E+03  0.96226940578E+03  0.50400001928E-02 0.  1.
    10030    2    1    2    0    0  0.00000000000E+00  0.00000000000E+00 -0.13005093685E+03  0.17944878747E+04  0.17897691154E+04 0.  0.
        4    1    3    3  502    0  0.54939139078E+03 -0.27127209989E+03 -0.71896996071E+03  0.94463689836E+03  0.12699999809E+01 0.  1.
       -4    1    3    3    0  502 -0.54939139078E+03  0.27127209989E+03  0.58891902386E+03  0.84985097635E+03  0.12699999809E+01 0. -1.
</event>
<event>
 5   0  0.1883959E-04  0.1784532E+04  0.7818609E-02  0.8714569E-01
       -1   -1    0    0    0  501  0.00000000000E+00  0.00000000000E+00  0.44380993521E+03  0.44380993523E+03  0.50400001928E-02 0. -1.
        1   -1    0    0  501    0  0.00000000000E+00  0.00000000000E+00 -0.17938732357E+04  0.17938732357E+04  0.50400001928E-02 0.  1.
    10030    2    1    2    0    0  0.00000000000E+00  0.00000000000E+00 -0.13500633005E+04  0.22376831710E+04  0.17845321679E+04 0.  0.
        5    1    3    3  502    0 -0.14503335582E+03 -0.55859631313E+03 -0.15283069451E+04  0.16336488986E+04  0.46999998093E+01 0.  1.
       -5    1    3    3    0  502  0.14503335582E+03  0.55859631313E+03  0.17824364462E+03  0.60403427236E+03  0.46999998093E+01 0. -1.
</event>
<event>
 5   0  0.3531266E-04  0.1778772E+04  0.7818609E-02  0.8717670E-01
       -2   -1    0    0    0  501  0.00000000000E+00  0.00000000000E+00  0.61573891464E+03  0.61573891465E+03  0.25500000920E-02 0.  1.
        2   -1    0    0  501    0  0.00000000000E+00  0.00000000000E+00 -0.12846475715E+04  0.12846475715E+04  0.25500000920E-02 0. -1.
    10030    2    1    2    0    0  0.00000000000E+00  0.00000000000E+00 -0.66890865686E+03  0.19003864862E+04  0.17787720499E+04 0.  0.
        3    1    3    3  502    0  0.12289649967E+03 -0.46974750801E+03 -0.11305449116E+04  0.12304056560E+04  0.10100000352E+00 0. -1.
       -3    1    3    3    0  502 -0.12289649967E+03  0.46974750801E+03  0.46163625474E+03  0.66998083018E+03  0.10100000352E+00 0.  1.
</event>
<event>
 5   0  0.1837313E-04  0.1893806E+04  0.7818609E-02  0.8657946E-01
       -1   -1    0    0    0  501  0.00000000000E+00  0.00000000000E+00  0.11772576848E+04  0.11772576848E+04  0.50400001928E-02 0. -1.
        1   -1    0    0  501    0  0.00000000000E+00  0.00000000000E+00 -0.76162207595E+03  0.76162207597E+03  0.50400001928E-02 0.  1.
    10030    2    1    2    0    0  0.00000000000E+00  0.00000000000E+00  0.41563560881E+03  0.19388797607E+04  0.18938061588E+04 0.  0.
        1    1    3    3  502    0 -0.43322864246E+03  0.78750131041E+03 -0.97233648122E+02  0.90404632232E+03  0.50400001928E-02 0.  1.
       -1    1    3    3    0  502  0.43322864246E+03 -0.78750131041E+03  0.51286925693E+03  0.10348334384E+04  0.50400001928E-02 0. -1.
</event>
<event>
 5   0  0.3575091E-04  0.1817951E+04  0.7818609E-02  0.8696811E-01
        2   -1    0    0  501    0  0.00000000000E+00  0.00000000000E+00  0.18713429978E+04  0.18713429978E+04  0.25500000920E-02 0. -1.
       -2   -1    0    0    0  501  0.00000000000E+00  0.00000000000E+00 -0.44152080249E+03  0.44152080249E+03  0.25500000920E-02 0.  1.
    10030    2    1    2    0    0  0.00000000000E+00  0.00000000000E+00  0.14298221953E+04  0.23128638003E+04  0.18179514428E+04 0.  0.
        5    1    3    3  502    0  0.84627398209E+03  0.81148046206E+02  0.11241088753E+04  0.14093996991E+04  0.46999998093E+01 0. -1.
       -5    1    3    3    0  502 -0.84627398209E+03 -0.81148046206E+02  0.30571331998E+03  0.90346410121E+03  0.46999998093E+01 0.  1.
</event>
<event>
 5   0  0.1835421E-04  0.1791297E+04  0.7818609E-02  0.8710941E-01
       -1   -1    0    0    0  501  0.00000000000E+00  0.00000000000E+00  0.46741411650E+03  0.46741411653E+03  0.50400001928E-02 0.  1.
        1   -1    0    0  501    0  0.00000000000E+00  0.00000000000E+00 -0.17162211959E+04  0.17162211959E+04  0.50400001928E-02 0. -1.
    10030    2    1    2    0    0  0.00000000000E+00  0.00000000000E+00 -0.12488070794E+04  0.21836353124E+04  0.17912967527E+04 0.  0.
        2    1    3    3  502    0  0.11790645847E+03 -0.57719381769E+03  0.19799240324E+03  0.62149467245E+03  0.25500000920E-02 0.  1.
       -2    1    3    3    0  502 -0.11790645847E+03  0.57719381769E+03 -0.14467994826E+04  0.15621406400E+04  0.25500000920E-02 0. -1.
</event>
<event>
 5   0  0.1818778E-04  0.1795872E+04  0.7818609E-02  0.8708498E-01
       -1   -1    0    0    0  501  0.00000000000E+00  0.00000000000E+00  0.75976249959E+03  0.75976249961E+03  0.50400001928E-02 0.  1.
        1   -1    0    0  501    0  0.00000000000E+00  0.00000000000E+00 -0.10612377936E+04  0.10612377936E+04  0.50400001928E-02 0. -1.
    10030    2    1    2    0    0  0.00000000000E+00  0.00000000000E+00 -0.30147529401E+03  0.18210002932E+04  0.17958715753E+04 0.  0.
        3    1    3    3  502    0 -0.26969218081E+03 -0.66619845134E+03  0.39506392820E+03  0.82014008958E+03  0.10100000352E+00 0.  1.
       -3    1    3    3    0  502  0.26969218081E+03  0.66619845134E+03 -0.69653922221E+03  0.10008602036E+04  0.10100000352E+00 0. -1.
</event>
<event>
 5   0  0.1883959E-04  0.1819481E+04  0.7818609E-02  0.8696008E-01
       -1   -1    0    0    0  501  0.00000000000E+00  0.00000000000E+00  0.87027961841E+03  0.87027961842E+03  0.50400001928E-02 0. -1.
        1   -1    0    0  501    0  0.00000000000E+00  0.00000000000E+00 -0.95099022453E+03  0.95099022454E+03  0.50400001928E-02 0.  1.
    10030    2    1    2    0    0  0.00000000000E+00  0.00000000000E+00 -0.80710606118E+02  0.18212698430E+04  0.18194805959E+04 0.  0.
        5    1    3    3  502    0  0.77692978195E+03  0.19550667159E+02  0.43297671220E+03  0.88965894475E+03  0.46999998093E+01 0. -1.
       -5    1    3    3    0  502 -0.77692978195E+03 -0.19550667159E+02 -0.51368731832E+03  0.93161089821E+03  0.46999998093E+01 0.  1.
</event>
<event>
 5   0  0.3628581E-04  0.1842836E+04  0.7818609E-02  0.8683846E-01
        2   -1    0    0  501    0  0.00000000000E+00  0.00000000000E+00  0.10028862888E+04  0.10028862888E+04  0.25500000920E-02 0.  1.
       -2   -1    0    0    0  501  0.00000000000E+00  0.00000000000E+00 -0.84656754909E+03  0.84656754909E+03  0.25500000920E-02 0. -1.
    10030    2    1    2    0    0  0.00000000000E+00  0.00000000000E+00  0.15631873975E+03  0.18494538379E+04  0.18428358446E+04 0.  0.
        2    1    3    3  502    0 -0.14839214638E+03 -0.40287861496E+03  0.89636603554E+03  0.99388302993E+03  0.25500000920E-02 0.  1.
       -2    1    3    3    0  502  0.14839214638E+03  0.40287861496E+03 -0.74004729579E+03  0.85557080801E+03  0.25500000920E-02 0. -1.
</event>
<event>
 5   0  0.3568870E-04  0.1793600E+04  0.7818609E-02  0.8709710E-01
       -2   -1    0    0    0  501  0.00000000000E+00  0.00000000000E+00  0.93843274186E+03  0.93843274186E+03  0.25500000920E-02 0.  1.
        2   -1    0    0  501    0  0.00000000000E+00  0.00000000000E+00 -0.85701403866E+03  0.85701403867E+03  0.25500000920E-02 0. -1.
    10030    2    1    2    0    0  0.00000000000E+00  0.00000000000E+00  0.81418703192E+02  0.17954467805E+04  0.17935997704E+04 0.  0.
        1    1    3    3  502    0 -0.84916623199E+03 -0.25597771994E+03 -0.92251188255E+02  0.89169398586E+03  0.50400001928E-02 0. -1.
       -1    1    3    3    0  502  0.84916623199E+03  0.25597771994E+03  0.17366989145E+03  0.90375279467E+03  0.50400001928E-02 0.  1.
</event>
<event>
 5   0  0.1837313E-04  0.1746898E+04  0.7818609E-02  0.8735060E-01
        1   -1    0    0  501    0  0.00000000000E+00  0.00000000000E+00  0.10201367015E+04  0.10201367015E+04  0.50400001928E-02 0. -1.
       -1   -1    0    0    0  501  0.00000000000E+00  0.00000000000E+00 -0.74785348504E+03  0.74785348506E+03  0.50400001928E-02 0.  1.
    10030    2    1    2    0    0  0.00000000000E+00  0.00000000000E+00  0.27228321644E+03  0.17679901866E+04  0.17468975785E+04 0.  0.
        1    1    3    3  502    0 -0.66652130324E+03 -0.95883385247E+02 -0.42687427068E+03  0.79728659479E+03  0.50400001928E-02 0.  1.
       -1    1    3    3    0  502  0.66652130324E+03  0.95883385247E+02  0.69915748712E+03  0.97070359177E+03  0.50400001928E-02 0. -1.
</event>
<event>
 5   0  0.1818778E-04  0.1802856E+04  0.7818609E-02  0.8704782E-01
        1   -1    0    0  501    0  0.00000000000E+00  0.00000000000E+00  0.10626070747E+04  0.10626070747E+04  0.50400001928E-02 0.  1.
       -1   -1    0    0    0  501  0.00000000000E+00  0.00000000000E+00 -0.76469677743E+03  0.76469677744E+03  0.50400001928E-02 0. -1.
    10030    2    1    2    0    0  0.00000000000E+00  0.00000000000E+00  0.29791029730E+03  0.18273038522E+04  0.18028557410E+04 0.  0.
        3    1    3    3  502    0  0.10307377961E+03  0.53248341564E+03  0.87872552148E+03  0.10326283670E+04  0.10100000352E+00 0.  1.
       -3    1    3    3    0  502 -0.10307377961E+03 -0.53248341564E+03 -0.58081522418E+03  0.79467548522E+03  0.10100000352E+00 0. -1.
</event>
<event>
 5   0  0.1818778E-04  0.1767346E+04  0.7818609E-02  0.8723860E-01
        1   -1    0    0  501    0  0.00000000000E+00  0.00000000000E+00  0.13003639831E+04  0.13003639831E+04  0.50400001928E-02 0. -1.
       -1   -1    0    0    0  501  0.00000000000E+00  0.00000000000E+00 -0.60050729246E+03  0.60050729248E+03  0.50400001928E-02 0.  1.
    10030    2    1    2    0    0  0.00000000000E+00  0.00000000000E+00  0.69985669067E+03  0.19008712756E+04  0.17673460949E+04 0.  0.
        3    1    3    3  502    0  0.25994420723E+03  0.42186148028E+03  0.11368761505E+04  0.12401715572E+04  0.10100000352E+00 0. -1.
       -3    1    3    3    0  502 -0.25994420723E+03 -0.42186148028E+03 -0.43701945987E+03  0.66069971842E+03  0.10100000352E+00 0.  1.
</event>
<event>
 5   0  0.1835421E-04  0.1835697E+04  0.7818609E-02  0.8687543E-01
       -1   -1    0    0    0  501  0.00000000000E+00  0.00000000000E+00  0.59911639390E+03  0.59911639392E+03  0.50400001928E-02 0.  1.
        1   -1    0    0  501    0  0.00000000000E+00  0.00000000000E+00 -0.14061465616E+04  0.14061465616E+04  0.50400001928E-02 0. -1.
    10030    2    1    2    0    0  0.00000000000E+00  0.00000000000E+00 -0.80703016768E+03  0.20052629555E+04  0.18356965515E+04 0.  0.
        2    1    3    3  502    0  0.51783261108E+02 -0.20693668142E+02 -0.14042943349E+04  0.14054011218E+04  0.25500000920E-02 0. -1.
       -2    1    3    3    0  502 -0.51783261108E+02  0.20693668142E+02  0.59726416726E+03  0.59986183370E+03  0.25500000920E-02 0.  1.
</event>
<event>
 5   0  0.3568870E-04  0.1795267E+04  0.7818609E-02  0.8708820E-01
       -2   -1    0    0    0  501  0.00000000000E+00  0.00000000000E+00  0.10834519635E+04  0.10834519635E+04  0.25500000920E-02 0.  1.
        2   -1    0    0  501    0  0.00000000000E+00  0.00000000000E+00 -0.74368431924E+03  0.74368431924E+03  0.25500000920E-02 0. -1.
    10030    2    1    2    0    0  0.00000000000E+00  0.00000000000E+00  0.33976764425E+03  0.18271362827E+04  0.17952673739E+04 0.  0.
        1    1    3    3  502    0  0.28066419735E+03 -0.11560720681E+03  0.10296332736E+04  0.10734440349E+04  0.50400001928E-02 0.  1.
       -1    1    3    3    0  502 -0.28066419735E+03  0.11560720681E+03 -0.68986562932E+03  0.75369224786E+03  0.50400001928E-02 0. -1.
</event>
<event>
 5   0  0.3531266E-04  0.1674756E+04  0.7818609E-02  0.8775894E-01
       -2   -1    0    0    0  501  0.00000000000E+00  0.00000000000E+00  0.45793755583E+03  0.45793755583E+03  0.25500000920E-02 0. -1.
        2   -1    0    0  501    0  0.00000000000E+00  0.00000000000E+00 -0.15312168194E+04  0.15312168194E+04  0.25500000920E-02 0.  1.
    10030    2    1    2    0    0  0.00000000000E+00  0.00000000000E+00 -0.10732792635E+04  0.19891543752E+04  0.16747557287E+04 0.  0.
        3    1    3    3  502    0  0.34431246047E+03  0.22186587652E+03  0.33082976888E+03  0.52652054449E+03  0.10100000352E+00 0. -1.
       -3    1    3    3    0  502 -0.34431246047E+03 -0.22186587652E+03 -0.14041090324E+04  0.14626338307E+04  0.10100000352E+00 0.  1.
</event>
<event>
 5   0  0.1818778E-04  0.1825170E+04  0.7818609E-02  0.8693028E-01
        1   -1    0    0  501    0  0.00000000000E+00  0.00000000000E+00  0.73083352724E+03  0.73083352726E+03  0.50400001928E-02 0. -1.
       -1   -1    0    0    0  501  0.00000000000E+00  0.00000000000E+00 -0.11395359409E+04  0.11395359409E+04  0.50400001928E-02 0.  1.
    10030    2    1    2    0    0  0.00000000000E+00  0.00000000000E+00 -0.40870241361E+03  0.18703694681E+04  0.18251696591E+04 0.  0.
        3    1    3    3  502    0 -0.25503871471E+03 -0.69741529671E+03  0.33923621872E+03  0.81640312615E+03  0.10100000352E+00 0. -1.
       -3    1    3    3    0  502  0.25503871471E+03  0.69741529671E+03 -0.74793863233E+03  0.10539663420E+04  0.10100000352E+00 0.  1.
</event>
<event>
 5   0  0.3582186E-04  0.1837305E+04  0.7818609E-02  0.8686709E-01
       -2   -1    0    0    0  501  0.00000000000E+00  0.00000000000E+00  0.67447849962E+03  0.67447849962E+03  0.25500000920E-02 0.  1.
        2   -1    0    0  501    0  0.00000000000E+00  0.00000000000E+00 -0.12512224785E+04  0.12512224785E+04  0.25500000920E-02 0. -1.
    10030    2    1    2    0    0  0.00000000000E+00  0.00000000000E+00 -0.57674397892E+03  0.19257009782E+04  0.18373052659E+04 0.  0.
        4    1    3    3  502    0 -0.36036586407E+03  0.84117275630E+03 -0.20396232780E+03  0.93756994725E+03  0.12699999809E+01 0.  1.
       -4    1    3    3    0  502  0.36036586407E+03 -0.84117275630E+03 -0.37278165112E+03  0.98813103091E+03  0.12699999809E+01 0. -1.
</event>
<event>
 5   0  0.1818778E-04  0.1780143E+04  0.7818609E-02  0.8716931E-01
        1   -1    0    0  501    0  0.00000000000E+00  0.00000000000E+00  0.11170819679E+04  0.11170819679E+04  0.50400001928E-02 0. -1.
       -1   -1    0    0    0  501  0.00000000000E+00  0.00000000000E+00 -0.70919387019E+03  0.70919387021E+03  0.50400001928E-02 0.  1.
    10030    2    1    2    0    0  0.00000000000E+00  0.00000000000E+00  0.40788809768E+03  0.18262758381E+04  0.17801434595E+04 0.  0.
        3    1    3    3  502    0 -0.22969840935E+03  0.44407560033E+03  0.95941266420E+03  0.10818674450E+04  0.10100000352E+00 0. -1.
       -3    1    3    3    0  502  0.22969840935E+03 -0.44407560033E+03 -0.55152456652E+03  0.74440839312E+03  0.10100000352E+00 0.  1.
</event>
<event>
 5   0  0.1818778E-04  0.1762075E+04  0.7818609E-02  0.8726732E-01
        1   -1    0    0  501    0  0.00000000000E+00  0.00000000000E+00  0.20019686952E+04  0.20019686952E+04  0.50400001928E-02 0. -1.
       -1   -1    0    0    0  501  0.00000000000E+00  0.00000000000E+00 -0.38773179601E+03  0.38773179605E+03  0.50400001928E-02 0.  1.
    10030    2    1    2    0    0  0.00000000000E+00  0.00000000000E+00  0.16142368992E+04  0.23897004913E+04  0.17620748200E+04 0.  0.
        3    1    3    3  502    0 -0.72674038515E+03  0.49775154912E+03  0.78290700239E+03  0.11784954716E+04  0.10100000352E+00 0. -1.
       -3    1    3    3    0  502  0.72674038515E+03 -0.49775154912E+03  0.83132989681E+03  0.12112050196E+04  0.10100000352E+00 0.  1.
</event>
<event>
 5   0  0.3531266E-04  0.1808835E+04  0.7818609E-02  0.8701615E-01
       -2   -1    0    0    0  501  0.00000000000E+00  0.00000000000E+00  0.29329806475E+03  0.29329806476E+03  0.25500000920E-02 0.  1.
        2   -1    0    0  501    0  0.00000000000E+00  0.00000000000E+00 -0.27888727550E+04  0.27888727550E+04  0.25500000920E-02 0. -1.
    10030    2    1    2    0    0  0.00000000000E+00  0.00000000000E+00 -0.24955746902E+04  0.30821708197E+04  0.18088349642E+04 0.  0.
        3    1    3    3  502    0 -0.69725287421E+03 -0.46225090751E+03 -0.66212905501E+03  0.10668891075E+04  0.10100000352E+00 0.  1.
       -3    1    3    3    0  502  0.69725287421E+03  0.46225090751E+03 -0.18334456352E+04  0.20152817122E+04  0.10100000352E+00 0. -1.
</event>
<event>
 5   0  0.1825253E-04  0.1821105E+04  0.7818609E-02  0.8695156E-01
        1   -1    0    0  501    0  0.00000000000E+00  0.00000000000E+00  0.20177954788E+04  0.20177954788E+04  0.50400001928E-02 0.  1.
       -1   -1    0    0    0  501  0.00000000000E+00  0.00000000000E+00 -0.41089686061E+03  0.41089686064E+03  0.50400001928E-02 0. -1.
    10030    2    1    2    0    0  0.00000000000E+00  0.00000000000E+00  0.16068986181E+04  0.24286923394E+04  0.18211049696E+04 0.  0.
        4    1    3    3  502    0 -0.46604140690E+03 -0.45176112933E+03 -0.48223112354E+02  0.65085312659E+03  0.12699999809E+01 0. -1.
       -4    1    3    3    0  502  0.46604140690E+03  0.45176112933E+03  0.16551217305E+04  0.17778392128E+04  0.12699999809E+01 0.  1.
</event>
<event>
 5   0  0.1818778E-04  0.1779057E+04  0.7818609E-02  0.8717516E-01
        1   -1    0    0  501    0  0.00000000000E+00  0.00000000000E+00  0.17317182379E+04  0.17317182379E+04  0.50400001928E-02 0.  1.
       -1   -1    0    0    0  501  0.00000000000E+00  0.00000000000E+00 -0.45692267427E+03  0.45692267430E+03  0.50400001928E-02 0. -1.
    10030    2    1    2    0    0  0.00000000000E+00  0.00000000000E+00  0.12747955637E+04  0.21886409122E+04  0.17790574228E+04 0.  0.
        3    1    3    3  502    0  0.19475079096E+03 -0.67044155167E+03  0.13155202676E+04  0.14892996104E+04  0.10100000352E+00 0.  1.
       -3    1    3    3    0  502 -0.19475079096E+03  0.67044155167E+03 -0.40724703945E+02  0.69934130187E+03  0.10100000352E+00 0. -1.
</event>
<event>
 5   0  0.3628581E-04  0.1797740E+04  0.7818609E-02  0.8707502E-01
       -2   -1    0    0    0  501  0.00000000000E+00  0.00000000000E+00  0.88027637092E+03  0.88027637092E+03  0.25500000920E-02 0. -1.
        2   -1    0    0  501    0  0.00000000000E+00  0.00000000000E+00 -0.91785615009E+03  0.91785615010E+03  0.25500000920E-02 0.  1.
    10030    2    1    2    0    0  0.00000000000E+00  0.00000000000E+00 -0.37579779172E+02  0.17981325210E+04  0.17977397819E+04 0.  0.
        2    1    3    3  502    0  0.45672960248E+03  0.60458307889E+03 -0.50247019261E+03  0.90917485861E+03  0.25500000920E-02 0.  1.
       -2    1    3    3    0  502 -0.45672960248E+03 -0.60458307889E+03  0.46489041343E+03  0.88895766241E+03  0.25500000920E-02 0. -1.
</event>
<event>
 5   0  0.1825253E-04  0.1778825E+04  0.7818609E-02  0.8717642E-01
        1   -1    0    0  501    0  0.00000000000E+00  0.00000000000E+00  0.85131745037E+03  0.85131745038E+03  0.50400001928E-02 0.  1.
       -1   -1    0    0    0  501  0.00000000000E+00  0.00000000000E+00 -0.92921272453E+03  0.92921272454E+03  0.50400001928E-02 0. -1.
    10030    2    1    2    0    0  0.00000000000E+00  0.00000000000E+00 -0.77895274160E+02  0.17805301749E+04  0.17788254636E+04 0.  0.
        4    1    3    3  502    0 -0.44838300516E+03  0.66134591032E+03  0.35210266576E+03  0.87315727824E+03  0.12699999809E+01 0.  1.
       -4    1    3    3    0  502  0.44838300516E+03 -0.66134591032E+03 -0.42999793992E+03  0.90737289669E+03  0.12699999809E+01 0. -1.
</event>
<event>
 5   0  0.3568870E-04  0.1793649E+04  0.7818609E-02  0.8709684E-01
       -2   -1    0    0    0  501  0.00000000000E+00  0.00000000000E+00  0.48415377115E+03  0.48415377116E+03  0.25500000920E-02 0.  1.
        2   -1    0    0  501    0  0.00000000000E+00  0.00000000000E+00 -0.16612373672E+04  0.16612373672E+04  0.25500000920E-02 0. -1.
    10030    2    1    2    0    0  0.00000000000E+00  0.00000000000E+00 -0.11770835961E+04  0.21453911384E+04  0.17936491699E+04 0.  0.
        1    1    3    3  502    0  0.83549850428E+03  0.11644238760E+03 -0.22441156758E+03  0.87291301513E+03  0.50400001928E-02 0.  1.
       -1    1    3    3    0  502 -0.83549850428E+03 -0.11644238760E+03 -0.95267202851E+03  0.12724781233E+04  0.50400001928E-02 0. -1.
</event>
<event>
 5   0  0.1330125E-04  0.1861923E+04  0.7818609E-02  0.8674045E-01
       -4   -1    0    0    0  501  0.00000000000E+00  0.00000000000E+00  0.88289205858E+03  0.88289297200E+03  0.12699999809E+01 0.  1.
        4   -1    0    0  501    0  0.00000000000E+00  0.00000000000E+00 -0.98164599697E+03  0.98164681849E+03  0.12699999809E+01 0. -1.
    10030    2    1    2    0    0  0.00000000000E+00  0.00000000000E+00 -0.98753938385E+02  0.18645397905E+04  0.18619227401E+04 0.  0.
        3    1    3    3  502    0 -0.42741991931E+03  0.33728303429E+03 -0.80558168828E+03  0.97232170568E+03  0.10100000352E+00 0. -1.
       -3    1    3    3    0  502  0.42741991931E+03 -0.33728303429E+03  0.70682774989E+03  0.89221808481E+03  0.10100000352E+00 0.  1.
</event>
<event>
 5   0  0.1825253E-04  0.1770190E+04  0.7818609E-02  0.8722314E-01
        1   -1    0    0  501    0  0.00000000000E+00  0.00000000000E+00  0.15824626231E+04  0.15824626231E+04  0.50400001928E-02 0. -1.
       -1   -1    0    0    0  501  0.00000000000E+00  0.00000000000E+00 -0.49504707117E+03  0.49504707120E+03  0.50400001928E-02 0.  1.
    10030    2    1    2    0    0  0.00000000000E+00  0.00000000000E+00  0.10874155519E+04  0.20775096943E+04  0.17701903703E+04 0.  0.
        4    1    3    3  502    0  0.23173360939E+03  0.85335708767E+03  0.49866370890E+03  0.10151777639E+04  0.12699999809E+01 0. -1.
       -4    1    3    3    0  502 -0.23173360939E+03 -0.85335708767E+03  0.58875184299E+03  0.10623319304E+04  0.12699999809E+01 0.  1.
</event>
<event>
 5   0  0.3531266E-04  0.1806344E+04  0.7818609E-02  0.8702933E-01
        2   -1    0    0  501    0  0.00000000000E+00  0.00000000000E+00  0.19574416674E+04  0.19574416674E+04  0.25500000920E-02 0.  1.
       -2   -1    0    0    0  501  0.00000000000E+00  0.00000000000E+00 -0.41672740472E+03  0.41672740472E+03  0.25500000920E-02 0. -1.
    10030    2    1    2    0    0  0.00000000000E+00  0.00000000000E+00  0.15407142626E+04  0.23741690721E+04  0.18063439162E+04 0.  0.
        3    1    3    3  502    0  0.39316800690E+03  0.36037679390E+03 -0.18764758543E+03  0.56538848746E+03  0.10100000352E+00 0. -1.
       -3    1    3    3    0  502 -0.39316800690E+03 -0.36037679390E+03  0.17283618481E+04  0.18087805846E+04  0.10100000352E+00 0.  1.
</event>
<event>
 5   0  0.1818778E-04  0.1821176E+04  0.7818609E-02  0.8695119E-01
        1   -1    0    0  501    0  0.00000000000E+00  0.00000000000E+00  0.55940437008E+03  0.55940437010E+03  0.50400001928E-02 0. -1.
       -1   -1    0    0    0  501  0.00000000000E+00  0.00000000000E+00 -0.14822375925E+04  0.14822375925E+04  0.50400001928E-02 0.  1.
    10030    2    1    2    0    0  0.00000000000E+00  0.00000000000E+00 -0.92283322240E+03  0.20416419626E+04  0.18211756497E+04 0.  0.
        3    1    3    3  502    0 -0.76533026738E+03 -0.22942380599E+03  0.28274281720E+02  0.79947804606E+03  0.10100000352E+00 0. -1.
       -3    1    3    3    0  502  0.76533026738E+03  0.22942380599E+03 -0.95110750412E+03  0.12421639165E+04  0.10100000352E+00 0.  1.
</event>
<event>
 5   0  0.3628581E-04  0.1823659E+04  0.7818609E-02  0.8693818E-01
       -2   -1    0    0    0  501  0.00000000000E+00  0.00000000000E+00  0.13375090142E+04  0.13375090142E+04  0.25500000920E-02 0. -1.
        2   -1    0    0  501    0  0.00000000000E+00  0.00000000000E+00 -0.62162811318E+03  0.62162811318E+03  0.25500000920E-02 0.  1.
    10030    2    1    2    0    0  0.00000000000E+00  0.00000000000E+00  0.71588090100E+03  0.19591371274E+04  0.18236591840E+04 0.  0.
        2    1    3    3  502    0  0.44896956632E+03  0.43082788586E+03  0.10739739534E+04  0.12412116626E+04  0.25500000920E-02 0. -1.
       -2    1    3    3    0  502 -0.44896956632E+03 -0.43082788586E+03 -0.35809305244E+03  0.71792546475E+03  0.25500000920E-02 0.  1.
</event>
<event>
 5   0  0.3531266E-04  0.1802707E+04  0.7818609E-02  0.8704861E-01
       -2   -1    0    0    0  501  0.00000000000E+00  0.00000000000E+00  0.64247556489E+03  0.64247556489E+03  0.25500000920E-02 0.  1.
        2   -1    0    0  501    0  0.00000000000E+00  0.00000000000E+00 -0.12645438448E+04  0.12645438448E+04  0.25500000920E-02 0. -1.
    10030    2    1    2    0    0  0.00000000000E+00  0.00000000000E+00 -0.62206827987E+03  0.19070194097E+04  0.18027074316E+04 0.  0.
        3    1    3    3  502    0  0.16097587760E+03  0.67407392991E+03  0.29863854899E+03  0.75463493776E+03  0.10100000352E+00 0.  1.
       -3    1    3    3    0  502 -0.16097587760E+03 -0.67407392991E+03 -0.92070682886E+03  0.11523844719E+04  0.10100000352E+00 0. -1.
</event>
<event>
 5   0  0.3628581E-04  0.1765207E+04  0.7818609E-02  0.8725024E-01
       -2   -1    0    0    0  501  0.00000000000E+00  0.00000000000E+00  0.42245806295E+03  0.42245806295E+03  0.25500000920E-02 0. -1.
        2   -1    0    0  501    0  0.00000000000E+00  0.00000000000E+00 -0.18439443430E+04  0.18439443430E+04  0.25500000920E-02 0.  1.
    10030    2    1    2    0    0  0.00000000000E+00  0.00000000000E+00 -0.14214862800E+04  0.22664024059E+04  0.17652072460E+04 0.  0.
        2    1    3    3  502    0 -0.44220957715E+03 -0.69789469649E+03 -0.11093467022E+04  0.13832051270E+04  0.25500000920E-02 0.  1.
       -2    1    3    3    0  502  0.44220957715E+03  0.69789469649E+03 -0.31213957778E+03  0.88319727895E+03  0.25500000920E-02 0. -1.
</event>
<event>
 5   0  0.3628581E-04  0.1511907E+04  0.7818609E-02  0.8876573E-01
       -2   -1    0    0    0  501  0.00000000000E+00  0.00000000000E+00  0.47562854914E+03  0.47562854914E+03  0.25500000920E-02 0. -1.
        2   -1    0    0  501    0  0.00000000000E+00  0.00000000000E+00 -0.12014963966E+04  0.12014963966E+04  0.25500000920E-02 0.  1.
    10030    2    1    2    0    0  0.00000000000E+00  0.00000000000E+00 -0.72586784749E+03  0.16771249458E+04  0.15119073886E+04 0.  0.
        2    1    3    3  502    0  0.38915899699E+03  0.63215567010E+02 -0.10784180002E+04  0.11482274670E+04  0.25500000920E-02 0.  1.
       -2    1    3    3    0  502 -0.38915899699E+03 -0.63215567010E+02  0.35255015271E+03  0.52889747876E+03  0.25500000920E-02 0. -1.
</event>
<event>
 5   0  0.1883959E-04  0.1785165E+04  0.7818609E-02  0.8714229E-01
        1   -1    0    0  501    0  0.00000000000E+00  0.00000000000E+00  0.27807735692E+04  0.27807735692E+04  0.50400001928E-02 0. -1.
       -1   -1    0    0    0  501  0.00000000000E+00  0.00000000000E+00 -0.28650426126E+03  0.28650426130E+03  0.50400001928E-02 0.  1.
    10030    2    1    2    0    0  0.00000000000E+00  0.00000000000E+00  0.24942693080E+04  0.30672778306E+04  0.17851649529E+04 0.  0.
        5    1    3    3  502    0 -0.50256564798E+02  0.89043861971E+03  0.13084803052E+04  0.15835243783E+04  0.46999998093E+01 0. -1.
       -5    1    3    3    0  502  0.50256564798E+02 -0.89043861971E+03  0.11857890028E+04  0.14837534522E+04  0.46999998093E+01 0.  1.
</event>
<event>
 5   0  0.1825253E-04  0.1812210E+04  0.7818609E-02  0.8699833E-01
       -1   -1    0    0    0  501  0.00000000000E+00  0.00000000000E+00  0.42533171327E+03  0.42533171330E+03  0.50400001928E-02 0. -1.
        1   -1    0    0  501    0  0.00000000000E+00  0.00000000000E+00 -0.19303202119E+04  0.19303202119E+04  0.50400001928E-02 0.  1.
    10030    2    1    2    0    0  0.00000000000E+00  0.00000000000E+00 -0.15049884987E+04  0.23556519252E+04  0.18122101456E+04 0.  0.
        4    1    3    3  502    0  0.44218635890E+03 -0.25493074009E+03  0.22068496143E+03  0.55607726382E+03  0.12699999809E+01 0. -1.
       -4    1    3    3    0  502 -0.44218635890E+03  0.25493074009E+03 -0.17256734601E+04  0.17995746614E+04  0.12699999809E+01 0.  1.
</event>
<event>
 5   0  0.3628581E-04  0.1744030E+04  0.7818609E-02  0.8736643E-01
       -2   -1    0    0    0  501  0.00000000000E+00  0.00000000000E+00  0.68022094455E+03  0.68022094456E+03  0.25500000920E-02 0. -1.
        2   -1    0    0  501    0  0.00000000000E+00  0.00000000000E+00 -0.11178871177E+04  0.11178871177E+04  0.25500000920E-02 0.  1.
    10030    2    1    2    0    0  0.00000000000E+00  0.00000000000E+00 -0.43766617318E+03  0.17981080623E+04  0.17440300813E+04 0.  0.
        2    1    3    3  502    0 -0.42609136539E+03  0.85818679801E+02 -0.99824442138E+03  0.10887656416E+04  0.25500000920E-02 0.  1.
       -2    1    3    3    0  502  0.42609136539E+03 -0.85818679801E+02  0.56057824820E+03  0.70934242071E+03  0.25500000920E-02 0. -1.
</event>
<event>
 5   0  0.3628581E-04  0.1768216E+04  0.7818609E-02  0.8723387E-01
       -2   -1    0    0    0  501  0.00000000000E+00  0.00000000000E+00  0.84988683280E+03  0.84988683281E+03  0.25500000920E-02 0. -1.
        2   -1    0    0  501    0  0.00000000000E+00  0.00000000000E+00 -0.91970733157E+03  0.91970733158E+03  0.25500000920E-02 0.  1.
    10030    2    1    2    0    0  0.00000000000E+00  0.00000000000E+00 -0.69820498767E+02  0.17695941644E+04  0.17682162211E+04 0.  0.
        2    1    3    3  502    0  0.38542823156E+02 -0.13150509479E+03 -0.90901405185E+03  0.91928542121E+03  0.25500000920E-02 0.  1.
       -2    1    3    3    0  502 -0.38542823156E+02  0.13150509479E+03  0.83919355309E+03  0.85030874318E+03  0.25500000920E-02 0. -1.
</event>
<event>
 5   0  0.1330125E-04  0.1784659E+04  0.7818609E-02  0.8714500E-01
       -3   -1    0    0    0  501  0.00000000000E+00  0.00000000000E+00  0.51034378541E+03  0.51034379540E+03  0.10100000352E+00 0. -1.
        3   -1    0    0  501    0  0.00000000000E+00  0.00000000000E+00 -0.15602265896E+04  0.15602265928E+04  0.10100000352E+00 0.  1.
    10030    2    1    2    0    0  0.00000000000E+00  0.00000000000E+00 -0.10498828041E+04  0.20705703882E+04  0.17846590235E+04 0.  0.
        4    1    3    3  502    0 -0.15373625915E+03 -0.82621679385E+03 -0.17691602007E+03  0.85881890924E+03  0.12699999809E+01 0.  1.
       -4    1    3    3    0  502  0.15373625915E+03  0.82621679385E+03 -0.87296678408E+03  0.12117514790E+04  0.12699999809E+01 0. -1.
</event>
<event>
 5   0  0.3531266E-04  0.1797312E+04  0.7818609E-02  0.8707730E-01
       -2   -1    0    0    0  501  0.00000000000E+00  0.00000000000E+00  0.10603339476E+04  0.10603339476E+04  0.25500000920E-02 0.  1.
        2   -1    0    0  501    0  0.00000000000E+00  0.00000000000E+00 -0.76163063001E+03  0.76163063002E+03  0.25500000920E-02 0. -1.
    10030    2    1    2    0    0  0.00000000000E+00  0.00000000000E+00  0.29870331761E+03  0.18219645776E+04  0.17973122295E+04 0.  0.
        3    1    3    3  502    0 -0.34717802166E+03  0.27324501534E+03 -0.64393384423E+03  0.78092651580E+03  0.10100000352E+00 0. -1.
       -3    1    3    3    0  502  0.34717802166E+03 -0.27324501534E+03  0.94263716185E+03  0.10410380619E+04  0.10100000352E+00 0.  1.
</event>
<event>
 5   0  0.1330125E-04  0.1774221E+04  0.7818609E-02  0.8720130E-01
        4   -1    0    0  501    0  0.00000000000E+00  0.00000000000E+00  0.11928097106E+04  0.11928103867E+04  0.12699999809E+01 0.  1.
       -4   -1    0    0    0  501  0.00000000000E+00  0.00000000000E+00 -0.65975576133E+03  0.65975698368E+03  0.12699999809E+01 0. -1.
    10030    2    1    2    0    0  0.00000000000E+00  0.00000000000E+00  0.53305394931E+03  0.18525673704E+04  0.17742207723E+04 0.  0.
        2    1    3    3  502    0  0.16018535332E+03  0.63194157988E+03  0.89472105365E+03  0.11070389657E+04  0.25500000920E-02 0.  1.
       -2    1    3    3    0  502 -0.16018535332E+03 -0.63194157988E+03 -0.36166710434E+03  0.74552840467E+03  0.25500000920E-02 0. -1.
</event>
<event>
 5   0  0.1837313E-04  0.1855611E+04  0.7818609E-02  0.8677273E-01
       -1   -1    0    0    0  501  0.00000000000E+00  0.00000000000E+00  0.54359714146E+03  0.54359714149E+03  0.50400001928E-02 0. -1.
        1   -1    0    0  501    0  0.00000000000E+00  0.00000000000E+00 -0.15835679544E+04  0.15835679544E+04  0.50400001928E-02 0.  1.
    10030    2    1    2    0    0  0.00000000000E+00  0.00000000000E+00 -0.10399708129E+04  0.21271650959E+04  0.18556109650E+04 0.  0.
        1    1    3    3  502    0 -0.17473122966E+03 -0.14846105457E+03 -0.15505791007E+04  0.15674397070E+04  0.50400001928E-02 0.  1.
       -1    1    3    3    0  502  0.17473122966E+03  0.14846105457E+03  0.51060828783E+03  0.55972538889E+03  0.50400001928E-02 0. -1.
</event>
<event>
 5   0  0.3628581E-04  0.1792525E+04  0.7818609E-02  0.8710285E-01
        2   -1    0    0  501    0  0.00000000000E+00  0.00000000000E+00  0.91767102829E+03  0.91767102830E+03  0.25500000920E-02 0. -1.
       -2   -1    0    0    0  501  0.00000000000E+00  0.00000000000E+00 -0.87535371528E+03  0.87535371528E+03  0.25500000920E-02 0.  1.
    10030    2    1    2    0    0  0.00000000000E+00  0.00000000000E+00  0.42317313019E+02  0.17930247436E+04  0.17925253070E+04 0.  0.
        2    1    3    3  502    0  0.50713368600E+03  0.73354887660E+03  0.11067221600E+03  0.89862498810E+03  0.25500000920E-02 0. -1.
       -2    1    3    3    0  502 -0.50713368600E+03 -0.73354887660E+03 -0.68354902981E+02  0.89439975548E+03  0.25500000920E-02 0.  1.
</event>
<event>
 5   0  0.3531266E-04  0.1751249E+04  0.7818609E-02  0.8732663E-01
        2   -1    0    0  501    0  0.00000000000E+00  0.00000000000E+00  0.93691448731E+03  0.93691448732E+03  0.25500000920E-02 0. -1.
       -2   -1    0    0    0  501  0.00000000000E+00  0.00000000000E+00 -0.81834357374E+03  0.81834357374E+03  0.25500000920E-02 0.  1.
    10030    2    1    2    0    0  0.00000000000E+00  0.00000000000E+00  0.11857091357E+03  0.17552580611E+04  0.17512486401E+04 0.  0.
        3    1    3    3  502    0 -0.29566082427E+02  0.70571395696E+03 -0.45940451925E+03  0.84259056771E+03  0.10100000352E+00 0.  1.
       -3    1    3    3    0  502  0.29566082427E+02 -0.70571395696E+03  0.57797543282E+03  0.91266749336E+03  0.10100000352E+00 0. -1.
</event>
<event>
 5   0  0.1330125E-04  0.1794039E+04  0.7818609E-02  0.8709476E-01
       -4   -1    0    0    0  501  0.00000000000E+00  0.00000000000E+00  0.54909591513E+03  0.54909738382E+03  0.12699999809E+01 0.  1.
        4   -1    0    0  501    0  0.00000000000E+00  0.00000000000E+00 -0.14653947991E+04  0.14653953494E+04  0.12699999809E+01 0. -1.
    10030    2    1    2    0    0  0.00000000000E+00  0.00000000000E+00 -0.91629888397E+03  0.20144927333E+04  0.17940393885E+04 0.  0.
        2    1    3    3  502    0  0.14592492523E+03 -0.32580117558E+03 -0.13821951155E+04  0.14275516899E+04  0.25500000920E-02 0. -1.
       -2    1    3    3    0  502 -0.14592492523E+03  0.32580117558E+03  0.46589623157E+03  0.58694104339E+03  0.25500000920E-02 0.  1.
</event>
<event>
 5   0  0.1883959E-04  0.1865736E+04  0.7818609E-02  0.8672102E-01
       -1   -1    0    0    0  501  0.00000000000E+00  0.00000000000E+00  0.69518858506E+03  0.69518858507E+03  0.50400001928E-02 0.  1.
        1   -1    0    0  501    0  0.00000000000E+00  0.00000000000E+00 -0.12518079751E+04  0.12518079751E+04  0.50400001928E-02 0. -1.
    10030    2    1    2    0    0  0.00000000000E+00  0.00000000000E+00 -0.55661939004E+03  0.19469965602E+04  0.18657359031E+04 0.  0.
        5    1    3    3  502    0 -0.57900093738E+03 -0.61364533996E+03 -0.69366241031E+03  0.10922418772E+04  0.46999998093E+01 0. -1.
       -5    1    3    3    0  502  0.57900093738E+03  0.61364533996E+03  0.13704302027E+03  0.85475468302E+03  0.46999998093E+01 0.  1.
</event>
<event>
 5   0  0.3582186E-04  0.1829556E+04  0.7818609E-02  0.8690738E-01
       -2   -1    0    0    0  501  0.00000000000E+00  0.00000000000E+00  0.42146740096E+03  0.42146740097E+03  0.25500000920E-02 0.  1.
        2   -1    0    0  501    0  0.00000000000E+00  0.00000000000E+00 -0.19854885656E+04  0.19854885656E+04  0.25500000920E-02 0. -1.
    10030    2    1    2    0    0  0.00000000000E+00  0.00000000000E+00 -0.15640211647E+04  0.24069559666E+04  0.18295559083E+04 0.  0.
        4    1    3    3  502    0  0.55987811709E+03  0.67491627104E+03 -0.11246762110E+04  0.14261394292E+04  0.12699999809E+01 0. -1.
       -4    1    3    3    0  502 -0.55987811709E+03 -0.67491627104E+03 -0.43934495368E+03  0.98081653745E+03  0.12699999809E+01 0.  1.
</event>
<event>
 5   0  0.1818778E-04  0.1789259E+04  0.7818609E-02  0.8712032E-01
       -1   -1    0    0    0  501  0.00000000000E+00  0.00000000000E+00  0.80002773452E+03  0.80002773453E+03  0.50400001928E-02 0.  1.
        1   -1    0    0  501    0  0.00000000000E+00  0.00000000000E+00 -0.10004181583E+04  0.10004181583E+04  0.50400001928E-02 0. -1.
    10030    2    1    2    0    0  0.00000000000E+00  0.00000000000E+00 -0.20039042376E+03  0.18004458928E+04  0.17892593694E+04 0.  0.
        3    1    3    3  502    0 -0.47362135628E+03  0.31369338442E+03 -0.79563224946E+03  0.97762539611E+03  0.10100000352E+00 0. -1.
       -3    1    3    3    0  502  0.47362135628E+03 -0.31369338442E+03  0.59524182570E+03  0.82282049671E+03  0.10100000352E+00 0.  1.
</event>
<event>
 5   0  0.1835421E-04  0.1796162E+04  0.7818609E-02  0.8708343E-01
        1   -1    0    0  501    0  0.00000000000E+00  0.00000000000E+00  0.14376353295E+04  0.14376353295E+04  0.50400001928E-02 0.  1.
       -1   -1    0    0    0  501  0.00000000000E+00  0.00000000000E+00 -0.56102510897E+03  0.56102510899E+03  0.50400001928E-02 0. -1.
    10030    2    1    2    0    0  0.00000000000E+00  0.00000000000E+00  0.87661022057E+03  0.19986604385E+04  0.17961620388E+04 0.  0.
        2    1    3    3  502    0 -0.58526373382E+03 -0.30829930420E+03  0.11142129929E+04  0.12957826565E+04  0.25500000920E-02 0.  1.
       -2    1    3    3    0  502  0.58526373382E+03  0.30829930420E+03 -0.23760277238E+03  0.70287778208E+03  0.25500000920E-02 0. -1.
</event>
<event>
 5   0  0.3628581E-04  0.1745596E+04  0.7818609E-02  0.8735778E-01
       -2   -1    0    0    0  501  0.00000000000E+00  0.00000000000E+00  0.61359541976E+03  0.61359541976E+03  0.25500000920E-02 0. -1.
        2   -1    0    0  501    0  0.00000000000E+00  0.00000000000E+00 -0.12414961624E+04  0.12414961624E+04  0.25500000920E-02 0.  1.
    10030    2    1    2    0    0  0.00000000000E+00  0.00000000000E+00 -0.62790074267E+03  0.18550915822E+04  0.17455960116E+04 0.  0.
        2    1    3    3  502    0  0.74562784986E+03  0.25340420447E+02  0.16742300747E+03  0.76461329496E+03  0.25500000920E-02 0. -1.
       -2    1    3    3    0  502 -0.74562784986E+03 -0.25340420447E+02 -0.79532375014E+03  0.10904782872E+04  0.25500000920E-02 0.  1.
</event>
<event>
 5   0  0.3531266E-04  0.1790418E+04  0.7818609E-02  0.8711412E-01
       -2   -1    0    0    0  501  0.00000000000E+00  0.00000000000E+00  0.40199839915E+03  0.40199839916E+03  0.25500000920E-02 0. -1.
        2   -1    0    0  501    0  0.00000000000E+00  0.00000000000E+00 -0.19935371034E+04  0.19935371034E+04  0.25500000920E-02 0.  1.
    10030    2    1    2    0    0  0.00000000000E+00  0.00000000000E+00 -0.15915387043E+04  0.23955355026E+04  0.17904175203E+04 0.  0.
        3    1    3    3  502    0 -0.19268809190E+02  0.70127801078E+03 -0.51733740837E+02  0.70344759972E+03  0.10100000352E+00 0. -1.
       -3    1    3    3    0  502  0.19268809190E+02 -0.70127801078E+03 -0.15398049634E+04  0.16920879029E+04  0.10100000352E+00 0.  1.
</event>
<event>
 5   0  0.1825253E-04  0.1789963E+04  0.7818609E-02  0.8711655E-01
       -1   -1    0    0    0  501  0.00000000000E+00  0.00000000000E+00  0.91995308618E+03  0.91995308620E+03  0.50400001928E-02 0.  1.
        1   -1    0    0  501    0  0.00000000000E+00  0.00000000000E+00 -0.87068780860E+03  0.87068780861E+03  0.50400001928E-02 0. -1.
    10030    2    1    2    0    0  0.00000000000E+00  0.00000000000E+00  0.49265277588E+02  0.17906408948E+04  0.17899630573E+04 0.  0.
        4    1    3    3  502    0  0.82369837154E+03 -0.51255692359E+02 -0.32174141487E+03  0.88579077903E+03  0.12699999809E+01 0. -1.
       -4    1    3    3    0  502 -0.82369837154E+03  0.51255692359E+02  0.37100669246E+03  0.90485011578E+03  0.12699999809E+01 0.  1.
</event>
<event>
 5   0  0.3531266E-04  0.1594011E+04  0.7818609E-02  0.8824236E-01
        2   -1    0    0  501    0  0.00000000000E+00  0.00000000000E+00  0.17549348887E+04  0.17549348887E+04  0.25500000920E-02 0.  1.
       -2   -1    0    0    0  501  0.00000000000E+00  0.00000000000E+00 -0.36196071187E+03  0.36196071187E+03  0.25500000920E-02 0. -1.
    10030    2    1    2    0    0  0.00000000000E+00  0.00000000000E+00  0.13929741768E+04  0.21168956006E+04  0.15940106419E+04 0.  0.
        3    1    3    3  502    0 -0.63575691407E+03  0.32941884407E+03  0.11613242118E+04  0.13643231156E+04  0.10100000352E+00 0. -1.
       -3    1    3    3    0  502  0.63575691407E+03 -0.32941884407E+03  0.23164996499E+03  0.75257248495E+03  0.10100000352E+00 0.  1.
</event>
<event>
 5   0  0.1818778E-04  0.1822505E+04  0.7818609E-02  0.8694422E-01
        1   -1    0    0  501    0  0.00000000000E+00  0.00000000000E+00  0.10022838600E+04  0.10022838600E+04  0.50400001928E-02 0.  1.
       -1   -1    0    0    0  501  0.00000000000E+00  0.00000000000E+00 -0.82848904798E+03  0.82848904800E+03  0.50400001928E-02 0. -1.
    10030    2    1    2    0    0  0.00000000000E+00  0.00000000000E+00  0.17379481200E+03  0.18307729080E+04  0.18225050902E+04 0.  0.
        3    1    3    3  502    0  0.26500198179E+03  0.83973940991E+03 -0.14867200478E+03  0.89302390904E+03  0.10100000352E+00 0. -1.
       -3    1    3    3    0  502 -0.26500198179E+03 -0.83973940991E+03  0.32246681678E+03  0.93774899895E+03  0.10100000352E+00 0.  1.
</event>
<event>
 5   0  0.3628581E-04  0.1796392E+04  0.7818609E-02  0.8708221E-01
       -2   -1    0    0    0  501  0.00000000000E+00  0.00000000000E+00  0.37415098402E+03  0.37415098402E+03  0.25500000920E-02 0. -1.
        2   -1    0    0  501    0  0.00000000000E+00  0.00000000000E+00 -0.21562311883E+04  0.21562311883E+04  0.25500000920E-02 0.  1.
    10030    2    1    2    0    0  0.00000000000E+00  0.00000000000E+00 -0.17820802043E+04  0.25303821723E+04  0.17963919627E+04 0.  0.
        2    1    3    3  502    0  0.83389082864E+03 -0.33336301418E+03 -0.91336561103E+03  0.12809143425E+04  0.25500000920E-02 0.  1.
       -2    1    3    3    0  502 -0.83389082864E+03  0.33336301418E+03 -0.86871459326E+03  0.12494678299E+04  0.25500000920E-02 0. -1.
</event>
<event>
 5   0  0.3531266E-04  0.1773997E+04  0.7818609E-02  0.8720251E-01
       -2   -1    0    0    0  501  0.00000000000E+00  0.00000000000E+00  0.44010762486E+03  0.44010762487E+03  0.25500000920E-02 0.  1.
        2   -1    0    0  501    0  0.00000000000E+00  0.00000000000E+00 -0.17876678848E+04  0.17876678848E+04  0.25500000920E-02 0. -1.
    10030    2    1    2    0    0  0.00000000000E+00  0.00000000000E+00 -0.13475602599E+04  0.22277755097E+04  0.17739969186E+04 0.  0.
        3    1    3    3  502    0 -0.72044401949E+03 -0.49282907781E+03 -0.87172684699E+03  0.12336238451E+04  0.10100000352E+00 0. -1.
       -3    1    3    3    0  502  0.72044401949E+03  0.49282907781E+03 -0.47583341294E+03  0.99415166460E+03  0.10100000352E+00 0.  1.
</event>
<event>
 5   0  0.3568870E-04  0.1751994E+04  0.7818609E-02  0.8732253E-01
       -2   -1    0    0    0  501  0.00000000000E+00  0.00000000000E+00  0.98001060137E+03  0.98001060137E+03  0.25500000920E-02 0.  1.
        2   -1    0    0  501    0  0.00000000000E+00  0.00000000000E+00 -0.78302288012E+03  0.78302288013E+03  0.25500000920E-02 0. -1.
    10030    2    1    2    0    0  0.00000000000E+00  0.00000000000E+00  0.19698772124E+03  0.17630334815E+04  0.17519939767E+04 0.  0.
        1    1    3    3  502    0 -0.66632783635E+02  0.17984165601E+03 -0.76163625043E+03  0.78541245667E+03  0.50400001928E-02 0. -1.
       -1    1    3    3    0  502  0.66632783635E+02 -0.17984165601E+03  0.95862397167E+03  0.97762102483E+03  0.50400001928E-02 0.  1.
</event>
<event>
 5   0  0.1837313E-04  0.1829004E+04  0.7818609E-02  0.8691026E-01
       -1   -1    0    0    0  501  0.00000000000E+00  0.00000000000E+00  0.58759694725E+03  0.58759694727E+03  0.50400001928E-02 0.  1.
        1   -1    0    0  501    0  0.00000000000E+00  0.00000000000E+00 -0.14232786637E+04  0.14232786637E+04  0.50400001928E-02 0. -1.
    10030    2    1    2    0    0  0.00000000000E+00  0.00000000000E+00 -0.83568171642E+03  0.20108756109E+04  0.18290043170E+04 0.  0.
        1    1    3    3  502    0  0.49161960471E+03  0.68171229115E+03 -0.21596700324E+02  0.84076625832E+03  0.50400001928E-02 0.  1.
       -1    1    3    3    0  502 -0.49161960471E+03 -0.68171229115E+03 -0.81408501610E+03  0.11701093526E+04  0.50400001928E-02 0. -1.
</event>
<event>
 5   0  0.3531266E-04  0.1767872E+04  0.7818609E-02  0.8723574E-01
       -2   -1    0    0    0  501  0.00000000000E+00  0.00000000000E+00  0.54921864047E+03  0.54921864047E+03  0.25500000920E-02 0. -1.
        2   -1    0    0  501    0  0.00000000000E+00  0.00000000000E+00 -0.14226449143E+04  0.14226449143E+04  0.25500000920E-02 0.  1.
    10030    2    1    2    0    0  0.00000000000E+00  0.00000000000E+00 -0.87342627387E+03  0.19718635548E+04  0.17678722869E+04 0.  0.
        3    1    3    3  502    0 -0.60019125039E+03 -0.29832488697E+03 -0.10795055678E+04  0.12706532006E+04  0.10100000352E+00 0.  1.
       -3    1    3    3    0  502  0.60019125039E+03  0.29832488697E+03  0.20607929390E+03  0.70121035418E+03  0.10100000352E+00 0. -1.
</event>
<event>
 5   0  0.1825253E-04  0.1789183E+04  0.7818609E-02  0.8712073E-01
        1   -1    0    0  501    0  0.00000000000E+00  0.00000000000E+00  0.99692058582E+03  0.99692058583E+03  0.50400001928E-02 0.  1.
       -1   -1    0    0    0  501  0.00000000000E+00  0.00000000000E+00 -0.80276606210E+03  0.80276606212E+03  0.50400001928E-02 0. -1.
    10030    2    1    2    0    0  0.00000000000E+00  0.00000000000E+00  0.19415452372E+03  0.17996866479E+04  0.17891830682E+04 0.  0.
        4    1    3    3  502    0 -0.12437793750E+02 -0.45618705418E+03  0.87102986565E+03  0.98333919218E+03  0.12699999809E+01 0.  1.
       -4    1    3    3    0  502  0.12437793750E+02  0.45618705418E+03 -0.67687534193E+03  0.81634745577E+03  0.12699999809E+01 0. -1.
</event>
<event>
 5   0  0.3575091E-04  0.1761995E+04  0.7818609E-02  0.8726775E-01
        2   -1    0    0  501    0  0.00000000000E+00  0.00000000000E+00  0.15396389884E+04  0.15396389884E+04  0.25500000920E-02 0. -1.
       -2   -1    0    0    0  501  0.00000000000E+00  0.00000000000E+00 -0.50411600752E+03  0.50411600753E+03  0.25500000920E-02 0.  1.
    10030    2    1    2    0    0  0.00000000000E+00  0.00000000000E+00  0.10355229809E+04  0.20437549959E+04  0.17619950736E+04 0.  0.
        5    1    3    3  502    0  0.82513389441E+03 -0.27425358520E+03  0.68209901626E+03  0.11051434887E+04  0.46999998093E+01 0. -1.
       -5    1    3    3    0  502 -0.82513389441E+03  0.27425358520E+03  0.35342396462E+03  0.93861150721E+03  0.46999998093E+01 0.  1.
</event>
<event>
 5   0  0.1825253E-04  0.1782755E+04  0.7818609E-02  0.8715524E-01
        1   -1    0    0  501    0  0.00000000000E+00  0.00000000000E+00  0.13716497176E+04  0.13716497176E+04  0.50400001928E-02 0. -1.
       -1   -1    0    0    0  501  0.00000000000E+00  0.00000000000E+00 -0.57926852201E+03  0.57926852203E+03  0.50400001928E-02 0.  1.
    10030    2    1    2    0    0  0.00000000000E+00  0.00000000000E+00  0.79238119557E+03  0.19509182396E+04  0.17827546154E+04 0.  0.
        4    1    3    3  502    0 -0.45282985011E+03  0.72761935428E+03  0.66439494320E+03  0.10843924803E+04  0.12699999809E+01 0.  1.
       -4    1    3    3    0  502  0.45282985011E+03 -0.72761935428E+03  0.12798625236E+03  0.86652575932E+03  0.12699999809E+01 0. -1.
</event>
<event>
 5   0  0.1818778E-04  0.1793550E+04  0.7818609E-02  0.8709737E-01
       -1   -1    0    0    0  501  0.00000000000E+00  0.00000000000E+00  0.61480190301E+03  0.61480190303E+03  0.50400001928E-02 0.  1.
        1   -1    0    0  501    0  0.00000000000E+00  0.00000000000E+00 -0.13080726040E+04  0.13080726041E+04  0.50400001928E-02 0. -1.
    10030    2    1    2    0    0  0.00000000000E+00  0.00000000000E+00 -0.69327070103E+03  0.19228745071E+04  0.17935501401E+04 0.  0.
        3    1    3    3  502    0  0.48001626010E+03 -0.75205505490E+03 -0.44373696172E+03  0.99644614353E+03  0.10100000352E+00 0. -1.
       -3    1    3    3    0  502 -0.48001626010E+03  0.75205505490E+03 -0.24953373932E+03  0.92642836356E+03  0.10100000352E+00 0.  1.
</event>
<event>
 5   0  0.3568870E-04  0.1783384E+04  0.7818609E-02  0.8715186E-01
       -2   -1    0    0    0  501  0.00000000000E+00  0.00000000000E+00  0.37118222963E+03  0.37118222964E+03  0.25500000920E-02 0.  1.
        2   -1    0    0  501    0  0.00000000000E+00  0.00000000000E+00 -0.21421138355E+04  0.21421138355E+04  0.25500000920E-02 0. -1.
    10030    2    1    2    0    0  0.00000000000E+00  0.00000000000E+00 -0.17709316059E+04  0.25132960651E+04  0.17833839627E+04 0.  0.
        1    1    3    3  502    0 -0.23428562815E+03 -0.36574251443E+03  0.21201994597E+03  0.48333197694E+03  0.50400001928E-02 0.  1.
       -1    1    3    3    0  502  0.23428562815E+03  0.36574251443E+03 -0.19829515518E+04  0.20299640882E+04  0.50400001928E-02 0. -1.
</event>
<event>
 5   0  0.3582186E-04  0.2001841E+04  0.7818609E-02  0.8605760E-01
        2   -1    0    0  501    0  0.00000000000E+00  0.00000000000E+00  0.10544363882E+04  0.10544363882E+04  0.25500000920E-02 0.  1.
       -2   -1    0    0    0  501  0.00000000000E+00  0.00000000000E+00 -0.95012080536E+03  0.95012080536E+03  0.25500000920E-02 0. -1.
    10030    2    1    2    0    0  0.00000000000E+00  0.00000000000E+00  0.10431558282E+03  0.20045571935E+04  0.20018411029E+04 0.  0.
        4    1    3    3  502    0  0.69683535258E+03 -0.67433282350E+03  0.30055901747E+03  0.10152052016E+04  0.12699999809E+01 0.  1.
       -4    1    3    3    0  502 -0.69683535258E+03  0.67433282350E+03 -0.19624343464E+03  0.98935199196E+03  0.12699999809E+01 0. -1.
</event>
<event>
 5   0  0.3531266E-04  0.1786559E+04  0.7818609E-02  0.8713480E-01
       -2   -1    0    0    0  501  0.00000000000E+00  0.00000000000E+00  0.45724335993E+03  0.45724335993E+03  0.25500000920E-02 0. -1.
        2   -1    0    0  501    0  0.00000000000E+00  0.00000000000E+00 -0.17451279101E+04  0.17451279101E+04  0.25500000920E-02 0.  1.
    10030    2    1    2    0    0  0.00000000000E+00  0.00000000000E+00 -0.12878845502E+04  0.22023712701E+04  0.17865588702E+04 0.  0.
        3    1    3    3  502    0 -0.14347556593E+03 -0.62866786351E+03 -0.14059936207E+04  0.15468117507E+04  0.10100000352E+00 0.  1.
       -3    1    3    3    0  502  0.14347556593E+03  0.62866786351E+03  0.11810907049E+03  0.65555951931E+03  0.10100000352E+00 0. -1.
</event>
<event>
 5   0  0.1835421E-04  0.1820839E+04  0.7818609E-02  0.8695295E-01
       -1   -1    0    0    0  501  0.00000000000E+00  0.00000000000E+00  0.49211271530E+03  0.49211271533E+03  0.50400001928E-02 0.  1.
        1   -1    0    0  501    0  0.00000000000E+00  0.00000000000E+00 -0.16842962172E+04  0.16842962172E+04  0.50400001928E-02 0. -1.
    10030    2    1    2    0    0  0.00000000000E+00  0.00000000000E+00 -0.11921835019E+04  0.21764089326E+04  0.18208389109E+04 0.  0.
        2    1    3    3  502    0  0.15447131320E+03 -0.68734601054E+03 -0.12853825033E+04  0.14657810562E+04  0.25500000920E-02 0. -1.
       -2    1    3    3    0  502 -0.15447131320E+03  0.68734601054E+03  0.93199001415E+02  0.71062787637E+03  0.25500000920E-02 0.  1.
</event>
<event>
 5   0  0.1835421E-04  0.1815381E+04  0.7818609E-02  0.8698163E-01
        1   -1    0    0  501    0  0.00000000000E+00  0.00000000000E+00  0.96791633874E+03  0.96791633875E+03  0.50400001928E-02 0. -1.
       -1   -1    0    0    0  501  0.00000000000E+00  0.00000000000E+00 -0.85121183625E+03  0.85121183627E+03  0.50400001928E-02 0.  1.
    10030    2    1    2    0    0  0.00000000000E+00  0.00000000000E+00  0.11670450248E+03  0.18191281750E+04  0.18153807800E+04 0.  0.
        2    1    3    3  502    0 -0.69188485270E+03 -0.21558873154E+03  0.60603210750E+03  0.94469998724E+03  0.25500000920E-02 0. -1.
       -2    1    3    3    0  502  0.69188485270E+03  0.21558873154E+03 -0.48932760501E+03  0.87442818778E+03  0.25500000920E-02 0.  1.
</event>
<event>
 5   0  0.3575091E-04  0.1783827E+04  0.7818609E-02  0.8714948E-01
        2   -1    0    0  501    0  0.00000000000E+00  0.00000000000E+00  0.72431563184E+03  0.72431563184E+03  0.25500000920E-02 0.  1.
       -2   -1    0    0    0  501  0.00000000000E+00  0.00000000000E+00 -0.10982916160E+04  0.10982916160E+04  0.25500000920E-02 0. -1.
    10030    2    1    2    0    0  0.00000000000E+00  0.00000000000E+00 -0.37397598418E+03  0.18226072479E+04  0.17838271058E+04 0.  0.
        5    1    3    3  502    0  0.73797743514E+03  0.49163076419E+03 -0.89113032115E+02  0.89122091850E+03  0.46999998093E+01 0.  1.
       -5    1    3    3    0  502 -0.73797743514E+03 -0.49163076419E+03 -0.28486295207E+03  0.93138632937E+03  0.46999998093E+01 0. -1.
</event>
<event>
 5   0  0.1837313E-04  0.1806786E+04  0.7818609E-02  0.8702699E-01
        1   -1    0    0  501    0  0.00000000000E+00  0.00000000000E+00  0.72009808397E+03  0.72009808399E+03  0.50400001928E-02 0. -1.
       -1   -1    0    0    0  501  0.00000000000E+00  0.00000000000E+00 -0.11333444827E+04  0.11333444827E+04  0.50400001928E-02 0.  1.
    10030    2    1    2    0    0  0.00000000000E+00  0.00000000000E+00 -0.41324639876E+03  0.18534425667E+04  0.18067863078E+04 0.  0.
        1    1    3    3  502    0  0.43946916752E+03 -0.45619731127E+03  0.45411343435E+03  0.77940242962E+03  0.50400001928E-02 0. -1.
       -1    1    3    3    0  502 -0.43946916752E+03  0.45619731127E+03 -0.86735983311E+03  0.10740401371E+04  0.50400001928E-02 0.  1.
</event>
<event>
 5   0  0.3531266E-04  0.1286995E+04  0.7818609E-02  0.9039942E-01
        2   -1    0    0  501    0  0.00000000000E+00  0.00000000000E+00  0.17024805728E+04  0.17024805728E+04  0.25500000920E-02 0.  1.
       -2   -1    0    0    0  501  0.00000000000E+00  0.00000000000E+00 -0.24322704278E+03  0.24322704279E+03  0.25500000920E-02 0. -1.
    10030    2    1    2    0    0  0.00000000000E+00  0.00000000000E+00  0.14592535300E+04  0.19457076156E+04  0.12869954392E+04 0.  0.
        3    1    3    3  502    0 -0.40194911867E+03  0.17463152861E+02  0.14888883148E+04  0.15422893632E+04  0.10100000352E+00 0.  1.
       -3    1    3    3    0  502  0.40194911867E+03 -0.17463152861E+02 -0.29634784757E+02  0.40341825241E+03  0.10100000352E+00 0. -1.
</event>
<event>
 5   0  0.1330125E-04  0.1813736E+04  0.7818609E-02  0.8699029E-01
       -4   -1    0    0    0  501  0.00000000000E+00  0.00000000000E+00  0.87391686740E+03  0.87391779020E+03  0.12699999809E+01 0.  1.
        4   -1    0    0  501    0  0.00000000000E+00  0.00000000000E+00 -0.94105923034E+03  0.94106008730E+03  0.12699999809E+01 0. -1.
    10030    2    1    2    0    0  0.00000000000E+00  0.00000000000E+00 -0.67142362945E+02  0.18149778775E+04  0.18137355372E+04 0.  0.
        5    1    3    3  502    0 -0.48517308700E+02  0.15743643443E+03 -0.92594817627E+03  0.94050107670E+03  0.46999998093E+01 0. -1.
       -5    1    3    3    0  502  0.48517308700E+02 -0.15743643443E+03  0.85880581333E+03  0.87447680080E+03  0.46999998093E+01 0.  1.
</event>
<event>
 5   0  0.1825253E-04  0.1779317E+04  0.7818609E-02  0.8717376E-01
       -1   -1    0    0    0  501  0.00000000000E+00  0.00000000000E+00  0.55312954320E+03  0.55312954322E+03  0.50400001928E-02 0. -1.
        1   -1    0    0  501    0  0.00000000000E+00  0.00000000000E+00 -0.14309353065E+04  0.14309353065E+04  0.50400001928E-02 0.  1.
    10030    2    1    2    0    0  0.00000000000E+00  0.00000000000E+00 -0.87780576331E+03  0.19840648497E+04  0.17793173887E+04 0.  0.
        4    1    3    3  502    0  0.54179090785E+03  0.48286938739E+03 -0.10126940271E+04  0.12458936706E+04  0.12699999809E+01 0.  1.
       -4    1    3    3    0  502 -0.54179090785E+03 -0.48286938739E+03  0.13488826376E+03  0.73817117913E+03  0.12699999809E+01 0. -1.
</event>
<event>
 5   0  0.1883959E-04  0.1745074E+04  0.7818609E-02  0.8736067E-01
        1   -1    0    0  501    0  0.00000000000E+00  0.00000000000E+00  0.14147896319E+04  0.14147896319E+04  0.50400001928E-02 0.  1.
       -1   -1    0    0    0  501  0.00000000000E+00  0.00000000000E+00 -0.53811580199E+03  0.53811580202E+03  0.50400001928E-02 0. -1.
    10030    2    1    2    0    0  0.00000000000E+00  0.00000000000E+00  0.87667382991E+03  0.19529054339E+04  0.17450738179E+04 0.  0.
        5    1    3    3  502    0  0.20787285703E+03 -0.54299556584E+03 -0.28971514618E+03  0.64962471100E+03  0.46999998093E+01 0. -1.
       -5    1    3    3    0  502 -0.20787285703E+03  0.54299556584E+03  0.11663889761E+04  0.13032807229E+04  0.46999998093E+01 0.  1.
</event>
<event>
 5   0  0.3582186E-04  0.2072302E+04  0.7818609E-02  0.8573544E-01
        2   -1    0    0  501    0  0.00000000000E+00  0.00000000000E+00  0.77393803608E+03  0.77393803608E+03  0.25500000920E-02 0. -1.
       -2   -1    0    0    0  501  0.00000000000E+00  0.00000000000E+00 -0.13872022978E+04  0.13872022978E+04  0.25500000920E-02 0.  1.
    10030    2    1    2    0    0  0.00000000000E+00  0.00000000000E+00 -0.61326426174E+03  0.21611403339E+04  0.20723017367E+04 0.  0.
        4    1    3    3  502    0  0.76606755016E+03  0.60124696026E+03  0.62445878658E+02  0.97583733240E+03  0.12699999809E+01 0. -1.
       -4    1    3    3    0  502 -0.76606755016E+03 -0.60124696026E+03 -0.67571014039E+03  0.11853030015E+04  0.12699999809E+01 0.  1.
</event>
<event>
 5   0  0.1883959E-04  0.2021836E+04  0.7818609E-02  0.8596479E-01
       -1   -1    0    0    0  501  0.00000000000E+00  0.00000000000E+00  0.10492337471E+04  0.10492337471E+04  0.50400001928E-02 0.  1.
        1   -1    0    0  501    0  0.00000000000E+00  0.00000000000E+00 -0.97400148374E+03  0.97400148376E+03  0.50400001928E-02 0. -1.
    10030    2    1    2    0    0  0.00000000000E+00  0.00000000000E+00  0.75232263358E+02  0.20232352309E+04  0.20218360235E+04 0.  0.
        5    1    3    3  502    0  0.27514718766E+03 -0.55032788119E+03  0.84027245516E+03  0.10414637010E+04  0.46999998093E+01 0.  1.
       -5    1    3    3    0  502 -0.27514718766E+03  0.55032788119E+03 -0.76504019180E+03  0.98177152982E+03  0.46999998093E+01 0. -1.
</event>
<event>
 5   0  0.3628581E-04  0.1788713E+04  0.7818609E-02  0.8712325E-01
        2   -1    0    0  501    0  0.00000000000E+00  0.00000000000E+00  0.10253240221E+04  0.10253240221E+04  0.25500000920E-02 0. -1.
       -2   -1    0    0    0  501  0.00000000000E+00  0.00000000000E+00 -0.78011751361E+03  0.78011751361E+03  0.25500000920E-02 0.  1.
    10030    2    1    2    0    0  0.00000000000E+00  0.00000000000E+00  0.24520650845E+03  0.18054415357E+04  0.17887126396E+04 0.  0.
        2    1    3    3  502    0 -0.39595531070E+03  0.80192377429E+03  0.11927409119E+03  0.90226861670E+03  0.25500000920E-02 0. -1.
       -2    1    3    3    0  502  0.39595531070E+03 -0.80192377429E+03  0.12593241726E+03  0.90317291898E+03  0.25500000920E-02 0.  1.
</event>
<event>
 5   0  0.1835421E-04  0.1807444E+04  0.7818609E-02  0.8702351E-01
       -1   -1    0    0    0  501  0.00000000000E+00  0.00000000000E+00  0.98109170497E+03  0.98109170498E+03  0.50400001928E-02 0. -1.
        1   -1    0    0  501    0  0.00000000000E+00  0.00000000000E+00 -0.83245363671E+03  0.83245363672E+03  0.50400001928E-02 0.  1.
    10030    2    1    2    0    0  0.00000000000E+00  0.00000000000E+00  0.14863806826E+03  0.18135453417E+04  0.18074438943E+04 0.  0.
        2    1    3    3  502    0 -0.80844072046E+03  0.26866181355E+03  0.37692921915E+03  0.93157458361E+03  0.25500000920E-02 0.  1.
       -2    1    3    3    0  502  0.80844072046E+03 -0.26866181355E+03 -0.22829115088E+03  0.88197075810E+03  0.25500000920E-02 0. -1.
</event>
<event>
 5   0  0.1825253E-04  0.1947583E+04  0.7818609E-02  0.8631527E-01
       -1   -1    0    0    0  501  0.00000000000E+00  0.00000000000E+00  0.72259491616E+03  0.72259491617E+03  0.50400001928E-02 0.  1.
        1   -1    0    0  501    0  0.00000000000E+00  0.00000000000E+00 -0.13123123325E+04  0.13123123325E+04  0.50400001928E-02 0. -1.
    10030    2    1    2    0    0  0.00000000000E+00  0.00000000000E+00 -0.58971741631E+03  0.20349072486E+04  0.19475833434E+04 0.  0.
        4    1    3    3  502    0  0.75870980803E+03 -0.16697457736E+03 -0.90833692348E+03  0.11952400017E+04  0.12699999809E+01 0. -1.
       -4    1    3    3    0  502 -0.75870980803E+03  0.16697457736E+03  0.31861950717E+03  0.83966724691E+03  0.12699999809E+01 0.  1.
</event>
<event>
 5   0  0.3628581E-04  0.1770355E+04  0.7818609E-02  0.8722225E-01
        2   -1    0    0  501    0  0.00000000000E+00  0.00000000000E+00  0.96235078961E+03  0.96235078961E+03  0.25500000920E-02 0. -1.
       -2   -1    0    0    0  501  0.00000000000E+00  0.00000000000E+00 -0.81419281664E+03  0.81419281664E+03  0.25500000920E-02 0.  1.
    10030    2    1    2    0    0  0.00000000000E+00  0.00000000000E+00  0.14815797297E+03  0.17765436063E+04  0.17703548797E+04 0.  0.
        2    1    3    3  502    0 -0.79931294968E+03  0.27989202177E+03  0.33246377795E+03  0.90982025644E+03  0.25500000920E-02 0.  1.
       -2    1    3    3    0  502  0.79931294968E+03 -0.27989202177E+03 -0.18430580498E+03  0.86672334982E+03  0.25500000920E-02 0. -1.
</event>
<event>
 5   0  0.3582186E-04  0.1802079E+04  0.7818609E-02  0.8705195E-01
        2   -1    0    0  501    0  0.00000000000E+00  0.00000000000E+00  0.70725579931E+03  0.70725579931E+03  0.25500000920E-02 0.  1.
       -2   -1    0    0    0  501  0.00000000000E+00  0.00000000000E+00 -0.11479184481E+04  0.11479184481E+04  0.25500000920E-02 0. -1.
    10030    2    1    2    0    0  0.00000000000E+00  0.00000000000E+00 -0.44066264882E+03  0.18551742474E+04  0.18020787769E+04 0.  0.
        4    1    3    3  502    0 -0.19228344144E+03 -0.35270854362E+02  0.68515971616E+03  0.71250431898E+03  0.12699999809E+01 0.  1.
       -4    1    3    3    0  502  0.19228344144E+03  0.35270854362E+02 -0.11258223650E+04  0.11426699285E+04  0.12699999809E+01 0. -1.
</event>
<event>
 5   0  0.1835421E-04  0.1833251E+04  0.7818609E-02  0.8688814E-01
        1   -1    0    0  501    0  0.00000000000E+00  0.00000000000E+00  0.16528184032E+04  0.16528184032E+04  0.50400001928E-02 0. -1.
       -1   -1    0    0    0  501  0.00000000000E+00  0.00000000000E+00 -0.50834493859E+03  0.50834493861E+03  0.50400001928E-02 0.  1.
    10030    2    1    2    0    0  0.00000000000E+00  0.00000000000E+00  0.11444734646E+04  0.21611633418E+04  0.18332505226E+04 0.  0.
        2    1    3    3  502    0 -0.22774507766E+02  0.21562638442E+03  0.16221513121E+04  0.16365782277E+04  0.25500000920E-02 0. -1.
       -2    1    3    3    0  502  0.22774507766E+02 -0.21562638442E+03 -0.47767784757E+03  0.52458511409E+03  0.25500000920E-02 0.  1.
</event>
<event>
 5   0  0.1837313E-04  0.1783410E+04  0.7818609E-02  0.8715172E-01
        1   -1    0    0  501    0  0.00000000000E+00  0.00000000000E+00  0.11649187708E+04  0.11649187708E+04  0.50400001928E-02 0.  1.
       -1   -1    0    0    0  501  0.00000000000E+00  0.00000000000E+00 -0.68256945675E+03  0.68256945677E+03  0.50400001928E-02 0. -1.
    10030    2    1    2    0    0  0.00000000000E+00  0.00000000000E+00  0.48234931401E+03  0.18474882276E+04  0.17834101856E+04 0.  0.
        1    1    3    3  502    0 -0.10281968962E+03  0.56248815517E+03  0.94999095165E+03  0.11088045912E+04  0.50400001928E-02 0.  1.
       -1    1    3    3    0  502  0.10281968962E+03 -0.56248815517E+03 -0.46764163764E+03  0.73868363632E+03  0.50400001928E-02 0. -1.
</event>
<event>
 5   0  0.1825253E-04  0.1830906E+04  0.7818609E-02  0.8690035E-01
        1   -1    0    0  501    0  0.00000000000E+00  0.00000000000E+00  0.17009281423E+04  0.17009281423E+04  0.50400001928E-02 0.  1.
       -1   -1    0    0    0  501  0.00000000000E+00  0.00000000000E+00 -0.49270379992E+03  0.49270379995E+03  0.50400001928E-02 0. -1.
    10030    2    1    2    0    0  0.00000000000E+00  0.00000000000E+00  0.12082243424E+04  0.21936319423E+04  0.18309055237E+04 0.  0.
        4    1    3    3  502    0 -0.81400623051E+02  0.11682139844E+02 -0.48826849074E+03  0.49514671137E+03  0.12699999809E+01 0. -1.
       -4    1    3    3    0  502  0.81400623051E+02 -0.11682139844E+02  0.16964928331E+04  0.16984852309E+04  0.12699999809E+01 0.  1.
</event>
<event>
 5   0  0.3582186E-04  0.1331697E+04  0.7818609E-02  0.9004800E-01
       -2   -1    0    0    0  501  0.00000000000E+00  0.00000000000E+00  0.10129457973E+04  0.10129457974E+04  0.25500000920E-02 0. -1.
        2   -1    0    0  501    0  0.00000000000E+00  0.00000000000E+00 -0.43768823886E+03  0.43768823887E+03  0.25500000920E-02 0.  1.
    10030    2    1    2    0    0  0.00000000000E+00  0.00000000000E+00  0.57525755848E+03  0.14506340362E+04  0.13316973562E+04 0.  0.
        4    1    3    3  502    0  0.36620992264E+03 -0.46247706633E+03  0.62400952673E+03  0.85871080503E+03  0.12699999809E+01 0. -1.
       -4    1    3    3    0  502 -0.36620992264E+03  0.46247706633E+03 -0.48751968248E+02  0.59192323120E+03  0.12699999809E+01 0.  1.
</event>
<event>
 5   0  0.1818778E-04  0.1758083E+04  0.7818609E-02  0.8728913E-01
       -1   -1    0    0    0  501  0.00000000000E+00  0.00000000000E+00  0.34156948428E+03  0.34156948432E+03  0.50400001928E-02 0. -1.
        1   -1    0    0  501    0  0.00000000000E+00  0.00000000000E+00 -0.22622463312E+04  0.22622463312E+04  0.50400001928E-02 0.  1.
    10030    2    1    2    0    0  0.00000000000E+00  0.00000000000E+00 -0.19206768469E+04  0.26038158155E+04  0.17580834027E+04 0.  0.
        3    1    3    3  502    0 -0.20511158814E+03 -0.81539615715E+03 -0.13401720787E+04  0.15820881352E+04  0.10100000352E+00 0.  1.
       -3    1    3    3    0  502  0.20511158814E+03  0.81539615715E+03 -0.58050476821E+03  0.10217276804E+04  0.10100000352E+00 0. -1.
</event>
<event>
 5   0  0.1837313E-04  0.1786827E+04  0.7818609E-02  0.8713336E-01
       -1   -1    0    0    0  501  0.00000000000E+00  0.00000000000E+00  0.59627897877E+03  0.59627897880E+03  0.50400001928E-02 0.  1.
        1   -1    0    0  501    0  0.00000000000E+00  0.00000000000E+00 -0.13386149227E+04  0.13386149227E+04  0.50400001928E-02 0. -1.
    10030    2    1    2    0    0  0.00000000000E+00  0.00000000000E+00 -0.74233594393E+03  0.19348939015E+04  0.17868272878E+04 0.  0.
        1    1    3    3  502    0  0.65105266619E+03  0.57008185691E+03 -0.61166422178E+03  0.10597150645E+04  0.50400001928E-02 0. -1.
       -1    1    3    3    0  502 -0.65105266619E+03 -0.57008185691E+03 -0.13067172215E+03  0.87517883700E+03  0.50400001928E-02 0.  1.
</event>
<event>
 5   0  0.1837313E-04  0.1816519E+04  0.7818609E-02  0.8697564E-01
       -1   -1    0    0    0  501  0.00000000000E+00  0.00000000000E+00  0.53639967902E+03  0.53639967905E+03  0.50400001928E-02 0.  1.
        1   -1    0    0  501    0  0.00000000000E+00  0.00000000000E+00 -0.15379124762E+04  0.15379124762E+04  0.50400001928E-02 0. -1.
    10030    2    1    2    0    0  0.00000000000E+00  0.00000000000E+00 -0.10015127972E+04  0.20743121552E+04  0.18165194836E+04 0.  0.
        1    1    3    3  502    0  0.18937830438E+03  0.19895017462E+03 -0.14893484220E+04  0.15144649340E+04  0.50400001928E-02 0. -1.
       -1    1    3    3    0  502 -0.18937830438E+03 -0.19895017462E+03  0.48783562489E+03  0.55984722120E+03  0.50400001928E-02 0.  1.
</event>
<event>
 5   0  0.3582186E-04  0.1797305E+04  0.7818609E-02  0.8707734E-01
       -2   -1    0    0    0  501  0.00000000000E+00  0.00000000000E+00  0.10895203806E+04  0.10895203806E+04  0.25500000920E-02 0.  1.
        2   -1    0    0  501    0  0.00000000000E+00  0.00000000000E+00 -0.74122209433E+03  0.74122209433E+03  0.25500000920E-02 0. -1.
    10030    2    1    2    0    0  0.00000000000E+00  0.00000000000E+00  0.34829828623E+03  0.18307424749E+04  0.17973052921E+04 0.  0.
        4    1    3    3  502    0  0.38204646387E+03 -0.30496303842E+03  0.94224213167E+03  0.10615007315E+04  0.12699999809E+01 0.  1.
       -4    1    3    3    0  502 -0.38204646387E+03  0.30496303842E+03 -0.59394384544E+03  0.76924174340E+03  0.12699999809E+01 0. -1.
</event>
<event>
 5   0  0.3531266E-04  0.1800763E+04  0.7818609E-02  0.8705894E-01
        2   -1    0    0  501    0  0.00000000000E+00  0.00000000000E+00  0.16642704507E+04  0.16642704507E+04  0.25500000920E-02 0.  1.
       -2   -1    0    0    0  501  0.00000000000E+00  0.00000000000E+00 -0.48711229225E+03  0.48711229226E+03  0.25500000920E-02 0. -1.
    10030    2    1    2    0    0  0.00000000000E+00  0.00000000000E+00  0.11771581584E+04  0.21513827429E+04  0.18007627208E+04 0.  0.
        3    1    3    3  502    0 -0.10256555760E+03 -0.87590091780E+03  0.37166674145E+03  0.95700485281E+03  0.10100000352E+00 0. -1.
       -3    1    3    3    0  502  0.10256555760E+03  0.87590091780E+03  0.80549141698E+03  0.11943778901E+04  0.10100000352E+00 0.  1.
</event>
<event>
 5   0  0.3575091E-04  0.1723031E+04  0.7818609E-02  0.8748337E-01
       -2   -1    0    0    0  501  0.00000000000E+00  0.00000000000E+00  0.45671265322E+03  0.45671265323E+03  0.25500000920E-02 0.  1.
        2   -1    0    0  501    0  0.00000000000E+00  0.00000000000E+00 -0.16251120182E+04  0.16251120182E+04  0.25500000920E-02 0. -1.
    10030    2    1    2    0    0  0.00000000000E+00  0.00000000000E+00 -0.11683993650E+04  0.20818246715E+04  0.17230313075E+04 0.  0.
        5    1    3    3  502    0 -0.53873994924E+03  0.67198985173E+03 -0.60762938613E+03  0.10540619785E+04  0.46999998093E+01 0.  1.
       -5    1    3    3    0  502  0.53873994924E+03 -0.67198985173E+03 -0.56076997887E+03  0.10277626929E+04  0.46999998093E+01 0. -1.
</event>
<event>
 5   0  0.3531266E-04  0.1794247E+04  0.7818609E-02  0.8709365E-01
        2   -1    0    0  501    0  0.00000000000E+00  0.00000000000E+00  0.12267288760E+04  0.12267288760E+04  0.25500000920E-02 0. -1.
       -2   -1    0    0    0  501  0.00000000000E+00  0.00000000000E+00 -0.65607848654E+03  0.65607848655E+03  0.25500000920E-02 0.  1.
    10030    2    1    2    0    0  0.00000000000E+00  0.00000000000E+00  0.57065038941E+03  0.18828073625E+04  0.17942468329E+04 0.  0.
        3    1    3    3  502    0 -0.62031120001E+01 -0.80704489125E+03 -0.12576405895E+03  0.81680875596E+03  0.10100000352E+00 0.  1.
       -3    1    3    3    0  502  0.62031120001E+01  0.80704489125E+03  0.69641444836E+03  0.10659986066E+04  0.10100000352E+00 0. -1.
</event>
<event>
 5   0  0.1883959E-04  0.1793393E+04  0.7818609E-02  0.8709821E-01
        1   -1    0    0  501    0  0.00000000000E+00  0.00000000000E+00  0.10297510510E+04  0.10297510510E+04  0.50400001928E-02 0. -1.
       -1   -1    0    0    0  501  0.00000000000E+00  0.00000000000E+00 -0.78083440661E+03  0.78083440663E+03  0.50400001928E-02 0.  1.
    10030    2    1    2    0    0  0.00000000000E+00  0.00000000000E+00  0.24891664439E+03  0.18105854576E+04  0.17933934882E+04 0.  0.
        5    1    3    3  502    0 -0.38626515310E+03 -0.43254073994E+03 -0.56602097685E+03  0.81036664322E+03  0.46999998093E+01 0.  1.
       -5    1    3    3    0  502  0.38626515310E+03  0.43254073994E+03  0.81493762124E+03  0.10002188144E+04  0.46999998093E+01 0. -1.
</event>
<event>
 5   0  0.3575091E-04  0.1768523E+04  0.7818609E-02  0.8723220E-01
        2   -1    0    0  501    0  0.00000000000E+00  0.00000000000E+00  0.61009100337E+03  0.61009100338E+03  0.25500000920E-02 0.  1.
       -2   -1    0    0    0  501  0.00000000000E+00  0.00000000000E+00 -0.12816417456E+04  0.12816417456E+04  0.25500000920E-02 0. -1.
    10030    2    1    2    0    0  0.00000000000E+00  0.00000000000E+00 -0.67155074226E+03  0.18917327490E+04  0.17685226587E+04 0.  0.
        5    1    3    3  502    0  0.20131207223E+03 -0.84060936291E+03 -0.13638804754E+03  0.87508539066E+03  0.46999998093E+01 0.  1.
       -5    1    3    3    0  502 -0.20131207223E+03  0.84060936291E+03 -0.53516269472E+03  0.10166473584E+04  0.46999998093E+01 0. -1.
</event>
<event>
 5   0  0.3628581E-04  0.1752207E+04  0.7818609E-02  0.8732136E-01
        2   -1    0    0  501    0  0.00000000000E+00  0.00000000000E+00  0.15935009071E+04  0.15935009071E+04  0.25500000920E-02 0.  1.
       -2   -1    0    0    0  501  0.00000000000E+00  0.00000000000E+00 -0.48168012458E+03  0.48168012459E+03  0.25500000920E-02 0. -1.
    10030    2    1    2    0    0  0.00000000000E+00  0.00000000000E+00  0.11118207825E+04  0.20751810317E+04  0.17522074255E+04 0.  0.
        2    1    3    3  502    0  0.72814565398E+03  0.19033021262E+03  0.24762560756E+02  0.75301717621E+03  0.25500000920E-02 0. -1.
       -2    1    3    3    0  502 -0.72814565398E+03 -0.19033021262E+03  0.10870582218E+04  0.13221638555E+04  0.25500000920E-02 0.  1.
</event>
<event>
 5   0  0.3575091E-04  0.1786935E+04  0.7818609E-02  0.8713278E-01
       -2   -1    0    0    0  501  0.00000000000E+00  0.00000000000E+00  0.73063846402E+03  0.73063846402E+03  0.25500000920E-02 0.  1.
        2   -1    0    0  501    0  0.00000000000E+00  0.00000000000E+00 -0.10925846120E+04  0.10925846120E+04  0.25500000920E-02 0. -1.
    10030    2    1    2    0    0  0.00000000000E+00  0.00000000000E+00 -0.36194614795E+03  0.18232230760E+04  0.17869351893E+04 0.  0.
        5    1    3    3  502    0 -0.25748951477E+03 -0.78803110309E+03  0.15891086022E+03  0.84413779748E+03  0.46999998093E+01 0.  1.
       -5    1    3    3    0  502  0.25748951477E+03  0.78803110309E+03 -0.52085700817E+03  0.97908527852E+03  0.46999998093E+01 0. -1.
</event>
<event>
 5   0  0.1837313E-04  0.1741122E+04  0.7818609E-02  0.8738253E-01
        1   -1    0    0  501    0  0.00000000000E+00  0.00000000000E+00  0.68296312121E+03  0.68296312123E+03  0.50400001928E-02 0. -1.
       -1   -1    0    0    0  501  0.00000000000E+00  0.00000000000E+00 -0.11096881395E+04  0.11096881395E+04  0.50400001928E-02 0.  1.
    10030    2    1    2    0    0  0.00000000000E+00  0.00000000000E+00 -0.42672501828E+03  0.17926512607E+04  0.17411215642E+04 0.  0.
        1    1    3    3  502    0 -0.62159614280E+03 -0.40823117550E+03  0.25262665205E+03  0.78540096940E+03  0.50400001928E-02 0. -1.
       -1    1    3    3    0  502  0.62159614280E+03  0.40823117550E+03 -0.67935167033E+03  0.10072502913E+04  0.50400001928E-02 0.  1.
</event>
<event>
 5   0  0.3628581E-04  0.1753968E+04  0.7818609E-02  0.8731169E-01
       -2   -1    0    0    0  501  0.00000000000E+00  0.00000000000E+00  0.74731316579E+03  0.74731316579E+03  0.25500000920E-02 0. -1.
        2   -1    0    0  501    0  0.00000000000E+00  0.00000000000E+00 -0.10291542204E+04  0.10291542204E+04  0.25500000920E-02 0.  1.
    10030    2    1    2    0    0  0.00000000000E+00  0.00000000000E+00 -0.28184105464E+03  0.17764673862E+04  0.17539675009E+04 0.  0.
        2    1    3    3  502    0 -0.65652216749E+03 -0.18079186949E+03 -0.70063372850E+03  0.97703361150E+03  0.25500000920E-02 0.  1.
       -2    1    3    3    0  502  0.65652216749E+03  0.18079186949E+03  0.41879267386E+03  0.79943377472E+03  0.25500000920E-02 0. -1.
</event>
<event>
 5   0  0.1883959E-04  0.1759930E+04  0.7818609E-02  0.8727904E-01
       -1   -1    0    0    0  501  0.00000000000E+00  0.00000000000E+00  0.78438594507E+03  0.78438594509E+03  0.50400001928E-02 0. -1.
        1   -1    0    0  501    0  0.00000000000E+00  0.00000000000E+00 -0.98719011221E+03  0.98719011222E+03  0.50400001928E-02 0.  1.
    10030    2    1    2    0    0  0.00000000000E+00  0.00000000000E+00 -0.20280416714E+03  0.17715760573E+04  0.17599295999E+04 0.  0.
        5    1    3    3  502    0 -0.45250177998E+03 -0.24805871642E+03 -0.81887751918E+03  0.96792224331E+03  0.46999998093E+01 0.  1.
       -5    1    3    3    0  502  0.45250177998E+03  0.24805871642E+03  0.61607335203E+03  0.80365381400E+03  0.46999998093E+01 0. -1.
</event>
<event>
 5   0  0.1818778E-04  0.1815533E+04  0.7818609E-02  0.8698082E-01
        1   -1    0    0  501    0  0.00000000000E+00  0.00000000000E+00  0.18749463168E+04  0.18749463168E+04  0.50400001928E-02 0.  1.
       -1   -1    0    0    0  501  0.00000000000E+00  0.00000000000E+00 -0.43950081578E+03  0.43950081580E+03  0.50400001928E-02 0. -1.
    10030    2    1    2    0    0  0.00000000000E+00  0.00000000000E+00  0.14354455010E+04  0.23144471326E+04  0.18155334597E+04 0.  0.
        3    1    3    3  502    0  0.52086406312E+03 -0.73017679159E+03  0.89611730007E+03  0.12678658229E+04  0.10100000352E+00 0.  1.
       -3    1    3    3    0  502 -0.52086406312E+03  0.73017679159E+03  0.53932820091E+03  0.10465813097E+04  0.10100000352E+00 0. -1.
</event>
<event>
 5   0  0.3582186E-04  0.1787312E+04  0.7818609E-02  0.8713076E-01
       -2   -1    0    0    0  501  0.00000000000E+00  0.00000000000E+00  0.11415342859E+04  0.11415342859E+04  0.25500000920E-02 0. -1.
        2   -1    0    0  501    0  0.00000000000E+00  0.00000000000E+00 -0.69960312874E+03  0.69960312875E+03  0.25500000920E-02 0.  1.
    10030    2    1    2    0    0  0.00000000000E+00  0.00000000000E+00  0.44193115714E+03  0.18411374146E+04  0.17873119011E+04 0.  0.
        4    1    3    3  502    0  0.26296312090E+03 -0.72831456880E+03 -0.23859476266E+03  0.81025970389E+03  0.12699999809E+01 0.  1.
       -4    1    3    3    0  502 -0.26296312090E+03  0.72831456880E+03  0.68052591980E+03  0.10308777107E+04  0.12699999809E+01 0. -1.
</event>
<event>
 5   0  0.1818778E-04  0.1805808E+04  0.7818609E-02  0.8703217E-01
        1   -1    0    0  501    0  0.00000000000E+00  0.00000000000E+00  0.18010626025E+04  0.18010626025E+04  0.50400001928E-02 0. -1.
       -1   -1    0    0    0  501  0.00000000000E+00  0.00000000000E+00 -0.45264144468E+03  0.45264144471E+03  0.50400001928E-02 0.  1.
    10030    2    1    2    0    0  0.00000000000E+00  0.00000000000E+00  0.13484211578E+04  0.22537040472E+04  0.18058079393E+04 0.  0.
        3    1    3    3  502    0  0.36879290205E+03  0.81345073485E+03  0.50899247631E+03  0.10279998316E+04  0.10100000352E+00 0.  1.
       -3    1    3    3    0  502 -0.36879290205E+03 -0.81345073485E+03  0.83942868149E+03  0.12257042156E+04  0.10100000352E+00 0. -1.
</event>
<event>
 5   0  0.1825253E-04  0.1919342E+04  0.7818609E-02  0.8645288E-01
       -1   -1    0    0    0  501  0.00000000000E+00  0.00000000000E+00  0.59651534567E+03  0.59651534569E+03  0.50400001928E-02 0.  1.
        1   -1    0    0  501    0  0.00000000000E+00  0.00000000000E+00 -0.15439148183E+04  0.15439148183E+04  0.50400001928E-02 0. -1.
    10030    2    1    2    0    0  0.00000000000E+00  0.00000000000E+00 -0.94739947264E+03  0.21404301640E+04  0.19193424724E+04 0.  0.
        4    1    3    3  502    0  0.21477424802E+03  0.90188540994E+03 -0.75012724216E+03  0.11925677182E+04  0.12699999809E+01 0.  1.
       -4    1    3    3    0  502 -0.21477424802E+03 -0.90188540994E+03 -0.19727223048E+03  0.94786244577E+03  0.12699999809E+01 0. -1.
</event>
<event>
 5   0  0.1818778E-04  0.1802764E+04  0.7818609E-02  0.8704831E-01
        1   -1    0    0  501    0  0.00000000000E+00  0.00000000000E+00  0.13123949844E+04  0.13123949844E+04  0.50400001928E-02 0.  1.
       -1   -1    0    0    0  501  0.00000000000E+00  0.00000000000E+00 -0.61908944607E+03  0.61908944609E+03  0.50400001928E-02 0. -1.
    10030    2    1    2    0    0  0.00000000000E+00  0.00000000000E+00  0.69330553829E+03  0.19314844305E+04  0.18027644149E+04 0.  0.
        3    1    3    3  502    0  0.41668513185E+02  0.43153612165E+03 -0.50004604489E+03  0.66182002576E+03  0.10100000352E+00 0. -1.
       -3    1    3    3    0  502 -0.41668513185E+02 -0.43153612165E+03  0.11933515832E+04  0.12696644047E+04  0.10100000352E+00 0.  1.
</event>
<event>
 5   0  0.3531266E-04  0.1864532E+04  0.7818609E-02  0.8672715E-01
        2   -1    0    0  501    0  0.00000000000E+00  0.00000000000E+00  0.86834721434E+03  0.86834721435E+03  0.25500000920E-02 0.  1.
       -2   -1    0    0    0  501  0.00000000000E+00  0.00000000000E+00 -0.10008903218E+04  0.10008903218E+04  0.25500000920E-02 0. -1.
    10030    2    1    2    0    0  0.00000000000E+00  0.00000000000E+00 -0.13254310746E+03  0.18692375361E+04  0.18645324591E+04 0.  0.
        3    1    3    3  502    0  0.50366430067E+03 -0.71741412833E+03 -0.38449902074E+03  0.95718350719E+03  0.10100000352E+00 0. -1.
       -3    1    3    3    0  502 -0.50366430067E+03  0.71741412833E+03  0.25195591328E+03  0.91205402896E+03  0.10100000352E+00 0.  1.
</event>
<event>
 5   0  0.1825253E-04  0.1779413E+04  0.7818609E-02  0.8717325E-01
       -1   -1    0    0    0  501  0.00000000000E+00  0.00000000000E+00  0.69480018852E+03  0.69480018854E+03  0.50400001928E-02 0.  1.
        1   -1    0    0  501    0  0.00000000000E+00  0.00000000000E+00 -0.11392880677E+04  0.11392880678E+04  0.50400001928E-02 0. -1.
    10030    2    1    2    0    0  0.00000000000E+00  0.00000000000E+00 -0.44448787923E+03  0.18340882563E+04  0.17794128967E+04 0.  0.
        4    1    3    3  502    0 -0.67606099153E+02  0.11260331600E+03  0.68475207330E+03  0.69723533058E+03  0.12699999809E+01 0.  1.
       -4    1    3    3    0  502  0.67606099153E+02 -0.11260331600E+03 -0.11292399525E+04  0.11368529257E+04  0.12699999809E+01 0. -1.
</event>
<event>
 5   0  0.1883959E-04  0.1844511E+04  0.7818609E-02  0.8682981E-01
        1   -1    0    0  501    0  0.00000000000E+00  0.00000000000E+00  0.13551572665E+04  0.13551572665E+04  0.50400001928E-02 0. -1.
       -1   -1    0    0    0  501  0.00000000000E+00  0.00000000000E+00 -0.62764293565E+03  0.62764293567E+03  0.50400001928E-02 0.  1.
    10030    2    1    2    0    0  0.00000000000E+00  0.00000000000E+00  0.72751433086E+03  0.19828002022E+04  0.18445106506E+04 0.  0.
        5    1    3    3  502    0 -0.52583316391E+03  0.26573001242E+03  0.11264733298E+04  0.12712502541E+04  0.46999998093E+01 0. -1.
       -5    1    3    3    0  502  0.52583316391E+03 -0.26573001242E+03 -0.39895899896E+03  0.71154994808E+03  0.46999998093E+01 0.  1.
</event>
<event>
 5   0  0.3575091E-04  0.1784456E+04  0.7818609E-02  0.8714610E-01
       -2   -1    0    0    0  501  0.00000000000E+00  0.00000000000E+00  0.38277357160E+03  0.38277357161E+03  0.25500000920E-02 0.  1.
        2   -1    0    0  501    0  0.00000000000E+00  0.00000000000E+00 -0.20797423298E+04  0.20797423298E+04  0.25500000920E-02 0. -1.
    10030    2    1    2    0    0  0.00000000000E+00  0.00000000000E+00 -0.16969687582E+04  0.24625159014E+04  0.17844555468E+04 0.  0.
        5    1    3    3  502    0  0.24814438384E+03  0.50351960389E+03 -0.18055000909E+04  0.18907565404E+04  0.46999998093E+01 0. -1.
       -5    1    3    3    0  502 -0.24814438384E+03 -0.50351960389E+03  0.10853133271E+03  0.57175936102E+03  0.46999998093E+01 0.  1.
</event>
<event>
 5   0  0.1883959E-04  0.1781837E+04  0.7818609E-02  0.8716018E-01
        1   -1    0    0  501    0  0.00000000000E+00  0.00000000000E+00  0.15169256341E+04  0.15169256341E+04  0.50400001928E-02 0.  1.
       -1   -1    0    0    0  501  0.00000000000E+00  0.00000000000E+00 -0.52325311234E+03  0.52325311236E+03  0.50400001928E-02 0. -1.
    10030    2    1    2    0    0  0.00000000000E+00  0.00000000000E+00  0.99367252175E+03  0.20401787465E+04  0.17818373206E+04 0.  0.
        5    1    3    3  502    0 -0.67594319021E+03 -0.56904838493E+03  0.62737826325E+03  0.10836700771E+04  0.46999998093E+01 0.  1.
       -5    1    3    3    0  502  0.67594319021E+03  0.56904838493E+03  0.36629425850E+03  0.95650866937E+03  0.46999998093E+01 0. -1.
</event>
<event>
 5   0  0.3582186E-04  0.1824844E+04  0.7818609E-02  0.8693198E-01
        2   -1    0    0  501    0  0.00000000000E+00  0.00000000000E+00  0.10138136764E+04  0.10138136764E+04  0.25500000920E-02 0. -1.
       -2   -1    0    0    0  501  0.00000000000E+00  0.00000000000E+00 -0.82117021528E+03  0.82117021528E+03  0.25500000920E-02 0.  1.
    10030    2    1    2    0    0  0.00000000000E+00  0.00000000000E+00  0.19264346114E+03  0.18349838917E+04  0.18248436590E+04 0.  0.
        4    1    3    3  502    0  0.59320425067E+03 -0.44912362068E+03 -0.43473094661E+03  0.86174005275E+03  0.12699999809E+01 0.  1.
       -4    1    3    3    0  502 -0.59320425067E+03  0.44912362068E+03  0.62737440776E+03  0.97324383896E+03  0.12699999809E+01 0. -1.
</event>
<event>
 5   0  0.1835421E-04  0.1764638E+04  0.7818609E-02  0.8725334E-01
       -1   -1    0    0    0  501  0.00000000000E+00  0.00000000000E+00  0.44787564654E+03  0.44787564657E+03  0.50400001928E-02 0.  1.
        1   -1    0    0  501    0  0.00000000000E+00  0.00000000000E+00 -0.17381769014E+04  0.17381769014E+04  0.50400001928E-02 0. -1.
    10030    2    1    2    0    0  0.00000000000E+00  0.00000000000E+00 -0.12903012549E+04  0.21860525480E+04  0.17646383239E+04 0.  0.
        2    1    3    3  502    0 -0.61981727177E+03 -0.54934685705E+03 -0.10219846645E+04  0.13154497612E+04  0.25500000920E-02 0. -1.
       -2    1    3    3    0  502  0.61981727177E+03  0.54934685705E+03 -0.26831659038E+03  0.87060278682E+03  0.25500000920E-02 0.  1.
</event>
<event>
 5   0  0.1835421E-04  0.1800940E+04  0.7818609E-02  0.8705800E-01
       -1   -1    0    0    0  501  0.00000000000E+00  0.00000000000E+00  0.11214743802E+04  0.11214743803E+04  0.50400001928E-02 0. -1.
        1   -1    0    0  501    0  0.00000000000E+00  0.00000000000E+00 -0.72301802091E+03  0.72301802092E+03  0.50400001928E-02 0.  1.
    10030    2    1    2    0    0  0.00000000000E+00  0.00000000000E+00  0.39845635934E+03  0.18444924012E+04  0.18009399623E+04 0.  0.
        2    1    3    3  502    0 -0.57858096393E+02 -0.60135118314E+03 -0.48465887437E+03  0.77450954113E+03  0.25500000920E-02 0.  1.
       -2    1    3    3    0  502  0.57858096393E+02  0.60135118314E+03  0.88311523371E+03  0.10699828601E+04  0.25500000920E-02 0. -1.
</event>
<event>
 5   0  0.1837313E-04  0.1795705E+04  0.7818609E-02  0.8708587E-01
       -1   -1    0    0    0  501  0.00000000000E+00  0.00000000000E+00  0.10321898242E+04  0.10321898242E+04  0.50400001928E-02 0. -1.
        1   -1    0    0  501    0  0.00000000000E+00  0.00000000000E+00 -0.78099867955E+03  0.78099867957E+03  0.50400001928E-02 0.  1.
    10030    2    1    2    0    0  0.00000000000E+00  0.00000000000E+00  0.25119114463E+03  0.18131885038E+04  0.17957047527E+04 0.  0.
        1    1    3    3  502    0  0.21870527457E+03  0.84292317127E+03  0.34632732736E+03  0.93717345646E+03  0.50400001928E-02 0. -1.
       -1    1    3    3    0  502 -0.21870527457E+03 -0.84292317127E+03 -0.95136182734E+02  0.87601504729E+03  0.50400001928E-02 0.  1.
</event>
<event>
 5   0  0.3531266E-04  0.1780490E+04  0.7818609E-02  0.8716744E-01
       -2   -1    0    0    0  501  0.00000000000E+00  0.00000000000E+00  0.93944942755E+03  0.93944942756E+03  0.25500000920E-02 0. -1.
        2   -1    0    0  501    0  0.00000000000E+00  0.00000000000E+00 -0.84361794081E+03  0.84361794081E+03  0.25500000920E-02 0.  1.
    10030    2    1    2    0    0  0.00000000000E+00  0.00000000000E+00  0.95831486747E+02  0.17830673684E+04  0.17804902601E+04 0.  0.
        3    1    3    3  502    0 -0.86947800056E+03 -0.18208427869E+03 -0.10389685890E+02  0.88840004152E+03  0.10100000352E+00 0.  1.
       -3    1    3    3    0  502  0.86947800056E+03  0.18208427869E+03  0.10622117264E+03  0.89466732684E+03  0.10100000352E+00 0. -1.
</event>
<event>
 5   0  0.1835421E-04  0.1788904E+04  0.7818609E-02  0.8712223E-01
       -1   -1    0    0    0  501  0.00000000000E+00  0.00000000000E+00  0.11115301444E+04  0.11115301444E+04  0.50400001928E-02 0. -1.
        1   -1    0    0  501    0  0.00000000000E+00  0.00000000000E+00 -0.71976840707E+03  0.71976840709E+03  0.50400001928E-02 0.  1.
    10030    2    1    2    0    0  0.00000000000E+00  0.00000000000E+00  0.39176173733E+03  0.18312985515E+04  0.17889038895E+04 0.  0.
        2    1    3    3  502    0  0.14856444416E+03  0.25602368818E+02  0.10984310129E+04  0.11087279042E+04  0.25500000920E-02 0. -1.
       -2    1    3    3    0  502 -0.14856444416E+03 -0.25602368818E+02 -0.70666927557E+03  0.72257064734E+03  0.25500000920E-02 0.  1.
</event>
<event>
 5   0  0.1835421E-04  0.1791330E+04  0.7818609E-02  0.8710924E-01
        1   -1    0    0  501    0  0.00000000000E+00  0.00000000000E+00  0.96633885656E+03  0.96633885657E+03  0.50400001928E-02 0. -1.
       -1   -1    0    0    0  501  0.00000000000E+00  0.00000000000E+00 -0.83016009866E+03  0.83016009867E+03  0.50400001928E-02 0.  1.
    10030    2    1    2    0    0  0.00000000000E+00  0.00000000000E+00  0.13617875790E+03  0.17964989552E+04  0.17913301879E+04 0.  0.
        2    1    3    3  502    0 -0.30675709277E+03  0.46121781321E+03 -0.63778394929E+03  0.84474265381E+03  0.25500000920E-02 0.  1.
       -2    1    3    3    0  502  0.30675709277E+03 -0.46121781321E+03  0.77396270719E+03  0.95175630143E+03  0.25500000920E-02 0. -1.
</event>
<event>
 5   0  0.3575091E-04  0.1796265E+04  0.7818609E-02  0.8708288E-01
       -2   -1    0    0    0  501  0.00000000000E+00  0.00000000000E+00  0.36226628710E+03  0.36226628711E+03  0.25500000920E-02 0. -1.
        2   -1    0    0  501    0  0.00000000000E+00  0.00000000000E+00 -0.22266539517E+04  0.22266539517E+04  0.25500000920E-02 0.  1.
    10030    2    1    2    0    0  0.00000000000E+00  0.00000000000E+00 -0.18643876646E+04  0.25889202388E+04  0.17962646350E+04 0.  0.
        5    1    3    3  502    0  0.86456786506E+02 -0.56342894332E+03  0.68113258024E+02  0.57409794985E+03  0.46999998093E+01 0. -1.
       -5    1    3    3    0  502 -0.86456786506E+02  0.56342894332E+03 -0.19325009226E+04  0.20148222890E+04  0.46999998093E+01 0.  1.
</event>
<event>
 5   0  0.3582186E-04  0.1851159E+04  0.7818609E-02  0.8679557E-01
        2   -1    0    0  501    0  0.00000000000E+00  0.00000000000E+00  0.15733266555E+04  0.15733266555E+04  0.25500000920E-02 0.  1.
       -2   -1    0    0    0  501  0.00000000000E+00  0.00000000000E+00 -0.54451338083E+03  0.54451338084E+03  0.25500000920E-02 0. -1.
    10030    2    1    2    0    0  0.00000000000E+00  0.00000000000E+00  0.10288132747E+04  0.21178400363E+04  0.18511590060E+04 0.  0.
        4    1    3    3  502    0  0.76171514347E+03 -0.39884864243E+03  0.12239961803E+03  0.86848919323E+03  0.12699999809E+01 0.  1.
       -4    1    3    3    0  502 -0.76171514347E+03  0.39884864243E+03  0.90641365663E+03  0.12493508431E+04  0.12699999809E+01 0. -1.
</event>
<event>
 5   0  0.1835421E-04  0.1767424E+04  0.7818609E-02  0.8723817E-01
       -1   -1    0    0    0  501  0.00000000000E+00  0.00000000000E+00  0.38320163941E+03  0.38320163944E+03  0.50400001928E-02 0.  1.
        1   -1    0    0  501    0  0.00000000000E+00  0.00000000000E+00 -0.20379533647E+04  0.20379533647E+04  0.50400001928E-02 0. -1.
    10030    2    1    2    0    0  0.00000000000E+00  0.00000000000E+00 -0.16547517253E+04  0.24211550041E+04  0.17674241941E+04 0.  0.
        2    1    3    3  502    0 -0.11476736560E+03  0.73299561506E+03 -0.16970193984E+03  0.76108663652E+03  0.25500000920E-02 0.  1.
       -2    1    3    3    0  502  0.11476736560E+03 -0.73299561506E+03 -0.14850497854E+04  0.16600683676E+04  0.25500000920E-02 0. -1.
</event>
<event>
 5   0  0.1837313E-04  0.1770004E+04  0.7818609E-02  0.8722416E-01
        1   -1    0    0  501    0  0.00000000000E+00  0.00000000000E+00  0.12503761440E+04  0.12503761440E+04  0.50400001928E-02 0. -1.
       -1   -1    0    0    0  501  0.00000000000E+00  0.00000000000E+00 -0.62639410887E+03  0.62639410889E+03  0.50400001928E-02 0.  1.
    10030    2    1    2    0    0  0.00000000000E+00  0.00000000000E+00  0.62398203508E+03  0.18767702529E+04  0.17700036729E+04 0.  0.
        1    1    3    3  502    0 -0.45719040664E+03 -0.82522997845E+02 -0.48670174382E+03  0.67283853974E+03  0.50400001928E-02 0.  1.
       -1    1    3    3    0  502  0.45719040664E+03  0.82522997845E+02  0.11106837789E+04  0.12039317131E+04  0.50400001928E-02 0. -1.
</event>
<event>
 5   0  0.1818778E-04  0.1779735E+04  0.7818609E-02  0.8717151E-01
        1   -1    0    0  501    0  0.00000000000E+00  0.00000000000E+00  0.93239035883E+03  0.93239035885E+03  0.50400001928E-02 0. -1.
       -1   -1    0    0    0  501  0.00000000000E+00  0.00000000000E+00 -0.84928424534E+03  0.84928424535E+03  0.50400001928E-02 0.  1.
    10030    2    1    2    0    0  0.00000000000E+00  0.00000000000E+00  0.83106113498E+02  0.17816746042E+04  0.17797353087E+04 0.  0.
        3    1    3    3  502    0 -0.36297447450E+03  0.58959008828E+03 -0.51807082586E+03  0.86473367701E+03  0.10100000352E+00 0.  1.
       -3    1    3    3    0  502  0.36297447450E+03 -0.58959008828E+03  0.60117693936E+03  0.91694092719E+03  0.10100000352E+00 0. -1.
</event>
<event>
 5   0  0.3628581E-04  0.1803536E+04  0.7818609E-02  0.8704422E-01
        2   -1    0    0  501    0  0.00000000000E+00  0.00000000000E+00  0.12338827980E+04  0.12338827980E+04  0.25500000920E-02 0. -1.
       -2   -1    0    0    0  501  0.00000000000E+00  0.00000000000E+00 -0.65904573465E+03  0.65904573465E+03  0.25500000920E-02 0.  1.
    10030    2    1    2    0    0  0.00000000000E+00  0.00000000000E+00  0.57483706336E+03  0.18929285327E+04  0.18035356332E+04 0.  0.
        2    1    3    3  502    0  0.43892807508E+03 -0.77911075864E+03  0.40942916565E+03  0.98351597395E+03  0.25500000920E-02 0. -1.
       -2    1    3    3    0  502 -0.43892807508E+03  0.77911075864E+03  0.16540789771E+03  0.90941255871E+03  0.25500000920E-02 0.  1.
</event>
<event>
 5   0  0.1837313E-04  0.1826388E+04  0.7818609E-02  0.8692391E-01
       -1   -1    0    0    0  501  0.00000000000E+00  0.00000000000E+00  0.87806277615E+03  0.87806277617E+03  0.50400001928E-02 0. -1.
        1   -1    0    0  501    0  0.00000000000E+00  0.00000000000E+00 -0.94973106866E+03  0.94973106867E+03  0.50400001928E-02 0.  1.
    10030    2    1    2    0    0  0.00000000000E+00  0.00000000000E+00 -0.71668292503E+02  0.18277938448E+04  0.18263882378E+04 0.  0.
        1    1    3    3  502    0 -0.59848660984E+03  0.32155709832E+03  0.57483077037E+03  0.88995258538E+03  0.50400001928E-02 0. -1.
       -1    1    3    3    0  502  0.59848660984E+03 -0.32155709832E+03 -0.64649906287E+03  0.93784125946E+03  0.50400001928E-02 0.  1.
</event>
<event>
 5   0  0.3575091E-04  0.1812320E+04  0.7818609E-02  0.8699775E-01
       -2   -1    0    0    0  501  0.00000000000E+00  0.00000000000E+00  0.60830917042E+03  0.60830917042E+03  0.25500000920E-02 0. -1.
        2   -1    0    0  501    0  0.00000000000E+00  0.00000000000E+00 -0.13498501672E+04  0.13498501672E+04  0.25500000920E-02 0.  1.
    10030    2    1    2    0    0  0.00000000000E+00  0.00000000000E+00 -0.74154099683E+03  0.19581593377E+04  0.18123203198E+04 0.  0.
        5    1    3    3  502    0 -0.17762656320E+03 -0.34649196186E+03 -0.12548415070E+04  0.13138710642E+04  0.46999998093E+01 0.  1.
       -5    1    3    3    0  502  0.17762656320E+03  0.34649196186E+03  0.51330051019E+03  0.64428827348E+03  0.46999998093E+01 0. -1.
</event>
<event>
 5   0  0.1837313E-04  0.1814600E+04  0.7818609E-02  0.8698574E-01
        1   -1    0    0  501    0  0.00000000000E+00  0.00000000000E+00  0.22255282304E+04  0.22255282304E+04  0.50400001928E-02 0.  1.
       -1   -1    0    0    0  501  0.00000000000E+00  0.00000000000E+00 -0.36988656197E+03  0.36988656201E+03  0.50400001928E-02 0. -1.
    10030    2    1    2    0    0  0.00000000000E+00  0.00000000000E+00  0.18556416684E+04  0.25954147924E+04  0.18145996647E+04 0.  0.
        1    1    3    3  502    0 -0.50945840161E+03  0.17488035910E+03 -0.11645398145E+03  0.55108305435E+03  0.50400001928E-02 0. -1.
       -1    1    3    3    0  502  0.50945840161E+03 -0.17488035910E+03  0.19720956499E+04  0.20443317380E+04  0.50400001928E-02 0.  1.
</event>
<event>
 5   0  0.3628581E-04  0.1808624E+04  0.7818609E-02  0.8701727E-01
       -2   -1    0    0    0  501  0.00000000000E+00  0.00000000000E+00  0.31035419521E+03  0.31035419522E+03  0.25500000920E-02 0. -1.
        2   -1    0    0  501    0  0.00000000000E+00  0.00000000000E+00 -0.26349895560E+04  0.26349895560E+04  0.25500000920E-02 0.  1.
    10030    2    1    2    0    0  0.00000000000E+00  0.00000000000E+00 -0.23246353608E+04  0.29453437512E+04  0.18086238559E+04 0.  0.
        2    1    3    3  502    0  0.16071635294E+02  0.77886802700E+03 -0.41447201423E+03  0.88242889319E+03  0.25500000920E-02 0.  1.
       -2    1    3    3    0  502 -0.16071635294E+02 -0.77886802700E+03 -0.19101633465E+04  0.20629148580E+04  0.25500000920E-02 0. -1.
</event>
<event>
 5   0  0.1330125E-04  0.1725730E+04  0.7818609E-02  0.8746824E-01
        3   -1    0    0  501    0  0.00000000000E+00  0.00000000000E+00  0.65111664608E+03  0.65111665391E+03  0.10100000352E+00 0. -1.
       -3   -1    0    0    0  501  0.00000000000E+00  0.00000000000E+00 -0.11434756604E+04  0.11434756649E+04  0.10100000352E+00 0.  1.
    10030    2    1    2    0    0  0.00000000000E+00  0.00000000000E+00 -0.49235901436E+03  0.17945923188E+04  0.17257300460E+04 0.  0.
        4    1    3    3  502    0  0.22333992317E+03  0.18860218468E+03 -0.10904137739E+04  0.11289177634E+04  0.12699999809E+01 0.  1.
       -4    1    3    3    0  502 -0.22333992317E+03 -0.18860218468E+03  0.59805475956E+03  0.66567455538E+03  0.12699999809E+01 0. -1.
</event>
<event>
 5   0  0.3575091E-04  0.1809368E+04  0.7818609E-02  0.8701333E-01
       -2   -1    0    0    0  501  0.00000000000E+00  0.00000000000E+00  0.52672948673E+03  0.52672948673E+03  0.25500000920E-02 0. -1.
        2   -1    0    0  501    0  0.00000000000E+00  0.00000000000E+00 -0.15538399234E+04  0.15538399234E+04  0.25500000920E-02 0.  1.
    10030    2    1    2    0    0  0.00000000000E+00  0.00000000000E+00 -0.10271104367E+04  0.20805694101E+04  0.18093681829E+04 0.  0.
        5    1    3    3  502    0  0.68659549987E+03 -0.24427989148E+03  0.10283708916E+03  0.73599157789E+03  0.46999998093E+01 0. -1.
       -5    1    3    3    0  502 -0.68659549987E+03  0.24427989148E+03 -0.11299475258E+04  0.13445778322E+04  0.46999998093E+01 0.  1.
</event>
<event>
 5   0  0.1837313E-04  0.1795640E+04  0.7818609E-02  0.8708622E-01
       -1   -1    0    0    0  501  0.00000000000E+00  0.00000000000E+00  0.15922604006E+04  0.15922604006E+04  0.50400001928E-02 0. -1.
        1   -1    0    0  501    0  0.00000000000E+00  0.00000000000E+00 -0.50624931545E+03  0.50624931547E+03  0.50400001928E-02 0.  1.
    10030    2    1    2    0    0  0.00000000000E+00  0.00000000000E+00  0.10860110852E+04  0.20985097161E+04  0.17956399838E+04 0.  0.
        1    1    3    3  502    0 -0.83934787554E+03  0.29832104831E+03  0.67408647608E+03  0.11170912592E+04  0.50400001928E-02 0.  1.
       -1    1    3    3    0  502  0.83934787554E+03 -0.29832104831E+03  0.41192460911E+03  0.98141845695E+03  0.50400001928E-02 0. -1.
</event>
<event>
 5   0  0.1835421E-04  0.1828048E+04  0.7818609E-02  0.8691525E-01
       -1   -1    0    0    0  501  0.00000000000E+00  0.00000000000E+00  0.86360437805E+03  0.86360437806E+03  0.50400001928E-02 0.  1.
        1   -1    0    0  501    0  0.00000000000E+00  0.00000000000E+00 -0.96738691037E+03  0.96738691038E+03  0.50400001928E-02 0. -1.
    10030    2    1    2    0    0  0.00000000000E+00  0.00000000000E+00 -0.10378253232E+03  0.18309912884E+04  0.18280476702E+04 0.  0.
        2    1    3    3  502    0 -0.88753364817E+03  0.12296138312E+03  0.12896552496E+03  0.90524448908E+03  0.25500000920E-02 0.  1.
       -2    1    3    3    0  502  0.88753364817E+03 -0.12296138312E+03 -0.23274805728E+03  0.92574679937E+03  0.25500000920E-02 0. -1.
</event>
<event>
 5   0  0.3531266E-04  0.1851949E+04  0.7818609E-02  0.8679151E-01
        2   -1    0    0  501    0  0.00000000000E+00  0.00000000000E+00  0.71263468562E+03  0.71263468563E+03  0.25500000920E-02 0. -1.
       -2   -1    0    0    0  501  0.00000000000E+00  0.00000000000E+00 -0.12031816650E+04  0.12031816650E+04  0.25500000920E-02 0.  1.
    10030    2    1    2    0    0  0.00000000000E+00  0.00000000000E+00 -0.49054697942E+03  0.19158163507E+04  0.18519492300E+04 0.  0.
        3    1    3    3  502    0  0.41730299195E+03  0.83651124632E+02 -0.10960023749E+04  0.11757382846E+04  0.10100000352E+00 0.  1.
       -3    1    3    3    0  502 -0.41730299195E+03 -0.83651124632E+02  0.60545539552E+03  0.74007806609E+03  0.10100000352E+00 0. -1.
</event>
<event>
 5   0  0.1818778E-04  0.1576278E+04  0.7818609E-02  0.8835256E-01
        1   -1    0    0  501    0  0.00000000000E+00  0.00000000000E+00  0.26672437788E+04  0.26672437788E+04  0.50400001928E-02 0.  1.
       -1   -1    0    0    0  501  0.00000000000E+00  0.00000000000E+00 -0.23288563275E+03  0.23288563280E+03  0.50400001928E-02 0. -1.
    10030    2    1    2    0    0  0.00000000000E+00  0.00000000000E+00  0.24343581460E+04  0.29001294116E+04  0.15762775837E+04 0.  0.
        3    1    3    3  502    0  0.52755022029E+03 -0.14616991084E+03  0.22603776165E+04  0.23257217927E+04  0.10100000352E+00 0.  1.
       -3    1    3    3    0  502 -0.52755022029E+03  0.14616991084E+03  0.17398052954E+03  0.57440761888E+03  0.10100000352E+00 0. -1.
</event>
<event>
 5   0  0.3568870E-04  0.1443977E+04  0.7818609E-02  0.8922587E-01
        2   -1    0    0  501    0  0.00000000000E+00  0.00000000000E+00  0.11605487911E+04  0.11605487911E+04  0.25500000920E-02 0. -1.
       -2   -1    0    0    0  501  0.00000000000E+00  0.00000000000E+00 -0.44915603901E+03  0.44915603902E+03  0.25500000920E-02 0.  1.
    10030    2    1    2    0    0  0.00000000000E+00  0.00000000000E+00  0.71139275213E+03  0.16097048302E+04  0.14439771440E+04 0.  0.
        1    1    3    3  502    0 -0.27650774527E+03 -0.35308811965E+03  0.98644414826E+03  0.10836050070E+04  0.50400001928E-02 0. -1.
       -1    1    3    3    0  502  0.27650774527E+03  0.35308811965E+03 -0.27505139614E+03  0.52609982321E+03  0.50400001928E-02 0.  1.
</event>
<event>
 5   0  0.1837313E-04  0.1799640E+04  0.7818609E-02  0.8706491E-01
       -1   -1    0    0    0  501  0.00000000000E+00  0.00000000000E+00  0.46088880629E+03  0.46088880631E+03  0.50400001928E-02 0. -1.
        1   -1    0    0  501    0  0.00000000000E+00  0.00000000000E+00 -0.17567699599E+04  0.17567699599E+04  0.50400001928E-02 0.  1.
    10030    2    1    2    0    0  0.00000000000E+00  0.00000000000E+00 -0.12958811536E+04  0.22176587662E+04  0.17996395303E+04 0.  0.
        1    1    3    3  502    0 -0.84016329931E+03 -0.24619785505E+03 -0.90402904465E+03  0.12584737848E+04  0.50400001928E-02 0.  1.
       -1    1    3    3    0  502  0.84016329931E+03  0.24619785505E+03 -0.39185210899E+03  0.95918498148E+03  0.50400001928E-02 0. -1.
</event>
<event>
 5   0  0.3628581E-04  0.1780176E+04  0.7818609E-02  0.8716913E-01
       -2   -1    0    0    0  501  0.00000000000E+00  0.00000000000E+00  0.11389782664E+04  0.11389782664E+04  0.25500000920E-02 0.  1.
        2   -1    0    0  501    0  0.00000000000E+00  0.00000000000E+00 -0.69558506538E+03  0.69558506539E+03  0.25500000920E-02 0. -1.
    10030    2    1    2    0    0  0.00000000000E+00  0.00000000000E+00  0.44339320104E+03  0.18345633318E+04  0.17801755778E+04 0.  0.
        2    1    3    3  502    0 -0.22598133535E+03  0.42901807343E+03  0.99091382459E+03  0.11031927660E+04  0.25500000920E-02 0.  1.
       -2    1    3    3    0  502  0.22598133535E+03 -0.42901807343E+03 -0.54752062355E+03  0.73137056578E+03  0.25500000920E-02 0. -1.
</event>
<event>
 5   0  0.1818778E-04  0.1815777E+04  0.7818609E-02  0.8697954E-01
       -1   -1    0    0    0  501  0.00000000000E+00  0.00000000000E+00  0.46823413158E+03  0.46823413161E+03  0.50400001928E-02 0. -1.
        1   -1    0    0  501    0  0.00000000000E+00  0.00000000000E+00 -0.17603614081E+04  0.17603614081E+04  0.50400001928E-02 0.  1.
    10030    2    1    2    0    0  0.00000000000E+00  0.00000000000E+00 -0.12921272765E+04  0.22285955397E+04  0.18157767431E+04 0.  0.
        3    1    3    3  502    0 -0.39290172201E+03 -0.78885463474E+03 -0.91383408615E+03  0.12695495836E+04  0.10100000352E+00 0.  1.
       -3    1    3    3    0  502  0.39290172201E+03  0.78885463474E+03 -0.37829319036E+03  0.95904595614E+03  0.10100000352E+00 0. -1.
</event>
<event>
 5   0  0.3582186E-04  0.1794457E+04  0.7818609E-02  0.8709253E-01
       -2   -1    0    0    0  501  0.00000000000E+00  0.00000000000E+00  0.11297195231E+04  0.11297195231E+04  0.25500000920E-02 0. -1.
        2   -1    0    0  501    0  0.00000000000E+00  0.00000000000E+00 -0.71258332297E+03  0.71258332297E+03  0.25500000920E-02 0.  1.
    10030    2    1    2    0    0  0.00000000000E+00  0.00000000000E+00  0.41713620017E+03  0.18423028461E+04  0.17944573462E+04 0.  0.
        4    1    3    3  502    0  0.39755654763E+03 -0.18752925314E+03 -0.59446297812E+03  0.73932825903E+03  0.12699999809E+01 0.  1.
       -4    1    3    3    0  502 -0.39755654763E+03  0.18752925314E+03  0.10115991783E+04  0.11029745871E+04  0.12699999809E+01 0. -1.
</event>
<event>
 5   0  0.3568870E-04  0.1813867E+04  0.7818609E-02  0.8698960E-01
       -2   -1    0    0    0  501  0.00000000000E+00  0.00000000000E+00  0.36689006575E+03  0.36689006576E+03  0.25500000920E-02 0.  1.
        2   -1    0    0  501    0  0.00000000000E+00  0.00000000000E+00 -0.22418921120E+04  0.22418921120E+04  0.25500000920E-02 0. -1.
    10030    2    1    2    0    0  0.00000000000E+00  0.00000000000E+00 -0.18750020463E+04  0.26087821778E+04  0.18138665270E+04 0.  0.
        1    1    3    3  502    0 -0.38428816676E+03 -0.51880337481E+03 -0.21424876668E+02  0.64598247824E+03  0.50400001928E-02 0.  1.
       -1    1    3    3    0  502  0.38428816676E+03  0.51880337481E+03 -0.18535771696E+04  0.19627996996E+04  0.50400001928E-02 0. -1.
</event>
<event>
 5   0  0.1818778E-04  0.1822547E+04  0.7818609E-02  0.8694400E-01
       -1   -1    0    0    0  501  0.00000000000E+00  0.00000000000E+00  0.90896460714E+03  0.90896460715E+03  0.50400001928E-02 0.  1.
        1   -1    0    0  501    0  0.00000000000E+00  0.00000000000E+00 -0.91358809423E+03  0.91358809425E+03  0.50400001928E-02 0. -1.
    10030    2    1    2    0    0  0.00000000000E+00  0.00000000000E+00 -0.46234870937E+01  0.18225527014E+04  0.18225468369E+04 0.  0.
        3    1    3    3  502    0  0.50633409749E+03  0.25992651205E+03  0.70936689355E+03  0.90947095051E+03  0.10100000352E+00 0.  1.
       -3    1    3    3    0  502 -0.50633409749E+03 -0.25992651205E+03 -0.71399038065E+03  0.91308175089E+03  0.10100000352E+00 0. -1.
</event>
<event>
 5   0  0.1883959E-04  0.1811483E+04  0.7818609E-02  0.8700217E-01
        1   -1    0    0  501    0  0.00000000000E+00  0.00000000000E+00  0.85746830679E+03  0.85746830681E+03  0.50400001928E-02 0.  1.
       -1   -1    0    0    0  501  0.00000000000E+00  0.00000000000E+00 -0.95673193197E+03  0.95673193198E+03  0.50400001928E-02 0. -1.
    10030    2    1    2    0    0  0.00000000000E+00  0.00000000000E+00 -0.99263625176E+02  0.18142002388E+04  0.18114826080E+04 0.  0.
        5    1    3    3  502    0  0.57724604155E+02  0.79190203004E+03  0.38680201996E+03  0.88322072425E+03  0.46999998093E+01 0.  1.
       -5    1    3    3    0  502 -0.57724604155E+02 -0.79190203004E+03 -0.48606564513E+03  0.93097951454E+03  0.46999998093E+01 0. -1.
</event>
<event>
 5   0  0.1818778E-04  0.1782729E+04  0.7818609E-02  0.8715539E-01
       -1   -1    0    0    0  501  0.00000000000E+00  0.00000000000E+00  0.50162939911E+03  0.50162939914E+03  0.50400001928E-02 0.  1.
        1   -1    0    0  501    0  0.00000000000E+00  0.00000000000E+00 -0.15838988899E+04  0.15838988899E+04  0.50400001928E-02 0. -1.
    10030    2    1    2    0    0  0.00000000000E+00  0.00000000000E+00 -0.10822694908E+04  0.20855282891E+04  0.17827285250E+04 0.  0.
        3    1    3    3  502    0 -0.50934825892E+03  0.17953305158E+03  0.28843992838E+03  0.61226249923E+03  0.10100000352E+00 0.  1.
       -3    1    3    3    0  502  0.50934825892E+03 -0.17953305158E+03 -0.13707094192E+04  0.14732657899E+04  0.10100000352E+00 0. -1.
</event>
<event>
 5   0  0.1883959E-04  0.1787757E+04  0.7818609E-02  0.8712838E-01
       -1   -1    0    0    0  501  0.00000000000E+00  0.00000000000E+00  0.82475369691E+03  0.82475369693E+03  0.50400001928E-02 0. -1.
        1   -1    0    0  501    0  0.00000000000E+00  0.00000000000E+00 -0.96879634372E+03  0.96879634373E+03  0.50400001928E-02 0.  1.
    10030    2    1    2    0    0  0.00000000000E+00  0.00000000000E+00 -0.14404264681E+03  0.17935500407E+04  0.17877565450E+04 0.  0.
        5    1    3    3  502    0  0.96267184126E+01 -0.64310487049E+03  0.55073155555E+03  0.84676081891E+03  0.46999998093E+01 0.  1.
       -5    1    3    3    0  502 -0.96267184126E+01  0.64310487049E+03 -0.69477420236E+03  0.94678922175E+03  0.46999998093E+01 0. -1.
</event>
<event>
 5   0  0.3628581E-04  0.1811627E+04  0.7818609E-02  0.8700141E-01
        2   -1    0    0  501    0  0.00000000000E+00  0.00000000000E+00  0.16148630455E+04  0.16148630455E+04  0.25500000920E-02 0. -1.
       -2   -1    0    0    0  501  0.00000000000E+00  0.00000000000E+00 -0.50809135936E+03  0.50809135936E+03  0.25500000920E-02 0.  1.
    10030    2    1    2    0    0  0.00000000000E+00  0.00000000000E+00  0.11067716861E+04  0.21229544048E+04  0.18116268490E+04 0.  0.
        2    1    3    3  502    0  0.30403641600E+02 -0.74483766502E+02 -0.50389652367E+03  0.51027827650E+03  0.25500000920E-02 0.  1.
       -2    1    3    3    0  502 -0.30403641600E+02  0.74483766502E+02  0.16106682098E+04  0.16126761284E+04  0.25500000920E-02 0. -1.
</event>
<event>
 5   0  0.1818778E-04  0.1771458E+04  0.7818609E-02  0.8721627E-01
        1   -1    0    0  501    0  0.00000000000E+00  0.00000000000E+00  0.16317058799E+04  0.16317058799E+04  0.50400001928E-02 0.  1.
       -1   -1    0    0    0  501  0.00000000000E+00  0.00000000000E+00 -0.48079514548E+03  0.48079514551E+03  0.50400001928E-02 0. -1.
    10030    2    1    2    0    0  0.00000000000E+00  0.00000000000E+00  0.11509107344E+04  0.21125010254E+04  0.17714584567E+04 0.  0.
        3    1    3    3  502    0 -0.63842441653E+03 -0.59665878051E+03  0.40293581377E+03  0.96226021231E+03  0.10100000352E+00 0.  1.
       -3    1    3    3    0  502  0.63842441653E+03  0.59665878051E+03  0.74797492062E+03  0.11502408131E+04  0.10100000352E+00 0. -1.
</event>
<event>
 5   0  0.3568870E-04  0.1793095E+04  0.7818609E-02  0.8709980E-01
        2   -1    0    0  501    0  0.00000000000E+00  0.00000000000E+00  0.14533883068E+04  0.14533883068E+04  0.25500000920E-02 0.  1.
       -2   -1    0    0    0  501  0.00000000000E+00  0.00000000000E+00 -0.55305063943E+03  0.55305063943E+03  0.25500000920E-02 0. -1.
    10030    2    1    2    0    0  0.00000000000E+00  0.00000000000E+00  0.90033766738E+03  0.20064389462E+04  0.17930949026E+04 0.  0.
        1    1    3    3  502    0  0.54872157207E+03 -0.46179202540E+03 -0.15184922742E+03  0.73307941335E+03  0.50400001928E-02 0. -1.
       -1    1    3    3    0  502 -0.54872157207E+03  0.46179202540E+03  0.10521868948E+04  0.12733595329E+04  0.50400001928E-02 0.  1.
</event>
<event>
 5   0  0.3582186E-04  0.1782486E+04  0.7818609E-02  0.8715669E-01
        2   -1    0    0  501    0  0.00000000000E+00  0.00000000000E+00  0.10726895244E+04  0.10726895245E+04  0.25500000920E-02 0. -1.
       -2   -1    0    0    0  501  0.00000000000E+00  0.00000000000E+00 -0.74048828868E+03  0.74048828869E+03  0.25500000920E-02 0.  1.
    10030    2    1    2    0    0  0.00000000000E+00  0.00000000000E+00  0.33220123577E+03  0.18131778131E+04  0.17824859385E+04 0.  0.
        4    1    3    3  502    0 -0.10659661999E+03  0.99089638374E+02  0.10605191256E+04  0.10704597257E+04  0.12699999809E+01 0. -1.
       -4    1    3    3    0  502  0.10659661999E+03 -0.99089638374E+02 -0.72831788981E+03  0.74271808739E+03  0.12699999809E+01 0.  1.
</event>
<event>
 5   0  0.1818778E-04  0.1752281E+04  0.7818609E-02  0.8732096E-01
       -1   -1    0    0    0  501  0.00000000000E+00  0.00000000000E+00  0.60013910631E+03  0.60013910633E+03  0.50400001928E-02 0.  1.
        1   -1    0    0  501    0  0.00000000000E+00  0.00000000000E+00 -0.12790738448E+04  0.12790738448E+04  0.50400001928E-02 0. -1.
    10030    2    1    2    0    0  0.00000000000E+00  0.00000000000E+00 -0.67893473844E+03  0.18792129511E+04  0.17522810666E+04 0.  0.
        3    1    3    3  502    0  0.43794532118E+03  0.75876567912E+03 -0.32870211158E+03  0.93571713061E+03  0.10100000352E+00 0.  1.
       -3    1    3    3    0  502 -0.43794532118E+03 -0.75876567912E+03 -0.35023262686E+03  0.94349582048E+03  0.10100000352E+00 0. -1.
</event>
<event>
 5   0  0.3531266E-04  0.1827260E+04  0.7818609E-02  0.8691936E-01
       -2   -1    0    0    0  501  0.00000000000E+00  0.00000000000E+00  0.10611165622E+04  0.10611165622E+04  0.25500000920E-02 0. -1.
        2   -1    0    0  501    0  0.00000000000E+00  0.00000000000E+00 -0.78664312891E+03  0.78664312892E+03  0.25500000920E-02 0.  1.
    10030    2    1    2    0    0  0.00000000000E+00  0.00000000000E+00  0.27447343328E+03  0.18477596911E+04  0.18272603018E+04 0.  0.
        3    1    3    3  502    0  0.50168427579E+03  0.14437796028E+03  0.89544029544E+03  0.10365063632E+04  0.10100000352E+00 0. -1.
       -3    1    3    3    0  502 -0.50168427579E+03 -0.14437796028E+03 -0.62096686216E+03  0.81125332794E+03  0.10100000352E+00 0.  1.
</event>
<event>
 5   0  0.3568870E-04  0.1804451E+04  0.7818609E-02  0.8703936E-01
       -2   -1    0    0    0  501  0.00000000000E+00  0.00000000000E+00  0.78123024555E+03  0.78123024555E+03  0.25500000920E-02 0.  1.
        2   -1    0    0  501    0  0.00000000000E+00  0.00000000000E+00 -0.10419601557E+04  0.10419601557E+04  0.25500000920E-02 0. -1.
    10030    2    1    2    0    0  0.00000000000E+00  0.00000000000E+00 -0.26072991018E+03  0.18231904013E+04  0.18044509285E+04 0.  0.
        1    1    3    3  502    0  0.56379218779E+03  0.62923122890E+03 -0.45022362038E+03  0.95733739027E+03  0.50400001928E-02 0. -1.
       -1    1    3    3    0  502 -0.56379218779E+03 -0.62923122890E+03  0.18949371020E+03  0.86585301101E+03  0.50400001928E-02 0.  1.
</event>
<event>
 5   0  0.1835421E-04  0.1779419E+04  0.7818609E-02  0.8717322E-01
        1   -1    0    0  501    0  0.00000000000E+00  0.00000000000E+00  0.12246431371E+04  0.12246431371E+04  0.50400001928E-02 0.  1.
       -1   -1    0    0    0  501  0.00000000000E+00  0.00000000000E+00 -0.64637815484E+03  0.64637815486E+03  0.50400001928E-02 0. -1.
    10030    2    1    2    0    0  0.00000000000E+00  0.00000000000E+00  0.57826498228E+03  0.18710212920E+04  0.17794185245E+04 0.  0.
        2    1    3    3  502    0 -0.68072161928E+03  0.63697157647E+02  0.88777721696E+03  0.11205300700E+04  0.25500000920E-02 0.  1.
       -2    1    3    3    0  502  0.68072161928E+03 -0.63697157647E+02 -0.30951223468E+03  0.75049122198E+03  0.25500000920E-02 0. -1.
</event>
<event>
 5   0  0.1883959E-04  0.1455751E+04  0.7818609E-02  0.8914423E-01
       -1   -1    0    0    0  501  0.00000000000E+00  0.00000000000E+00  0.76790805381E+03  0.76790805382E+03  0.50400001928E-02 0.  1.
        1   -1    0    0  501    0  0.00000000000E+00  0.00000000000E+00 -0.68993010633E+03  0.68993010635E+03  0.50400001928E-02 0. -1.
    10030    2    1    2    0    0  0.00000000000E+00  0.00000000000E+00  0.77977947475E+02  0.14578381602E+04  0.14557511947E+04 0.  0.
        5    1    3    3  502    0 -0.29864012586E+03 -0.27959841954E+03  0.64186497163E+03  0.76116616634E+03  0.46999998093E+01 0.  1.
       -5    1    3    3    0  502  0.29864012586E+03  0.27959841954E+03 -0.56388702415E+03  0.69667199383E+03  0.46999998093E+01 0. -1.
</event>
<event>
 5   0  0.1837313E-04  0.1809993E+04  0.7818609E-02  0.8701003E-01
        1   -1    0    0  501    0  0.00000000000E+00  0.00000000000E+00  0.25920713940E+04  0.25920713940E+04  0.50400001928E-02 0.  1.
       -1   -1    0    0    0  501  0.00000000000E+00  0.00000000000E+00 -0.31597067693E+03  0.31597067697E+03  0.50400001928E-02 0. -1.
    10030    2    1    2    0    0  0.00000000000E+00  0.00000000000E+00  0.22761007171E+04  0.29080420710E+04  0.18099928763E+04 0.  0.
        1    1    3    3  502    0 -0.50513036309E+03 -0.23018055391E+03 -0.10322058330E+02  0.55519934801E+03  0.50400001928E-02 0. -1.
       -1    1    3    3    0  502  0.50513036309E+03  0.23018055391E+03  0.22864227754E+04  0.23528427230E+04  0.50400001928E-02 0.  1.
</event>
<event>
 5   0  0.3575091E-04  0.1809357E+04  0.7818609E-02  0.8701339E-01
       -2   -1    0    0    0  501  0.00000000000E+00  0.00000000000E+00  0.66983123948E+03  0.66983123948E+03  0.25500000920E-02 0.  1.
        2   -1    0    0  501    0  0.00000000000E+00  0.00000000000E+00 -0.12218643871E+04  0.12218643871E+04  0.25500000920E-02 0. -1.
    10030    2    1    2    0    0  0.00000000000E+00  0.00000000000E+00 -0.55203314758E+03  0.18916956265E+04  0.18093567220E+04 0.  0.
        5    1    3    3  502    0 -0.37807903728E+02  0.38529479260E+03  0.57883466059E+03  0.69638579041E+03  0.46999998093E+01 0.  1.
       -5    1    3    3    0  502  0.37807903728E+02 -0.38529479260E+03 -0.11308678082E+04  0.11953098361E+04  0.46999998093E+01 0. -1.
</event>
<event>
 5   0  0.3531266E-04  0.1797895E+04  0.7818609E-02  0.8707420E-01
       -2   -1    0    0    0  501  0.00000000000E+00  0.00000000000E+00  0.16498462793E+04  0.16498462793E+04  0.25500000920E-02 0. -1.
        2   -1    0    0  501    0  0.00000000000E+00  0.00000000000E+00 -0.48980708012E+03  0.48980708013E+03  0.25500000920E-02 0.  1.
    10030    2    1    2    0    0  0.00000000000E+00  0.00000000000E+00  0.11600391992E+04  0.21396533594E+04  0.17978947563E+04 0.  0.
        3    1    3    3  502    0 -0.89734263308E+03  0.47619223931E+02  0.60953251275E+03  0.10858274660E+04  0.10100000352E+00 0.  1.
       -3    1    3    3    0  502  0.89734263308E+03 -0.47619223931E+02  0.55050668643E+03  0.10538258934E+04  0.10100000352E+00 0. -1.
</event>
<event>
 5   0  0.3582186E-04  0.1816004E+04  0.7818609E-02  0.8697835E-01
        2   -1    0    0  501    0  0.00000000000E+00  0.00000000000E+00  0.13723555542E+04  0.13723555542E+04  0.25500000920E-02 0.  1.
       -2   -1    0    0    0  501  0.00000000000E+00  0.00000000000E+00 -0.60076849043E+03  0.60076849044E+03  0.25500000920E-02 0. -1.
    10030    2    1    2    0    0  0.00000000000E+00  0.00000000000E+00  0.77158706381E+03  0.19731240447E+04  0.18160043774E+04 0.  0.
        4    1    3    3  502    0  0.59993700506E+03 -0.22482355725E+03  0.10848877949E+04  0.12599417377E+04  0.12699999809E+01 0.  1.
       -4    1    3    3    0  502 -0.59993700506E+03  0.22482355725E+03 -0.31330073113E+03  0.71318230696E+03  0.12699999809E+01 0. -1.
</event>
<event>
 5   0  0.3531266E-04  0.1809316E+04  0.7818609E-02  0.8701361E-01
       -2   -1    0    0    0  501  0.00000000000E+00  0.00000000000E+00  0.17832656984E+04  0.17832656984E+04  0.25500000920E-02 0.  1.
        2   -1    0    0  501    0  0.00000000000E+00  0.00000000000E+00 -0.45893651477E+03  0.45893651477E+03  0.25500000920E-02 0. -1.
    10030    2    1    2    0    0  0.00000000000E+00  0.00000000000E+00  0.13243291836E+04  0.22422022132E+04  0.18093156104E+04 0.  0.
        3    1    3    3  502    0 -0.81599510337E+03 -0.34366706996E+03  0.89218124867E+03  0.12569576184E+04  0.10100000352E+00 0.  1.
       -3    1    3    3    0  502  0.81599510337E+03  0.34366706996E+03  0.43214793497E+03  0.98524459481E+03  0.10100000352E+00 0. -1.
</event>
<event>
 5   0  0.1883959E-04  0.1949333E+04  0.7818609E-02  0.8630682E-01
        1   -1    0    0  501    0  0.00000000000E+00  0.00000000000E+00  0.75849532984E+03  0.75849532986E+03  0.50400001928E-02 0. -1.
       -1   -1    0    0    0  501  0.00000000000E+00  0.00000000000E+00 -0.12524468489E+04  0.12524468490E+04  0.50400001928E-02 0.  1.
    10030    2    1    2    0    0  0.00000000000E+00  0.00000000000E+00 -0.49395151911E+03  0.20109421788E+04  0.19493333074E+04 0.  0.
        5    1    3    3  502    0 -0.29299271642E+03 -0.30049043180E+03 -0.11544445656E+04  0.12283743633E+04  0.46999998093E+01 0.  1.
       -5    1    3    3    0  502  0.29299271642E+03  0.30049043180E+03  0.66049304645E+03  0.78256781552E+03  0.46999998093E+01 0. -1.
</event>
<event>
 5   0  0.1825253E-04  0.1822054E+04  0.7818609E-02  0.8694658E-01
        1   -1    0    0  501    0  0.00000000000E+00  0.00000000000E+00  0.98927898570E+03  0.98927898571E+03  0.50400001928E-02 0. -1.
       -1   -1    0    0    0  501  0.00000000000E+00  0.00000000000E+00 -0.83896510414E+03  0.83896510416E+03  0.50400001928E-02 0.  1.
    10030    2    1    2    0    0  0.00000000000E+00  0.00000000000E+00  0.15031388156E+03  0.18282440899E+04  0.18220543870E+04 0.  0.
        4    1    3    3  502    0 -0.39077808012E+03  0.22467410260E+03  0.86954267679E+03  0.97943455113E+03  0.12699999809E+01 0. -1.
       -4    1    3    3    0  502  0.39077808012E+03 -0.22467410260E+03 -0.71922879523E+03  0.84880953875E+03  0.12699999809E+01 0.  1.
</event>
<event>
 5   0  0.1883959E-04  0.1837655E+04  0.7818609E-02  0.8686527E-01
        1   -1    0    0  501    0  0.00000000000E+00  0.00000000000E+00  0.74365254369E+03  0.74365254370E+03  0.50400001928E-02 0.  1.
       -1   -1    0    0    0  501  0.00000000000E+00  0.00000000000E+00 -0.11352670552E+04  0.11352670552E+04  0.50400001928E-02 0. -1.
    10030    2    1    2    0    0  0.00000000000E+00  0.00000000000E+00 -0.39161451152E+03  0.18789195989E+04  0.18376552815E+04 0.  0.
        5    1    3    3  502    0  0.69324576046E+01  0.91877839010E+03 -0.20042013782E+03  0.94042124111E+03  0.46999998093E+01 0.  1.
       -5    1    3    3    0  502 -0.69324576046E+01 -0.91877839010E+03 -0.19119437370E+03  0.93849835781E+03  0.46999998093E+01 0. -1.
</event>
<event>
 5   0  0.1825253E-04  0.1780641E+04  0.7818609E-02  0.8716663E-01
        1   -1    0    0  501    0  0.00000000000E+00  0.00000000000E+00  0.87932672450E+03  0.87932672452E+03  0.50400001928E-02 0.  1.
       -1   -1    0    0    0  501  0.00000000000E+00  0.00000000000E+00 -0.90145164663E+03  0.90145164664E+03  0.50400001928E-02 0. -1.
    10030    2    1    2    0    0  0.00000000000E+00  0.00000000000E+00 -0.22124922129E+02  0.17807783712E+04  0.17806409225E+04 0.  0.
        4    1    3    3  502    0 -0.52358375154E+03  0.36571505151E+03 -0.63141790139E+03  0.89809666678E+03  0.12699999809E+01 0. -1.
       -4    1    3    3    0  502  0.52358375154E+03 -0.36571505151E+03  0.60929297927E+03  0.88268170438E+03  0.12699999809E+01 0.  1.
</event>
<event>
 5   0  0.3531266E-04  0.1793386E+04  0.7818609E-02  0.8709825E-01
        2   -1    0    0  501    0  0.00000000000E+00  0.00000000000E+00  0.12414841943E+04  0.12414841943E+04  0.25500000920E-02 0. -1.
       -2   -1    0    0    0  501  0.00000000000E+00  0.00000000000E+00 -0.64765875802E+03  0.64765875803E+03  0.25500000920E-02 0.  1.
    10030    2    1    2    0    0  0.00000000000E+00  0.00000000000E+00  0.59382543623E+03  0.18891429523E+04  0.17933857492E+04 0.  0.
        3    1    3    3  502    0 -0.69663139263E+02  0.11499339056E+03 -0.63698070412E+03  0.65101525363E+03  0.10100000352E+00 0.  1.
       -3    1    3    3    0  502  0.69663139263E+02 -0.11499339056E+03  0.12308061403E+04  0.12381276986E+04  0.10100000352E+00 0. -1.
</event>
<event>
 5   0  0.1818778E-04  0.1792250E+04  0.7818609E-02  0.8710432E-01
        1   -1    0    0  501    0  0.00000000000E+00  0.00000000000E+00  0.15358899683E+04  0.15358899683E+04  0.50400001928E-02 0. -1.
       -1   -1    0    0    0  501  0.00000000000E+00  0.00000000000E+00 -0.52284978219E+03  0.52284978221E+03  0.50400001928E-02 0.  1.
    10030    2    1    2    0    0  0.00000000000E+00  0.00000000000E+00  0.10130401861E+04  0.20587397505E+04  0.17922496873E+04 0.  0.
        3    1    3    3  502    0  0.25050896271E+03 -0.27940702595E+03  0.14412862936E+04  0.14893385165E+04  0.10100000352E+00 0. -1.
       -3    1    3    3    0  502 -0.25050896271E+03  0.27940702595E+03 -0.42824610745E+03  0.56940123401E+03  0.10100000352E+00 0.  1.
</event>
<event>
 5   0  0.3575091E-04  0.1769901E+04  0.7818609E-02  0.8722472E-01
        2   -1    0    0  501    0  0.00000000000E+00  0.00000000000E+00  0.11273010133E+04  0.11273010133E+04  0.25500000920E-02 0. -1.
       -2   -1    0    0    0  501  0.00000000000E+00  0.00000000000E+00 -0.69470086700E+03  0.69470086700E+03  0.25500000920E-02 0.  1.
    10030    2    1    2    0    0  0.00000000000E+00  0.00000000000E+00  0.43260014629E+03  0.18220018803E+04  0.17699005524E+04 0.  0.
        5    1    3    3  502    0 -0.85002269129E+02 -0.55218031176E+03 -0.49018688339E+03  0.74325887355E+03  0.46999998093E+01 0.  1.
       -5    1    3    3    0  502  0.85002269129E+02  0.55218031176E+03  0.92278702968E+03  0.10787430067E+04  0.46999998093E+01 0. -1.
</event>
<event>
 5   0  0.3531266E-04  0.1926957E+04  0.7818609E-02  0.8641553E-01
       -2   -1    0    0    0  501  0.00000000000E+00  0.00000000000E+00  0.59482865035E+03  0.59482865035E+03  0.25500000920E-02 0.  1.
        2   -1    0    0  501    0  0.00000000000E+00  0.00000000000E+00 -0.15606018066E+04  0.15606018066E+04  0.25500000920E-02 0. -1.
    10030    2    1    2    0    0  0.00000000000E+00  0.00000000000E+00 -0.96577315626E+03  0.21554304570E+04  0.19269568406E+04 0.  0.
        3    1    3    3  502    0 -0.32277751582E+02  0.42553431756E+03  0.48334389429E+03  0.64478107836E+03  0.10100000352E+00 0.  1.
       -3    1    3    3    0  502  0.32277751582E+02 -0.42553431756E+03 -0.14491170505E+04  0.15106493786E+04  0.10100000352E+00 0. -1.
</event>
<event>
 5   0  0.1818778E-04  0.1803317E+04  0.7818609E-02  0.8704537E-01
        1   -1    0    0  501    0  0.00000000000E+00  0.00000000000E+00  0.14797996890E+04  0.14797996890E+04  0.50400001928E-02 0.  1.
       -1   -1    0    0    0  501  0.00000000000E+00  0.00000000000E+00 -0.54939069002E+03  0.54939069004E+03  0.50400001928E-02 0. -1.
    10030    2    1    2    0    0  0.00000000000E+00  0.00000000000E+00  0.93040899898E+03  0.20291903790E+04  0.18033171349E+04 0.  0.
        3    1    3    3  502    0 -0.45106196950E+03 -0.27174507680E+03  0.12887844827E+04  0.13922168438E+04  0.10100000352E+00 0.  1.
       -3    1    3    3    0  502  0.45106196950E+03  0.27174507680E+03 -0.35837548371E+03  0.63697353526E+03  0.10100000352E+00 0. -1.
</event>
<event>
 5   0  0.3582186E-04  0.1785053E+04  0.7818609E-02  0.8714289E-01
       -2   -1    0    0    0  501  0.00000000000E+00  0.00000000000E+00  0.61640398430E+03  0.61640398430E+03  0.25500000920E-02 0.  1.
        2   -1    0    0  501    0  0.00000000000E+00  0.00000000000E+00 -0.12923406002E+04  0.12923406002E+04  0.25500000920E-02 0. -1.
    10030    2    1    2    0    0  0.00000000000E+00  0.00000000000E+00 -0.67593661588E+03  0.19087445845E+04  0.17850533830E+04 0.  0.
        4    1    3    3  502    0 -0.16765159466E+03 -0.47047852445E+03  0.45297963239E+03  0.67427684182E+03  0.12699999809E+01 0.  1.
       -4    1    3    3    0  502  0.16765159466E+03  0.47047852445E+03 -0.11289162483E+04  0.12344677427E+04  0.12699999809E+01 0. -1.
</event>
<event>
 5   0  0.3575091E-04  0.1781513E+04  0.7818609E-02  0.8716193E-01
       -2   -1    0    0    0  501  0.00000000000E+00  0.00000000000E+00  0.47942162725E+03  0.47942162726E+03  0.25500000920E-02 0. -1.
        2   -1    0    0  501    0  0.00000000000E+00  0.00000000000E+00 -0.16550083718E+04  0.16550083718E+04  0.25500000920E-02 0.  1.
    10030    2    1    2    0    0  0.00000000000E+00  0.00000000000E+00 -0.11755867445E+04  0.21344299991E+04  0.17815126233E+04 0.  0.
        5    1    3    3  502    0 -0.19566083449E+03  0.41470821222E+02  0.45215572409E+03  0.49443895477E+03  0.46999998093E+01 0. -1.
       -5    1    3    3    0  502  0.19566083449E+03 -0.41470821222E+02 -0.16277424686E+04  0.16399910443E+04  0.46999998093E+01 0.  1.
</event>
<event>
 5   0  0.1835421E-04  0.1781457E+04  0.7818609E-02  0.8716223E-01
        1   -1    0    0  501    0  0.00000000000E+00  0.00000000000E+00  0.78809798956E+03  0.78809798958E+03  0.50400001928E-02 0.  1.
       -1   -1    0    0    0  501  0.00000000000E+00  0.00000000000E+00 -0.10067236774E+04  0.10067236774E+04  0.50400001928E-02 0. -1.
    10030    2    1    2    0    0  0.00000000000E+00  0.00000000000E+00 -0.21862568786E+03  0.17948216670E+04  0.17814566021E+04 0.  0.
        2    1    3    3  502    0 -0.39165961203E+03  0.57810718756E+00  0.69668858745E+03  0.79923249045E+03  0.25500000920E-02 0.  1.
       -2    1    3    3    0  502  0.39165961203E+03 -0.57810718756E+00 -0.91531427531E+03  0.99558917657E+03  0.25500000920E-02 0. -1.
</event>
<event>
 5   0  0.1825253E-04  0.1538239E+04  0.7818609E-02  0.8859415E-01
       -1   -1    0    0    0  501  0.00000000000E+00  0.00000000000E+00  0.42612035593E+03  0.42612035596E+03  0.50400001928E-02 0.  1.
        1   -1    0    0  501    0  0.00000000000E+00  0.00000000000E+00 -0.13882100608E+04  0.13882100608E+04  0.50400001928E-02 0. -1.
    10030    2    1    2    0    0  0.00000000000E+00  0.00000000000E+00 -0.96208970491E+03  0.18143304168E+04  0.15382386879E+04 0.  0.
        4    1    3    3  502    0 -0.27528116235E+03 -0.19315322056E+03  0.33481061965E+03  0.47453940710E+03  0.12699999809E+01 0.  1.
       -4    1    3    3    0  502  0.27528116235E+03  0.19315322056E+03 -0.12969003246E+04  0.13397910097E+04  0.12699999809E+01 0. -1.
</event>
<event>
 5   0  0.1818778E-04  0.1798572E+04  0.7818609E-02  0.8707059E-01
        1   -1    0    0  501    0  0.00000000000E+00  0.00000000000E+00  0.10333120665E+04  0.10333120665E+04  0.50400001928E-02 0. -1.
       -1   -1    0    0    0  501  0.00000000000E+00  0.00000000000E+00 -0.78264415244E+03  0.78264415245E+03  0.50400001928E-02 0.  1.
    10030    2    1    2    0    0  0.00000000000E+00  0.00000000000E+00  0.25066791402E+03  0.18159562189E+04  0.17985723744E+04 0.  0.
        3    1    3    3  502    0 -0.21570733051E+03 -0.83732504507E+03  0.37485156773E+03  0.94242060226E+03  0.10100000352E+00 0. -1.
       -3    1    3    3    0  502  0.21570733051E+03  0.83732504507E+03 -0.12418365370E+03  0.87353561667E+03  0.10100000352E+00 0.  1.
</event>
<event>
 5   0  0.1883959E-04  0.1774168E+04  0.7818609E-02  0.8720158E-01
        1   -1    0    0  501    0  0.00000000000E+00  0.00000000000E+00  0.87894667120E+03  0.87894667122E+03  0.50400001928E-02 0. -1.
       -1   -1    0    0    0  501  0.00000000000E+00  0.00000000000E+00 -0.89529679810E+03  0.89529679811E+03  0.50400001928E-02 0.  1.
    10030    2    1    2    0    0  0.00000000000E+00  0.00000000000E+00 -0.16350126897E+02  0.17742434693E+04  0.17741681323E+04 0.  0.
        5    1    3    3  502    0 -0.32627435405E+03  0.16896214965E+03  0.79925806228E+03  0.87968102301E+03  0.46999998093E+01 0. -1.
       -5    1    3    3    0  502  0.32627435405E+03 -0.16896214965E+03 -0.81560818918E+03  0.89456244632E+03  0.46999998093E+01 0.  1.
</event>
<event>
 5   0  0.3568870E-04  0.1714222E+04  0.7818609E-02  0.8753295E-01
        2   -1    0    0  501    0  0.00000000000E+00  0.00000000000E+00  0.25169415297E+04  0.25169415297E+04  0.25500000920E-02 0.  1.
       -2   -1    0    0    0  501  0.00000000000E+00  0.00000000000E+00 -0.29187760615E+03  0.29187760617E+03  0.25500000920E-02 0. -1.
    10030    2    1    2    0    0  0.00000000000E+00  0.00000000000E+00  0.22250639236E+04  0.28088191359E+04  0.17142215359E+04 0.  0.
        1    1    3    3  502    0 -0.84305431836E+03  0.10122621265E+03  0.13039785497E+04  0.15560679252E+04  0.50400001928E-02 0.  1.
       -1    1    3    3    0  502  0.84305431836E+03 -0.10122621265E+03  0.92108537392E+03  0.12527512107E+04  0.50400001928E-02 0. -1.
</event>
<event>
 5   0  0.1837313E-04  0.1801200E+04  0.7818609E-02  0.8705661E-01
        1   -1    0    0  501    0  0.00000000000E+00  0.00000000000E+00  0.11165616949E+04  0.11165616949E+04  0.50400001928E-02 0. -1.
       -1   -1    0    0    0  501  0.00000000000E+00  0.00000000000E+00 -0.72640911152E+03  0.72640911154E+03  0.50400001928E-02 0.  1.
    10030    2    1    2    0    0  0.00000000000E+00  0.00000000000E+00  0.39015258337E+03  0.18429708064E+04  0.18012002540E+04 0.  0.
        1    1    3    3  502    0 -0.27124148421E+03 -0.54021392548E+03 -0.48799627001E+03  0.77688054912E+03  0.50400001928E-02 0.  1.
       -1    1    3    3    0  502  0.27124148421E+03  0.54021392548E+03  0.87814885338E+03  0.10660902573E+04  0.50400001928E-02 0. -1.
</event>
<event>
 5   0  0.3568870E-04  0.1807490E+04  0.7818609E-02  0.8702326E-01
       -2   -1    0    0    0  501  0.00000000000E+00  0.00000000000E+00  0.93938813824E+03  0.93938813825E+03  0.25500000920E-02 0. -1.
        2   -1    0    0  501    0  0.00000000000E+00  0.00000000000E+00 -0.86945457775E+03  0.86945457775E+03  0.25500000920E-02 0.  1.
    10030    2    1    2    0    0  0.00000000000E+00  0.00000000000E+00  0.69933560494E+02  0.18088427160E+04  0.18074903232E+04 0.  0.
        1    1    3    3  502    0  0.60690679271E+03  0.10761906137E+03  0.69639821419E+03  0.92999365060E+03  0.50400001928E-02 0. -1.
       -1    1    3    3    0  502 -0.60690679271E+03 -0.10761906137E+03 -0.62646465369E+03  0.87884906540E+03  0.50400001928E-02 0.  1.
</event>
<event>
 5   0  0.1818778E-04  0.1796980E+04  0.7818609E-02  0.8707907E-01
        1   -1    0    0  501    0  0.00000000000E+00  0.00000000000E+00  0.69372047459E+03  0.69372047461E+03  0.50400001928E-02 0. -1.
       -1   -1    0    0    0  501  0.00000000000E+00  0.00000000000E+00 -0.11637025071E+04  0.11637025071E+04  0.50400001928E-02 0.  1.
    10030    2    1    2    0    0  0.00000000000E+00  0.00000000000E+00 -0.46998203255E+03  0.18574229818E+04  0.17969799727E+04 0.  0.
        3    1    3    3  502    0 -0.87304821196E+03 -0.69527756082E+01 -0.45431365425E+03  0.98420649669E+03  0.10100000352E+00 0.  1.
       -3    1    3    3    0  502  0.87304821196E+03  0.69527756082E+01 -0.15668378301E+02  0.87321648506E+03  0.10100000352E+00 0. -1.
</event>
<event>
 5   0  0.1835421E-04  0.1418147E+04  0.7818609E-02  0.8940787E-01
       -1   -1    0    0    0  501  0.00000000000E+00  0.00000000000E+00  0.84757091148E+03  0.84757091150E+03  0.50400001928E-02 0.  1.
        1   -1    0    0  501    0  0.00000000000E+00  0.00000000000E+00 -0.59320726688E+03  0.59320726691E+03  0.50400001928E-02 0. -1.
    10030    2    1    2    0    0  0.00000000000E+00  0.00000000000E+00  0.25436364460E+03  0.14407781784E+04  0.14181469937E+04 0.  0.
        2    1    3    3  502    0  0.18137132144E+03 -0.31918769529E+03  0.74350006716E+03  0.82919761875E+03  0.25500000920E-02 0.  1.
       -2    1    3    3    0  502 -0.18137132144E+03  0.31918769529E+03 -0.48913642256E+03  0.61158055966E+03  0.25500000920E-02 0. -1.
</event>
<event>
 5   0  0.1883959E-04  0.1808109E+04  0.7818609E-02  0.8701999E-01
       -1   -1    0    0    0  501  0.00000000000E+00  0.00000000000E+00  0.44405196447E+03  0.44405196450E+03  0.50400001928E-02 0.  1.
        1   -1    0    0  501    0  0.00000000000E+00  0.00000000000E+00 -0.18405829346E+04  0.18405829346E+04  0.50400001928E-02 0. -1.
    10030    2    1    2    0    0  0.00000000000E+00  0.00000000000E+00 -0.13965309701E+04  0.22846348991E+04  0.18081089214E+04 0.  0.
        5    1    3    3  502    0 -0.96031171474E+02  0.99738768806E+02  0.43056054057E+03  0.45229888016E+03  0.46999998093E+01 0.  1.
       -5    1    3    3    0  502  0.96031171474E+02 -0.99738768806E+02 -0.18270915107E+04  0.18323360190E+04  0.46999998093E+01 0. -1.
</event>
<event>
 5   0  0.3575091E-04  0.1822179E+04  0.7818609E-02  0.8694593E-01
       -2   -1    0    0    0  501  0.00000000000E+00  0.00000000000E+00  0.43661572126E+03  0.43661572127E+03  0.25500000920E-02 0.  1.
        2   -1    0    0  501    0  0.00000000000E+00  0.00000000000E+00 -0.19011781365E+04  0.19011781365E+04  0.25500000920E-02 0. -1.
    10030    2    1    2    0    0  0.00000000000E+00  0.00000000000E+00 -0.14645624152E+04  0.23377938578E+04  0.18221792045E+04 0.  0.
        5    1    3    3  502    0 -0.38675778454E+03  0.90561270848E+02 -0.17842188093E+04  0.18279063918E+04  0.46999998093E+01 0. -1.
       -5    1    3    3    0  502  0.38675778454E+03 -0.90561270848E+02  0.31965639408E+03  0.50988746597E+03  0.46999998093E+01 0.  1.
</event>
<event>
 5   0  0.3575091E-04  0.1799627E+04  0.7818609E-02  0.8706498E-01
       -2   -1    0    0    0  501  0.00000000000E+00  0.00000000000E+00  0.73297079757E+03  0.73297079758E+03  0.25500000920E-02 0. -1.
        2   -1    0    0  501    0  0.00000000000E+00  0.00000000000E+00 -0.11046341397E+04  0.11046341397E+04  0.25500000920E-02 0.  1.
    10030    2    1    2    0    0  0.00000000000E+00  0.00000000000E+00 -0.37166334213E+03  0.18376049373E+04  0.17996272574E+04 0.  0.
        5    1    3    3  502    0  0.24562403787E+02 -0.27913280921E+03 -0.10589339435E+04  0.10953910824E+04  0.46999998093E+01 0.  1.
       -5    1    3    3    0  502 -0.24562403787E+02  0.27913280921E+03  0.68727060134E+03  0.74221385484E+03  0.46999998093E+01 0. -1.
</event>
<event>
 5   0  0.3575091E-04  0.1722517E+04  0.7818609E-02  0.8748625E-01
        2   -1    0    0  501    0  0.00000000000E+00  0.00000000000E+00  0.20551093776E+04  0.20551093776E+04  0.25500000920E-02 0. -1.
       -2   -1    0    0    0  501  0.00000000000E+00  0.00000000000E+00 -0.36093774453E+03  0.36093774454E+03  0.25500000920E-02 0.  1.
    10030    2    1    2    0    0  0.00000000000E+00  0.00000000000E+00  0.16941716331E+04  0.24160471222E+04  0.17225173944E+04 0.  0.
        5    1    3    3  502    0 -0.22634241725E+03  0.81341123217E+03  0.60873959122E+03  0.10408913019E+04  0.46999998093E+01 0.  1.
       -5    1    3    3    0  502  0.22634241725E+03 -0.81341123217E+03  0.10854320419E+04  0.13751558203E+04  0.46999998093E+01 0. -1.
</event>
<event>
 5   0  0.1825253E-04  0.1789519E+04  0.7818609E-02  0.8711893E-01
       -1   -1    0    0    0  501  0.00000000000E+00  0.00000000000E+00  0.68986843884E+03  0.68986843886E+03  0.50400001928E-02 0.  1.
        1   -1    0    0  501    0  0.00000000000E+00  0.00000000000E+00 -0.11605036327E+04  0.11605036327E+04  0.50400001928E-02 0. -1.
    10030    2    1    2    0    0  0.00000000000E+00  0.00000000000E+00 -0.47063519381E+03  0.18503720715E+04  0.17895192979E+04 0.  0.
        4    1    3    3  502    0  0.40686877268E+03 -0.18249950305E+03 -0.10374183160E+04  0.11291973442E+04  0.12699999809E+01 0. -1.
       -4    1    3    3    0  502 -0.40686877268E+03  0.18249950305E+03  0.56678312223E+03  0.72117472733E+03  0.12699999809E+01 0.  1.
</event>
<event>
 5   0  0.3628581E-04  0.1801904E+04  0.7818609E-02  0.8705288E-01
       -2   -1    0    0    0  501  0.00000000000E+00  0.00000000000E+00  0.46128541220E+03  0.46128541221E+03  0.25500000920E-02 0. -1.
        2   -1    0    0  501    0  0.00000000000E+00  0.00000000000E+00 -0.17596788276E+04  0.17596788276E+04  0.25500000920E-02 0.  1.
    10030    2    1    2    0    0  0.00000000000E+00  0.00000000000E+00 -0.12983934154E+04  0.22209642399E+04  0.18019036305E+04 0.  0.
        2    1    3    3  502    0  0.22894931146E+03 -0.56505933364E+03  0.16839877556E+03  0.63250927690E+03  0.25500000920E-02 0. -1.
       -2    1    3    3    0  502 -0.22894931146E+03  0.56505933364E+03 -0.14667921910E+04  0.15884549630E+04  0.25500000920E-02 0.  1.
</event>
<event>
 5   0  0.3531266E-04  0.1790214E+04  0.7818609E-02  0.8711521E-01
       -2   -1    0    0    0  501  0.00000000000E+00  0.00000000000E+00  0.60253963076E+03  0.60253963077E+03  0.25500000920E-02 0.  1.
        2   -1    0    0  501    0  0.00000000000E+00  0.00000000000E+00 -0.13297327878E+04  0.13297327878E+04  0.25500000920E-02 0. -1.
    10030    2    1    2    0    0  0.00000000000E+00  0.00000000000E+00 -0.72719315701E+03  0.19322724185E+04  0.17902141804E+04 0.  0.
        3    1    3    3  502    0  0.73634321677E+03 -0.43400009254E+03 -0.65050808403E+03  0.10741127458E+04  0.10100000352E+00 0. -1.
       -3    1    3    3    0  502 -0.73634321677E+03  0.43400009254E+03 -0.76685072983E+02  0.85815967269E+03  0.10100000352E+00 0.  1.
</event>
<event>
 5   0  0.1837313E-04  0.1796392E+04  0.7818609E-02  0.8708221E-01
        1   -1    0    0  501    0  0.00000000000E+00  0.00000000000E+00  0.22797971244E+04  0.22797971244E+04  0.50400001928E-02 0. -1.
       -1   -1    0    0    0  501  0.00000000000E+00  0.00000000000E+00 -0.35387183060E+03  0.35387183064E+03  0.50400001928E-02 0.  1.
    10030    2    1    2    0    0  0.00000000000E+00  0.00000000000E+00  0.19259252938E+04  0.26336689551E+04  0.17963919192E+04 0.  0.
        1    1    3    3  502    0  0.15286741972E+03  0.35788954338E+03  0.21497722179E+04  0.21847137026E+04  0.50400001928E-02 0. -1.
       -1    1    3    3    0  502 -0.15286741972E+03 -0.35788954338E+03 -0.22384692411E+03  0.44895525248E+03  0.50400001928E-02 0.  1.
</event>
<event>
 5   0  0.3531266E-04  0.1813559E+04  0.7818609E-02  0.8699122E-01
       -2   -1    0    0    0  501  0.00000000000E+00  0.00000000000E+00  0.87672956954E+03  0.87672956955E+03  0.25500000920E-02 0. -1.
        2   -1    0    0  501    0  0.00000000000E+00  0.00000000000E+00 -0.93785900840E+03  0.93785900840E+03  0.25500000920E-02 0.  1.
    10030    2    1    2    0    0  0.00000000000E+00  0.00000000000E+00 -0.61129438854E+02  0.18145885779E+04  0.18135586285E+04 0.  0.
        3    1    3    3  502    0 -0.32796290030E+03  0.15539262556E+03  0.80089589028E+03  0.87928423693E+03  0.10100000352E+00 0. -1.
       -3    1    3    3    0  502  0.32796290030E+03 -0.15539262556E+03 -0.86202532913E+03  0.93530434101E+03  0.10100000352E+00 0.  1.
</event>
<event>
 5   0  0.1825253E-04  0.1545134E+04  0.7818609E-02  0.8854982E-01
        1   -1    0    0  501    0  0.00000000000E+00  0.00000000000E+00  0.13464093376E+04  0.13464093376E+04  0.50400001928E-02 0.  1.
       -1   -1    0    0    0  501  0.00000000000E+00  0.00000000000E+00 -0.44329740902E+03  0.44329740904E+03  0.50400001928E-02 0. -1.
    10030    2    1    2    0    0  0.00000000000E+00  0.00000000000E+00  0.90311192858E+03  0.17897067467E+04  0.15451340018E+04 0.  0.
        4    1    3    3  502    0 -0.23222476864E+03  0.26381810849E+03  0.12484446467E+04  0.12969749366E+04  0.12699999809E+01 0.  1.
       -4    1    3    3    0  502  0.23222476864E+03 -0.26381810849E+03 -0.34533271808E+03  0.49273181003E+03  0.12699999809E+01 0. -1.
</event>
<event>
 5   0  0.3575091E-04  0.1794802E+04  0.7818609E-02  0.8709068E-01
       -2   -1    0    0    0  501  0.00000000000E+00  0.00000000000E+00  0.47149272843E+03  0.47149272843E+03  0.25500000920E-02 0. -1.
        2   -1    0    0  501    0  0.00000000000E+00  0.00000000000E+00 -0.17080406016E+04  0.17080406016E+04  0.25500000920E-02 0.  1.
    10030    2    1    2    0    0  0.00000000000E+00  0.00000000000E+00 -0.12365478732E+04  0.21795333301E+04  0.17948021880E+04 0.  0.
        5    1    3    3  502    0 -0.88066173000E+03  0.57037124628E+02 -0.42063427158E+03  0.97763674067E+03  0.46999998093E+01 0.  1.
       -5    1    3    3    0  502  0.88066173000E+03 -0.57037124628E+02 -0.81591360162E+03  0.12018965894E+04  0.46999998093E+01 0. -1.
</event>
<event>
 5   0  0.1818778E-04  0.1786713E+04  0.7818609E-02  0.8713397E-01
        1   -1    0    0  501    0  0.00000000000E+00  0.00000000000E+00  0.88721573541E+03  0.88721573542E+03  0.50400001928E-02 0.  1.
       -1   -1    0    0    0  501  0.00000000000E+00  0.00000000000E+00 -0.89953965344E+03  0.89953965345E+03  0.50400001928E-02 0. -1.
    10030    2    1    2    0    0  0.00000000000E+00  0.00000000000E+00 -0.12323918029E+02  0.17867553889E+04  0.17867128870E+04 0.  0.
        3    1    3    3  502    0 -0.50226972176E+03  0.63457134226E+01  0.73261848814E+03  0.88828205027E+03  0.10100000352E+00 0.  1.
       -3    1    3    3    0  502  0.50226972176E+03 -0.63457134226E+01 -0.74494240617E+03  0.89847333860E+03  0.10100000352E+00 0. -1.
</event>
<event>
 5   0  0.3628581E-04  0.1816678E+04  0.7818609E-02  0.8697480E-01
       -2   -1    0    0    0  501  0.00000000000E+00  0.00000000000E+00  0.13828085948E+04  0.13828085948E+04  0.25500000920E-02 0. -1.
        2   -1    0    0  501    0  0.00000000000E+00  0.00000000000E+00 -0.59666969128E+03  0.59666969129E+03  0.25500000920E-02 0.  1.
    10030    2    1    2    0    0  0.00000000000E+00  0.00000000000E+00  0.78613890350E+03  0.19794782861E+04  0.18166782625E+04 0.  0.
        2    1    3    3  502    0  0.57937327874E+03 -0.12078597027E+03  0.11438897472E+04  0.12879232898E+04  0.25500000920E-02 0. -1.
       -2    1    3    3    0  502 -0.57937327874E+03  0.12078597027E+03 -0.35775084366E+03  0.69155499628E+03  0.25500000920E-02 0.  1.
</event>
<event>
 5   0  0.1883959E-04  0.1723405E+04  0.7818609E-02  0.8748127E-01
       -1   -1    0    0    0  501  0.00000000000E+00  0.00000000000E+00  0.62633216652E+03  0.62633216654E+03  0.50400001928E-02 0.  1.
        1   -1    0    0  501    0  0.00000000000E+00  0.00000000000E+00 -0.11855235461E+04  0.11855235461E+04  0.50400001928E-02 0. -1.
    10030    2    1    2    0    0  0.00000000000E+00  0.00000000000E+00 -0.55919137959E+03  0.18118557127E+04  0.17234053860E+04 0.  0.
        5    1    3    3  502    0 -0.51161037739E+03  0.59301336460E+03 -0.65734031736E+03  0.10225108369E+04  0.46999998093E+01 0. -1.
       -5    1    3    3    0  502  0.51161037739E+03 -0.59301336460E+03  0.98148937771E+02  0.78934487572E+03  0.46999998093E+01 0.  1.
</event>
<event>
 5   0  0.1835421E-04  0.1791340E+04  0.7818609E-02  0.8710919E-01
       -1   -1    0    0    0  501  0.00000000000E+00  0.00000000000E+00  0.87134260274E+03  0.87134260275E+03  0.50400001928E-02 0.  1.
        1   -1    0    0  501    0  0.00000000000E+00  0.00000000000E+00 -0.92067609450E+03  0.92067609452E+03  0.50400001928E-02 0. -1.
    10030    2    1    2    0    0  0.00000000000E+00  0.00000000000E+00 -0.49333491767E+02  0.17920186973E+04  0.17913395038E+04 0.  0.
        2    1    3    3  502    0  0.43917582197E+03 -0.54218107487E+03 -0.58647435612E+03  0.91147566668E+03  0.25500000920E-02 0. -1.
       -2    1    3    3    0  502 -0.43917582197E+03  0.54218107487E+03  0.53714086435E+03  0.88054303059E+03  0.25500000920E-02 0.  1.
</event>
<event>
 5   0  0.1883959E-04  0.1679368E+04  0.7818609E-02  0.8773220E-01
       -1   -1    0    0    0  501  0.00000000000E+00  0.00000000000E+00  0.92309675109E+03  0.92309675110E+03  0.50400001928E-02 0.  1.
        1   -1    0    0  501    0  0.00000000000E+00  0.00000000000E+00 -0.76380879558E+03  0.76380879560E+03  0.50400001928E-02 0. -1.
    10030    2    1    2    0    0  0.00000000000E+00  0.00000000000E+00  0.15928795550E+03  0.16869055467E+04  0.16793682356E+04 0.  0.
        5    1    3    3  502    0  0.44631564509E+03  0.44873374607E+03  0.63392461426E+03  0.89579134651E+03  0.46999998093E+01 0.  1.
       -5    1    3    3    0  502 -0.44631564509E+03 -0.44873374607E+03 -0.47463665875E+03  0.79111420019E+03  0.46999998093E+01 0. -1.
</event>
<event>
 5   0  0.3531266E-04  0.1782254E+04  0.7818609E-02  0.8715794E-01
       -2   -1    0    0    0  501  0.00000000000E+00  0.00000000000E+00  0.78122219864E+03  0.78122219865E+03  0.25500000920E-02 0.  1.
        2   -1    0    0  501    0  0.00000000000E+00  0.00000000000E+00 -0.10164936123E+04  0.10164936123E+04  0.25500000920E-02 0. -1.
    10030    2    1    2    0    0  0.00000000000E+00  0.00000000000E+00 -0.23527141363E+03  0.17977158109E+04  0.17822540500E+04 0.  0.
        3    1    3    3  502    0 -0.85363487052E+01 -0.43594820333E+03 -0.90154176769E+03  0.10014495865E+04  0.10100000352E+00 0. -1.
       -3    1    3    3    0  502  0.85363487052E+01  0.43594820333E+03  0.66627035406E+03  0.79626622441E+03  0.10100000352E+00 0.  1.
</event>
<event>
 5   0  0.1883959E-04  0.1811522E+04  0.7818609E-02  0.8700196E-01
        1   -1    0    0  501    0  0.00000000000E+00  0.00000000000E+00  0.58397416405E+03  0.58397416407E+03  0.50400001928E-02 0. -1.
       -1   -1    0    0    0  501  0.00000000000E+00  0.00000000000E+00 -0.14048616002E+04  0.14048616002E+04  0.50400001928E-02 0.  1.
    10030    2    1    2    0    0  0.00000000000E+00  0.00000000000E+00 -0.82088743616E+03  0.19888357643E+04  0.18115218780E+04 0.  0.
        5    1    3    3  502    0  0.70492241365E+03 -0.55847992860E+03 -0.29237503932E+03  0.94568530365E+03  0.46999998093E+01 0.  1.
       -5    1    3    3    0  502 -0.70492241365E+03  0.55847992860E+03 -0.52851239685E+03  0.10431504606E+04  0.46999998093E+01 0. -1.
</event>
<event>
 5   0  0.3568870E-04  0.1779018E+04  0.7818609E-02  0.8717538E-01
       -2   -1    0    0    0  501  0.00000000000E+00  0.00000000000E+00  0.97994856335E+03  0.97994856335E+03  0.25500000920E-02 0.  1.
        2   -1    0    0  501    0  0.00000000000E+00  0.00000000000E+00 -0.80741635760E+03  0.80741635760E+03  0.25500000920E-02 0. -1.
    10030    2    1    2    0    0  0.00000000000E+00  0.00000000000E+00  0.17253220575E+03  0.17873649210E+04  0.17790182682E+04 0.  0.
        1    1    3    3  502    0  0.43877568370E+03 -0.50155350748E+03 -0.50568959366E+03  0.83654168254E+03  0.50400001928E-02 0. -1.
       -1    1    3    3    0  502 -0.43877568370E+03  0.50155350748E+03  0.67822179941E+03  0.95082323841E+03  0.50400001928E-02 0.  1.
</event>
<event>
 5   0  0.3575091E-04  0.1906256E+04  0.7818609E-02  0.8651748E-01
       -2   -1    0    0    0  501  0.00000000000E+00  0.00000000000E+00  0.68346181850E+03  0.68346181851E+03  0.25500000920E-02 0.  1.
        2   -1    0    0  501    0  0.00000000000E+00  0.00000000000E+00 -0.13291940245E+04  0.13291940245E+04  0.25500000920E-02 0. -1.
    10030    2    1    2    0    0  0.00000000000E+00  0.00000000000E+00 -0.64573220595E+03  0.20126558430E+04  0.19062563994E+04 0.  0.
        5    1    3    3  502    0 -0.60484382674E+03 -0.66294373434E+03 -0.66188138447E+03  0.11150961872E+04  0.46999998093E+01 0.  1.
       -5    1    3    3    0  502  0.60484382674E+03  0.66294373434E+03  0.16149178521E+02  0.89755965574E+03  0.46999998093E+01 0. -1.
</event>
<event>
 5   0  0.3575091E-04  0.1799024E+04  0.7818609E-02  0.8706819E-01
        2   -1    0    0  501    0  0.00000000000E+00  0.00000000000E+00  0.18328925904E+04  0.18328925904E+04  0.25500000920E-02 0.  1.
       -2   -1    0    0    0  501  0.00000000000E+00  0.00000000000E+00 -0.44144525108E+03  0.44144525109E+03  0.25500000920E-02 0. -1.
    10030    2    1    2    0    0  0.00000000000E+00  0.00000000000E+00  0.13914473393E+04  0.22743378415E+04  0.17990238795E+04 0.  0.
        5    1    3    3  502    0  0.36135322584E+03  0.11451088048E+03  0.17269712769E+04  0.17680895839E+04  0.46999998093E+01 0.  1.
       -5    1    3    3    0  502 -0.36135322584E+03 -0.11451088048E+03 -0.33552393759E+03  0.50624825755E+03  0.46999998093E+01 0. -1.
</event>
<event>
 5   0  0.1818778E-04  0.1774554E+04  0.7818609E-02  0.8719949E-01
       -1   -1    0    0    0  501  0.00000000000E+00  0.00000000000E+00  0.86334879536E+03  0.86334879538E+03  0.50400001928E-02 0. -1.
        1   -1    0    0  501    0  0.00000000000E+00  0.00000000000E+00 -0.91186886918E+03  0.91186886920E+03  0.50400001928E-02 0.  1.
    10030    2    1    2    0    0  0.00000000000E+00  0.00000000000E+00 -0.48520073823E+02  0.17752176646E+04  0.17745544678E+04 0.  0.
        3    1    3    3  502    0  0.28794393221E+03 -0.39018950415E+03  0.71905286386E+03  0.86729267752E+03  0.10100000352E+00 0. -1.
       -3    1    3    3    0  502 -0.28794393221E+03  0.39018950415E+03 -0.76757293769E+03  0.90792498705E+03  0.10100000352E+00 0.  1.
</event>
<event>
 5   0  0.1883959E-04  0.1803093E+04  0.7818609E-02  0.8704656E-01
       -1   -1    0    0    0  501  0.00000000000E+00  0.00000000000E+00  0.33489370615E+03  0.33489370619E+03  0.50400001928E-02 0. -1.
        1   -1    0    0  501    0  0.00000000000E+00  0.00000000000E+00 -0.24269979388E+04  0.24269979388E+04  0.50400001928E-02 0.  1.
    10030    2    1    2    0    0  0.00000000000E+00  0.00000000000E+00 -0.20921042326E+04  0.27618916450E+04  0.18030932695E+04 0.  0.
        5    1    3    3  502    0  0.53976153868E+03  0.41537892111E+02 -0.21502915919E+04  0.22173957553E+04  0.46999998093E+01 0.  1.
       -5    1    3    3    0  502 -0.53976153868E+03 -0.41537892111E+02  0.58187359309E+02  0.54449588970E+03  0.46999998093E+01 0. -1.
</event>
<event>
 5   0  0.3575091E-04  0.1841686E+04  0.7818609E-02  0.8684440E-01
        2   -1    0    0  501    0  0.00000000000E+00  0.00000000000E+00  0.14098475266E+04  0.14098475266E+04  0.25500000920E-02 0. -1.
       -2   -1    0    0    0  501  0.00000000000E+00  0.00000000000E+00 -0.60144950097E+03  0.60144950097E+03  0.25500000920E-02 0.  1.
    10030    2    1    2    0    0  0.00000000000E+00  0.00000000000E+00  0.80839802565E+03  0.20112970276E+04  0.18416862831E+04 0.  0.
        5    1    3    3  502    0 -0.65614650989E+03  0.21114793373E+03 -0.26262184276E+03  0.73763406555E+03  0.46999998093E+01 0.  1.
       -5    1    3    3    0  502  0.65614650989E+03 -0.21114793373E+03  0.10710198684E+04  0.12736629620E+04  0.46999998093E+01 0. -1.
</event>
<event>
 5   0  0.1835421E-04  0.1416703E+04  0.7818609E-02  0.8941816E-01
        1   -1    0    0  501    0  0.00000000000E+00  0.00000000000E+00  0.94967131850E+03  0.94967131852E+03  0.50400001928E-02 0. -1.
       -1   -1    0    0    0  501  0.00000000000E+00  0.00000000000E+00 -0.52835333811E+03  0.52835333813E+03  0.50400001928E-02 0.  1.
    10030    2    1    2    0    0  0.00000000000E+00  0.00000000000E+00  0.42131798040E+03  0.14780246566E+04  0.14167032311E+04 0.  0.
        2    1    3    3  502    0 -0.16729316798E+03 -0.98735262042E+02  0.92133903096E+03  0.94159506477E+03  0.25500000920E-02 0. -1.
       -2    1    3    3    0  502  0.16729316798E+03  0.98735262042E+02 -0.50002105056E+03  0.53642959187E+03  0.25500000920E-02 0.  1.
</event>
<event>
 5   0  0.3568870E-04  0.1798916E+04  0.7818609E-02  0.8706876E-01
        2   -1    0    0  501    0  0.00000000000E+00  0.00000000000E+00  0.13376343327E+04  0.13376343327E+04  0.25500000920E-02 0.  1.
       -2   -1    0    0    0  501  0.00000000000E+00  0.00000000000E+00 -0.60481736285E+03  0.60481736286E+03  0.25500000920E-02 0. -1.
    10030    2    1    2    0    0  0.00000000000E+00  0.00000000000E+00  0.73281696984E+03  0.19424516955E+04  0.17989157507E+04 0.  0.
        1    1    3    3  502    0  0.75362957004E+02 -0.57478575986E+03 -0.37619069846E+03  0.69106995787E+03  0.50400001928E-02 0. -1.
       -1    1    3    3    0  502 -0.75362957004E+02  0.57478575986E+03  0.11090076683E+04  0.12513817377E+04  0.50400001928E-02 0.  1.
</event>
<event>
 5   0  0.1883959E-04  0.1833860E+04  0.7818609E-02  0.8688498E-01
       -1   -1    0    0    0  501  0.00000000000E+00  0.00000000000E+00  0.46849839618E+03  0.46849839621E+03  0.50400001928E-02 0.  1.
        1   -1    0    0  501    0  0.00000000000E+00  0.00000000000E+00 -0.17945851009E+04  0.17945851009E+04  0.50400001928E-02 0. -1.
    10030    2    1    2    0    0  0.00000000000E+00  0.00000000000E+00 -0.13260867047E+04  0.22630834971E+04  0.18338595820E+04 0.  0.
        5    1    3    3  502    0  0.38949633891E+03  0.31519982601E+03 -0.16106817132E+04  0.16868242349E+04  0.46999998093E+01 0. -1.
       -5    1    3    3    0  502 -0.38949633891E+03 -0.31519982601E+03  0.28459500851E+03  0.57625926215E+03  0.46999998093E+01 0.  1.
</event>
<event>
 5   0  0.1837313E-04  0.1779096E+04  0.7818609E-02  0.8717496E-01
       -1   -1    0    0    0  501  0.00000000000E+00  0.00000000000E+00  0.10558712273E+04  0.10558712273E+04  0.50400001928E-02 0.  1.
        1   -1    0    0  501    0  0.00000000000E+00  0.00000000000E+00 -0.74942413456E+03  0.74942413458E+03  0.50400001928E-02 0. -1.
    10030    2    1    2    0    0  0.00000000000E+00  0.00000000000E+00  0.30644709276E+03  0.18052953619E+04  0.17790957037E+04 0.  0.
        1    1    3    3  502    0 -0.31834772268E+03 -0.69389611556E+03 -0.31007244219E+03  0.82400364753E+03  0.50400001928E-02 0.  1.
       -1    1    3    3    0  502  0.31834772268E+03  0.69389611556E+03  0.61651953494E+03  0.98129171438E+03  0.50400001928E-02 0. -1.
</event>
<event>
 5   0  0.1837313E-04  0.1812674E+04  0.7818609E-02  0.8699589E-01
        1   -1    0    0  501    0  0.00000000000E+00  0.00000000000E+00  0.75429529085E+03  0.75429529086E+03  0.50400001928E-02 0. -1.
       -1   -1    0    0    0  501  0.00000000000E+00  0.00000000000E+00 -0.10890252239E+04  0.10890252239E+04  0.50400001928E-02 0.  1.
    10030    2    1    2    0    0  0.00000000000E+00  0.00000000000E+00 -0.33472993306E+03  0.18433205148E+04  0.18126738240E+04 0.  0.
        1    1    3    3  502    0  0.88082532596E+03 -0.12585907141E+03 -0.34277134696E+03  0.95351243150E+03  0.50400001928E-02 0.  1.
       -1    1    3    3    0  502 -0.88082532596E+03  0.12585907141E+03  0.80414139032E+01  0.88980808328E+03  0.50400001928E-02 0. -1.
</event>
<event>
 5   0  0.1825253E-04  0.1798208E+04  0.7818609E-02  0.8707253E-01
       -1   -1    0    0    0  501  0.00000000000E+00  0.00000000000E+00  0.14505808420E+04  0.14505808420E+04  0.50400001928E-02 0. -1.
        1   -1    0    0  501    0  0.00000000000E+00  0.00000000000E+00 -0.55728553646E+03  0.55728553648E+03  0.50400001928E-02 0.  1.
    10030    2    1    2    0    0  0.00000000000E+00  0.00000000000E+00  0.89329530556E+03  0.20078663785E+04  0.17982076885E+04 0.  0.
        4    1    3    3  502    0 -0.43733248063E+03  0.19410344766E+03  0.12966165608E+04  0.13820824742E+04  0.12699999809E+01 0. -1.
       -4    1    3    3    0  502  0.43733248063E+03 -0.19410344766E+03 -0.40332125523E+03  0.62578390426E+03  0.12699999809E+01 0.  1.
</event>
<event>
 5   0  0.3582186E-04  0.1804265E+04  0.7818609E-02  0.8704035E-01
        2   -1    0    0  501    0  0.00000000000E+00  0.00000000000E+00  0.75232954028E+03  0.75232954028E+03  0.25500000920E-02 0.  1.
       -2   -1    0    0    0  501  0.00000000000E+00  0.00000000000E+00 -0.10817643312E+04  0.10817643312E+04  0.25500000920E-02 0. -1.
    10030    2    1    2    0    0  0.00000000000E+00  0.00000000000E+00 -0.32943479094E+03  0.18340938715E+04  0.18042652377E+04 0.  0.
        4    1    3    3  502    0 -0.35524979565E+03 -0.42402099782E+03  0.55969679692E+03  0.78692969272E+03  0.12699999809E+01 0.  1.
       -4    1    3    3    0  502  0.35524979565E+03  0.42402099782E+03 -0.88913158786E+03  0.10471641788E+04  0.12699999809E+01 0. -1.
</event>
<event>
 5   0  0.3568870E-04  0.1792642E+04  0.7818609E-02  0.8710222E-01
       -2   -1    0    0    0  501  0.00000000000E+00  0.00000000000E+00  0.82419540408E+03  0.82419540408E+03  0.25500000920E-02 0.  1.
        2   -1    0    0  501    0  0.00000000000E+00  0.00000000000E+00 -0.97475812868E+03  0.97475812868E+03  0.25500000920E-02 0. -1.
    10030    2    1    2    0    0  0.00000000000E+00  0.00000000000E+00 -0.15056272460E+03  0.17989535328E+04  0.17926418156E+04 0.  0.
        1    1    3    3  502    0 -0.37539534706E+03  0.43411593827E+03  0.61562864461E+03  0.84165131887E+03  0.50400001928E-02 0.  1.
       -1    1    3    3    0  502  0.37539534706E+03 -0.43411593827E+03 -0.76619136921E+03  0.95730221390E+03  0.50400001928E-02 0. -1.
</event>
<event>
 5   0  0.1825253E-04  0.1801349E+04  0.7818609E-02  0.8705582E-01
       -1   -1    0    0    0  501  0.00000000000E+00  0.00000000000E+00  0.76192192520E+03  0.76192192522E+03  0.50400001928E-02 0.  1.
        1   -1    0    0  501    0  0.00000000000E+00  0.00000000000E+00 -0.10646954707E+04  0.10646954707E+04  0.50400001928E-02 0. -1.
    10030    2    1    2    0    0  0.00000000000E+00  0.00000000000E+00 -0.30277354549E+03  0.18266173959E+04  0.18013492974E+04 0.  0.
        4    1    3    3  502    0 -0.61663761520E+03 -0.53261083591E+03  0.23778967092E+03  0.84880020706E+03  0.12699999809E+01 0. -1.
       -4    1    3    3    0  502  0.61663761520E+03  0.53261083591E+03 -0.54056321641E+03  0.97781718886E+03  0.12699999809E+01 0.  1.
</event>
<event>
 5   0  0.3575091E-04  0.1825245E+04  0.7818609E-02  0.8692989E-01
        2   -1    0    0  501    0  0.00000000000E+00  0.00000000000E+00  0.21312814838E+04  0.21312814838E+04  0.25500000920E-02 0.  1.
       -2   -1    0    0    0  501  0.00000000000E+00  0.00000000000E+00 -0.39078816683E+03  0.39078816684E+03  0.25500000920E-02 0. -1.
    10030    2    1    2    0    0  0.00000000000E+00  0.00000000000E+00  0.17404933169E+04  0.25220696506E+04  0.18252447332E+04 0.  0.
        5    1    3    3  502    0 -0.51061266809E+03  0.60577311140E+02  0.19120528054E+04  0.19799906384E+04  0.46999998093E+01 0.  1.
       -5    1    3    3    0  502  0.51061266809E+03 -0.60577311140E+02 -0.17155948844E+03  0.54207901224E+03  0.46999998093E+01 0. -1.
</event>
<event>
 5   0  0.3531266E-04  0.1816692E+04  0.7818609E-02  0.8697473E-01
        2   -1    0    0  501    0  0.00000000000E+00  0.00000000000E+00  0.53892095155E+03  0.53892095155E+03  0.25500000920E-02 0.  1.
       -2   -1    0    0    0  501  0.00000000000E+00  0.00000000000E+00 -0.15310074954E+04  0.15310074954E+04  0.25500000920E-02 0. -1.
    10030    2    1    2    0    0  0.00000000000E+00  0.00000000000E+00 -0.99208654384E+03  0.20699284469E+04  0.18166915162E+04 0.  0.
        3    1    3    3  502    0  0.16914216549E+03 -0.44437122418E+02 -0.15116448282E+04  0.15217272511E+04  0.10100000352E+00 0. -1.
       -3    1    3    3    0  502 -0.16914216549E+03  0.44437122418E+02  0.51955828438E+03  0.54820119579E+03  0.10100000352E+00 0.  1.
</event>
<event>
 5   0  0.3582186E-04  0.1798438E+04  0.7818609E-02  0.8707130E-01
        2   -1    0    0  501    0  0.00000000000E+00  0.00000000000E+00  0.73796557193E+03  0.73796557194E+03  0.25500000920E-02 0.  1.
       -2   -1    0    0    0  501  0.00000000000E+00  0.00000000000E+00 -0.10957085273E+04  0.10957085273E+04  0.25500000920E-02 0. -1.
    10030    2    1    2    0    0  0.00000000000E+00  0.00000000000E+00 -0.35774295535E+03  0.18336740992E+04  0.17984384004E+04 0.  0.
        4    1    3    3  502    0  0.20647466100E+03  0.81569387282E+03 -0.50226920592E+03  0.97993073628E+03  0.12699999809E+01 0. -1.
       -4    1    3    3    0  502 -0.20647466100E+03 -0.81569387282E+03  0.14452625056E+03  0.85374336295E+03  0.12699999809E+01 0.  1.
</event>
<event>
 5   0  0.3628581E-04  0.1857322E+04  0.7818609E-02  0.8676397E-01
        2   -1    0    0  501    0  0.00000000000E+00  0.00000000000E+00  0.14789120009E+04  0.14789120009E+04  0.25500000920E-02 0. -1.
       -2   -1    0    0    0  501  0.00000000000E+00  0.00000000000E+00 -0.58313868148E+03  0.58313868148E+03  0.25500000920E-02 0.  1.
    10030    2    1    2    0    0  0.00000000000E+00  0.00000000000E+00  0.89577331946E+03  0.20620506824E+04  0.18573215061E+04 0.  0.
        2    1    3    3  502    0 -0.50542514930E+03  0.54231144983E+03 -0.17310169190E+03  0.76126242906E+03  0.25500000920E-02 0.  1.
       -2    1    3    3    0  502  0.50542514930E+03 -0.54231144983E+03  0.10688750114E+04  0.13007882534E+04  0.25500000920E-02 0. -1.
</event>
<event>
 5   0  0.3628581E-04  0.1786706E+04  0.7818609E-02  0.8713401E-01
       -2   -1    0    0    0  501  0.00000000000E+00  0.00000000000E+00  0.92247450149E+03  0.92247450149E+03  0.25500000920E-02 0.  1.
        2   -1    0    0  501    0  0.00000000000E+00  0.00000000000E+00 -0.86515100919E+03  0.86515100920E+03  0.25500000920E-02 0. -1.
    10030    2    1    2    0    0  0.00000000000E+00  0.00000000000E+00  0.57323492292E+02  0.17876255107E+04  0.17867061828E+04 0.  0.
        2    1    3    3  502    0 -0.74904698044E+03 -0.48502509853E+03 -0.13300515859E+02  0.89246715841E+03  0.25500000920E-02 0. -1.
       -2    1    3    3    0  502  0.74904698044E+03  0.48502509853E+03  0.70624008151E+02  0.89515835228E+03  0.25500000920E-02 0.  1.
</event>
<event>
 5   0  0.3628581E-04  0.1813908E+04  0.7818609E-02  0.8698938E-01
       -2   -1    0    0    0  501  0.00000000000E+00  0.00000000000E+00  0.63579024555E+03  0.63579024555E+03  0.25500000920E-02 0. -1.
        2   -1    0    0  501    0  0.00000000000E+00  0.00000000000E+00 -0.12937694332E+04  0.12937694332E+04  0.25500000920E-02 0.  1.
    10030    2    1    2    0    0  0.00000000000E+00  0.00000000000E+00 -0.65797918769E+03  0.19295596788E+04  0.18139084714E+04 0.  0.
        2    1    3    3  502    0 -0.40492514054E+03 -0.57252202314E+03  0.28285175377E+03  0.75614215002E+03  0.25500000920E-02 0. -1.
       -2    1    3    3    0  502  0.40492514054E+03  0.57252202314E+03 -0.94083094147E+03  0.11734175288E+04  0.25500000920E-02 0.  1.
</event>
<event>
 5   0  0.3531266E-04  0.1801086E+04  0.7818609E-02  0.8705722E-01
        2   -1    0    0  501    0  0.00000000000E+00  0.00000000000E+00  0.91809025331E+03  0.91809025332E+03  0.25500000920E-02 0. -1.
       -2   -1    0    0    0  501  0.00000000000E+00  0.00000000000E+00 -0.88333134893E+03  0.88333134894E+03  0.25500000920E-02 0.  1.
    10030    2    1    2    0    0  0.00000000000E+00  0.00000000000E+00  0.34758904380E+02  0.18014216023E+04  0.18010862299E+04 0.  0.
        3    1    3    3  502    0  0.33821729611E+02  0.54678240135E+03 -0.69750043750E+03  0.88691700533E+03  0.10100000352E+00 0.  1.
       -3    1    3    3    0  502 -0.33821729611E+02 -0.54678240135E+03  0.73225934188E+03  0.91450459693E+03  0.10100000352E+00 0. -1.
</event>
<event>
 5   0  0.3582186E-04  0.1889911E+04  0.7818609E-02  0.8659895E-01
       -2   -1    0    0    0  501  0.00000000000E+00  0.00000000000E+00  0.77173578625E+03  0.77173578625E+03  0.25500000920E-02 0. -1.
        2   -1    0    0  501    0  0.00000000000E+00  0.00000000000E+00 -0.11570554446E+04  0.11570554446E+04  0.25500000920E-02 0.  1.
    10030    2    1    2    0    0  0.00000000000E+00  0.00000000000E+00 -0.38531965832E+03  0.19287912308E+04  0.18899112077E+04 0.  0.
        4    1    3    3  502    0  0.48047561552E+02 -0.39426203051E+02 -0.11549662525E+04  0.11566380812E+04  0.12699999809E+01 0.  1.
       -4    1    3    3    0  502 -0.48047561552E+02  0.39426203051E+02  0.76964659416E+03  0.77215314961E+03  0.12699999809E+01 0. -1.
</event>
<event>
 5   0  0.3568870E-04  0.1787186E+04  0.7818609E-02  0.8713143E-01
       -2   -1    0    0    0  501  0.00000000000E+00  0.00000000000E+00  0.66790935888E+03  0.66790935888E+03  0.25500000920E-02 0. -1.
        2   -1    0    0  501    0  0.00000000000E+00  0.00000000000E+00 -0.11955347043E+04  0.11955347043E+04  0.25500000920E-02 0.  1.
    10030    2    1    2    0    0  0.00000000000E+00  0.00000000000E+00 -0.52762534546E+03  0.18634440632E+04  0.17871864121E+04 0.  0.
        1    1    3    3  502    0 -0.24822055755E+03 -0.48426468471E+03  0.47522063510E+03  0.72246825681E+03  0.50400001928E-02 0. -1.
       -1    1    3    3    0  502  0.24822055755E+03  0.48426468471E+03 -0.10028459806E+04  0.11409758064E+04  0.50400001928E-02 0.  1.
</event>
<event>
 5   0  0.1837313E-04  0.1754484E+04  0.7818609E-02  0.8730886E-01
       -1   -1    0    0    0  501  0.00000000000E+00  0.00000000000E+00  0.95602561270E+03  0.95602561272E+03  0.50400001928E-02 0. -1.
        1   -1    0    0  501    0  0.00000000000E+00  0.00000000000E+00 -0.80495056950E+03  0.80495056952E+03  0.50400001928E-02 0.  1.
    10030    2    1    2    0    0  0.00000000000E+00  0.00000000000E+00  0.15107504320E+03  0.17609761822E+04  0.17544838118E+04 0.  0.
        1    1    3    3  502    0 -0.54998759766E+03 -0.52835555917E+03 -0.35954943747E+03  0.84316175939E+03  0.50400001928E-02 0.  1.
       -1    1    3    3    0  502  0.54998759766E+03  0.52835555917E+03  0.51062448067E+03  0.91781442284E+03  0.50400001928E-02 0. -1.
</event>
<event>
 5   0  0.1818778E-04  0.1761169E+04  0.7818609E-02  0.8727226E-01
        1   -1    0    0  501    0  0.00000000000E+00  0.00000000000E+00  0.80738849647E+03  0.80738849648E+03  0.50400001928E-02 0. -1.
       -1   -1    0    0    0  501  0.00000000000E+00  0.00000000000E+00 -0.96041623753E+03  0.96041623755E+03  0.50400001928E-02 0.  1.
    10030    2    1    2    0    0  0.00000000000E+00  0.00000000000E+00 -0.15302774107E+03  0.17678047340E+04  0.17611689550E+04 0.  0.
        3    1    3    3  502    0  0.22278393414E+03 -0.85000819458E+03 -0.13402196808E+03  0.88888048145E+03  0.10100000352E+00 0. -1.
       -3    1    3    3    0  502 -0.22278393414E+03  0.85000819458E+03 -0.19005772987E+02  0.87892425258E+03  0.10100000352E+00 0.  1.
</event>
<event>
 5   0  0.1837313E-04  0.1425615E+04  0.7818609E-02  0.8935483E-01
       -1   -1    0    0    0  501  0.00000000000E+00  0.00000000000E+00  0.78252774262E+03  0.78252774264E+03  0.50400001928E-02 0. -1.
        1   -1    0    0  501    0  0.00000000000E+00  0.00000000000E+00 -0.64929948037E+03  0.64929948039E+03  0.50400001928E-02 0.  1.
    10030    2    1    2    0    0  0.00000000000E+00  0.00000000000E+00  0.13322826225E+03  0.14318272230E+04  0.14256154554E+04 0.  0.
        1    1    3    3  502    0 -0.19216324675E+03 -0.68611905046E+03  0.46307431828E+02  0.71402411939E+03  0.50400001928E-02 0. -1.
       -1    1    3    3    0  502  0.19216324675E+03  0.68611905046E+03  0.86920830423E+02  0.71780310364E+03  0.50400001928E-02 0.  1.
</event>
<event>
 5   0  0.3582186E-04  0.1815369E+04  0.7818609E-02  0.8698169E-01
       -2   -1    0    0    0  501  0.00000000000E+00  0.00000000000E+00  0.10291299543E+04  0.10291299543E+04  0.25500000920E-02 0. -1.
        2   -1    0    0  501    0  0.00000000000E+00  0.00000000000E+00 -0.80057037155E+03  0.80057037155E+03  0.25500000920E-02 0.  1.
    10030    2    1    2    0    0  0.00000000000E+00  0.00000000000E+00  0.22855958272E+03  0.18297003258E+04  0.18153687778E+04 0.  0.
        4    1    3    3  502    0 -0.84172662984E+03 -0.24253054049E+03 -0.12543083636E+03  0.88490637361E+03  0.12699999809E+01 0.  1.
       -4    1    3    3    0  502  0.84172662984E+03  0.24253054049E+03  0.35399041908E+03  0.94479395222E+03  0.12699999809E+01 0. -1.
</event>
<event>
 5   0  0.3628581E-04  0.1731219E+04  0.7818609E-02  0.8743756E-01
        2   -1    0    0  501    0  0.00000000000E+00  0.00000000000E+00  0.15093985925E+04  0.15093985925E+04  0.25500000920E-02 0. -1.
       -2   -1    0    0    0  501  0.00000000000E+00  0.00000000000E+00 -0.49640970938E+03  0.49640970938E+03  0.25500000920E-02 0.  1.
    10030    2    1    2    0    0  0.00000000000E+00  0.00000000000E+00  0.10129888831E+04  0.20058083019E+04  0.17312193583E+04 0.  0.
        2    1    3    3  502    0  0.23459804927E+03 -0.51074889771E+03 -0.25623669291E+03  0.61770375103E+03  0.25500000920E-02 0.  1.
       -2    1    3    3    0  502 -0.23459804927E+03  0.51074889771E+03  0.12692255760E+04  0.13881045508E+04  0.25500000920E-02 0. -1.
</event>
<event>
 5   0  0.3628581E-04  0.1789510E+04  0.7818609E-02  0.8711898E-01
       -2   -1    0    0    0  501  0.00000000000E+00  0.00000000000E+00  0.82195893098E+03  0.82195893098E+03  0.25500000920E-02 0.  1.
        2   -1    0    0  501    0  0.00000000000E+00  0.00000000000E+00 -0.97399845824E+03  0.97399845824E+03  0.25500000920E-02 0. -1.
    10030    2    1    2    0    0  0.00000000000E+00  0.00000000000E+00 -0.15203952726E+03  0.17959573892E+04  0.17895102475E+04 0.  0.
        2    1    3    3  502    0  0.49516367417E+03 -0.65767383809E+03  0.27576381293E+03  0.86819791641E+03  0.25500000920E-02 0.  1.
       -2    1    3    3    0  502 -0.49516367417E+03  0.65767383809E+03 -0.42780334019E+03  0.92775947282E+03  0.25500000920E-02 0. -1.
</event>
<event>
 5   0  0.3568870E-04  0.1814743E+04  0.7818609E-02  0.8698498E-01
       -2   -1    0    0    0  501  0.00000000000E+00  0.00000000000E+00  0.63719087664E+03  0.63719087665E+03  0.25500000920E-02 0. -1.
        2   -1    0    0  501    0  0.00000000000E+00  0.00000000000E+00 -0.12921134211E+04  0.12921134211E+04  0.25500000920E-02 0.  1.
    10030    2    1    2    0    0  0.00000000000E+00  0.00000000000E+00 -0.65492254446E+03  0.19293042978E+04  0.18147428286E+04 0.  0.
        1    1    3    3  502    0  0.36069050125E+03  0.80203683307E+02 -0.12085070032E+04  0.12637323471E+04  0.50400001928E-02 0.  1.
       -1    1    3    3    0  502 -0.36069050125E+03 -0.80203683307E+02  0.55358445869E+03  0.66557195061E+03  0.50400001928E-02 0. -1.
</event>
<event>
 5   0  0.3575091E-04  0.1806208E+04  0.7818609E-02  0.8703005E-01
       -2   -1    0    0    0  501  0.00000000000E+00  0.00000000000E+00  0.28200243456E+03  0.28200243457E+03  0.25500000920E-02 0.  1.
        2   -1    0    0  501    0  0.00000000000E+00  0.00000000000E+00 -0.28921638883E+04  0.28921638883E+04  0.25500000920E-02 0. -1.
    10030    2    1    2    0    0  0.00000000000E+00  0.00000000000E+00 -0.26101614537E+04  0.31741663229E+04  0.18062084682E+04 0.  0.
        5    1    3    3  502    0 -0.81561843324E+03  0.25066384319E+03 -0.78521749684E+03  0.11595923414E+04  0.46999998093E+01 0.  1.
       -5    1    3    3    0  502  0.81561843324E+03 -0.25066384319E+03 -0.18249439569E+04  0.20145739814E+04  0.46999998093E+01 0. -1.
</event>
<event>
 5   0  0.1835421E-04  0.1812291E+04  0.7818609E-02  0.8699791E-01
        1   -1    0    0  501    0  0.00000000000E+00  0.00000000000E+00  0.13151356560E+04  0.13151356560E+04  0.50400001928E-02 0. -1.
       -1   -1    0    0    0  501  0.00000000000E+00  0.00000000000E+00 -0.62434573074E+03  0.62434573076E+03  0.50400001928E-02 0.  1.
    10030    2    1    2    0    0  0.00000000000E+00  0.00000000000E+00  0.69078992527E+03  0.19394813868E+04  0.18122906303E+04 0.  0.
        2    1    3    3  502    0 -0.49253615302E+03 -0.46153768956E+03 -0.30159236837E+03  0.73930160123E+03  0.25500000920E-02 0.  1.
       -2    1    3    3    0  502  0.49253615302E+03  0.46153768956E+03  0.99238229364E+03  0.12001797856E+04  0.25500000920E-02 0. -1.
</event>
<event>
 5   0  0.1818778E-04  0.1807274E+04  0.7818609E-02  0.8702441E-01
        1   -1    0    0  501    0  0.00000000000E+00  0.00000000000E+00  0.90191582372E+03  0.90191582373E+03  0.50400001928E-02 0. -1.
       -1   -1    0    0    0  501  0.00000000000E+00  0.00000000000E+00 -0.90536176614E+03  0.90536176616E+03  0.50400001928E-02 0.  1.
    10030    2    1    2    0    0  0.00000000000E+00  0.00000000000E+00 -0.34459424252E+01  0.18072775899E+04  0.18072743047E+04 0.  0.
        3    1    3    3  502    0  0.44422322646E+03  0.76053181673E+03 -0.20375594401E+03  0.90402401191E+03  0.10100000352E+00 0.  1.
       -3    1    3    3    0  502 -0.44422322646E+03 -0.76053181673E+03  0.20031000158E+03  0.90325357798E+03  0.10100000352E+00 0. -1.
</event>
<event>
 5   0  0.1837313E-04  0.1837865E+04  0.7818609E-02  0.8686418E-01
       -1   -1    0    0    0  501  0.00000000000E+00  0.00000000000E+00  0.64615654378E+03  0.64615654380E+03  0.50400001928E-02 0.  1.
        1   -1    0    0  501    0  0.00000000000E+00  0.00000000000E+00 -0.13068615161E+04  0.13068615161E+04  0.50400001928E-02 0. -1.
    10030    2    1    2    0    0  0.00000000000E+00  0.00000000000E+00 -0.66070497234E+03  0.19530180599E+04  0.18378651969E+04 0.  0.
        1    1    3    3  502    0 -0.18010921190E+03  0.84099670162E+03  0.13531755333E+02  0.86017317372E+03  0.50400001928E-02 0.  1.
       -1    1    3    3    0  502  0.18010921190E+03 -0.84099670162E+03 -0.67423672767E+03  0.10928448862E+04  0.50400001928E-02 0. -1.
</event>
<event>
 5   0  0.1835421E-04  0.1801185E+04  0.7818609E-02  0.8705669E-01
        1   -1    0    0  501    0  0.00000000000E+00  0.00000000000E+00  0.11918577307E+04  0.11918577307E+04  0.50400001928E-02 0.  1.
       -1   -1    0    0    0  501  0.00000000000E+00  0.00000000000E+00 -0.68050663465E+03  0.68050663467E+03  0.50400001928E-02 0. -1.
    10030    2    1    2    0    0  0.00000000000E+00  0.00000000000E+00  0.51135109608E+03  0.18723643654E+04  0.18011852690E+04 0.  0.
        2    1    3    3  502    0  0.51417506084E+03  0.36415122025E+03  0.92459946509E+03  0.11188683011E+04  0.25500000920E-02 0.  1.
       -2    1    3    3    0  502 -0.51417506084E+03 -0.36415122025E+03 -0.41324836901E+03  0.75349606429E+03  0.25500000920E-02 0. -1.
</event>
<event>
 5   0  0.3531266E-04  0.1751363E+04  0.7818609E-02  0.8732601E-01
       -2   -1    0    0    0  501  0.00000000000E+00  0.00000000000E+00  0.91450345968E+03  0.91450345968E+03  0.25500000920E-02 0. -1.
        2   -1    0    0  501    0  0.00000000000E+00  0.00000000000E+00 -0.83850729407E+03  0.83850729407E+03  0.25500000920E-02 0.  1.
    10030    2    1    2    0    0  0.00000000000E+00  0.00000000000E+00  0.75996165609E+02  0.17530107538E+04  0.17513626939E+04 0.  0.
        3    1    3    3  502    0 -0.82559318715E+03 -0.14064501782E+03  0.29403691537E+03  0.88760512026E+03  0.10100000352E+00 0. -1.
       -3    1    3    3    0  502  0.82559318715E+03  0.14064501782E+03 -0.21804074976E+03  0.86540563349E+03  0.10100000352E+00 0.  1.
</event>
<event>
 5   0  0.1835421E-04  0.1799934E+04  0.7818609E-02  0.8706335E-01
       -1   -1    0    0    0  501  0.00000000000E+00  0.00000000000E+00  0.10958117454E+04  0.10958117455E+04  0.50400001928E-02 0. -1.
        1   -1    0    0  501    0  0.00000000000E+00  0.00000000000E+00 -0.73912363771E+03  0.73912363772E+03  0.50400001928E-02 0.  1.
    10030    2    1    2    0    0  0.00000000000E+00  0.00000000000E+00  0.35668810774E+03  0.18349353832E+04  0.17999337361E+04 0.  0.
        2    1    3    3  502    0  0.71798572816E+03  0.48615536249E+03  0.42404921455E+03  0.96522965075E+03  0.25500000920E-02 0. -1.
       -2    1    3    3    0  502 -0.71798572816E+03 -0.48615536249E+03 -0.67361106815E+02  0.86970573243E+03  0.25500000920E-02 0.  1.
</event>
<event>
 5   0  0.3575091E-04  0.1841150E+04  0.7818609E-02  0.8684717E-01
        2   -1    0    0  501    0  0.00000000000E+00  0.00000000000E+00  0.20068478727E+04  0.20068478727E+04  0.25500000920E-02 0.  1.
       -2   -1    0    0    0  501  0.00000000000E+00  0.00000000000E+00 -0.42228328833E+03  0.42228328834E+03  0.25500000920E-02 0. -1.
    10030    2    1    2    0    0  0.00000000000E+00  0.00000000000E+00  0.15845645844E+04  0.24291311611E+04  0.18411499873E+04 0.  0.
        5    1    3    3  502    0 -0.21929584509E+03 -0.29031926766E+02 -0.38668021125E+03  0.44550779591E+03  0.46999998093E+01 0. -1.
       -5    1    3    3    0  502  0.21929584509E+03  0.29031926766E+02  0.19712447956E+04  0.19836233652E+04  0.46999998093E+01 0.  1.
</event>
<event>
 5   0  0.3582186E-04  0.1812951E+04  0.7818609E-02  0.8699443E-01
       -2   -1    0    0    0  501  0.00000000000E+00  0.00000000000E+00  0.44712892103E+03  0.44712892104E+03  0.25500000920E-02 0. -1.
        2   -1    0    0  501    0  0.00000000000E+00  0.00000000000E+00 -0.18377197767E+04  0.18377197767E+04  0.25500000920E-02 0.  1.
    10030    2    1    2    0    0  0.00000000000E+00  0.00000000000E+00 -0.13905908556E+04  0.22848486977E+04  0.18129508111E+04 0.  0.
        4    1    3    3  502    0 -0.89358679684E+02  0.86207558966E+03 -0.36057736094E+03  0.93871025457E+03  0.12699999809E+01 0.  1.
       -4    1    3    3    0  502  0.89358679684E+02 -0.86207558966E+03 -0.10300134947E+04  0.13461384431E+04  0.12699999809E+01 0. -1.
</event>
<event>
 5   0  0.1883959E-04  0.1802115E+04  0.7818609E-02  0.8705176E-01
        1   -1    0    0  501    0  0.00000000000E+00  0.00000000000E+00  0.11548805385E+04  0.11548805385E+04  0.50400001928E-02 0.  1.
       -1   -1    0    0    0  501  0.00000000000E+00  0.00000000000E+00 -0.70302030755E+03  0.70302030757E+03  0.50400001928E-02 0. -1.
    10030    2    1    2    0    0  0.00000000000E+00  0.00000000000E+00  0.45186023093E+03  0.18579008461E+04  0.18021148369E+04 0.  0.
        5    1    3    3  502    0  0.33446075598E+03  0.82961215751E+03  0.11411986471E+03  0.90175704195E+03  0.46999998093E+01 0. -1.
       -5    1    3    3    0  502 -0.33446075598E+03 -0.82961215751E+03  0.33774036622E+03  0.95614380412E+03  0.46999998093E+01 0.  1.
</event>
<event>
 5   0  0.1818778E-04  0.1792577E+04  0.7818609E-02  0.8710257E-01
       -1   -1    0    0    0  501  0.00000000000E+00  0.00000000000E+00  0.64762243765E+03  0.64762243767E+03  0.50400001928E-02 0.  1.
        1   -1    0    0  501    0  0.00000000000E+00  0.00000000000E+00 -0.12404343614E+04  0.12404343614E+04  0.50400001928E-02 0. -1.
    10030    2    1    2    0    0  0.00000000000E+00  0.00000000000E+00 -0.59281192377E+03  0.18880567991E+04  0.17925770554E+04 0.  0.
        3    1    3    3  502    0  0.83417658694E+03 -0.20561942000E+03 -0.27455901636E+02  0.85958348100E+03  0.10100000352E+00 0.  1.
       -3    1    3    3    0  502 -0.83417658694E+03  0.20561942000E+03 -0.56535602214E+03  0.10284733181E+04  0.10100000352E+00 0. -1.
</event>
<event>
 5   0  0.1825253E-04  0.1786212E+04  0.7818609E-02  0.8713666E-01
       -1   -1    0    0    0  501  0.00000000000E+00  0.00000000000E+00  0.63624471753E+03  0.63624471755E+03  0.50400001928E-02 0.  1.
        1   -1    0    0  501    0  0.00000000000E+00  0.00000000000E+00 -0.12536661545E+04  0.12536661545E+04  0.50400001928E-02 0. -1.
    10030    2    1    2    0    0  0.00000000000E+00  0.00000000000E+00 -0.61742143701E+03  0.18899108721E+04  0.17862121581E+04 0.  0.
        4    1    3    3  502    0  0.58036608109E+03 -0.17963033105E+03 -0.10013490214E+04  0.11712358086E+04  0.12699999809E+01 0. -1.
       -4    1    3    3    0  502 -0.58036608109E+03  0.17963033105E+03  0.38392758436E+03  0.71867506347E+03  0.12699999809E+01 0.  1.
</event>
<event>
 5   0  0.1883959E-04  0.1815493E+04  0.7818609E-02  0.8698103E-01
        1   -1    0    0  501    0  0.00000000000E+00  0.00000000000E+00  0.62688520055E+03  0.62688520057E+03  0.50400001928E-02 0.  1.
       -1   -1    0    0    0  501  0.00000000000E+00  0.00000000000E+00 -0.13144417509E+04  0.13144417509E+04  0.50400001928E-02 0. -1.
    10030    2    1    2    0    0  0.00000000000E+00  0.00000000000E+00 -0.68755655039E+03  0.19413269515E+04  0.18154934103E+04 0.  0.
        5    1    3    3  502    0 -0.31242887643E+02  0.90643311313E+03 -0.38357164480E+03  0.98475702755E+03  0.46999998093E+01 0. -1.
       -5    1    3    3    0  502  0.31242887643E+02 -0.90643311313E+03 -0.30398490559E+03  0.95656992396E+03  0.46999998093E+01 0.  1.
</event>
<event>
 5   0  0.3628581E-04  0.1720963E+04  0.7818609E-02  0.8749498E-01
        2   -1    0    0  501    0  0.00000000000E+00  0.00000000000E+00  0.79738505035E+03  0.79738505036E+03  0.25500000920E-02 0. -1.
       -2   -1    0    0    0  501  0.00000000000E+00  0.00000000000E+00 -0.92857114222E+03  0.92857114222E+03  0.25500000920E-02 0.  1.
    10030    2    1    2    0    0  0.00000000000E+00  0.00000000000E+00 -0.13118609186E+03  0.17259561926E+04  0.17209633895E+04 0.  0.
        2    1    3    3  502    0 -0.28496281419E+03 -0.77444020595E+03  0.17897362943E+03  0.84438912718E+03  0.25500000920E-02 0. -1.
       -2    1    3    3    0  502  0.28496281419E+03  0.77444020595E+03 -0.31015972130E+03  0.88156706539E+03  0.25500000920E-02 0.  1.
</event>
<event>
 5   0  0.1835421E-04  0.1839394E+04  0.7818609E-02  0.8685626E-01
        1   -1    0    0  501    0  0.00000000000E+00  0.00000000000E+00  0.67900266081E+03  0.67900266083E+03  0.50400001928E-02 0. -1.
       -1   -1    0    0    0  501  0.00000000000E+00  0.00000000000E+00 -0.12457138124E+04  0.12457138124E+04  0.50400001928E-02 0.  1.
    10030    2    1    2    0    0  0.00000000000E+00  0.00000000000E+00 -0.56671115156E+03  0.19247164732E+04  0.18393944582E+04 0.  0.
        2    1    3    3  502    0  0.17830646961E+02 -0.30877115599E+03 -0.11896643896E+04  0.12292106893E+04  0.25500000920E-02 0.  1.
       -2    1    3    3    0  502 -0.17830646961E+02  0.30877115599E+03  0.62295323802E+03  0.69550578395E+03  0.25500000920E-02 0. -1.
</event>
<event>
 5   0  0.3575091E-04  0.1811943E+04  0.7818609E-02  0.8699974E-01
       -2   -1    0    0    0  501  0.00000000000E+00  0.00000000000E+00  0.41885140787E+03  0.41885140788E+03  0.25500000920E-02 0.  1.
        2   -1    0    0  501    0  0.00000000000E+00  0.00000000000E+00 -0.19596075140E+04  0.19596075140E+04  0.25500000920E-02 0. -1.
    10030    2    1    2    0    0  0.00000000000E+00  0.00000000000E+00 -0.15407561062E+04  0.23784589219E+04  0.18119430081E+04 0.  0.
        5    1    3    3  502    0 -0.32460621930E+03 -0.74364147581E+03 -0.24140768676E+03  0.84656458901E+03  0.46999998093E+01 0.  1.
       -5    1    3    3    0  502  0.32460621930E+03  0.74364147581E+03 -0.12993484194E+04  0.15318943329E+04  0.46999998093E+01 0. -1.
</event>
<event>
 5   0  0.1837313E-04  0.1807629E+04  0.7818609E-02  0.8702253E-01
       -1   -1    0    0    0  501  0.00000000000E+00  0.00000000000E+00  0.89469376982E+03  0.89469376983E+03  0.50400001928E-02 0. -1.
        1   -1    0    0  501    0  0.00000000000E+00  0.00000000000E+00 -0.91302808835E+03  0.91302808836E+03  0.50400001928E-02 0.  1.
    10030    2    1    2    0    0  0.00000000000E+00  0.00000000000E+00 -0.18334318528E+02  0.18077218582E+04  0.18076288804E+04 0.  0.
        1    1    3    3  502    0  0.24976218612E+03  0.25961909591E+03  0.81978881246E+03  0.89545347263E+03  0.50400001928E-02 0. -1.
       -1    1    3    3    0  502 -0.24976218612E+03 -0.25961909591E+03 -0.83812313099E+03  0.91226838556E+03  0.50400001928E-02 0.  1.
</event>
<event>
 5   0  0.3531266E-04  0.1762618E+04  0.7818609E-02  0.8726435E-01
       -2   -1    0    0    0  501  0.00000000000E+00  0.00000000000E+00  0.45730483954E+03  0.45730483955E+03  0.25500000920E-02 0. -1.
        2   -1    0    0  501    0  0.00000000000E+00  0.00000000000E+00 -0.16984422467E+04  0.16984422467E+04  0.25500000920E-02 0.  1.
    10030    2    1    2    0    0  0.00000000000E+00  0.00000000000E+00 -0.12411374072E+04  0.21557470863E+04  0.17626183468E+04 0.  0.
        3    1    3    3  502    0 -0.36449067196E+03 -0.72420539874E+03 -0.10431432944E+04  0.13211642034E+04  0.10100000352E+00 0.  1.
       -3    1    3    3    0  502  0.36449067196E+03  0.72420539874E+03 -0.19799411283E+03  0.83458288290E+03  0.10100000352E+00 0. -1.
</event>
<event>
 5   0  0.3575091E-04  0.1808045E+04  0.7818609E-02  0.8702033E-01
       -2   -1    0    0    0  501  0.00000000000E+00  0.00000000000E+00  0.92424132237E+03  0.92424132237E+03  0.25500000920E-02 0. -1.
        2   -1    0    0  501    0  0.00000000000E+00  0.00000000000E+00 -0.88424638166E+03  0.88424638167E+03  0.25500000920E-02 0.  1.
    10030    2    1    2    0    0  0.00000000000E+00  0.00000000000E+00  0.39994940704E+02  0.18084877040E+04  0.18080454033E+04 0.  0.
        5    1    3    3  502    0 -0.71752947323E+03  0.54658608238E+03  0.80262227456E+02  0.90557661496E+03  0.46999998093E+01 0.  1.
       -5    1    3    3    0  502  0.71752947323E+03 -0.54658608238E+03 -0.40267286752E+02  0.90291108908E+03  0.46999998093E+01 0. -1.
</event>
<event>
 5   0  0.3575091E-04  0.1798763E+04  0.7818609E-02  0.8706958E-01
        2   -1    0    0  501    0  0.00000000000E+00  0.00000000000E+00  0.18237971934E+04  0.18237971934E+04  0.25500000920E-02 0.  1.
       -2   -1    0    0    0  501  0.00000000000E+00  0.00000000000E+00 -0.44351811871E+03  0.44351811871E+03  0.25500000920E-02 0. -1.
    10030    2    1    2    0    0  0.00000000000E+00  0.00000000000E+00  0.13802790747E+04  0.22673153121E+04  0.17987630196E+04 0.  0.
        5    1    3    3  502    0  0.48994717570E+03  0.40550767973E+03  0.14916938663E+04  0.16216218407E+04  0.46999998093E+01 0.  1.
       -5    1    3    3    0  502 -0.48994717570E+03 -0.40550767973E+03 -0.11141479162E+03  0.64569347146E+03  0.46999998093E+01 0. -1.
</event>
<event>
 5   0  0.3531266E-04  0.1813236E+04  0.7818609E-02  0.8699292E-01
        2   -1    0    0  501    0  0.00000000000E+00  0.00000000000E+00  0.96350870813E+03  0.96350870814E+03  0.25500000920E-02 0.  1.
       -2   -1    0    0    0  501  0.00000000000E+00  0.00000000000E+00 -0.85308671450E+03  0.85308671450E+03  0.25500000920E-02 0. -1.
    10030    2    1    2    0    0  0.00000000000E+00  0.00000000000E+00  0.11042199363E+03  0.18165954226E+04  0.18132363092E+04 0.  0.
        3    1    3    3  502    0 -0.61621785697E+03  0.61020894045E+03  0.32004341800E+03  0.92439558516E+03  0.10100000352E+00 0. -1.
       -3    1    3    3    0  502  0.61621785697E+03 -0.61020894045E+03 -0.20962142437E+03  0.89219983748E+03  0.10100000352E+00 0.  1.
</event>
<event>
 5   0  0.1837313E-04  0.1731968E+04  0.7818609E-02  0.8743339E-01
        1   -1    0    0  501    0  0.00000000000E+00  0.00000000000E+00  0.15362457693E+04  0.15362457693E+04  0.50400001928E-02 0. -1.
       -1   -1    0    0    0  501  0.00000000000E+00  0.00000000000E+00 -0.48815624800E+03  0.48815624803E+03  0.50400001928E-02 0.  1.
    10030    2    1    2    0    0  0.00000000000E+00  0.00000000000E+00  0.10480895213E+04  0.20244020174E+04  0.17319676334E+04 0.  0.
        1    1    3    3  502    0 -0.78477789490E+03 -0.28720496256E+03  0.25862440252E+03  0.87478546882E+03  0.50400001928E-02 0.  1.
       -1    1    3    3    0  502  0.78477789490E+03  0.28720496256E+03  0.78946511881E+03  0.11496165485E+04  0.50400001928E-02 0. -1.
</event>
<event>
 5   0  0.1835421E-04  0.1819637E+04  0.7818609E-02  0.8695926E-01
        1   -1    0    0  501    0  0.00000000000E+00  0.00000000000E+00  0.14501498793E+04  0.14501498793E+04  0.50400001928E-02 0. -1.
       -1   -1    0    0    0  501  0.00000000000E+00  0.00000000000E+00 -0.57081639152E+03  0.57081639155E+03  0.50400001928E-02 0.  1.
    10030    2    1    2    0    0  0.00000000000E+00  0.00000000000E+00  0.87933348781E+03  0.20209662709E+04  0.18196365805E+04 0.  0.
        2    1    3    3  502    0 -0.66630860742E+03  0.12201092368E+02  0.11275961471E+04  0.13098049847E+04  0.25500000920E-02 0. -1.
       -2    1    3    3    0  502  0.66630860742E+03 -0.12201092368E+02 -0.24826265929E+03  0.71116128619E+03  0.25500000920E-02 0.  1.
</event>
<event>
 5   0  0.1883959E-04  0.1481243E+04  0.7818609E-02  0.8897023E-01
       -1   -1    0    0    0  501  0.00000000000E+00  0.00000000000E+00  0.58390779609E+03  0.58390779611E+03  0.50400001928E-02 0. -1.
        1   -1    0    0  501    0  0.00000000000E+00  0.00000000000E+00 -0.93939501438E+03  0.93939501439E+03  0.50400001928E-02 0.  1.
    10030    2    1    2    0    0  0.00000000000E+00  0.00000000000E+00 -0.35548721829E+03  0.15233028105E+04  0.14812428194E+04 0.  0.
        5    1    3    3  502    0  0.69288555569E+03  0.24758910896E+03 -0.26444178047E+03  0.78188381836E+03  0.46999998093E+01 0. -1.
       -5    1    3    3    0  502 -0.69288555569E+03 -0.24758910896E+03 -0.91045437816E+02  0.74141899214E+03  0.46999998093E+01 0.  1.
</event>
<event>
 5   0  0.3628581E-04  0.1801989E+04  0.7818609E-02  0.8705242E-01
        2   -1    0    0  501    0  0.00000000000E+00  0.00000000000E+00  0.11086439826E+04  0.11086439826E+04  0.25500000920E-02 0. -1.
       -2   -1    0    0    0  501  0.00000000000E+00  0.00000000000E+00 -0.73223810076E+03  0.73223810077E+03  0.25500000920E-02 0.  1.
    10030    2    1    2    0    0  0.00000000000E+00  0.00000000000E+00  0.37640588181E+03  0.18408820833E+04  0.18019893054E+04 0.  0.
        2    1    3    3  502    0 -0.31278723341E+03  0.81821609146E+03  0.40365273669E+03  0.96449414595E+03  0.25500000920E-02 0. -1.
       -2    1    3    3    0  502  0.31278723341E+03 -0.81821609146E+03 -0.27246854880E+02  0.87638793740E+03  0.25500000920E-02 0.  1.
</event>
<event>
 5   0  0.1818778E-04  0.1794658E+04  0.7818609E-02  0.8709145E-01
        1   -1    0    0  501    0  0.00000000000E+00  0.00000000000E+00  0.12123978873E+04  0.12123978873E+04  0.50400001928E-02 0. -1.
       -1   -1    0    0    0  501  0.00000000000E+00  0.00000000000E+00 -0.66413806360E+03  0.66413806362E+03  0.50400001928E-02 0.  1.
    10030    2    1    2    0    0  0.00000000000E+00  0.00000000000E+00  0.54825982370E+03  0.18765359509E+04  0.17946582797E+04 0.  0.
        3    1    3    3  502    0 -0.57380824606E+03  0.64134133907E+03  0.53994232673E+03  0.10159293001E+04  0.10100000352E+00 0. -1.
       -3    1    3    3    0  502  0.57380824606E+03 -0.64134133907E+03  0.83174969637E+01  0.86060665080E+03  0.10100000352E+00 0.  1.
</event>
<event>
 5   0  0.1825253E-04  0.1822793E+04  0.7818609E-02  0.8694272E-01
        1   -1    0    0  501    0  0.00000000000E+00  0.00000000000E+00  0.15096954762E+04  0.15096954762E+04  0.50400001928E-02 0. -1.
       -1   -1    0    0    0  501  0.00000000000E+00  0.00000000000E+00 -0.55020589086E+03  0.55020589089E+03  0.50400001928E-02 0.  1.
    10030    2    1    2    0    0  0.00000000000E+00  0.00000000000E+00  0.95948958537E+03  0.20599013671E+04  0.18227927413E+04 0.  0.
        4    1    3    3  502    0 -0.85000082574E+03  0.12555022612E+03  0.82321744503E+03  0.11899381655E+04  0.12699999809E+01 0.  1.
       -4    1    3    3    0  502  0.85000082574E+03 -0.12555022612E+03  0.13627214034E+03  0.86996320162E+03  0.12699999809E+01 0. -1.
</event>
<event>
 5   0  0.3582186E-04  0.1794628E+04  0.7818609E-02  0.8709162E-01
        2   -1    0    0  501    0  0.00000000000E+00  0.00000000000E+00  0.17393659869E+04  0.17393659869E+04  0.25500000920E-02 0. -1.
       -2   -1    0    0    0  501  0.00000000000E+00  0.00000000000E+00 -0.46291134425E+03  0.46291134425E+03  0.25500000920E-02 0.  1.
    10030    2    1    2    0    0  0.00000000000E+00  0.00000000000E+00  0.12764546427E+04  0.22022773312E+04  0.17946278134E+04 0.  0.
        4    1    3    3  502    0  0.23785168203E+03 -0.61506021057E+02  0.16972898306E+04  0.17149783658E+04  0.12699999809E+01 0. -1.
       -4    1    3    3    0  502 -0.23785168203E+03  0.61506021057E+02 -0.42083518796E+03  0.48729896532E+03  0.12699999809E+01 0.  1.
</event>
<event>
 5   0  0.1825253E-04  0.1807072E+04  0.7818609E-02  0.8702548E-01
        1   -1    0    0  501    0  0.00000000000E+00  0.00000000000E+00  0.11125227465E+04  0.11125227465E+04  0.50400001928E-02 0.  1.
       -1   -1    0    0    0  501  0.00000000000E+00  0.00000000000E+00 -0.73380749573E+03  0.73380749574E+03  0.50400001928E-02 0. -1.
    10030    2    1    2    0    0  0.00000000000E+00  0.00000000000E+00  0.37871525080E+03  0.18463302423E+04  0.18070722516E+04 0.  0.
        4    1    3    3  502    0  0.48997961145E+03  0.62849297072E+03  0.62439219162E+03  0.10123984669E+04  0.12699999809E+01 0.  1.
       -4    1    3    3    0  502 -0.48997961145E+03 -0.62849297072E+03 -0.24567694082E+03  0.83393177541E+03  0.12699999809E+01 0. -1.
</event>
<event>
 5   0  0.1825253E-04  0.1769901E+04  0.7818609E-02  0.8722471E-01
       -1   -1    0    0    0  501  0.00000000000E+00  0.00000000000E+00  0.45905499266E+03  0.45905499268E+03  0.50400001928E-02 0. -1.
        1   -1    0    0  501    0  0.00000000000E+00  0.00000000000E+00 -0.17059774906E+04  0.17059774906E+04  0.50400001928E-02 0.  1.
    10030    2    1    2    0    0  0.00000000000E+00  0.00000000000E+00 -0.12469224980E+04  0.21650324833E+04  0.17699011096E+04 0.  0.
        4    1    3    3  502    0 -0.22208570081E+03 -0.54893960165E+03  0.18098677816E+03  0.61920478965E+03  0.12699999809E+01 0. -1.
       -4    1    3    3    0  502  0.22208570081E+03  0.54893960165E+03 -0.14279092761E+04  0.15458276937E+04  0.12699999809E+01 0.  1.
</event>
<event>
 5   0  0.1837313E-04  0.1778232E+04  0.7818609E-02  0.8717962E-01
        1   -1    0    0  501    0  0.00000000000E+00  0.00000000000E+00  0.19979036794E+04  0.19979036794E+04  0.50400001928E-02 0. -1.
       -1   -1    0    0    0  501  0.00000000000E+00  0.00000000000E+00 -0.39567852529E+03  0.39567852532E+03  0.50400001928E-02 0.  1.
    10030    2    1    2    0    0  0.00000000000E+00  0.00000000000E+00  0.16022251541E+04  0.23935822047E+04  0.17782323600E+04 0.  0.
        1    1    3    3  502    0  0.78142634438E+02 -0.10137984391E+03 -0.38321149450E+03  0.40402375377E+03  0.50400001928E-02 0.  1.
       -1    1    3    3    0  502 -0.78142634438E+02  0.10137984391E+03  0.19854366486E+04  0.19895584509E+04  0.50400001928E-02 0. -1.
</event>
<event>
 5   0  0.3568870E-04  0.1804109E+04  0.7818609E-02  0.8704117E-01
       -2   -1    0    0    0  501  0.00000000000E+00  0.00000000000E+00  0.57183360865E+03  0.57183360866E+03  0.25500000920E-02 0.  1.
        2   -1    0    0  501    0  0.00000000000E+00  0.00000000000E+00 -0.14229702906E+04  0.14229702906E+04  0.25500000920E-02 0. -1.
    10030    2    1    2    0    0  0.00000000000E+00  0.00000000000E+00 -0.85113668196E+03  0.19948038993E+04  0.18041089061E+04 0.  0.
        1    1    3    3  502    0 -0.67171530143E+03 -0.42250947850E+03  0.48706921577E+02  0.79503966557E+03  0.50400001928E-02 0. -1.
       -1    1    3    3    0  502  0.67171530143E+03  0.42250947850E+03 -0.89984360354E+03  0.11997642337E+04  0.50400001928E-02 0.  1.
</event>
<event>
 5   0  0.1818778E-04  0.1510014E+04  0.7818609E-02  0.8877821E-01
       -1   -1    0    0    0  501  0.00000000000E+00  0.00000000000E+00  0.82272254239E+03  0.82272254240E+03  0.50400001928E-02 0. -1.
        1   -1    0    0  501    0  0.00000000000E+00  0.00000000000E+00 -0.69286496089E+03  0.69286496091E+03  0.50400001928E-02 0.  1.
    10030    2    1    2    0    0  0.00000000000E+00  0.00000000000E+00  0.12985758149E+03  0.15155875033E+04  0.15100140691E+04 0.  0.
        3    1    3    3  502    0  0.46231346157E+03 -0.23412898869E+02  0.66358120978E+03  0.80908709838E+03  0.10100000352E+00 0. -1.
       -3    1    3    3    0  502 -0.46231346157E+03  0.23412898869E+02 -0.53372362829E+03  0.70650040494E+03  0.10100000352E+00 0.  1.
</event>
<event>
 5   0  0.3628581E-04  0.1803546E+04  0.7818609E-02  0.8704416E-01
        2   -1    0    0  501    0  0.00000000000E+00  0.00000000000E+00  0.65006985058E+03  0.65006985058E+03  0.25500000920E-02 0. -1.
       -2   -1    0    0    0  501  0.00000000000E+00  0.00000000000E+00 -0.12509336682E+04  0.12509336682E+04  0.25500000920E-02 0.  1.
    10030    2    1    2    0    0  0.00000000000E+00  0.00000000000E+00 -0.60086381761E+03  0.19010035188E+04  0.18035456887E+04 0.  0.
        2    1    3    3  502    0 -0.80147303091E+03  0.26513027770E+03  0.33784493324E+02  0.84486358391E+03  0.25500000920E-02 0. -1.
       -2    1    3    3    0  502  0.80147303091E+03 -0.26513027770E+03 -0.63464831093E+03  0.10561399349E+04  0.25500000920E-02 0.  1.
</event>
<event>
 5   0  0.3531266E-04  0.1793925E+04  0.7818609E-02  0.8709537E-01
       -2   -1    0    0    0  501  0.00000000000E+00  0.00000000000E+00  0.24538238683E+04  0.24538238683E+04  0.25500000920E-02 0. -1.
        2   -1    0    0  501    0  0.00000000000E+00  0.00000000000E+00 -0.32787281995E+03  0.32787281996E+03  0.25500000920E-02 0.  1.
    10030    2    1    2    0    0  0.00000000000E+00  0.00000000000E+00  0.21259510484E+04  0.27816966883E+04  0.17939254738E+04 0.  0.
        3    1    3    3  502    0 -0.13726066482E+03  0.78419684860E+03  0.17036967932E+04  0.18805286386E+04  0.10100000352E+00 0.  1.
       -3    1    3    3    0  502  0.13726066482E+03 -0.78419684860E+03  0.42225425516E+03  0.90116804962E+03  0.10100000352E+00 0. -1.
</event>
<event>
 5   0  0.1330125E-04  0.1798496E+04  0.7818609E-02  0.8707100E-01
        3   -1    0    0  501    0  0.00000000000E+00  0.00000000000E+00  0.58605222898E+03  0.58605223769E+03  0.10100000352E+00 0.  1.
       -3   -1    0    0    0  501  0.00000000000E+00  0.00000000000E+00 -0.13798202865E+04  0.13798202902E+04  0.10100000352E+00 0. -1.
    10030    2    1    2    0    0  0.00000000000E+00  0.00000000000E+00 -0.79376805748E+03  0.19658725278E+04  0.17984957789E+04 0.  0.
        4    1    3    3  502    0 -0.46563567611E+03 -0.56594426152E+03 -0.96647011246E+03  0.12129202699E+04  0.12699999809E+01 0. -1.
       -4    1    3    3    0  502  0.46563567611E+03  0.56594426152E+03  0.17270205498E+03  0.75295225792E+03  0.12699999809E+01 0.  1.
</event>
<event>
 5   0  0.1883959E-04  0.1801778E+04  0.7818609E-02  0.8705354E-01
        1   -1    0    0  501    0  0.00000000000E+00  0.00000000000E+00  0.77581472972E+03  0.77581472973E+03  0.50400001928E-02 0. -1.
       -1   -1    0    0    0  501  0.00000000000E+00  0.00000000000E+00 -0.10461275182E+04  0.10461275182E+04  0.50400001928E-02 0.  1.
    10030    2    1    2    0    0  0.00000000000E+00  0.00000000000E+00 -0.27031278845E+03  0.18219422479E+04  0.18017781637E+04 0.  0.
        5    1    3    3  502    0  0.29894257618E+02  0.16197606547E+03  0.76044689850E+03  0.77809478077E+03  0.46999998093E+01 0. -1.
       -5    1    3    3    0  502 -0.29894257618E+02 -0.16197606547E+03 -0.10307596870E+04  0.10438474671E+04  0.46999998093E+01 0.  1.
</event>
<event>
 5   0  0.3582186E-04  0.1807178E+04  0.7818609E-02  0.8702492E-01
        2   -1    0    0  501    0  0.00000000000E+00  0.00000000000E+00  0.89738257900E+03  0.89738257901E+03  0.25500000920E-02 0.  1.
       -2   -1    0    0    0  501  0.00000000000E+00  0.00000000000E+00 -0.90983812895E+03  0.90983812895E+03  0.25500000920E-02 0. -1.
    10030    2    1    2    0    0  0.00000000000E+00  0.00000000000E+00 -0.12455549948E+02  0.18072207080E+04  0.18071777850E+04 0.  0.
        4    1    3    3  502    0  0.84438636299E+03 -0.24138808870E+03  0.20641484123E+03  0.90214479932E+03  0.12699999809E+01 0. -1.
       -4    1    3    3    0  502 -0.84438636299E+03  0.24138808870E+03 -0.21887039117E+03  0.90507590864E+03  0.12699999809E+01 0.  1.
</event>
<event>
 5   0  0.3582186E-04  0.1793060E+04  0.7818609E-02  0.8709999E-01
        2   -1    0    0  501    0  0.00000000000E+00  0.00000000000E+00  0.14706124063E+04  0.14706124063E+04  0.25500000920E-02 0. -1.
       -2   -1    0    0    0  501  0.00000000000E+00  0.00000000000E+00 -0.54655201858E+03  0.54655201858E+03  0.25500000920E-02 0.  1.
    10030    2    1    2    0    0  0.00000000000E+00  0.00000000000E+00  0.92406038769E+03  0.20171644249E+04  0.17930601543E+04 0.  0.
        4    1    3    3  502    0  0.58036395301E+03 -0.32245113983E+03  0.11397970340E+04  0.13190663164E+04  0.12699999809E+01 0. -1.
       -4    1    3    3    0  502 -0.58036395301E+03  0.32245113983E+03 -0.21573664630E+03  0.69809810843E+03  0.12699999809E+01 0.  1.
</event>
<event>
 5   0  0.3628581E-04  0.1822797E+04  0.7818609E-02  0.8694270E-01
        2   -1    0    0  501    0  0.00000000000E+00  0.00000000000E+00  0.11887945057E+04  0.11887945057E+04  0.25500000920E-02 0.  1.
       -2   -1    0    0    0  501  0.00000000000E+00  0.00000000000E+00 -0.69873043984E+03  0.69873043985E+03  0.25500000920E-02 0. -1.
    10030    2    1    2    0    0  0.00000000000E+00  0.00000000000E+00  0.49006406587E+03  0.18875249456E+04  0.18227966512E+04 0.  0.
        2    1    3    3  502    0  0.88920916562E+02  0.48401655447E+03  0.10393893248E+04  0.11500039665E+04  0.25500000920E-02 0.  1.
       -2    1    3    3    0  502 -0.88920916562E+02 -0.48401655447E+03 -0.54932525896E+03  0.73752097905E+03  0.25500000920E-02 0. -1.
</event>
<event>
 5   0  0.1818778E-04  0.1794320E+04  0.7818609E-02  0.8709326E-01
        1   -1    0    0  501    0  0.00000000000E+00  0.00000000000E+00  0.57430203270E+03  0.57430203272E+03  0.50400001928E-02 0.  1.
       -1   -1    0    0    0  501  0.00000000000E+00  0.00000000000E+00 -0.14015209809E+04  0.14015209809E+04  0.50400001928E-02 0. -1.
    10030    2    1    2    0    0  0.00000000000E+00  0.00000000000E+00 -0.82721894824E+03  0.19758230137E+04  0.17943203151E+04 0.  0.
        3    1    3    3  502    0 -0.23125372855E+03  0.80694815169E+03 -0.76226469490E+03  0.11338831870E+04  0.10100000352E+00 0. -1.
       -3    1    3    3    0  502  0.23125372855E+03 -0.80694815169E+03 -0.64954253334E+02  0.84193982666E+03  0.10100000352E+00 0.  1.
</event>
<event>
 5   0  0.3531266E-04  0.1416131E+04  0.7818609E-02  0.8942224E-01
        2   -1    0    0  501    0  0.00000000000E+00  0.00000000000E+00  0.62486665530E+03  0.62486665530E+03  0.25500000920E-02 0.  1.
       -2   -1    0    0    0  501  0.00000000000E+00  0.00000000000E+00 -0.80234198283E+03  0.80234198283E+03  0.25500000920E-02 0. -1.
    10030    2    1    2    0    0  0.00000000000E+00  0.00000000000E+00 -0.17747532753E+03  0.14272086381E+04  0.14161309985E+04 0.  0.
        3    1    3    3  502    0 -0.49323132975E+03  0.26877296983E+03  0.34572697755E+03  0.65957805237E+03  0.10100000352E+00 0.  1.
       -3    1    3    3    0  502  0.49323132975E+03 -0.26877296983E+03 -0.52320230508E+03  0.76763058576E+03  0.10100000352E+00 0. -1.
</event>
<event>
 5   0  0.1883959E-04  0.1823453E+04  0.7818609E-02  0.8693926E-01
       -1   -1    0    0    0  501  0.00000000000E+00  0.00000000000E+00  0.12849176074E+04  0.12849176074E+04  0.50400001928E-02 0.  1.
        1   -1    0    0  501    0  0.00000000000E+00  0.00000000000E+00 -0.64692518398E+03  0.64692518400E+03  0.50400001928E-02 0. -1.
    10030    2    1    2    0    0  0.00000000000E+00  0.00000000000E+00  0.63799242344E+03  0.19318427914E+04  0.18234533826E+04 0.  0.
        5    1    3    3  502    0  0.80998222556E+03  0.35278259755E+03  0.80453048472E+02  0.88714235039E+03  0.46999998093E+01 0. -1.
       -5    1    3    3    0  502 -0.80998222556E+03 -0.35278259755E+03  0.55753937497E+03  0.10447004410E+04  0.46999998093E+01 0.  1.
</event>
<event>
 5   0  0.1818778E-04  0.1815513E+04  0.7818609E-02  0.8698093E-01
       -1   -1    0    0    0  501  0.00000000000E+00  0.00000000000E+00  0.11169154271E+04  0.11169154271E+04  0.50400001928E-02 0.  1.
        1   -1    0    0  501    0  0.00000000000E+00  0.00000000000E+00 -0.73776535964E+03  0.73776535966E+03  0.50400001928E-02 0. -1.
    10030    2    1    2    0    0  0.00000000000E+00  0.00000000000E+00  0.37915006743E+03  0.18546807867E+04  0.18155126127E+04 0.  0.
        3    1    3    3  502    0  0.75882342404E+03 -0.42026895771E+03 -0.83746205898E+02  0.87146567510E+03  0.10100000352E+00 0. -1.
       -3    1    3    3    0  502 -0.75882342404E+03  0.42026895771E+03  0.46289627333E+03  0.98321511163E+03  0.10100000352E+00 0.  1.
</event>
<event>
 5   0  0.1330125E-04  0.1809840E+04  0.7818609E-02  0.8701084E-01
       -3   -1    0    0    0  501  0.00000000000E+00  0.00000000000E+00  0.19920087186E+04  0.19920087211E+04  0.10100000352E+00 0. -1.
        3   -1    0    0  501    0  0.00000000000E+00  0.00000000000E+00 -0.41108242214E+03  0.41108243455E+03  0.10100000352E+00 0.  1.
    10030    2    1    2    0    0  0.00000000000E+00  0.00000000000E+00  0.15809262964E+04  0.24030911557E+04  0.18098395365E+04 0.  0.
        2    1    3    3  502    0  0.20442243946E+03 -0.71305134363E+03  0.10225023712E+03  0.74878959889E+03  0.25500000920E-02 0.  1.
       -2    1    3    3    0  502 -0.20442243946E+03  0.71305134363E+03  0.14786760593E+04  0.16543015568E+04  0.25500000920E-02 0. -1.
</event>
<event>
 5   0  0.3582186E-04  0.1804225E+04  0.7818609E-02  0.8704056E-01
       -2   -1    0    0    0  501  0.00000000000E+00  0.00000000000E+00  0.84322794880E+03  0.84322794881E+03  0.25500000920E-02 0.  1.
        2   -1    0    0  501    0  0.00000000000E+00  0.00000000000E+00 -0.96510897068E+03  0.96510897068E+03  0.25500000920E-02 0. -1.
    10030    2    1    2    0    0  0.00000000000E+00  0.00000000000E+00 -0.12188102187E+03  0.18083369195E+04  0.18042248837E+04 0.  0.
        4    1    3    3  502    0 -0.43521044068E+03  0.19333748642E+03 -0.82885752755E+03  0.95592569021E+03  0.12699999809E+01 0. -1.
       -4    1    3    3    0  502  0.43521044068E+03 -0.19333748642E+03  0.70697650567E+03  0.85241122928E+03  0.12699999809E+01 0.  1.
</event>
<event>
 5   0  0.1825253E-04  0.1782742E+04  0.7818609E-02  0.8715531E-01
       -1   -1    0    0    0  501  0.00000000000E+00  0.00000000000E+00  0.62793796641E+03  0.62793796643E+03  0.50400001928E-02 0. -1.
        1   -1    0    0  501    0  0.00000000000E+00  0.00000000000E+00 -0.12653202997E+04  0.12653202997E+04  0.50400001928E-02 0.  1.
    10030    2    1    2    0    0  0.00000000000E+00  0.00000000000E+00 -0.63738233324E+03  0.18932582661E+04  0.17827424445E+04 0.  0.
        4    1    3    3  502    0 -0.85151960624E+03  0.18712158642E+03 -0.51577844754E+03  0.10129803294E+04  0.12699999809E+01 0.  1.
       -4    1    3    3    0  502  0.85151960624E+03 -0.18712158642E+03 -0.12160388570E+03  0.88027793669E+03  0.12699999809E+01 0. -1.
</event>
<event>
 5   0  0.1818778E-04  0.1784268E+04  0.7818609E-02  0.8714711E-01
       -1   -1    0    0    0  501  0.00000000000E+00  0.00000000000E+00  0.70491275666E+03  0.70491275667E+03  0.50400001928E-02 0.  1.
        1   -1    0    0  501    0  0.00000000000E+00  0.00000000000E+00 -0.11290798222E+04  0.11290798222E+04  0.50400001928E-02 0. -1.
    10030    2    1    2    0    0  0.00000000000E+00  0.00000000000E+00 -0.42416706555E+03  0.18339925789E+04  0.17842676593E+04 0.  0.
        3    1    3    3  502    0 -0.63712472267E+03 -0.60952867429E+03 -0.35169836247E+03  0.94928650332E+03  0.10100000352E+00 0.  1.
       -3    1    3    3    0  502  0.63712472267E+03  0.60952867429E+03 -0.72468703075E+02  0.88470607557E+03  0.10100000352E+00 0. -1.
</event>
<event>
 5   0  0.3628581E-04  0.1776127E+04  0.7818609E-02  0.8719099E-01
        2   -1    0    0  501    0  0.00000000000E+00  0.00000000000E+00  0.13262129913E+04  0.13262129913E+04  0.25500000920E-02 0. -1.
       -2   -1    0    0    0  501  0.00000000000E+00  0.00000000000E+00 -0.59466805352E+03  0.59466805352E+03  0.25500000920E-02 0.  1.
    10030    2    1    2    0    0  0.00000000000E+00  0.00000000000E+00  0.73154493780E+03  0.19208810448E+04  0.17761266825E+04 0.  0.
        2    1    3    3  502    0  0.82529319203E+03 -0.23899796644E+03  0.12290980380E+03  0.86794913483E+03  0.25500000920E-02 0. -1.
       -2    1    3    3    0  502 -0.82529319203E+03  0.23899796644E+03  0.60863513400E+03  0.10529319100E+04  0.25500000920E-02 0.  1.
</event>
<event>
 5   0  0.1818778E-04  0.1824655E+04  0.7818609E-02  0.8693297E-01
        1   -1    0    0  501    0  0.00000000000E+00  0.00000000000E+00  0.10033324934E+04  0.10033324934E+04  0.50400001928E-02 0.  1.
       -1   -1    0    0    0  501  0.00000000000E+00  0.00000000000E+00 -0.82957666688E+03  0.82957666690E+03  0.50400001928E-02 0. -1.
    10030    2    1    2    0    0  0.00000000000E+00  0.00000000000E+00  0.17375582654E+03  0.18329091603E+04  0.18246547352E+04 0.  0.
        3    1    3    3  502    0  0.18466325258E+03 -0.38863724203E+02  0.98351337837E+03  0.10014536842E+04  0.10100000352E+00 0.  1.
       -3    1    3    3    0  502 -0.18466325258E+03  0.38863724203E+02 -0.80975755182E+03  0.83145547617E+03  0.10100000352E+00 0. -1.
</event>
<event>
 5   0  0.3582186E-04  0.1795556E+04  0.7818609E-02  0.8708666E-01
       -2   -1    0    0    0  501  0.00000000000E+00  0.00000000000E+00  0.80990068747E+03  0.80990068748E+03  0.25500000920E-02 0. -1.
        2   -1    0    0  501    0  0.00000000000E+00  0.00000000000E+00 -0.99519014847E+03  0.99519014847E+03  0.25500000920E-02 0.  1.
    10030    2    1    2    0    0  0.00000000000E+00  0.00000000000E+00 -0.18528946100E+03  0.18050908359E+04  0.17955558308E+04 0.  0.
        4    1    3    3  502    0 -0.82253086917E+03  0.26966635859E+03  0.14679351018E+03  0.87796749554E+03  0.12699999809E+01 0. -1.
       -4    1    3    3    0  502  0.82253086917E+03 -0.26966635859E+03 -0.33208297117E+03  0.92712334041E+03  0.12699999809E+01 0.  1.
</event>
<event>
 5   0  0.3568870E-04  0.1744698E+04  0.7818609E-02  0.8736274E-01
        2   -1    0    0  501    0  0.00000000000E+00  0.00000000000E+00  0.11668911018E+04  0.11668911018E+04  0.25500000920E-02 0.  1.
       -2   -1    0    0    0  501  0.00000000000E+00  0.00000000000E+00 -0.65215417043E+03  0.65215417043E+03  0.25500000920E-02 0. -1.
    10030    2    1    2    0    0  0.00000000000E+00  0.00000000000E+00  0.51473693139E+03  0.18190452723E+04  0.17446981384E+04 0.  0.
        1    1    3    3  502    0  0.13648652037E+03 -0.65126135479E+03  0.84551965110E+03  0.10759523237E+04  0.50400001928E-02 0.  1.
       -1    1    3    3    0  502 -0.13648652037E+03  0.65126135479E+03 -0.33078271971E+03  0.74309294854E+03  0.50400001928E-02 0. -1.
</event>
<event>
 5   0  0.3568870E-04  0.1814501E+04  0.7818609E-02  0.8698626E-01
        2   -1    0    0  501    0  0.00000000000E+00  0.00000000000E+00  0.16795788029E+04  0.16795788029E+04  0.25500000920E-02 0.  1.
       -2   -1    0    0    0  501  0.00000000000E+00  0.00000000000E+00 -0.49006519518E+03  0.49006519519E+03  0.25500000920E-02 0. -1.
    10030    2    1    2    0    0  0.00000000000E+00  0.00000000000E+00  0.11895136077E+04  0.21696439981E+04  0.18145006078E+04 0.  0.
        1    1    3    3  502    0 -0.87129648924E+03  0.86704142200E+01  0.29256612629E+03  0.91914508459E+03  0.50400001928E-02 0.  1.
       -1    1    3    3    0  502  0.87129648924E+03 -0.86704142200E+01  0.89694748144E+03  0.12504989135E+04  0.50400001928E-02 0. -1.
</event>
<event>
 5   0  0.3531266E-04  0.1805812E+04  0.7818609E-02  0.8703215E-01
        2   -1    0    0  501    0  0.00000000000E+00  0.00000000000E+00  0.15531887496E+04  0.15531887496E+04  0.25500000920E-02 0. -1.
       -2   -1    0    0    0  501  0.00000000000E+00  0.00000000000E+00 -0.52488125094E+03  0.52488125094E+03  0.25500000920E-02 0.  1.
    10030    2    1    2    0    0  0.00000000000E+00  0.00000000000E+00  0.10283074986E+04  0.20780700005E+04  0.18058124530E+04 0.  0.
        3    1    3    3  502    0  0.33582389770E+02  0.85498031164E+03  0.18238025258E+03  0.87486094719E+03  0.10100000352E+00 0.  1.
       -3    1    3    3    0  502 -0.33582389770E+02 -0.85498031164E+03  0.84592724606E+03  0.12032090533E+04  0.10100000352E+00 0. -1.
</event>
<event>
 5   0  0.3575091E-04  0.1794630E+04  0.7818609E-02  0.8709160E-01
        2   -1    0    0  501    0  0.00000000000E+00  0.00000000000E+00  0.97203472433E+03  0.97203472434E+03  0.25500000920E-02 0.  1.
       -2   -1    0    0    0  501  0.00000000000E+00  0.00000000000E+00 -0.82833902423E+03  0.82833902423E+03  0.25500000920E-02 0. -1.
    10030    2    1    2    0    0  0.00000000000E+00  0.00000000000E+00  0.14369570011E+03  0.18003737486E+04  0.17946300957E+04 0.  0.
        5    1    3    3  502    0 -0.33379086906E+00 -0.44162674381E+03  0.85544818550E+03  0.96272944296E+03  0.46999998093E+01 0.  1.
       -5    1    3    3    0  502  0.33379086906E+00  0.44162674381E+03 -0.71175248539E+03  0.83764430561E+03  0.46999998093E+01 0. -1.
</event>
<event>
 5   0  0.1818778E-04  0.1802485E+04  0.7818609E-02  0.8704979E-01
       -1   -1    0    0    0  501  0.00000000000E+00  0.00000000000E+00  0.78482869813E+03  0.78482869815E+03  0.50400001928E-02 0.  1.
        1   -1    0    0  501    0  0.00000000000E+00  0.00000000000E+00 -0.10349238813E+04  0.10349238813E+04  0.50400001928E-02 0. -1.
    10030    2    1    2    0    0  0.00000000000E+00  0.00000000000E+00 -0.25009518315E+03  0.18197525794E+04  0.18024849097E+04 0.  0.
        3    1    3    3  502    0  0.12078799072E+03  0.48800182884E+03  0.63011713163E+03  0.80609126867E+03  0.10100000352E+00 0.  1.
       -3    1    3    3    0  502 -0.12078799072E+03 -0.48800182884E+03 -0.88021231479E+03  0.10136613108E+04  0.10100000352E+00 0. -1.
</event>
<event>
 5   0  0.1825253E-04  0.1788831E+04  0.7818609E-02  0.8712262E-01
        1   -1    0    0  501    0  0.00000000000E+00  0.00000000000E+00  0.22618182033E+04  0.22618182033E+04  0.50400001928E-02 0.  1.
       -1   -1    0    0    0  501  0.00000000000E+00  0.00000000000E+00 -0.35368845892E+03  0.35368845895E+03  0.50400001928E-02 0. -1.
    10030    2    1    2    0    0  0.00000000000E+00  0.00000000000E+00  0.19081297444E+04  0.26155066623E+04  0.17888308972E+04 0.  0.
        4    1    3    3  502    0  0.66973750660E+02 -0.57525636182E+02 -0.34730042044E+03  0.35834882033E+03  0.12699999809E+01 0. -1.
       -4    1    3    3    0  502 -0.66973750660E+02  0.57525636182E+02  0.22554301648E+04  0.22571578419E+04  0.12699999809E+01 0.  1.
</event>
<event>
 5   0  0.3582186E-04  0.1789214E+04  0.7818609E-02  0.8712057E-01
        2   -1    0    0  501    0  0.00000000000E+00  0.00000000000E+00  0.17991628970E+04  0.17991628970E+04  0.25500000920E-02 0.  1.
       -2   -1    0    0    0  501  0.00000000000E+00  0.00000000000E+00 -0.44482991923E+03  0.44482991923E+03  0.25500000920E-02 0. -1.
    10030    2    1    2    0    0  0.00000000000E+00  0.00000000000E+00  0.13543329777E+04  0.22439928162E+04  0.17892137783E+04 0.  0.
        4    1    3    3  502    0 -0.23244650156E+03 -0.24832741812E+03  0.17148971549E+04  0.17483053931E+04  0.12699999809E+01 0.  1.
       -4    1    3    3    0  502  0.23244650156E+03  0.24832741812E+03 -0.36056417717E+03  0.49568742312E+03  0.12699999809E+01 0. -1.
</event>
<event>
 5   0  0.1818778E-04  0.1797786E+04  0.7818609E-02  0.8707478E-01
       -1   -1    0    0    0  501  0.00000000000E+00  0.00000000000E+00  0.65742279677E+03  0.65742279679E+03  0.50400001928E-02 0.  1.
        1   -1    0    0  501    0  0.00000000000E+00  0.00000000000E+00 -0.12290550893E+04  0.12290550893E+04  0.50400001928E-02 0. -1.
    10030    2    1    2    0    0  0.00000000000E+00  0.00000000000E+00 -0.57163229249E+03  0.18864778861E+04  0.17977862322E+04 0.  0.
        3    1    3    3  502    0 -0.50650593680E+03  0.39333541210E+03 -0.94676969615E+03  0.11435182019E+04  0.10100000352E+00 0. -1.
       -3    1    3    3    0  502  0.50650593680E+03 -0.39333541210E+03  0.37513740365E+03  0.74295968413E+03  0.10100000352E+00 0.  1.
</event>
<event>
 5   0  0.1835421E-04  0.1790417E+04  0.7818609E-02  0.8711412E-01
        1   -1    0    0  501    0  0.00000000000E+00  0.00000000000E+00  0.18432555796E+04  0.18432555796E+04  0.50400001928E-02 0.  1.
       -1   -1    0    0    0  501  0.00000000000E+00  0.00000000000E+00 -0.43477335305E+03  0.43477335308E+03  0.50400001928E-02 0. -1.
    10030    2    1    2    0    0  0.00000000000E+00  0.00000000000E+00  0.14084822265E+04  0.22780289327E+04  0.17904171681E+04 0.  0.
        2    1    3    3  502    0 -0.37397083047E+03 -0.74674081147E+02  0.17347371640E+04  0.17761597419E+04  0.25500000920E-02 0.  1.
       -2    1    3    3    0  502  0.37397083047E+03  0.74674081147E+02 -0.32625493748E+03  0.50186919080E+03  0.25500000920E-02 0. -1.
</event>
<event>
 5   0  0.1818778E-04  0.1819213E+04  0.7818609E-02  0.8696148E-01
        1   -1    0    0  501    0  0.00000000000E+00  0.00000000000E+00  0.15833200841E+04  0.15833200842E+04  0.50400001928E-02 0. -1.
       -1   -1    0    0    0  501  0.00000000000E+00  0.00000000000E+00 -0.52256292694E+03  0.52256292697E+03  0.50400001928E-02 0.  1.
    10030    2    1    2    0    0  0.00000000000E+00  0.00000000000E+00  0.10607571572E+04  0.21058830111E+04  0.18192134317E+04 0.  0.
        3    1    3    3  502    0 -0.44795555604E+03  0.58923134241E+03 -0.81636563983E+02  0.74466253689E+03  0.10100000352E+00 0.  1.
       -3    1    3    3    0  502  0.44795555604E+03 -0.58923134241E+03  0.11423937212E+04  0.13612204742E+04  0.10100000352E+00 0. -1.
</event>
<event>
 5   0  0.1818778E-04  0.1788312E+04  0.7818609E-02  0.8712540E-01
        1   -1    0    0  501    0  0.00000000000E+00  0.00000000000E+00  0.73089888064E+03  0.73089888066E+03  0.50400001928E-02 0. -1.
       -1   -1    0    0    0  501  0.00000000000E+00  0.00000000000E+00 -0.10938785617E+04  0.10938785617E+04  0.50400001928E-02 0.  1.
    10030    2    1    2    0    0  0.00000000000E+00  0.00000000000E+00 -0.36297968109E+03  0.18247774424E+04  0.17883116242E+04 0.  0.
        3    1    3    3  502    0  0.14431004923E+03  0.50113226621E+03 -0.92263086015E+03  0.10598144427E+04  0.10100000352E+00 0.  1.
       -3    1    3    3    0  502 -0.14431004923E+03 -0.50113226621E+03  0.55965117906E+03  0.76496299974E+03  0.10100000352E+00 0. -1.
</event>
<event>
 5   0  0.1883959E-04  0.1829816E+04  0.7818609E-02  0.8690603E-01
       -1   -1    0    0    0  501  0.00000000000E+00  0.00000000000E+00  0.88326710062E+03  0.88326710063E+03  0.50400001928E-02 0. -1.
        1   -1    0    0  501    0  0.00000000000E+00  0.00000000000E+00 -0.94768198114E+03  0.94768198116E+03  0.50400001928E-02 0.  1.
    10030    2    1    2    0    0  0.00000000000E+00  0.00000000000E+00 -0.64414880526E+02  0.18309490818E+04  0.18298156364E+04 0.  0.
        5    1    3    3  502    0  0.89247949163E+03  0.72361757080E+01  0.16906939218E+03  0.90839339197E+03  0.46999998093E+01 0. -1.
       -5    1    3    3    0  502 -0.89247949163E+03 -0.72361757080E+01 -0.23348427270E+03  0.92255568981E+03  0.46999998093E+01 0.  1.
</event>
<event>
 5   0  0.1835421E-04  0.1803443E+04  0.7818609E-02  0.8704471E-01
       -1   -1    0    0    0  501  0.00000000000E+00  0.00000000000E+00  0.63132302519E+03  0.63132302521E+03  0.50400001928E-02 0. -1.
        1   -1    0    0  501    0  0.00000000000E+00  0.00000000000E+00 -0.12879322909E+04  0.12879322909E+04  0.50400001928E-02 0.  1.
    10030    2    1    2    0    0  0.00000000000E+00  0.00000000000E+00 -0.65660926566E+03  0.19192553161E+04  0.18034426081E+04 0.  0.
        2    1    3    3  502    0  0.57376156639E+03  0.57650900883E+03  0.85970456690E+02  0.81789723789E+03  0.25500000920E-02 0.  1.
       -2    1    3    3    0  502 -0.57376156639E+03 -0.57650900883E+03 -0.74257972235E+03  0.11013580782E+04  0.25500000920E-02 0. -1.
</event>
<event>
 5   0  0.1330125E-04  0.1526516E+04  0.7818609E-02  0.8867009E-01
        3   -1    0    0  501    0  0.00000000000E+00  0.00000000000E+00  0.22286498612E+04  0.22286498635E+04  0.10100000352E+00 0. -1.
       -3   -1    0    0    0  501  0.00000000000E+00  0.00000000000E+00 -0.26139721967E+03  0.26139723918E+03  0.10100000352E+00 0.  1.
    10030    2    1    2    0    0  0.00000000000E+00  0.00000000000E+00  0.19672526416E+04  0.24900471027E+04  0.15265161702E+04 0.  0.
        1    1    3    3  502    0  0.10193117653E+03 -0.17836941954E+03  0.21827021836E+04  0.21923490682E+04  0.50400001928E-02 0. -1.
       -1    1    3    3    0  502 -0.10193117653E+03  0.17836941954E+03 -0.21544954201E+03  0.29769803451E+03  0.50400001928E-02 0.  1.
</event>
<event>
 5   0  0.1330125E-04  0.1694739E+04  0.7818609E-02  0.8764370E-01
        4   -1    0    0  501    0  0.00000000000E+00  0.00000000000E+00  0.72479503314E+03  0.72479614580E+03  0.12699999809E+01 0.  1.
       -4   -1    0    0    0  501  0.00000000000E+00  0.00000000000E+00 -0.99067153405E+03  0.99067234809E+03  0.12699999809E+01 0. -1.
    10030    2    1    2    0    0  0.00000000000E+00  0.00000000000E+00 -0.26587650091E+03  0.17154684939E+04  0.16947394607E+04 0.  0.
        1    1    3    3  502    0  0.73116676089E+03  0.31783938356E+03  0.15764225724E+03  0.81269784500E+03  0.50400001928E-02 0.  1.
       -1    1    3    3    0  502 -0.73116676089E+03 -0.31783938356E+03 -0.42351875816E+03  0.90277064889E+03  0.50400001928E-02 0. -1.
</event>
<event>
 5   0  0.3575091E-04  0.1793865E+04  0.7818609E-02  0.8709569E-01
       -2   -1    0    0    0  501  0.00000000000E+00  0.00000000000E+00  0.88897091009E+03  0.88897091010E+03  0.25500000920E-02 0. -1.
        2   -1    0    0  501    0  0.00000000000E+00  0.00000000000E+00 -0.90496536955E+03  0.90496536955E+03  0.25500000920E-02 0.  1.
    10030    2    1    2    0    0  0.00000000000E+00  0.00000000000E+00 -0.15994459457E+02  0.17939362796E+04  0.17938649762E+04 0.  0.
        5    1    3    3  502    0 -0.71999222329E+03 -0.26688699913E+03  0.45553853634E+03  0.89283532636E+03  0.46999998093E+01 0.  1.
       -5    1    3    3    0  502  0.71999222329E+03  0.26688699913E+03 -0.47153299579E+03  0.90110095329E+03  0.46999998093E+01 0. -1.
</event>
<event>
 5   0  0.1837313E-04  0.1794744E+04  0.7818609E-02  0.8709100E-01
        1   -1    0    0  501    0  0.00000000000E+00  0.00000000000E+00  0.17486849408E+04  0.17486849408E+04  0.50400001928E-02 0.  1.
       -1   -1    0    0    0  501  0.00000000000E+00  0.00000000000E+00 -0.46050382715E+03  0.46050382718E+03  0.50400001928E-02 0. -1.
    10030    2    1    2    0    0  0.00000000000E+00  0.00000000000E+00  0.12881811136E+04  0.22091887680E+04  0.17947435558E+04 0.  0.
        1    1    3    3  502    0  0.26600514276E+03 -0.80599303649E+03  0.28544510034E+03  0.89546770806E+03  0.50400001928E-02 0. -1.
       -1    1    3    3    0  502 -0.26600514276E+03  0.80599303649E+03  0.10027360133E+04  0.13137210599E+04  0.50400001928E-02 0.  1.
</event>
<event>
 5   0  0.3575091E-04  0.1567255E+04  0.7818609E-02  0.8840921E-01
       -2   -1    0    0    0  501  0.00000000000E+00  0.00000000000E+00  0.36245410929E+03  0.36245410930E+03  0.25500000920E-02 0.  1.
        2   -1    0    0  501    0  0.00000000000E+00  0.00000000000E+00 -0.16942062138E+04  0.16942062138E+04  0.25500000920E-02 0. -1.
    10030    2    1    2    0    0  0.00000000000E+00  0.00000000000E+00 -0.13317521045E+04  0.20566603231E+04  0.15672549304E+04 0.  0.
        5    1    3    3  502    0  0.41528666643E+03  0.56909213271E+02  0.20294944739E+03  0.46573838371E+03  0.46999998093E+01 0.  1.
       -5    1    3    3    0  502 -0.41528666643E+03 -0.56909213271E+02 -0.15347015519E+04  0.15909219394E+04  0.46999998093E+01 0. -1.
</event>
<event>
 5   0  0.1818778E-04  0.1837421E+04  0.7818609E-02  0.8686649E-01
        1   -1    0    0  501    0  0.00000000000E+00  0.00000000000E+00  0.75420112851E+03  0.75420112852E+03  0.50400001928E-02 0. -1.
       -1   -1    0    0    0  501  0.00000000000E+00  0.00000000000E+00 -0.11191035243E+04  0.11191035243E+04  0.50400001928E-02 0.  1.
    10030    2    1    2    0    0  0.00000000000E+00  0.00000000000E+00 -0.36490239576E+03  0.18733046528E+04  0.18374211721E+04 0.  0.
        3    1    3    3  502    0 -0.56614862839E+03  0.50680259804E+02 -0.91830584391E+03  0.10799899959E+04  0.10100000352E+00 0.  1.
       -3    1    3    3    0  502  0.56614862839E+03 -0.50680259804E+02  0.55340344816E+03  0.79331465686E+03  0.10100000352E+00 0. -1.
</event>
<event>
 5   0  0.3582186E-04  0.1847253E+04  0.7818609E-02  0.8681567E-01
       -2   -1    0    0    0  501  0.00000000000E+00  0.00000000000E+00  0.54968807317E+03  0.54968807317E+03  0.25500000920E-02 0.  1.
        2   -1    0    0  501    0  0.00000000000E+00  0.00000000000E+00 -0.15519448945E+04  0.15519448945E+04  0.25500000920E-02 0. -1.
    10030    2    1    2    0    0  0.00000000000E+00  0.00000000000E+00 -0.10022568214E+04  0.21016329677E+04  0.18472526614E+04 0.  0.
        4    1    3    3  502    0  0.23804124054E+03  0.59719945853E+03 -0.12556035464E+04  0.14106213893E+04  0.12699999809E+01 0. -1.
       -4    1    3    3    0  502 -0.23804124054E+03 -0.59719945853E+03  0.25334672502E+03  0.69101157837E+03  0.12699999809E+01 0.  1.
</event>
<event>
 5   0  0.1825253E-04  0.1802290E+04  0.7818609E-02  0.8705083E-01
       -1   -1    0    0    0  501  0.00000000000E+00  0.00000000000E+00  0.72214527849E+03  0.72214527851E+03  0.50400001928E-02 0.  1.
        1   -1    0    0  501    0  0.00000000000E+00  0.00000000000E+00 -0.11245134253E+04  0.11245134253E+04  0.50400001928E-02 0. -1.
    10030    2    1    2    0    0  0.00000000000E+00  0.00000000000E+00 -0.40236814679E+03  0.18466587038E+04  0.18022897222E+04 0.  0.
        4    1    3    3  502    0  0.14374454171E+03  0.83992500201E+03  0.99160048550E+02  0.85788742292E+03  0.12699999809E+01 0. -1.
       -4    1    3    3    0  502 -0.14374454171E+03 -0.83992500201E+03 -0.50152819534E+03  0.98877128088E+03  0.12699999809E+01 0.  1.
</event>
<event>
 5   0  0.3582186E-04  0.1801568E+04  0.7818609E-02  0.8705466E-01
       -2   -1    0    0    0  501  0.00000000000E+00  0.00000000000E+00  0.42083932099E+03  0.42083932100E+03  0.25500000920E-02 0.  1.
        2   -1    0    0  501    0  0.00000000000E+00  0.00000000000E+00 -0.19280798000E+04  0.19280798000E+04  0.25500000920E-02 0. -1.
    10030    2    1    2    0    0  0.00000000000E+00  0.00000000000E+00 -0.15072404790E+04  0.23489191210E+04  0.18015679769E+04 0.  0.
        4    1    3    3  502    0 -0.76466261939E+03 -0.24438454712E+02 -0.13735914931E+04  0.15722790345E+04  0.12699999809E+01 0. -1.
       -4    1    3    3    0  502  0.76466261939E+03  0.24438454712E+02 -0.13364898588E+03  0.77664008646E+03  0.12699999809E+01 0.  1.
</event>
<event>
 5   0  0.3628581E-04  0.1813866E+04  0.7818609E-02  0.8698960E-01
       -2   -1    0    0    0  501  0.00000000000E+00  0.00000000000E+00  0.76885073210E+03  0.76885073210E+03  0.25500000920E-02 0.  1.
        2   -1    0    0  501    0  0.00000000000E+00  0.00000000000E+00 -0.10698138192E+04  0.10698138192E+04  0.25500000920E-02 0. -1.
    10030    2    1    2    0    0  0.00000000000E+00  0.00000000000E+00 -0.30096308712E+03  0.18386645513E+04  0.18138656379E+04 0.  0.
        2    1    3    3  502    0 -0.57111907596E+03 -0.12018106780E+03 -0.85416744404E+03  0.10345155922E+04  0.25500000920E-02 0. -1.
       -2    1    3    3    0  502  0.57111907596E+03  0.12018106780E+03  0.55320435693E+03  0.80414895915E+03  0.25500000920E-02 0.  1.
</event>
<event>
 5   0  0.1837313E-04  0.1830705E+04  0.7818609E-02  0.8690139E-01
        1   -1    0    0  501    0  0.00000000000E+00  0.00000000000E+00  0.12139770067E+04  0.12139770067E+04  0.50400001928E-02 0. -1.
       -1   -1    0    0    0  501  0.00000000000E+00  0.00000000000E+00 -0.69018602091E+03  0.69018602093E+03  0.50400001928E-02 0.  1.
    10030    2    1    2    0    0  0.00000000000E+00  0.00000000000E+00  0.52379098582E+03  0.19041630277E+04  0.18307047384E+04 0.  0.
        1    1    3    3  502    0 -0.35038387943E+02  0.73938123803E+03  0.82197942405E+03  0.11061475839E+04  0.50400001928E-02 0. -1.
       -1    1    3    3    0  502  0.35038387943E+02 -0.73938123803E+03 -0.29818843823E+03  0.79801544377E+03  0.50400001928E-02 0.  1.
</event>
<event>
 5   0  0.1330125E-04  0.1780429E+04  0.7818609E-02  0.8716777E-01
       -3   -1    0    0    0  501  0.00000000000E+00  0.00000000000E+00  0.33031009375E+03  0.33031010919E+03  0.10100000352E+00 0.  1.
        3   -1    0    0  501    0  0.00000000000E+00  0.00000000000E+00 -0.23992059083E+04  0.23992059104E+04  0.10100000352E+00 0. -1.
    10030    2    1    2    0    0  0.00000000000E+00  0.00000000000E+00 -0.20688958146E+04  0.27295160196E+04  0.17804291084E+04 0.  0.
        2    1    3    3  502    0  0.70555992443E+03 -0.18336250624E+03 -0.18177313229E+04  0.19584646481E+04  0.25500000920E-02 0. -1.
       -2    1    3    3    0  502 -0.70555992443E+03  0.18336250624E+03 -0.25116449169E+03  0.77105137154E+03  0.25500000920E-02 0.  1.
</event>
<event>
 5   0  0.1837313E-04  0.1905978E+04  0.7818609E-02  0.8651886E-01
        1   -1    0    0  501    0  0.00000000000E+00  0.00000000000E+00  0.99374245107E+03  0.99374245108E+03  0.50400001928E-02 0. -1.
       -1   -1    0    0    0  501  0.00000000000E+00  0.00000000000E+00 -0.91390713466E+03  0.91390713468E+03  0.50400001928E-02 0.  1.
    10030    2    1    2    0    0  0.00000000000E+00  0.00000000000E+00  0.79835316404E+02  0.19076495858E+04  0.19059782959E+04 0.  0.
        1    1    3    3  502    0 -0.45005648690E+03 -0.52087684052E+02  0.87905866598E+03  0.98894292378E+03  0.50400001928E-02 0. -1.
       -1    1    3    3    0  502  0.45005648690E+03  0.52087684052E+02 -0.79922334958E+03  0.91870666198E+03  0.50400001928E-02 0.  1.
</event>
<event>
 5   0  0.3575091E-04  0.1805493E+04  0.7818609E-02  0.8703384E-01
        2   -1    0    0  501    0  0.00000000000E+00  0.00000000000E+00  0.91071444899E+03  0.91071444900E+03  0.25500000920E-02 0. -1.
       -2   -1    0    0    0  501  0.00000000000E+00  0.00000000000E+00 -0.89484873095E+03  0.89484873095E+03  0.25500000920E-02 0.  1.
    10030    2    1    2    0    0  0.00000000000E+00  0.00000000000E+00  0.15865718044E+02  0.18055631799E+04  0.18054934715E+04 0.  0.
        5    1    3    3  502    0  0.27916219531E+03  0.62129536007E+03  0.60039992691E+03  0.90798767501E+03  0.46999998093E+01 0. -1.
       -5    1    3    3    0  502 -0.27916219531E+03 -0.62129536007E+03 -0.58453420886E+03  0.89757550494E+03  0.46999998093E+01 0.  1.
</event>
<event>
 5   0  0.3531266E-04  0.1788752E+04  0.7818609E-02  0.8712304E-01
       -2   -1    0    0    0  501  0.00000000000E+00  0.00000000000E+00  0.36441277665E+03  0.36441277666E+03  0.25500000920E-02 0.  1.
        2   -1    0    0  501    0  0.00000000000E+00  0.00000000000E+00 -0.21950606545E+04  0.21950606545E+04  0.25500000920E-02 0. -1.
    10030    2    1    2    0    0  0.00000000000E+00  0.00000000000E+00 -0.18306478778E+04  0.25594734311E+04  0.17887516854E+04 0.  0.
        3    1    3    3  502    0 -0.38104089025E+02  0.61588091349E+03  0.11044408685E+02  0.61715736273E+03  0.10100000352E+00 0.  1.
       -3    1    3    3    0  502  0.38104089025E+02 -0.61588091349E+03 -0.18416922865E+04  0.19423160684E+04  0.10100000352E+00 0. -1.
</event>
<event>
 5   0  0.3531266E-04  0.1795032E+04  0.7818609E-02  0.8708946E-01
       -2   -1    0    0    0  501  0.00000000000E+00  0.00000000000E+00  0.10442979305E+04  0.10442979305E+04  0.25500000920E-02 0. -1.
        2   -1    0    0  501    0  0.00000000000E+00  0.00000000000E+00 -0.77136508618E+03  0.77136508619E+03  0.25500000920E-02 0.  1.
    10030    2    1    2    0    0  0.00000000000E+00  0.00000000000E+00  0.27293284433E+03  0.18156630167E+04  0.17950319921E+04 0.  0.
        3    1    3    3  502    0  0.77202481298E+03  0.45163202514E+03  0.21176091336E+03  0.91914987495E+03  0.10100000352E+00 0.  1.
       -3    1    3    3    0  502 -0.77202481298E+03 -0.45163202514E+03  0.61171930965E+02  0.89651314175E+03  0.10100000352E+00 0. -1.
</event>
<event>
 5   0  0.1835421E-04  0.1393488E+04  0.7818609E-02  0.8958546E-01
       -1   -1    0    0    0  501  0.00000000000E+00  0.00000000000E+00  0.30061456196E+03  0.30061456200E+03  0.50400001928E-02 0. -1.
        1   -1    0    0  501    0  0.00000000000E+00  0.00000000000E+00 -0.16148657399E+04  0.16148657399E+04  0.50400001928E-02 0.  1.
    10030    2    1    2    0    0  0.00000000000E+00  0.00000000000E+00 -0.13142511779E+04  0.19154803019E+04  0.13934879362E+04 0.  0.
        2    1    3    3  502    0 -0.38717718114E+03 -0.52557364362E+03 -0.32233831250E+03  0.72803558441E+03  0.25500000920E-02 0. -1.
       -2    1    3    3    0  502  0.38717718114E+03  0.52557364362E+03 -0.99191286544E+03  0.11874447175E+04  0.25500000920E-02 0.  1.
</event>
<event>
 5   0  0.3582186E-04  0.2001458E+04  0.7818609E-02  0.8605939E-01
        2   -1    0    0  501    0  0.00000000000E+00  0.00000000000E+00  0.10965304277E+04  0.10965304277E+04  0.25500000920E-02 0. -1.
       -2   -1    0    0    0  501  0.00000000000E+00  0.00000000000E+00 -0.91329784507E+03  0.91329784508E+03  0.25500000920E-02 0.  1.
    10030    2    1    2    0    0  0.00000000000E+00  0.00000000000E+00  0.18323258265E+03  0.20098282728E+04  0.20014583450E+04 0.  0.
        4    1    3    3  502    0  0.84187411829E+03 -0.54050572998E+03  0.11535385625E+03  0.10070782493E+04  0.12699999809E+01 0. -1.
       -4    1    3    3    0  502 -0.84187411829E+03  0.54050572998E+03  0.67878726394E+02  0.10027500235E+04  0.12699999809E+01 0.  1.
</event>
<event>
 5   0  0.1837313E-04  0.1814760E+04  0.7818609E-02  0.8698489E-01
        1   -1    0    0  501    0  0.00000000000E+00  0.00000000000E+00  0.73176929608E+03  0.73176929610E+03  0.50400001928E-02 0.  1.
       -1   -1    0    0    0  501  0.00000000000E+00  0.00000000000E+00 -0.11251338529E+04  0.11251338529E+04  0.50400001928E-02 0. -1.
    10030    2    1    2    0    0  0.00000000000E+00  0.00000000000E+00 -0.39336455678E+03  0.18569031490E+04  0.18147599373E+04 0.  0.
        1    1    3    3  502    0 -0.61219517345E+03  0.16202565212E+03  0.46825738273E+03  0.78759140349E+03  0.50400001928E-02 0.  1.
       -1    1    3    3    0  502  0.61219517345E+03 -0.16202565212E+03 -0.86162193951E+03  0.10693117455E+04  0.50400001928E-02 0. -1.
</event>
<event>
 5   0  0.3531266E-04  0.1851337E+04  0.7818609E-02  0.8679466E-01
       -2   -1    0    0    0  501  0.00000000000E+00  0.00000000000E+00  0.71168204778E+03  0.71168204778E+03  0.25500000920E-02 0. -1.
        2   -1    0    0  501    0  0.00000000000E+00  0.00000000000E+00 -0.12039956892E+04  0.12039956892E+04  0.25500000920E-02 0.  1.
    10030    2    1    2    0    0  0.00000000000E+00  0.00000000000E+00 -0.49231364145E+03  0.19156777370E+04  0.18513369414E+04 0.  0.
        3    1    3    3  502    0 -0.52893812351E+03 -0.72394335520E+03 -0.48435835110E+03  0.10190547299E+04  0.10100000352E+00 0.  1.
       -3    1    3    3    0  502  0.52893812351E+03  0.72394335520E+03 -0.79552903441E+01  0.89662300712E+03  0.10100000352E+00 0. -1.
</event>
<event>
 5   0  0.1837313E-04  0.1806926E+04  0.7818609E-02  0.8702625E-01
       -1   -1    0    0    0  501  0.00000000000E+00  0.00000000000E+00  0.72963579968E+03  0.72963579970E+03  0.50400001928E-02 0. -1.
        1   -1    0    0  501    0  0.00000000000E+00  0.00000000000E+00 -0.11187027965E+04  0.11187027965E+04  0.50400001928E-02 0.  1.
    10030    2    1    2    0    0  0.00000000000E+00  0.00000000000E+00 -0.38906699683E+03  0.18483385962E+04  0.18069262404E+04 0.  0.
        1    1    3    3  502    0 -0.12910262836E+03  0.54688624418E+03  0.52913614137E+03  0.77184007984E+03  0.50400001928E-02 0. -1.
       -1    1    3    3    0  502  0.12910262836E+03 -0.54688624418E+03 -0.91820313820E+03  0.10764985164E+04  0.50400001928E-02 0.  1.
</event>
<event>
 5   0  0.3575091E-04  0.1777053E+04  0.7818609E-02  0.8718599E-01
       -2   -1    0    0    0  501  0.00000000000E+00  0.00000000000E+00  0.47439694521E+03  0.47439694522E+03  0.25500000920E-02 0.  1.
        2   -1    0    0  501    0  0.00000000000E+00  0.00000000000E+00 -0.16641743066E+04  0.16641743066E+04  0.25500000920E-02 0. -1.
    10030    2    1    2    0    0  0.00000000000E+00  0.00000000000E+00 -0.11897773614E+04  0.21385712518E+04  0.17770528493E+04 0.  0.
        5    1    3    3  502    0 -0.24685597402E+03  0.21831383535E+03 -0.15878944079E+04  0.16217365825E+04  0.46999998093E+01 0. -1.
       -5    1    3    3    0  502  0.24685597402E+03 -0.21831383535E+03  0.39811704651E+03  0.51683466925E+03  0.46999998093E+01 0.  1.
</event>
<event>
 5   0  0.1330125E-04  0.1804087E+04  0.7818609E-02  0.8704129E-01
       -3   -1    0    0    0  501  0.00000000000E+00  0.00000000000E+00  0.80887389042E+03  0.80887389672E+03  0.10100000352E+00 0. -1.
        3   -1    0    0  501    0  0.00000000000E+00  0.00000000000E+00 -0.10059445733E+04  0.10059445784E+04  0.10100000352E+00 0.  1.
    10030    2    1    2    0    0  0.00000000000E+00  0.00000000000E+00 -0.19707068293E+03  0.18148184751E+04  0.18040868171E+04 0.  0.
        4    1    3    3  502    0 -0.89266666655E+03 -0.61146152619E+02  0.16548284766E+02  0.89491233547E+03  0.12699999809E+01 0.  1.
       -4    1    3    3    0  502  0.89266666655E+03  0.61146152619E+02 -0.21361896770E+03  0.91990613967E+03  0.12699999809E+01 0. -1.
</event>
<event>
 5   0  0.1825253E-04  0.1781137E+04  0.7818609E-02  0.8716396E-01
       -1   -1    0    0    0  501  0.00000000000E+00  0.00000000000E+00  0.87265602183E+03  0.87265602184E+03  0.50400001928E-02 0.  1.
        1   -1    0    0  501    0  0.00000000000E+00  0.00000000000E+00 -0.90884836979E+03  0.90884836981E+03  0.50400001928E-02 0. -1.
    10030    2    1    2    0    0  0.00000000000E+00  0.00000000000E+00 -0.36192347962E+02  0.17815043916E+04  0.17811367189E+04 0.  0.
        4    1    3    3  502    0  0.32672260290E+03  0.38952406218E+03  0.71324128778E+03  0.87589462937E+03  0.12699999809E+01 0.  1.
       -4    1    3    3    0  502 -0.32672260290E+03 -0.38952406218E+03 -0.74943363574E+03  0.90560976228E+03  0.12699999809E+01 0. -1.
</event>
<event>
 5   0  0.3628581E-04  0.1793866E+04  0.7818609E-02  0.8709568E-01
        2   -1    0    0  501    0  0.00000000000E+00  0.00000000000E+00  0.13046386792E+04  0.13046386792E+04  0.25500000920E-02 0.  1.
       -2   -1    0    0    0  501  0.00000000000E+00  0.00000000000E+00 -0.61663734529E+03  0.61663734530E+03  0.25500000920E-02 0. -1.
    10030    2    1    2    0    0  0.00000000000E+00  0.00000000000E+00  0.68800133391E+03  0.19212760245E+04  0.17938661396E+04 0.  0.
        2    1    3    3  502    0  0.33784774228E+03 -0.78941842835E+03  0.66428637255E+02  0.86124056792E+03  0.25500000920E-02 0. -1.
       -2    1    3    3    0  502 -0.33784774228E+03  0.78941842835E+03  0.62157269666E+03  0.10600354566E+04  0.25500000920E-02 0.  1.
</event>
<event>
 5   0  0.3531266E-04  0.1794327E+04  0.7818609E-02  0.8709322E-01
        2   -1    0    0  501    0  0.00000000000E+00  0.00000000000E+00  0.60800032269E+03  0.60800032270E+03  0.25500000920E-02 0. -1.
       -2   -1    0    0    0  501  0.00000000000E+00  0.00000000000E+00 -0.13238519857E+04  0.13238519857E+04  0.25500000920E-02 0.  1.
    10030    2    1    2    0    0  0.00000000000E+00  0.00000000000E+00 -0.71585166300E+03  0.19318523084E+04  0.17943270989E+04 0.  0.
        3    1    3    3  502    0  0.33961061718E+02 -0.45168403939E+03  0.47585212483E+03  0.65696809668E+03  0.10100000352E+00 0. -1.
       -3    1    3    3    0  502 -0.33961061718E+02  0.45168403939E+03 -0.11917037878E+04  0.12748842117E+04  0.10100000352E+00 0.  1.
</event>
<event>
 5   0  0.1818778E-04  0.1787244E+04  0.7818609E-02  0.8713112E-01
        1   -1    0    0  501    0  0.00000000000E+00  0.00000000000E+00  0.15557001474E+04  0.15557001474E+04  0.50400001928E-02 0. -1.
       -1   -1    0    0    0  501  0.00000000000E+00  0.00000000000E+00 -0.51331250881E+03  0.51331250883E+03  0.50400001928E-02 0.  1.
    10030    2    1    2    0    0  0.00000000000E+00  0.00000000000E+00  0.10423876386E+04  0.20690126563E+04  0.17872440747E+04 0.  0.
        3    1    3    3  502    0  0.24752034479E+03 -0.73605199381E+03  0.10330836664E+04  0.12924011493E+04  0.10100000352E+00 0.  1.
       -3    1    3    3    0  502 -0.24752034479E+03  0.73605199381E+03  0.93039722133E+01  0.77661150698E+03  0.10100000352E+00 0. -1.
</event>
<event>
 5   0  0.3575091E-04  0.1809200E+04  0.7818609E-02  0.8701422E-01
        2   -1    0    0  501    0  0.00000000000E+00  0.00000000000E+00  0.16482929315E+04  0.16482929315E+04  0.25500000920E-02 0. -1.
       -2   -1    0    0    0  501  0.00000000000E+00  0.00000000000E+00 -0.49645366944E+03  0.49645366945E+03  0.25500000920E-02 0.  1.
    10030    2    1    2    0    0  0.00000000000E+00  0.00000000000E+00  0.11518392620E+04  0.21447466009E+04  0.18091999051E+04 0.  0.
        5    1    3    3  502    0 -0.50788110983E+03 -0.70347934959E+03  0.27263334400E+03  0.90949296165E+03  0.46999998093E+01 0.  1.
       -5    1    3    3    0  502  0.50788110983E+03  0.70347934959E+03  0.87920591801E+03  0.12352536393E+04  0.46999998093E+01 0. -1.
</event>
<event>
 5   0  0.3582186E-04  0.1750279E+04  0.7818609E-02  0.8733197E-01
       -2   -1    0    0    0  501  0.00000000000E+00  0.00000000000E+00  0.15179610008E+04  0.15179610008E+04  0.25500000920E-02 0.  1.
        2   -1    0    0  501    0  0.00000000000E+00  0.00000000000E+00 -0.50453819992E+03  0.50453819993E+03  0.25500000920E-02 0. -1.
    10030    2    1    2    0    0  0.00000000000E+00  0.00000000000E+00  0.10134228009E+04  0.20224992008E+04  0.17502791902E+04 0.  0.
        4    1    3    3  502    0 -0.56740657983E+03 -0.48304142168E+03 -0.23560128318E+02  0.74554405265E+03  0.12699999809E+01 0. -1.
       -4    1    3    3    0  502  0.56740657983E+03  0.48304142168E+03  0.10369829292E+04  0.12769551481E+04  0.12699999809E+01 0.  1.
</event>
<event>
 5   0  0.3628581E-04  0.1797475E+04  0.7818609E-02  0.8707644E-01
       -2   -1    0    0    0  501  0.00000000000E+00  0.00000000000E+00  0.11210659132E+04  0.11210659132E+04  0.25500000920E-02 0.  1.
        2   -1    0    0  501    0  0.00000000000E+00  0.00000000000E+00 -0.72050063083E+03  0.72050063083E+03  0.25500000920E-02 0. -1.
    10030    2    1    2    0    0  0.00000000000E+00  0.00000000000E+00  0.40056528242E+03  0.18415665441E+04  0.17974745592E+04 0.  0.
        2    1    3    3  502    0 -0.34564272615E+03 -0.10553152092E+03  0.10433425082E+04  0.11041600361E+04  0.25500000920E-02 0.  1.
       -2    1    3    3    0  502  0.34564272615E+03  0.10553152092E+03 -0.64277722573E+03  0.73740650796E+03  0.25500000920E-02 0. -1.
</event>
<event>
 5   0  0.1835421E-04  0.1742513E+04  0.7818609E-02  0.8737482E-01
       -1   -1    0    0    0  501  0.00000000000E+00  0.00000000000E+00  0.55724319443E+03  0.55724319445E+03  0.50400001928E-02 0.  1.
        1   -1    0    0  501    0  0.00000000000E+00  0.00000000000E+00 -0.13622202572E+04  0.13622202572E+04  0.50400001928E-02 0. -1.
    10030    2    1    2    0    0  0.00000000000E+00  0.00000000000E+00 -0.80497706276E+03  0.19194634516E+04  0.17425130905E+04 0.  0.
        2    1    3    3  502    0  0.63518981661E+03  0.51028505404E+03 -0.62555760481E+02  0.81717205207E+03  0.25500000920E-02 0.  1.
       -2    1    3    3    0  502 -0.63518981661E+03 -0.51028505404E+03 -0.74242130227E+03  0.11022913996E+04  0.25500000920E-02 0. -1.
</event>
<event>
 5   0  0.3628581E-04  0.1797808E+04  0.7818609E-02  0.8707466E-01
       -2   -1    0    0    0  501  0.00000000000E+00  0.00000000000E+00  0.11170950580E+04  0.11170950580E+04  0.25500000920E-02 0. -1.
        2   -1    0    0  501    0  0.00000000000E+00  0.00000000000E+00 -0.72332995535E+03  0.72332995535E+03  0.25500000920E-02 0.  1.
    10030    2    1    2    0    0  0.00000000000E+00  0.00000000000E+00  0.39376510269E+03  0.18404250134E+04  0.17978079079E+04 0.  0.
        2    1    3    3  502    0 -0.88390579267E+03 -0.16261960778E+03  0.17933768914E+03  0.91645872460E+03  0.25500000920E-02 0.  1.
       -2    1    3    3    0  502  0.88390579267E+03  0.16261960778E+03  0.21442741356E+03  0.92396628880E+03  0.25500000920E-02 0. -1.
</event>
<event>
 5   0  0.3575091E-04  0.1797893E+04  0.7818609E-02  0.8707421E-01
        2   -1    0    0  501    0  0.00000000000E+00  0.00000000000E+00  0.93209034530E+03  0.93209034531E+03  0.25500000920E-02 0.  1.
       -2   -1    0    0    0  501  0.00000000000E+00  0.00000000000E+00 -0.86698129943E+03  0.86698129944E+03  0.25500000920E-02 0. -1.
    10030    2    1    2    0    0  0.00000000000E+00  0.00000000000E+00  0.65109045869E+02  0.17990716447E+04  0.17978930989E+04 0.  0.
        5    1    3    3  502    0  0.89812043000E+03  0.10626472964E+02  0.69315235384E+02  0.90086620570E+03  0.46999998093E+01 0.  1.
       -5    1    3    3    0  502 -0.89812043000E+03 -0.10626472964E+02 -0.42061895155E+01  0.89820543905E+03  0.46999998093E+01 0. -1.
</event>
<event>
 5   0  0.3582186E-04  0.1808672E+04  0.7818609E-02  0.8701701E-01
       -2   -1    0    0    0  501  0.00000000000E+00  0.00000000000E+00  0.15981585748E+04  0.15981585748E+04  0.25500000920E-02 0.  1.
        2   -1    0    0  501    0  0.00000000000E+00  0.00000000000E+00 -0.51172877994E+03  0.51172877995E+03  0.25500000920E-02 0. -1.
    10030    2    1    2    0    0  0.00000000000E+00  0.00000000000E+00  0.10864297948E+04  0.21098873547E+04  0.18086721512E+04 0.  0.
        4    1    3    3  502    0  0.26294951819E+03  0.46679829902E+03 -0.30666252732E+03  0.61732213604E+03  0.12699999809E+01 0. -1.
       -4    1    3    3    0  502 -0.26294951819E+03 -0.46679829902E+03  0.13930923221E+04  0.14925652187E+04  0.12699999809E+01 0.  1.
</event>
<event>
 5   0  0.3628581E-04  0.1816649E+04  0.7818609E-02  0.8697496E-01
        2   -1    0    0  501    0  0.00000000000E+00  0.00000000000E+00  0.12069997496E+04  0.12069997496E+04  0.25500000920E-02 0.  1.
       -2   -1    0    0    0  501  0.00000000000E+00  0.00000000000E+00 -0.68355711775E+03  0.68355711775E+03  0.25500000920E-02 0. -1.
    10030    2    1    2    0    0  0.00000000000E+00  0.00000000000E+00  0.52344263188E+03  0.18905568674E+04  0.18166488598E+04 0.  0.
        2    1    3    3  502    0  0.33089862410E+03 -0.20976797240E+03  0.11145467029E+04  0.11814020715E+04  0.25500000920E-02 0.  1.
       -2    1    3    3    0  502 -0.33089862410E+03  0.20976797240E+03 -0.59110407103E+03  0.70915479584E+03  0.25500000920E-02 0. -1.
</event>
<event>
 5   0  0.3575091E-04  0.1779485E+04  0.7818609E-02  0.8717286E-01
        2   -1    0    0  501    0  0.00000000000E+00  0.00000000000E+00  0.11430835130E+04  0.11430835130E+04  0.25500000920E-02 0.  1.
       -2   -1    0    0    0  501  0.00000000000E+00  0.00000000000E+00 -0.69254958431E+03  0.69254958431E+03  0.25500000920E-02 0. -1.
    10030    2    1    2    0    0  0.00000000000E+00  0.00000000000E+00  0.45053392870E+03  0.18356330973E+04  0.17794853321E+04 0.  0.
        5    1    3    3  502    0 -0.82008007813E+03  0.24300097436E+03  0.47802711370E+03  0.97985346838E+03  0.46999998093E+01 0.  1.
       -5    1    3    3    0  502  0.82008007813E+03 -0.24300097436E+03 -0.27493185001E+02  0.85577962893E+03  0.46999998093E+01 0. -1.
</event>
<event>
 5   0  0.1837313E-04  0.1787742E+04  0.7818609E-02  0.8712845E-01
        1   -1    0    0  501    0  0.00000000000E+00  0.00000000000E+00  0.13836635390E+04  0.13836635390E+04  0.50400001928E-02 0. -1.
       -1   -1    0    0    0  501  0.00000000000E+00  0.00000000000E+00 -0.57745656679E+03  0.57745656681E+03  0.50400001928E-02 0.  1.
    10030    2    1    2    0    0  0.00000000000E+00  0.00000000000E+00  0.80620697223E+03  0.19611201058E+04  0.17877422598E+04 0.  0.
        1    1    3    3  502    0  0.20772888752E+03 -0.68881272547E+03  0.98501191242E+03  0.12197797871E+04  0.50400001928E-02 0. -1.
       -1    1    3    3    0  502 -0.20772888752E+03  0.68881272547E+03 -0.17880494018E+03  0.74134031871E+03  0.50400001928E-02 0.  1.
</event>
<event>
 5   0  0.3531266E-04  0.1735223E+04  0.7818609E-02  0.8741526E-01
       -2   -1    0    0    0  501  0.00000000000E+00  0.00000000000E+00  0.30097130579E+03  0.30097130580E+03  0.25500000920E-02 0.  1.
        2   -1    0    0  501    0  0.00000000000E+00  0.00000000000E+00 -0.25010684524E+04  0.25010684524E+04  0.25500000920E-02 0. -1.
    10030    2    1    2    0    0  0.00000000000E+00  0.00000000000E+00 -0.22000971466E+04  0.28020397582E+04  0.17352231419E+04 0.  0.
        3    1    3    3  502    0 -0.52661153778E+03  0.41018786674E+03 -0.20507002921E+03  0.69830331864E+03  0.10100000352E+00 0.  1.
       -3    1    3    3    0  502  0.52661153778E+03 -0.41018786674E+03 -0.19950271174E+04  0.21037364396E+04  0.10100000352E+00 0. -1.
</event>
<event>
 5   0  0.1837313E-04  0.1815957E+04  0.7818609E-02  0.8697859E-01
       -1   -1    0    0    0  501  0.00000000000E+00  0.00000000000E+00  0.95574101196E+03  0.95574101198E+03  0.50400001928E-02 0.  1.
        1   -1    0    0  501    0  0.00000000000E+00  0.00000000000E+00 -0.86260327452E+03  0.86260327453E+03  0.50400001928E-02 0. -1.
    10030    2    1    2    0    0  0.00000000000E+00  0.00000000000E+00  0.93137737447E+02  0.18183442865E+04  0.18159574076E+04 0.  0.
        1    1    3    3  502    0 -0.59924659585E+03  0.48662743076E+03 -0.43209982525E+03  0.88465416859E+03  0.50400001928E-02 0. -1.
       -1    1    3    3    0  502  0.59924659585E+03 -0.48662743076E+03  0.52523756269E+03  0.93369011792E+03  0.50400001928E-02 0.  1.
</event>
<event>
 5   0  0.3628581E-04  0.1837705E+04  0.7818609E-02  0.8686502E-01
       -2   -1    0    0    0  501  0.00000000000E+00  0.00000000000E+00  0.44531846432E+03  0.44531846433E+03  0.25500000920E-02 0.  1.
        2   -1    0    0  501    0  0.00000000000E+00  0.00000000000E+00 -0.18959232307E+04  0.18959232307E+04  0.25500000920E-02 0. -1.
    10030    2    1    2    0    0  0.00000000000E+00  0.00000000000E+00 -0.14506047663E+04  0.23412416950E+04  0.18377046787E+04 0.  0.
        2    1    3    3  502    0  0.26179811921E+03  0.58951639761E+03  0.10838822042E+03  0.65407632934E+03  0.25500000920E-02 0.  1.
       -2    1    3    3    0  502 -0.26179811921E+03 -0.58951639761E+03 -0.15589929868E+04  0.16871653657E+04  0.25500000920E-02 0. -1.
</event>
<event>
 5   0  0.3575091E-04  0.1805538E+04  0.7818609E-02  0.8703360E-01
        2   -1    0    0  501    0  0.00000000000E+00  0.00000000000E+00  0.11335061646E+04  0.11335061646E+04  0.25500000920E-02 0.  1.
       -2   -1    0    0    0  501  0.00000000000E+00  0.00000000000E+00 -0.71900115641E+03  0.71900115642E+03  0.25500000920E-02 0. -1.
    10030    2    1    2    0    0  0.00000000000E+00  0.00000000000E+00  0.41450500818E+03  0.18525073210E+04  0.18055384163E+04 0.  0.
        5    1    3    3  502    0  0.82450850886E+03 -0.35498492488E+03  0.10915369956E+03  0.90430370905E+03  0.46999998093E+01 0. -1.
       -5    1    3    3    0  502 -0.82450850886E+03  0.35498492488E+03  0.30535130862E+03  0.94820361196E+03  0.46999998093E+01 0.  1.
</event>
<event>
 5   0  0.1837313E-04  0.1820844E+04  0.7818609E-02  0.8695293E-01
       -1   -1    0    0    0  501  0.00000000000E+00  0.00000000000E+00  0.11725884167E+04  0.11725884167E+04  0.50400001928E-02 0. -1.
        1   -1    0    0  501    0  0.00000000000E+00  0.00000000000E+00 -0.70687073681E+03  0.70687073682E+03  0.50400001928E-02 0.  1.
    10030    2    1    2    0    0  0.00000000000E+00  0.00000000000E+00  0.46571767989E+03  0.18794591535E+04  0.18208442417E+04 0.  0.
        1    1    3    3  502    0 -0.83390142007E+02 -0.20621589963E+03  0.11441084948E+04  0.11655312784E+04  0.50400001928E-02 0. -1.
       -1    1    3    3    0  502  0.83390142007E+02  0.20621589963E+03 -0.67839081493E+03  0.71392787510E+03  0.50400001928E-02 0.  1.
</event>
<event>
 5   0  0.1825253E-04  0.1850180E+04  0.7818609E-02  0.8680060E-01
        1   -1    0    0  501    0  0.00000000000E+00  0.00000000000E+00  0.91416750157E+03  0.91416750159E+03  0.50400001928E-02 0.  1.
       -1   -1    0    0    0  501  0.00000000000E+00  0.00000000000E+00 -0.93614343591E+03  0.93614343592E+03  0.50400001928E-02 0. -1.
    10030    2    1    2    0    0  0.00000000000E+00  0.00000000000E+00 -0.21975934334E+02  0.18503109375E+04  0.18501804301E+04 0.  0.
        4    1    3    3  502    0 -0.35248429304E+03 -0.52248078111E+03 -0.68820554168E+03  0.93319870551E+03  0.12699999809E+01 0. -1.
       -4    1    3    3    0  502  0.35248429304E+03  0.52248078111E+03  0.66622960734E+03  0.91711223199E+03  0.12699999809E+01 0.  1.
</event>
<event>
 5   0  0.1818778E-04  0.1816878E+04  0.7818609E-02  0.8697375E-01
        1   -1    0    0  501    0  0.00000000000E+00  0.00000000000E+00  0.12837241006E+04  0.12837241006E+04  0.50400001928E-02 0. -1.
       -1   -1    0    0    0  501  0.00000000000E+00  0.00000000000E+00 -0.64286534649E+03  0.64286534651E+03  0.50400001928E-02 0.  1.
    10030    2    1    2    0    0  0.00000000000E+00  0.00000000000E+00  0.64085875413E+03  0.19265894471E+04  0.18168783545E+04 0.  0.
        3    1    3    3  502    0  0.65376346012E+03 -0.81968022854E+02  0.98360322761E+03  0.11838921987E+04  0.10100000352E+00 0. -1.
       -3    1    3    3    0  502 -0.65376346012E+03  0.81968022854E+02 -0.34274447347E+03  0.74269724845E+03  0.10100000352E+00 0.  1.
</event>
<event>
 5   0  0.1330125E-04  0.1830279E+04  0.7818609E-02  0.8690361E-01
        3   -1    0    0  501    0  0.00000000000E+00  0.00000000000E+00  0.53573699193E+03  0.53573700145E+03  0.10100000352E+00 0. -1.
       -3   -1    0    0    0  501  0.00000000000E+00  0.00000000000E+00 -0.15632305488E+04  0.15632305521E+04  0.10100000352E+00 0.  1.
    10030    2    1    2    0    0  0.00000000000E+00  0.00000000000E+00 -0.10274935569E+04  0.20989675535E+04  0.18302791539E+04 0.  0.
        4    1    3    3  502    0  0.85436519032E+03 -0.36542411185E+02 -0.14001672441E+03  0.86653420144E+03  0.12699999809E+01 0. -1.
       -4    1    3    3    0  502 -0.85436519032E+03  0.36542411185E+02 -0.88747683246E+03  0.12324333521E+04  0.12699999809E+01 0.  1.
</event>
<event>
 5   0  0.1883959E-04  0.1725309E+04  0.7818609E-02  0.8747060E-01
        1   -1    0    0  501    0  0.00000000000E+00  0.00000000000E+00  0.78114764715E+03  0.78114764717E+03  0.50400001928E-02 0. -1.
       -1   -1    0    0    0  501  0.00000000000E+00  0.00000000000E+00 -0.95266642904E+03  0.95266642906E+03  0.50400001928E-02 0.  1.
    10030    2    1    2    0    0  0.00000000000E+00  0.00000000000E+00 -0.17151878189E+03  0.17338140762E+04  0.17253094095E+04 0.  0.
        5    1    3    3  502    0  0.23848501152E+02  0.86191226743E+03 -0.59370821656E+02  0.86429653026E+03  0.46999998093E+01 0.  1.
       -5    1    3    3    0  502 -0.23848501152E+02 -0.86191226743E+03 -0.11214796023E+03  0.86951754597E+03  0.46999998093E+01 0. -1.
</event>
<event>
 5   0  0.1818778E-04  0.1556018E+04  0.7818609E-02  0.8848033E-01
        1   -1    0    0  501    0  0.00000000000E+00  0.00000000000E+00  0.63601330299E+03  0.63601330301E+03  0.50400001928E-02 0. -1.
       -1   -1    0    0    0  501  0.00000000000E+00  0.00000000000E+00 -0.95170637174E+03  0.95170637176E+03  0.50400001928E-02 0.  1.
    10030    2    1    2    0    0  0.00000000000E+00  0.00000000000E+00 -0.31569306875E+03  0.15877196748E+04  0.15560178829E+04 0.  0.
        3    1    3    3  502    0  0.71177924449E+03 -0.31271150725E+03 -0.12758212157E+03  0.78784223522E+03  0.10100000352E+00 0. -1.
       -3    1    3    3    0  502 -0.71177924449E+03  0.31271150725E+03 -0.18811094718E+03  0.79987743955E+03  0.10100000352E+00 0.  1.
</event>
<event>
 5   0  0.3575091E-04  0.1742663E+04  0.7818609E-02  0.8737400E-01
        2   -1    0    0  501    0  0.00000000000E+00  0.00000000000E+00  0.72415677803E+03  0.72415677804E+03  0.25500000920E-02 0.  1.
       -2   -1    0    0    0  501  0.00000000000E+00  0.00000000000E+00 -0.10484169147E+04  0.10484169147E+04  0.25500000920E-02 0. -1.
    10030    2    1    2    0    0  0.00000000000E+00  0.00000000000E+00 -0.32426013663E+03  0.17725736927E+04  0.17426625777E+04 0.  0.
        5    1    3    3  502    0  0.54912866695E+03 -0.64295080432E+02  0.52286777516E+03  0.76097894224E+03  0.46999998093E+01 0.  1.
       -5    1    3    3    0  502 -0.54912866695E+03  0.64295080432E+02 -0.84712791179E+03  0.10115947505E+04  0.46999998093E+01 0. -1.
</event>
<event>
 5   0  0.1883959E-04  0.1788645E+04  0.7818609E-02  0.8712361E-01
        1   -1    0    0  501    0  0.00000000000E+00  0.00000000000E+00  0.10784436405E+04  0.10784436405E+04  0.50400001928E-02 0. -1.
       -1   -1    0    0    0  501  0.00000000000E+00  0.00000000000E+00 -0.74163642031E+03  0.74163642033E+03  0.50400001928E-02 0.  1.
    10030    2    1    2    0    0  0.00000000000E+00  0.00000000000E+00  0.33680722020E+03  0.18200800608E+04  0.17886453881E+04 0.  0.
        5    1    3    3  502    0 -0.26031332263E+03 -0.40125764377E+03 -0.60053559930E+03  0.76774723617E+03  0.46999998093E+01 0.  1.
       -5    1    3    3    0  502  0.26031332263E+03  0.40125764377E+03  0.93734281950E+03  0.10523328247E+04  0.46999998093E+01 0. -1.
</event>
<event>
 5   0  0.3575091E-04  0.1800072E+04  0.7818609E-02  0.8706261E-01
        2   -1    0    0  501    0  0.00000000000E+00  0.00000000000E+00  0.19993365656E+04  0.19993365656E+04  0.25500000920E-02 0.  1.
       -2   -1    0    0    0  501  0.00000000000E+00  0.00000000000E+00 -0.40516693898E+03  0.40516693899E+03  0.25500000920E-02 0. -1.
    10030    2    1    2    0    0  0.00000000000E+00  0.00000000000E+00  0.15941696266E+04  0.24045035046E+04  0.18000723055E+04 0.  0.
        5    1    3    3  502    0  0.26205745576E+03 -0.59213951371E+03  0.16320708602E+04  0.17558418768E+04  0.46999998093E+01 0.  1.
       -5    1    3    3    0  502 -0.26205745576E+03  0.59213951371E+03 -0.37901233562E+02  0.64866162776E+03  0.46999998093E+01 0. -1.
</event>
<event>
 5   0  0.1825253E-04  0.1724303E+04  0.7818609E-02  0.8747623E-01
        1   -1    0    0  501    0  0.00000000000E+00  0.00000000000E+00  0.10738872167E+04  0.10738872167E+04  0.50400001928E-02 0.  1.
       -1   -1    0    0    0  501  0.00000000000E+00  0.00000000000E+00 -0.69216335862E+03  0.69216335864E+03  0.50400001928E-02 0. -1.
    10030    2    1    2    0    0  0.00000000000E+00  0.00000000000E+00  0.38172385808E+03  0.17660505754E+04  0.17243032016E+04 0.  0.
        4    1    3    3  502    0 -0.44260349135E+03 -0.31045284930E+03 -0.49698180336E+03  0.73435097056E+03  0.12699999809E+01 0. -1.
       -4    1    3    3    0  502  0.44260349135E+03  0.31045284930E+03  0.87870566143E+03  0.10316996048E+04  0.12699999809E+01 0.  1.
</event>
<event>
 5   0  0.1883959E-04  0.1871489E+04  0.7818609E-02  0.8669180E-01
       -1   -1    0    0    0  501  0.00000000000E+00  0.00000000000E+00  0.66576732816E+03  0.66576732818E+03  0.50400001928E-02 0.  1.
        1   -1    0    0  501    0  0.00000000000E+00  0.00000000000E+00 -0.13152006664E+04  0.13152006665E+04  0.50400001928E-02 0. -1.
    10030    2    1    2    0    0  0.00000000000E+00  0.00000000000E+00 -0.64943333828E+03  0.19809679946E+04  0.18714888551E+04 0.  0.
        5    1    3    3  502    0 -0.66190470702E+03 -0.54205770831E+03  0.76468396103E+02  0.85896094551E+03  0.46999998093E+01 0.  1.
       -5    1    3    3    0  502  0.66190470702E+03  0.54205770831E+03 -0.72590173439E+03  0.11220070491E+04  0.46999998093E+01 0. -1.
</event>
<event>
 5   0  0.3531266E-04  0.1799697E+04  0.7818609E-02  0.8706461E-01
        2   -1    0    0  501    0  0.00000000000E+00  0.00000000000E+00  0.15530025994E+04  0.15530025994E+04  0.25500000920E-02 0.  1.
       -2   -1    0    0    0  501  0.00000000000E+00  0.00000000000E+00 -0.52139441590E+03  0.52139441590E+03  0.25500000920E-02 0. -1.
    10030    2    1    2    0    0  0.00000000000E+00  0.00000000000E+00  0.10316081835E+04  0.20743970153E+04  0.17996965113E+04 0.  0.
        3    1    3    3  502    0  0.47983786072E+03 -0.15942068934E+03 -0.34216957725E+03  0.61052383948E+03  0.10100000352E+00 0. -1.
       -3    1    3    3    0  502 -0.47983786072E+03  0.15942068934E+03  0.13737777608E+04  0.14638731758E+04  0.10100000352E+00 0.  1.
</event>
<event>
 5   0  0.3575091E-04  0.1816979E+04  0.7818609E-02  0.8697322E-01
       -2   -1    0    0    0  501  0.00000000000E+00  0.00000000000E+00  0.55159000112E+03  0.55159000113E+03  0.25500000920E-02 0.  1.
        2   -1    0    0  501    0  0.00000000000E+00  0.00000000000E+00 -0.14963161198E+04  0.14963161198E+04  0.25500000920E-02 0. -1.
    10030    2    1    2    0    0  0.00000000000E+00  0.00000000000E+00 -0.94472611870E+03  0.20479061209E+04  0.18169788224E+04 0.  0.
        5    1    3    3  502    0  0.61132949116E+03 -0.21287047945E+03 -0.11907857262E+04  0.13553709173E+04  0.46999998093E+01 0. -1.
       -5    1    3    3    0  502 -0.61132949116E+03  0.21287047945E+03  0.24605960753E+03  0.69253520361E+03  0.46999998093E+01 0.  1.
</event>
<event>
 5   0  0.1330125E-04  0.1798702E+04  0.7818609E-02  0.8706990E-01
        3   -1    0    0  501    0  0.00000000000E+00  0.00000000000E+00  0.13100726462E+04  0.13100726501E+04  0.10100000352E+00 0. -1.
       -3   -1    0    0    0  501  0.00000000000E+00  0.00000000000E+00 -0.61739459960E+03  0.61739460786E+03  0.10100000352E+00 0.  1.
    10030    2    1    2    0    0  0.00000000000E+00  0.00000000000E+00  0.69267804657E+03  0.19274672579E+04  0.17987015189E+04 0.  0.
        2    1    3    3  502    0  0.39972802323E+03 -0.10684251874E+03 -0.50934541086E+03  0.65622447679E+03  0.25500000920E-02 0.  1.
       -2    1    3    3    0  502 -0.39972802323E+03  0.10684251874E+03  0.12020234574E+04  0.12712427811E+04  0.25500000920E-02 0. -1.
</event>
<event>
 5   0  0.3582186E-04  0.1799558E+04  0.7818609E-02  0.8706535E-01
       -2   -1    0    0    0  501  0.00000000000E+00  0.00000000000E+00  0.76158408288E+03  0.76158408289E+03  0.25500000920E-02 0. -1.
        2   -1    0    0  501    0  0.00000000000E+00  0.00000000000E+00 -0.10630502288E+04  0.10630502288E+04  0.25500000920E-02 0.  1.
    10030    2    1    2    0    0  0.00000000000E+00  0.00000000000E+00 -0.30146614592E+03  0.18246343117E+04  0.17995578719E+04 0.  0.
        4    1    3    3  502    0  0.80143670118E+03 -0.24489283316E+02  0.26324547052E+03  0.84391960616E+03  0.12699999809E+01 0. -1.
       -4    1    3    3    0  502 -0.80143670118E+03  0.24489283316E+02 -0.56471161644E+03  0.98071470553E+03  0.12699999809E+01 0.  1.
</event>
<event>
 5   0  0.1837313E-04  0.1766098E+04  0.7818609E-02  0.8724539E-01
        1   -1    0    0  501    0  0.00000000000E+00  0.00000000000E+00  0.70201210349E+03  0.70201210350E+03  0.50400001928E-02 0.  1.
       -1   -1    0    0    0  501  0.00000000000E+00  0.00000000000E+00 -0.11107719458E+04  0.11107719458E+04  0.50400001928E-02 0. -1.
    10030    2    1    2    0    0  0.00000000000E+00  0.00000000000E+00 -0.40875984229E+03  0.18127840493E+04  0.17660977891E+04 0.  0.
        1    1    3    3  502    0 -0.65258873074E+03 -0.39484740810E+03 -0.66111317048E+03  0.10093795874E+04  0.50400001928E-02 0. -1.
       -1    1    3    3    0  502  0.65258873074E+03  0.39484740810E+03  0.25235332819E+03  0.80340446193E+03  0.50400001928E-02 0.  1.
</event>
<event>
 5   0  0.1835421E-04  0.1769284E+04  0.7818609E-02  0.8722807E-01
        1   -1    0    0  501    0  0.00000000000E+00  0.00000000000E+00  0.94959637778E+03  0.94959637779E+03  0.50400001928E-02 0. -1.
       -1   -1    0    0    0  501  0.00000000000E+00  0.00000000000E+00 -0.82413060256E+03  0.82413060258E+03  0.50400001928E-02 0.  1.
    10030    2    1    2    0    0  0.00000000000E+00  0.00000000000E+00  0.12546577522E+03  0.17737269804E+04  0.17692839625E+04 0.  0.
        2    1    3    3  502    0  0.38809489598E+03 -0.27968192418E+03  0.80874659933E+03  0.93963327364E+03  0.25500000920E-02 0. -1.
       -2    1    3    3    0  502 -0.38809489598E+03  0.27968192418E+03 -0.68328082411E+03  0.83409370673E+03  0.25500000920E-02 0.  1.
</event>
<event>
 5   0  0.1825253E-04  0.1794937E+04  0.7818609E-02  0.8708997E-01
       -1   -1    0    0    0  501  0.00000000000E+00  0.00000000000E+00  0.10284459739E+04  0.10284459739E+04  0.50400001928E-02 0.  1.
        1   -1    0    0  501    0  0.00000000000E+00  0.00000000000E+00 -0.78317136455E+03  0.78317136457E+03  0.50400001928E-02 0. -1.
    10030    2    1    2    0    0  0.00000000000E+00  0.00000000000E+00  0.24527460939E+03  0.18116173385E+04  0.17949366973E+04 0.  0.
        4    1    3    3  502    0  0.43049194834E+02  0.27949666315E+03  0.98230165727E+03  0.10221985016E+04  0.12699999809E+01 0.  1.
       -4    1    3    3    0  502 -0.43049194834E+02 -0.27949666315E+03 -0.73702704788E+03  0.78941883693E+03  0.12699999809E+01 0. -1.
</event>
<event>
 5   0  0.1825253E-04  0.1803125E+04  0.7818609E-02  0.8704640E-01
       -1   -1    0    0    0  501  0.00000000000E+00  0.00000000000E+00  0.84414860284E+03  0.84414860286E+03  0.50400001928E-02 0.  1.
        1   -1    0    0  501    0  0.00000000000E+00  0.00000000000E+00 -0.96288103986E+03  0.96288103987E+03  0.50400001928E-02 0. -1.
    10030    2    1    2    0    0  0.00000000000E+00  0.00000000000E+00 -0.11873243701E+03  0.18070296427E+04  0.18031247151E+04 0.  0.
        4    1    3    3  502    0 -0.34219489329E+03 -0.38633464375E+03  0.68146487870E+03  0.85483787689E+03  0.12699999809E+01 0.  1.
       -4    1    3    3    0  502  0.34219489329E+03  0.38633464375E+03 -0.80019731572E+03  0.95219176584E+03  0.12699999809E+01 0. -1.
</event>
<event>
 5   0  0.1837313E-04  0.1826047E+04  0.7818609E-02  0.8692569E-01
        1   -1    0    0  501    0  0.00000000000E+00  0.00000000000E+00  0.42282682855E+03  0.42282682858E+03  0.50400001928E-02 0.  1.
       -1   -1    0    0    0  501  0.00000000000E+00  0.00000000000E+00 -0.19715216313E+04  0.19715216313E+04  0.50400001928E-02 0. -1.
    10030    2    1    2    0    0  0.00000000000E+00  0.00000000000E+00 -0.15486948028E+04  0.23943484599E+04  0.18260473585E+04 0.  0.
        1    1    3    3  502    0 -0.84835688561E+03 -0.24018878732E+03 -0.10852257902E+04  0.13982542954E+04  0.50400001928E-02 0. -1.
       -1    1    3    3    0  502  0.84835688561E+03  0.24018878732E+03 -0.46346901260E+03  0.99609416451E+03  0.50400001928E-02 0.  1.
</event>
<event>
 5   0  0.1883959E-04  0.1788651E+04  0.7818609E-02  0.8712358E-01
        1   -1    0    0  501    0  0.00000000000E+00  0.00000000000E+00  0.13207005751E+04  0.13207005751E+04  0.50400001928E-02 0.  1.
       -1   -1    0    0    0  501  0.00000000000E+00  0.00000000000E+00 -0.60560132969E+03  0.60560132971E+03  0.50400001928E-02 0. -1.
    10030    2    1    2    0    0  0.00000000000E+00  0.00000000000E+00  0.71509924541E+03  0.19263019048E+04  0.17886509156E+04 0.  0.
        5    1    3    3  502    0  0.25222261747E+03 -0.12039759742E+03 -0.55734765372E+03  0.62351449649E+03  0.46999998093E+01 0. -1.
       -5    1    3    3    0  502 -0.25222261747E+03  0.12039759742E+03  0.12724468991E+04  0.13027874083E+04  0.46999998093E+01 0.  1.
</event>
<event>
 5   0  0.3582186E-04  0.1805854E+04  0.7818609E-02  0.8703193E-01
        2   -1    0    0  501    0  0.00000000000E+00  0.00000000000E+00  0.10887751106E+04  0.10887751106E+04  0.25500000920E-02 0.  1.
       -2   -1    0    0    0  501  0.00000000000E+00  0.00000000000E+00 -0.74880221392E+03  0.74880221393E+03  0.25500000920E-02 0. -1.
    10030    2    1    2    0    0  0.00000000000E+00  0.00000000000E+00  0.33997289668E+03  0.18375773245E+04  0.18058540509E+04 0.  0.
        4    1    3    3  502    0 -0.19125231079E+03 -0.13210856423E+03  0.10578072967E+04  0.10830457096E+04  0.12699999809E+01 0.  1.
       -4    1    3    3    0  502  0.19125231079E+03  0.13210856423E+03 -0.71783440007E+03  0.75453161494E+03  0.12699999809E+01 0. -1.
</event>
<event>
 5   0  0.1883959E-04  0.1606597E+04  0.7818609E-02  0.8816505E-01
       -1   -1    0    0    0  501  0.00000000000E+00  0.00000000000E+00  0.67428696378E+03  0.67428696380E+03  0.50400001928E-02 0.  1.
        1   -1    0    0  501    0  0.00000000000E+00  0.00000000000E+00 -0.95699377715E+03  0.95699377717E+03  0.50400001928E-02 0. -1.
    10030    2    1    2    0    0  0.00000000000E+00  0.00000000000E+00 -0.28270681337E+03  0.16312807410E+04  0.16065969356E+04 0.  0.
        5    1    3    3  502    0  0.18195314325E+03 -0.33694667794E+03 -0.85833726397E+03  0.93989624897E+03  0.46999998093E+01 0. -1.
       -5    1    3    3    0  502 -0.18195314325E+03  0.33694667794E+03  0.57563045060E+03  0.69138449199E+03  0.46999998093E+01 0.  1.
</event>
<event>
 5   0  0.3582186E-04  0.1776374E+04  0.7818609E-02  0.8718965E-01
        2   -1    0    0  501    0  0.00000000000E+00  0.00000000000E+00  0.21392775619E+04  0.21392775619E+04  0.25500000920E-02 0.  1.
       -2   -1    0    0    0  501  0.00000000000E+00  0.00000000000E+00 -0.36875823965E+03  0.36875823966E+03  0.25500000920E-02 0. -1.
    10030    2    1    2    0    0  0.00000000000E+00  0.00000000000E+00  0.17705193222E+04  0.25080358015E+04  0.17763740911E+04 0.  0.
        4    1    3    3  502    0  0.48011363949E+03 -0.12946207512E+03  0.19243197551E+04  0.19875305453E+04  0.12699999809E+01 0.  1.
       -4    1    3    3    0  502 -0.48011363949E+03  0.12946207512E+03 -0.15380043287E+03  0.52050525623E+03  0.12699999809E+01 0. -1.
</event>
<event>
 5   0  0.1837313E-04  0.1801677E+04  0.7818609E-02  0.8705408E-01
       -1   -1    0    0    0  501  0.00000000000E+00  0.00000000000E+00  0.11107974040E+04  0.11107974040E+04  0.50400001928E-02 0. -1.
        1   -1    0    0  501    0  0.00000000000E+00  0.00000000000E+00 -0.73056558205E+03  0.73056558207E+03  0.50400001928E-02 0.  1.
    10030    2    1    2    0    0  0.00000000000E+00  0.00000000000E+00  0.38023182197E+03  0.18413629861E+04  0.18016773874E+04 0.  0.
        1    1    3    3  502    0 -0.81908214452E+03 -0.26748993734E+03 -0.78472959208E+02  0.86521929671E+03  0.50400001928E-02 0. -1.
       -1    1    3    3    0  502  0.81908214452E+03  0.26748993734E+03  0.45870478118E+03  0.97614368939E+03  0.50400001928E-02 0.  1.
</event>
<event>
 5   0  0.3568870E-04  0.1805398E+04  0.7818609E-02  0.8703434E-01
       -2   -1    0    0    0  501  0.00000000000E+00  0.00000000000E+00  0.46248827993E+03  0.46248827993E+03  0.25500000920E-02 0.  1.
        2   -1    0    0  501    0  0.00000000000E+00  0.00000000000E+00 -0.17619157121E+04  0.17619157121E+04  0.25500000920E-02 0. -1.
    10030    2    1    2    0    0  0.00000000000E+00  0.00000000000E+00 -0.12994274321E+04  0.22244039920E+04  0.18053978698E+04 0.  0.
        1    1    3    3  502    0  0.29130678616E+03  0.84890517808E+03 -0.53047662533E+03  0.10425474066E+04  0.50400001928E-02 0.  1.
       -1    1    3    3    0  502 -0.29130678616E+03 -0.84890517808E+03 -0.76895080680E+03  0.11818565854E+04  0.50400001928E-02 0. -1.
</event>
<event>
 5   0  0.1818778E-04  0.1802380E+04  0.7818609E-02  0.8705035E-01
       -1   -1    0    0    0  501  0.00000000000E+00  0.00000000000E+00  0.13277855538E+04  0.13277855538E+04  0.50400001928E-02 0. -1.
        1   -1    0    0  501    0  0.00000000000E+00  0.00000000000E+00 -0.61165237946E+03  0.61165237948E+03  0.50400001928E-02 0.  1.
    10030    2    1    2    0    0  0.00000000000E+00  0.00000000000E+00  0.71613317430E+03  0.19394379332E+04  0.18023797529E+04 0.  0.
        3    1    3    3  502    0 -0.33262355728E+03 -0.43421031135E+03  0.11287463280E+04  0.12542907592E+04  0.10100000352E+00 0. -1.
       -3    1    3    3    0  502  0.33262355728E+03  0.43421031135E+03 -0.41261315370E+03  0.68514717408E+03  0.10100000352E+00 0.  1.
</event>
<event>
 5   0  0.3628581E-04  0.1805680E+04  0.7818609E-02  0.8703285E-01
       -2   -1    0    0    0  501  0.00000000000E+00  0.00000000000E+00  0.63412866204E+03  0.63412866205E+03  0.25500000920E-02 0. -1.
        2   -1    0    0  501    0  0.00000000000E+00  0.00000000000E+00 -0.12854176129E+04  0.12854176129E+04  0.25500000920E-02 0.  1.
    10030    2    1    2    0    0  0.00000000000E+00  0.00000000000E+00 -0.65128895088E+03  0.19195462750E+04  0.18056800946E+04 0.  0.
        2    1    3    3  502    0 -0.73455185477E+03 -0.65233126540E+02 -0.87935319449E+03  0.11476427270E+04  0.25500000920E-02 0.  1.
       -2    1    3    3    0  502  0.73455185477E+03  0.65233126540E+02  0.22806424361E+03  0.77190354797E+03  0.25500000920E-02 0. -1.
</event>
<event>
 5   0  0.1837313E-04  0.1797109E+04  0.7818609E-02  0.8707839E-01
        1   -1    0    0  501    0  0.00000000000E+00  0.00000000000E+00  0.84749999116E+03  0.84749999117E+03  0.50400001928E-02 0.  1.
       -1   -1    0    0    0  501  0.00000000000E+00  0.00000000000E+00 -0.95268408505E+03  0.95268408506E+03  0.50400001928E-02 0. -1.
    10030    2    1    2    0    0  0.00000000000E+00  0.00000000000E+00 -0.10518409389E+03  0.18001840762E+04  0.17971085150E+04 0.  0.
        1    1    3    3  502    0  0.17273585407E+03 -0.67585551869E+03  0.51475291219E+03  0.86694228069E+03  0.50400001928E-02 0. -1.
       -1    1    3    3    0  502 -0.17273585407E+03  0.67585551869E+03 -0.61993700608E+03  0.93324179554E+03  0.50400001928E-02 0.  1.
</event>
<event>
 5   0  0.1818778E-04  0.1816913E+04  0.7818609E-02  0.8697357E-01
        1   -1    0    0  501    0  0.00000000000E+00  0.00000000000E+00  0.14081188333E+04  0.14081188333E+04  0.50400001928E-02 0. -1.
       -1   -1    0    0    0  501  0.00000000000E+00  0.00000000000E+00 -0.58609600645E+03  0.58609600647E+03  0.50400001928E-02 0.  1.
    10030    2    1    2    0    0  0.00000000000E+00  0.00000000000E+00  0.82202282685E+03  0.19942148398E+04  0.18169125734E+04 0.  0.
        3    1    3    3  502    0  0.62691383411E+03 -0.51327442701E+03 -0.39962512511E+02  0.81121427837E+03  0.10100000352E+00 0.  1.
       -3    1    3    3    0  502 -0.62691383411E+03  0.51327442701E+03  0.86198533936E+03  0.11830005614E+04  0.10100000352E+00 0. -1.
</event>
<event>
 5   0  0.1837313E-04  0.1731990E+04  0.7818609E-02  0.8743326E-01
       -1   -1    0    0    0  501  0.00000000000E+00  0.00000000000E+00  0.73982223368E+03  0.73982223369E+03  0.50400001928E-02 0. -1.
        1   -1    0    0  501    0  0.00000000000E+00  0.00000000000E+00 -0.10136863487E+04  0.10136863487E+04  0.50400001928E-02 0.  1.
    10030    2    1    2    0    0  0.00000000000E+00  0.00000000000E+00 -0.27386411498E+03  0.17535085824E+04  0.17319904142E+04 0.  0.
        1    1    3    3  502    0  0.54002946399E+03 -0.59750627461E+03  0.18530219090E+03  0.82642753593E+03  0.50400001928E-02 0.  1.
       -1    1    3    3    0  502 -0.54002946399E+03  0.59750627461E+03 -0.45916630588E+03  0.92708104643E+03  0.50400001928E-02 0. -1.
</event>
<event>
 5   0  0.3575091E-04  0.1805941E+04  0.7818609E-02  0.8703147E-01
       -2   -1    0    0    0  501  0.00000000000E+00  0.00000000000E+00  0.37837361283E+03  0.37837361284E+03  0.25500000920E-02 0.  1.
        2   -1    0    0  501    0  0.00000000000E+00  0.00000000000E+00 -0.21548956454E+04  0.21548956454E+04  0.25500000920E-02 0. -1.
    10030    2    1    2    0    0  0.00000000000E+00  0.00000000000E+00 -0.17765220326E+04  0.25332692582E+04  0.18059409189E+04 0.  0.
        5    1    3    3  502    0  0.42773924223E+02  0.20905530994E+03  0.34248012890E+03  0.40354486727E+03  0.46999998093E+01 0.  1.
       -5    1    3    3    0  502 -0.42773924223E+02 -0.20905530994E+03 -0.21190021615E+04  0.21297243910E+04  0.46999998093E+01 0. -1.
</event>
<event>
 5   0  0.3531266E-04  0.1793236E+04  0.7818609E-02  0.8709905E-01
        2   -1    0    0  501    0  0.00000000000E+00  0.00000000000E+00  0.13951539318E+04  0.13951539319E+04  0.25500000920E-02 0.  1.
       -2   -1    0    0    0  501  0.00000000000E+00  0.00000000000E+00 -0.57622585326E+03  0.57622585326E+03  0.25500000920E-02 0. -1.
    10030    2    1    2    0    0  0.00000000000E+00  0.00000000000E+00  0.81892807859E+03  0.19713797851E+04  0.17932359185E+04 0.  0.
        3    1    3    3  502    0 -0.15690942823E+03  0.65986889367E+03  0.10541288245E+04  0.12534891760E+04  0.10100000352E+00 0.  1.
       -3    1    3    3    0  502  0.15690942823E+03 -0.65986889367E+03 -0.23520074595E+03  0.71789060908E+03  0.10100000352E+00 0. -1.
</event>
<event>
 5   0  0.3568870E-04  0.1750853E+04  0.7818609E-02  0.8732881E-01
        2   -1    0    0  501    0  0.00000000000E+00  0.00000000000E+00  0.13393077753E+04  0.13393077753E+04  0.25500000920E-02 0. -1.
       -2   -1    0    0    0  501  0.00000000000E+00  0.00000000000E+00 -0.57221451405E+03  0.57221451406E+03  0.25500000920E-02 0.  1.
    10030    2    1    2    0    0  0.00000000000E+00  0.00000000000E+00  0.76709326125E+03  0.19115222894E+04  0.17508527612E+04 0.  0.
        1    1    3    3  502    0 -0.85881636412E+03  0.14332910834E+03  0.48278674222E+03  0.99558616858E+03  0.50400001928E-02 0.  1.
       -1    1    3    3    0  502  0.85881636412E+03 -0.14332910834E+03  0.28430651903E+03  0.91593612079E+03  0.50400001928E-02 0. -1.
</event>
<event>
 5   0  0.1835421E-04  0.1789190E+04  0.7818609E-02  0.8712069E-01
       -1   -1    0    0    0  501  0.00000000000E+00  0.00000000000E+00  0.51994282518E+03  0.51994282520E+03  0.50400001928E-02 0.  1.
        1   -1    0    0  501    0  0.00000000000E+00  0.00000000000E+00 -0.15392081743E+04  0.15392081743E+04  0.50400001928E-02 0. -1.
    10030    2    1    2    0    0  0.00000000000E+00  0.00000000000E+00 -0.10192653491E+04  0.20591509995E+04  0.17891900365E+04 0.  0.
        2    1    3    3  502    0 -0.65770735531E+03  0.19940542823E+03 -0.11687175408E+04  0.13558179009E+04  0.25500000920E-02 0. -1.
       -2    1    3    3    0  502  0.65770735531E+03 -0.19940542823E+03  0.14945219171E+03  0.70333309865E+03  0.25500000920E-02 0.  1.
</event>
<event>
 5   0  0.1837313E-04  0.1779335E+04  0.7818609E-02  0.8717366E-01
        1   -1    0    0  501    0  0.00000000000E+00  0.00000000000E+00  0.11762639793E+04  0.11762639793E+04  0.50400001928E-02 0. -1.
       -1   -1    0    0    0  501  0.00000000000E+00  0.00000000000E+00 -0.67290048583E+03  0.67290048585E+03  0.50400001928E-02 0.  1.
    10030    2    1    2    0    0  0.00000000000E+00  0.00000000000E+00  0.50336349346E+03  0.18491644652E+04  0.17793353851E+04 0.  0.
        1    1    3    3  502    0  0.61174440905E+03  0.37879469942E+03  0.79546780205E+03  0.10726069506E+04  0.50400001928E-02 0. -1.
       -1    1    3    3    0  502 -0.61174440905E+03 -0.37879469942E+03 -0.29210430859E+03  0.77655751457E+03  0.50400001928E-02 0.  1.
</event>
<event>
 5   0  0.3575091E-04  0.1779363E+04  0.7818609E-02  0.8717352E-01
       -2   -1    0    0    0  501  0.00000000000E+00  0.00000000000E+00  0.49326355735E+03  0.49326355736E+03  0.25500000920E-02 0.  1.
        2   -1    0    0  501    0  0.00000000000E+00  0.00000000000E+00 -0.16046855659E+04  0.16046855659E+04  0.25500000920E-02 0. -1.
    10030    2    1    2    0    0  0.00000000000E+00  0.00000000000E+00 -0.11114220086E+04  0.20979491233E+04  0.17793627069E+04 0.  0.
        5    1    3    3  502    0  0.73444545029E+03  0.36806746659E+03 -0.15305878511E+03  0.83566312657E+03  0.46999998093E+01 0.  1.
       -5    1    3    3    0  502 -0.73444545029E+03 -0.36806746659E+03 -0.95836322349E+03  0.12622859967E+04  0.46999998093E+01 0. -1.
</event>
<event>
 5   0  0.1818778E-04  0.1753229E+04  0.7818609E-02  0.8731575E-01
        1   -1    0    0  501    0  0.00000000000E+00  0.00000000000E+00  0.11523464309E+04  0.11523464310E+04  0.50400001928E-02 0. -1.
       -1   -1    0    0    0  501  0.00000000000E+00  0.00000000000E+00 -0.66685935932E+03  0.66685935934E+03  0.50400001928E-02 0.  1.
    10030    2    1    2    0    0  0.00000000000E+00  0.00000000000E+00  0.48548707162E+03  0.18192057903E+04  0.17532290240E+04 0.  0.
        3    1    3    3  502    0 -0.59753334593E+01 -0.19123601172E+02  0.11521088193E+04  0.11522830201E+04  0.10100000352E+00 0. -1.
       -3    1    3    3    0  502  0.59753334593E+01  0.19123601172E+02 -0.66662174767E+03  0.66692277019E+03  0.10100000352E+00 0.  1.
</event>
<event>
 5   0  0.1825253E-04  0.1755830E+04  0.7818609E-02  0.8730148E-01
        1   -1    0    0  501    0  0.00000000000E+00  0.00000000000E+00  0.23301253737E+04  0.23301253737E+04  0.50400001928E-02 0.  1.
       -1   -1    0    0    0  501  0.00000000000E+00  0.00000000000E+00 -0.33076967279E+03  0.33076967283E+03  0.50400001928E-02 0. -1.
    10030    2    1    2    0    0  0.00000000000E+00  0.00000000000E+00  0.19993557009E+04  0.26608950466E+04  0.17558300686E+04 0.  0.
        4    1    3    3  502    0 -0.78465059097E+03  0.24431247975E+02  0.15952754506E+04  0.17779704193E+04  0.12699999809E+01 0.  1.
       -4    1    3    3    0  502  0.78465059097E+03 -0.24431247975E+02  0.40408025035E+03  0.88292462726E+03  0.12699999809E+01 0. -1.
</event>
<event>
 5   0  0.3531266E-04  0.1811935E+04  0.7818609E-02  0.8699978E-01
       -2   -1    0    0    0  501  0.00000000000E+00  0.00000000000E+00  0.76233707143E+03  0.76233707143E+03  0.25500000920E-02 0.  1.
        2   -1    0    0  501    0  0.00000000000E+00  0.00000000000E+00 -0.10766593744E+04  0.10766593744E+04  0.25500000920E-02 0. -1.
    10030    2    1    2    0    0  0.00000000000E+00  0.00000000000E+00 -0.31432230301E+03  0.18389964459E+04  0.18119352686E+04 0.  0.
        3    1    3    3  502    0 -0.16618612271E+03  0.12319231329E+03  0.73804552536E+03  0.76648899610E+03  0.10100000352E+00 0.  1.
       -3    1    3    3    0  502  0.16618612271E+03 -0.12319231329E+03 -0.10523678284E+04  0.10725074498E+04  0.10100000352E+00 0. -1.
</event>
<event>
 5   0  0.1883959E-04  0.1796837E+04  0.7818609E-02  0.8707983E-01
       -1   -1    0    0    0  501  0.00000000000E+00  0.00000000000E+00  0.57838283057E+03  0.57838283060E+03  0.50400001928E-02 0. -1.
        1   -1    0    0  501    0  0.00000000000E+00  0.00000000000E+00 -0.13955389133E+04  0.13955389133E+04  0.50400001928E-02 0.  1.
    10030    2    1    2    0    0  0.00000000000E+00  0.00000000000E+00 -0.81715608275E+03  0.19739217439E+04  0.17968369396E+04 0.  0.
        5    1    3    3  502    0  0.88962256620E+03 -0.22113717704E+02 -0.27306651899E+03  0.93086236394E+03  0.46999998093E+01 0.  1.
       -5    1    3    3    0  502 -0.88962256620E+03  0.22113717704E+02 -0.54408956376E+03  0.10430593800E+04  0.46999998093E+01 0. -1.
</event>
<event>
 5   0  0.3575091E-04  0.1665223E+04  0.7818609E-02  0.8781451E-01
       -2   -1    0    0    0  501  0.00000000000E+00  0.00000000000E+00  0.87632110367E+03  0.87632110368E+03  0.25500000920E-02 0. -1.
        2   -1    0    0  501    0  0.00000000000E+00  0.00000000000E+00 -0.79108187747E+03  0.79108187747E+03  0.25500000920E-02 0.  1.
    10030    2    1    2    0    0  0.00000000000E+00  0.00000000000E+00  0.85239226205E+02  0.16674029811E+04  0.16652228007E+04 0.  0.
        5    1    3    3  502    0 -0.86834636578E+02  0.52848649278E+03 -0.59569553404E+03  0.80107021317E+03  0.46999998093E+01 0.  1.
       -5    1    3    3    0  502  0.86834636578E+02 -0.52848649278E+03  0.68093476024E+03  0.86633276797E+03  0.46999998093E+01 0. -1.
</event>
<event>
 5   0  0.3582186E-04  0.1822546E+04  0.7818609E-02  0.8694401E-01
       -2   -1    0    0    0  501  0.00000000000E+00  0.00000000000E+00  0.53070042505E+03  0.53070042506E+03  0.25500000920E-02 0. -1.
        2   -1    0    0  501    0  0.00000000000E+00  0.00000000000E+00 -0.15647586996E+04  0.15647586997E+04  0.25500000920E-02 0.  1.
    10030    2    1    2    0    0  0.00000000000E+00  0.00000000000E+00 -0.10340582746E+04  0.20954591247E+04  0.18225455901E+04 0.  0.
        4    1    3    3  502    0  0.52905432454E+03 -0.39207893071E+03 -0.12412688191E+04  0.14051242865E+04  0.12699999809E+01 0.  1.
       -4    1    3    3    0  502 -0.52905432454E+03  0.39207893071E+03  0.20721054451E+03  0.69033483824E+03  0.12699999809E+01 0. -1.
</event>
<event>
 5   0  0.3568870E-04  0.1750996E+04  0.7818609E-02  0.8732803E-01
       -2   -1    0    0    0  501  0.00000000000E+00  0.00000000000E+00  0.33752539455E+03  0.33752539456E+03  0.25500000920E-02 0.  1.
        2   -1    0    0  501    0  0.00000000000E+00  0.00000000000E+00 -0.22709293455E+04  0.22709293455E+04  0.25500000920E-02 0. -1.
    10030    2    1    2    0    0  0.00000000000E+00  0.00000000000E+00 -0.19334039510E+04  0.26084547401E+04  0.17509955150E+04 0.  0.
        1    1    3    3  502    0 -0.29032647328E+03  0.18638964943E+03 -0.21653914046E+04  0.21927039239E+04  0.50400001928E-02 0. -1.
       -1    1    3    3    0  502  0.29032647328E+03 -0.18638964943E+03  0.23198745365E+03  0.41575081621E+03  0.50400001928E-02 0.  1.
</event>
<event>
 5   0  0.3568870E-04  0.1629476E+04  0.7818609E-02  0.8802642E-01
       -2   -1    0    0    0  501  0.00000000000E+00  0.00000000000E+00  0.56385586111E+03  0.56385586111E+03  0.25500000920E-02 0. -1.
        2   -1    0    0  501    0  0.00000000000E+00  0.00000000000E+00 -0.11772475718E+04  0.11772475718E+04  0.25500000920E-02 0.  1.
    10030    2    1    2    0    0  0.00000000000E+00  0.00000000000E+00 -0.61339171073E+03  0.17411034330E+04  0.16294759199E+04 0.  0.
        1    1    3    3  502    0 -0.58627224455E+03 -0.23137485099E+03  0.24495554829E+03  0.67620461922E+03  0.50400001928E-02 0. -1.
       -1    1    3    3    0  502  0.58627224455E+03  0.23137485099E+03 -0.85834725902E+03  0.10648988137E+04  0.50400001928E-02 0.  1.
</event>
<event>
 5   0  0.1835421E-04  0.1434257E+04  0.7818609E-02  0.8929388E-01
        1   -1    0    0  501    0  0.00000000000E+00  0.00000000000E+00  0.67924106504E+03  0.67924106506E+03  0.50400001928E-02 0.  1.
       -1   -1    0    0    0  501  0.00000000000E+00  0.00000000000E+00 -0.75712959237E+03  0.75712959238E+03  0.50400001928E-02 0. -1.
    10030    2    1    2    0    0  0.00000000000E+00  0.00000000000E+00 -0.77888527321E+02  0.14363706574E+04  0.14342573140E+04 0.  0.
        2    1    3    3  502    0 -0.39183392975E+03 -0.15401276709E+03 -0.62033368769E+03  0.74971170794E+03  0.25500000920E-02 0. -1.
       -2    1    3    3    0  502  0.39183392975E+03  0.15401276709E+03  0.54244516036E+03  0.68665894951E+03  0.25500000920E-02 0.  1.
</event>
<event>
 5   0  0.3568870E-04  0.1779983E+04  0.7818609E-02  0.8717017E-01
       -2   -1    0    0    0  501  0.00000000000E+00  0.00000000000E+00  0.58122569796E+03  0.58122569797E+03  0.25500000920E-02 0. -1.
        2   -1    0    0  501    0  0.00000000000E+00  0.00000000000E+00 -0.13627837113E+04  0.13627837113E+04  0.25500000920E-02 0.  1.
    10030    2    1    2    0    0  0.00000000000E+00  0.00000000000E+00 -0.78155801329E+03  0.19440094092E+04  0.17799830491E+04 0.  0.
        1    1    3    3  502    0  0.68612876158E+03 -0.55839170658E+03 -0.28426807636E+03  0.92918368190E+03  0.50400001928E-02 0. -1.
       -1    1    3    3    0  502 -0.68612876158E+03  0.55839170658E+03 -0.49728993693E+03  0.10148257273E+04  0.50400001928E-02 0.  1.
</event>
<event>
 5   0  0.1883959E-04  0.1818115E+04  0.7818609E-02  0.8696725E-01
        1   -1    0    0  501    0  0.00000000000E+00  0.00000000000E+00  0.87933052244E+03  0.87933052245E+03  0.50400001928E-02 0.  1.
       -1   -1    0    0    0  501  0.00000000000E+00  0.00000000000E+00 -0.93978953171E+03  0.93978953173E+03  0.50400001928E-02 0. -1.
    10030    2    1    2    0    0  0.00000000000E+00  0.00000000000E+00 -0.60459009279E+02  0.18191200542E+04  0.18181150898E+04 0.  0.
        5    1    3    3  502    0 -0.59912739522E+03  0.51072304579E+03 -0.48498250719E+03  0.92467388169E+03  0.46999998093E+01 0. -1.
       -5    1    3    3    0  502  0.59912739522E+03 -0.51072304579E+03  0.42452349791E+03  0.89444617249E+03  0.46999998093E+01 0.  1.
</event>
<event>
 5   0  0.1818778E-04  0.1784499E+04  0.7818609E-02  0.8714586E-01
        1   -1    0    0  501    0  0.00000000000E+00  0.00000000000E+00  0.74326987101E+03  0.74326987103E+03  0.50400001928E-02 0. -1.
       -1   -1    0    0    0  501  0.00000000000E+00  0.00000000000E+00 -0.10710903450E+04  0.10710903450E+04  0.50400001928E-02 0.  1.
    10030    2    1    2    0    0  0.00000000000E+00  0.00000000000E+00 -0.32782047398E+03  0.18143602160E+04  0.17844990138E+04 0.  0.
        3    1    3    3  502    0  0.52954947130E+03  0.66876748163E+03 -0.42989169862E+03  0.95523791266E+03  0.10100000352E+00 0.  1.
       -3    1    3    3    0  502 -0.52954947130E+03 -0.66876748163E+03  0.10207122464E+03  0.85912230337E+03  0.10100000352E+00 0. -1.
</event>
<event>
 5   0  0.3582186E-04  0.1798941E+04  0.7818609E-02  0.8706863E-01
        2   -1    0    0  501    0  0.00000000000E+00  0.00000000000E+00  0.98370160404E+03  0.98370160404E+03  0.25500000920E-02 0.  1.
       -2   -1    0    0    0  501  0.00000000000E+00  0.00000000000E+00 -0.82245209577E+03  0.82245209577E+03  0.25500000920E-02 0. -1.
    10030    2    1    2    0    0  0.00000000000E+00  0.00000000000E+00  0.16124950827E+03  0.18061536998E+04  0.17989412952E+04 0.  0.
        4    1    3    3  502    0  0.50078054347E+02 -0.22200690543E+03  0.95431528496E+03  0.98107805683E+03  0.12699999809E+01 0.  1.
       -4    1    3    3    0  502 -0.50078054347E+02  0.22200690543E+03 -0.79306577669E+03  0.82507564299E+03  0.12699999809E+01 0. -1.
</event>
<event>
 5   0  0.1825253E-04  0.1822376E+04  0.7818609E-02  0.8694490E-01
        1   -1    0    0  501    0  0.00000000000E+00  0.00000000000E+00  0.13359129482E+04  0.13359129482E+04  0.50400001928E-02 0. -1.
       -1   -1    0    0    0  501  0.00000000000E+00  0.00000000000E+00 -0.62149526274E+03  0.62149526276E+03  0.50400001928E-02 0.  1.
    10030    2    1    2    0    0  0.00000000000E+00  0.00000000000E+00  0.71441768545E+03  0.19574082110E+04  0.18223759972E+04 0.  0.
        4    1    3    3  502    0 -0.48139216815E+03  0.22787943615E+03 -0.43689271403E+03  0.68887176851E+03  0.12699999809E+01 0.  1.
       -4    1    3    3    0  502  0.48139216815E+03 -0.22787943615E+03  0.11513103995E+04  0.12685364424E+04  0.12699999809E+01 0. -1.
</event>
<event>
 5   0  0.3531266E-04  0.1636379E+04  0.7818609E-02  0.8798506E-01
       -2   -1    0    0    0  501  0.00000000000E+00  0.00000000000E+00  0.31537876194E+03  0.31537876195E+03  0.25500000920E-02 0.  1.
        2   -1    0    0  501    0  0.00000000000E+00  0.00000000000E+00 -0.21226341737E+04  0.21226341737E+04  0.25500000920E-02 0. -1.
    10030    2    1    2    0    0  0.00000000000E+00  0.00000000000E+00 -0.18072554117E+04  0.24380129356E+04  0.16363786087E+04 0.  0.
        3    1    3    3  502    0 -0.63490866070E+03 -0.51339630758E+03 -0.82551246962E+03  0.11611010394E+04  0.10100000352E+00 0. -1.
       -3    1    3    3    0  502  0.63490866070E+03  0.51339630758E+03 -0.98174294209E+03  0.12769118962E+04  0.10100000352E+00 0.  1.
</event>
<event>
 5   0  0.3531266E-04  0.1799734E+04  0.7818609E-02  0.8706441E-01
       -2   -1    0    0    0  501  0.00000000000E+00  0.00000000000E+00  0.87007711404E+03  0.87007711405E+03  0.25500000920E-02 0. -1.
        2   -1    0    0  501    0  0.00000000000E+00  0.00000000000E+00 -0.93067721758E+03  0.93067721759E+03  0.25500000920E-02 0.  1.
    10030    2    1    2    0    0  0.00000000000E+00  0.00000000000E+00 -0.60600103541E+02  0.18007543316E+04  0.17997343666E+04 0.  0.
        3    1    3    3  502    0 -0.41221444498E+03 -0.23074181586E+01 -0.83065016166E+03  0.92731104496E+03  0.10100000352E+00 0.  1.
       -3    1    3    3    0  502  0.41221444498E+03  0.23074181586E+01  0.77005005812E+03  0.87344328668E+03  0.10100000352E+00 0. -1.
</event>
<event>
 5   0  0.3531266E-04  0.1758592E+04  0.7818609E-02  0.8728635E-01
        2   -1    0    0  501    0  0.00000000000E+00  0.00000000000E+00  0.18581564850E+04  0.18581564850E+04  0.25500000920E-02 0.  1.
       -2   -1    0    0    0  501  0.00000000000E+00  0.00000000000E+00 -0.41609048383E+03  0.41609048384E+03  0.25500000920E-02 0. -1.
    10030    2    1    2    0    0  0.00000000000E+00  0.00000000000E+00  0.14420660011E+04  0.22742469688E+04  0.17585917444E+04 0.  0.
        3    1    3    3  502    0  0.34023982199E+02 -0.55744547097E+02 -0.41294971070E+03  0.41808200112E+03  0.10100000352E+00 0. -1.
       -3    1    3    3    0  502 -0.34023982199E+02  0.55744547097E+02  0.18550157118E+04  0.18561649677E+04  0.10100000352E+00 0.  1.
</event>
<event>
 5   0  0.1835421E-04  0.1849018E+04  0.7818609E-02  0.8680658E-01
       -1   -1    0    0    0  501  0.00000000000E+00  0.00000000000E+00  0.89291185202E+03  0.89291185204E+03  0.50400001928E-02 0. -1.
        1   -1    0    0  501    0  0.00000000000E+00  0.00000000000E+00 -0.95722445324E+03  0.95722445325E+03  0.50400001928E-02 0.  1.
    10030    2    1    2    0    0  0.00000000000E+00  0.00000000000E+00 -0.64312601216E+02  0.18501363053E+04  0.18490181820E+04 0.  0.
        2    1    3    3  502    0 -0.37935429325E+03  0.69249572801E+03 -0.51333902949E+03  0.94179454889E+03  0.25500000920E-02 0.  1.
       -2    1    3    3    0  502  0.37935429325E+03 -0.69249572801E+03  0.44902642827E+03  0.90834175640E+03  0.25500000920E-02 0. -1.
</event>
<event>
 5   0  0.3575091E-04  0.1783760E+04  0.7818609E-02  0.8714984E-01
       -2   -1    0    0    0  501  0.00000000000E+00  0.00000000000E+00  0.20839908012E+04  0.20839908012E+04  0.25500000920E-02 0.  1.
        2   -1    0    0  501    0  0.00000000000E+00  0.00000000000E+00 -0.38169546666E+03  0.38169546666E+03  0.25500000920E-02 0. -1.
    10030    2    1    2    0    0  0.00000000000E+00  0.00000000000E+00  0.17022953345E+04  0.24656862678E+04  0.17837598957E+04 0.  0.
        5    1    3    3  502    0 -0.24697813585E+02  0.26234480405E+03 -0.32664170081E+03  0.41970426363E+03  0.46999998093E+01 0. -1.
       -5    1    3    3    0  502  0.24697813585E+02 -0.26234480405E+03  0.20289370353E+04  0.20459820042E+04  0.46999998093E+01 0.  1.
</event>
<event>
 5   0  0.3575091E-04  0.1808560E+04  0.7818609E-02  0.8701760E-01
        2   -1    0    0  501    0  0.00000000000E+00  0.00000000000E+00  0.10523219196E+04  0.10523219196E+04  0.25500000920E-02 0. -1.
       -2   -1    0    0    0  501  0.00000000000E+00  0.00000000000E+00 -0.77706515890E+03  0.77706515891E+03  0.25500000920E-02 0.  1.
    10030    2    1    2    0    0  0.00000000000E+00  0.00000000000E+00  0.27525676069E+03  0.18293870785E+04  0.18085604216E+04 0.  0.
        5    1    3    3  502    0  0.59204098921E+03 -0.14927873097E+03 -0.53706385048E+03  0.81317669784E+03  0.46999998093E+01 0.  1.
       -5    1    3    3    0  502 -0.59204098921E+03  0.14927873097E+03  0.81232061117E+03  0.10162103807E+04  0.46999998093E+01 0. -1.
</event>
<event>
 5   0  0.3582186E-04  0.1686710E+04  0.7818609E-02  0.8768981E-01
        2   -1    0    0  501    0  0.00000000000E+00  0.00000000000E+00  0.23599678526E+04  0.23599678526E+04  0.25500000920E-02 0. -1.
       -2   -1    0    0    0  501  0.00000000000E+00  0.00000000000E+00 -0.30138020218E+03  0.30138020219E+03  0.25500000920E-02 0.  1.
    10030    2    1    2    0    0  0.00000000000E+00  0.00000000000E+00  0.20585876504E+04  0.26613480548E+04  0.16867099200E+04 0.  0.
        4    1    3    3  502    0  0.38298530372E+03  0.26353245857E+03 -0.80943998072E+02  0.47189049928E+03  0.12699999809E+01 0.  1.
       -4    1    3    3    0  502 -0.38298530372E+03 -0.26353245857E+03  0.21395316485E+04  0.21894575555E+04  0.12699999809E+01 0. -1.
</event>
<event>
 5   0  0.3582186E-04  0.1786115E+04  0.7818609E-02  0.8713718E-01
        2   -1    0    0  501    0  0.00000000000E+00  0.00000000000E+00  0.10365330928E+04  0.10365330928E+04  0.25500000920E-02 0.  1.
       -2   -1    0    0    0  501  0.00000000000E+00  0.00000000000E+00 -0.76944150811E+03  0.76944150812E+03  0.25500000920E-02 0. -1.
    10030    2    1    2    0    0  0.00000000000E+00  0.00000000000E+00  0.26709158473E+03  0.18059746010E+04  0.17861148744E+04 0.  0.
        4    1    3    3  502    0  0.30203294763E+02  0.75115232630E+03  0.62099313823E+03  0.97507750818E+03  0.12699999809E+01 0.  1.
       -4    1    3    3    0  502 -0.30203294763E+02 -0.75115232630E+03 -0.35390155350E+03  0.83089709278E+03  0.12699999809E+01 0. -1.
</event>
<event>
 5   0  0.1835421E-04  0.1770174E+04  0.7818609E-02  0.8722323E-01
        1   -1    0    0  501    0  0.00000000000E+00  0.00000000000E+00  0.18170291990E+04  0.18170291990E+04  0.50400001928E-02 0.  1.
       -1   -1    0    0    0  501  0.00000000000E+00  0.00000000000E+00 -0.43113185198E+03  0.43113185201E+03  0.50400001928E-02 0. -1.
    10030    2    1    2    0    0  0.00000000000E+00  0.00000000000E+00  0.13858973470E+04  0.22481610510E+04  0.17701741877E+04 0.  0.
        2    1    3    3  502    0 -0.17210017561E+03  0.46212063351E+03 -0.24050077047E+03  0.54864794811E+03  0.25500000920E-02 0. -1.
       -2    1    3    3    0  502  0.17210017561E+03 -0.46212063351E+03  0.16263981175E+04  0.16995131029E+04  0.25500000920E-02 0.  1.
</event>
<event>
 5   0  0.3531266E-04  0.1810619E+04  0.7818609E-02  0.8700673E-01
       -2   -1    0    0    0  501  0.00000000000E+00  0.00000000000E+00  0.49495288238E+03  0.49495288238E+03  0.25500000920E-02 0. -1.
        2   -1    0    0  501    0  0.00000000000E+00  0.00000000000E+00 -0.16558853349E+04  0.16558853349E+04  0.25500000920E-02 0.  1.
    10030    2    1    2    0    0  0.00000000000E+00  0.00000000000E+00 -0.11609324526E+04  0.21508382173E+04  0.18106189212E+04 0.  0.
        3    1    3    3  502    0  0.35486955605E+03  0.22509991623E+03  0.37206753987E+03  0.56128124726E+03  0.10100000352E+00 0. -1.
       -3    1    3    3    0  502 -0.35486955605E+03 -0.22509991623E+03 -0.15329999924E+04  0.15895569701E+04  0.10100000352E+00 0.  1.
</event>
<event>
 5   0  0.1825253E-04  0.1804375E+04  0.7818609E-02  0.8703976E-01
        1   -1    0    0  501    0  0.00000000000E+00  0.00000000000E+00  0.12183734990E+04  0.12183734990E+04  0.50400001928E-02 0. -1.
       -1   -1    0    0    0  501  0.00000000000E+00  0.00000000000E+00 -0.66805635625E+03  0.66805635627E+03  0.50400001928E-02 0.  1.
    10030    2    1    2    0    0  0.00000000000E+00  0.00000000000E+00  0.55031714278E+03  0.18864298553E+04  0.18043748617E+04 0.  0.
        4    1    3    3  502    0  0.36513205215E+03  0.65311096219E+03 -0.25181215082E+03  0.78948484257E+03  0.12699999809E+01 0.  1.
       -4    1    3    3    0  502 -0.36513205215E+03 -0.65311096219E+03  0.80212929360E+03  0.10969450127E+04  0.12699999809E+01 0. -1.
</event>
<event>
 5   0  0.3568870E-04  0.1818707E+04  0.7818609E-02  0.8696414E-01
        2   -1    0    0  501    0  0.00000000000E+00  0.00000000000E+00  0.11761622581E+04  0.11761622581E+04  0.25500000920E-02 0.  1.
       -2   -1    0    0    0  501  0.00000000000E+00  0.00000000000E+00 -0.70306922308E+03  0.70306922308E+03  0.25500000920E-02 0. -1.
    10030    2    1    2    0    0  0.00000000000E+00  0.00000000000E+00  0.47309303503E+03  0.18792314812E+04  0.18187066669E+04 0.  0.
        1    1    3    3  502    0 -0.30775420314E+03 -0.45636501095E+03 -0.51138037557E+03  0.75132653441E+03  0.50400001928E-02 0. -1.
       -1    1    3    3    0  502  0.30775420314E+03  0.45636501095E+03  0.98447341059E+03  0.11279049468E+04  0.50400001928E-02 0.  1.
</event>
<event>
 5   0  0.3628581E-04  0.1822811E+04  0.7818609E-02  0.8694262E-01
        2   -1    0    0  501    0  0.00000000000E+00  0.00000000000E+00  0.17979719283E+04  0.17979719283E+04  0.25500000920E-02 0. -1.
       -2   -1    0    0    0  501  0.00000000000E+00  0.00000000000E+00 -0.46199849714E+03  0.46199849715E+03  0.25500000920E-02 0.  1.
    10030    2    1    2    0    0  0.00000000000E+00  0.00000000000E+00  0.13359734312E+04  0.22599704255E+04  0.18228113767E+04 0.  0.
        2    1    3    3  502    0  0.52511604035E+03  0.15636062940E+03  0.15709899828E+04  0.16637923633E+04  0.25500000920E-02 0. -1.
       -2    1    3    3    0  502 -0.52511604035E+03 -0.15636062940E+03 -0.23501655159E+03  0.59617806215E+03  0.25500000920E-02 0.  1.
</event>
<event>
 5   0  0.1825253E-04  0.1816186E+04  0.7818609E-02  0.8697739E-01
        1   -1    0    0  501    0  0.00000000000E+00  0.00000000000E+00  0.10002561657E+04  0.10002561657E+04  0.50400001928E-02 0. -1.
       -1   -1    0    0    0  501  0.00000000000E+00  0.00000000000E+00 -0.82442214788E+03  0.82442214790E+03  0.50400001928E-02 0.  1.
    10030    2    1    2    0    0  0.00000000000E+00  0.00000000000E+00  0.17583401782E+03  0.18246783136E+04  0.18161864845E+04 0.  0.
        4    1    3    3  502    0 -0.69216391130E+03  0.58754545513E+03  0.69633520804E+02  0.91057727957E+03  0.12699999809E+01 0. -1.
       -4    1    3    3    0  502  0.69216391130E+03 -0.58754545513E+03  0.10620049702E+03  0.91410103404E+03  0.12699999809E+01 0.  1.
</event>
<event>
 5   0  0.1835421E-04  0.1805995E+04  0.7818609E-02  0.8703118E-01
       -1   -1    0    0    0  501  0.00000000000E+00  0.00000000000E+00  0.12362527004E+04  0.12362527004E+04  0.50400001928E-02 0.  1.
        1   -1    0    0  501    0  0.00000000000E+00  0.00000000000E+00 -0.65957779268E+03  0.65957779270E+03  0.50400001928E-02 0. -1.
    10030    2    1    2    0    0  0.00000000000E+00  0.00000000000E+00  0.57667490768E+03  0.18958304931E+04  0.18059953791E+04 0.  0.
        2    1    3    3  502    0  0.10925120142E+03 -0.59614814321E+03 -0.41434466415E+03  0.73417295945E+03  0.25500000920E-02 0. -1.
       -2    1    3    3    0  502 -0.10925120142E+03  0.59614814321E+03  0.99101957183E+03  0.11616575336E+04  0.25500000920E-02 0.  1.
</event>
<event>
 5   0  0.3582186E-04  0.1808453E+04  0.7818609E-02  0.8701817E-01
       -2   -1    0    0    0  501  0.00000000000E+00  0.00000000000E+00  0.11339272965E+04  0.11339272965E+04  0.25500000920E-02 0. -1.
        2   -1    0    0  501    0  0.00000000000E+00  0.00000000000E+00 -0.72105602977E+03  0.72105602977E+03  0.25500000920E-02 0.  1.
    10030    2    1    2    0    0  0.00000000000E+00  0.00000000000E+00  0.41287126675E+03  0.18549833263E+04  0.18084525036E+04 0.  0.
        4    1    3    3  502    0 -0.10888997207E+03  0.74409942851E+02 -0.71113650658E+03  0.72326385884E+03  0.12699999809E+01 0.  1.
       -4    1    3    3    0  502  0.10888997207E+03 -0.74409942851E+02  0.11240077733E+04  0.11317194674E+04  0.12699999809E+01 0. -1.
</event>
<event>
 5   0  0.3582186E-04  0.1798305E+04  0.7818609E-02  0.8707201E-01
        2   -1    0    0  501    0  0.00000000000E+00  0.00000000000E+00  0.13126253644E+04  0.13126253644E+04  0.25500000920E-02 0. -1.
       -2   -1    0    0    0  501  0.00000000000E+00  0.00000000000E+00 -0.61592214616E+03  0.61592214616E+03  0.25500000920E-02 0.  1.
    10030    2    1    2    0    0  0.00000000000E+00  0.00000000000E+00  0.69670321825E+03  0.19285475106E+04  0.17983047924E+04 0.  0.
        4    1    3    3  502    0  0.13818758937E+03 -0.19160818194E+03  0.12787470805E+04  0.13003865633E+04  0.12699999809E+01 0. -1.
       -4    1    3    3    0  502 -0.13818758937E+03  0.19160818194E+03 -0.58204386223E+03  0.62816094729E+03  0.12699999809E+01 0.  1.
</event>
<event>
 5   0  0.1825253E-04  0.1554947E+04  0.7818609E-02  0.8848714E-01
        1   -1    0    0  501    0  0.00000000000E+00  0.00000000000E+00  0.12395262443E+04  0.12395262443E+04  0.50400001928E-02 0. -1.
       -1   -1    0    0    0  501  0.00000000000E+00  0.00000000000E+00 -0.48765788581E+03  0.48765788584E+03  0.50400001928E-02 0.  1.
    10030    2    1    2    0    0  0.00000000000E+00  0.00000000000E+00  0.75186835850E+03  0.17271841302E+04  0.15549466200E+04 0.  0.
        4    1    3    3  502    0  0.17880322061E+03  0.33917062984E+03  0.11272071018E+04  0.11906320889E+04  0.12699999809E+01 0. -1.
       -4    1    3    3    0  502 -0.17880322061E+03 -0.33917062984E+03 -0.37533874332E+03  0.53655204126E+03  0.12699999809E+01 0.  1.
</event>
<event>
 5   0  0.1835421E-04  0.1760989E+04  0.7818609E-02  0.8727325E-01
       -1   -1    0    0    0  501  0.00000000000E+00  0.00000000000E+00  0.66030588616E+03  0.66030588617E+03  0.50400001928E-02 0.  1.
        1   -1    0    0  501    0  0.00000000000E+00  0.00000000000E+00 -0.11741080822E+04  0.11741080822E+04  0.50400001928E-02 0. -1.
    10030    2    1    2    0    0  0.00000000000E+00  0.00000000000E+00 -0.51380219603E+03  0.18344139684E+04  0.17609889014E+04 0.  0.
        2    1    3    3  502    0  0.16321261447E+03 -0.66289610453E+03 -0.83614448838E+03  0.10794476404E+04  0.25500000920E-02 0. -1.
       -2    1    3    3    0  502 -0.16321261447E+03  0.66289610453E+03  0.32234229235E+03  0.75496632797E+03  0.25500000920E-02 0.  1.
</event>
<event>
 5   0  0.3575091E-04  0.2307472E+04  0.7818609E-02  0.8474981E-01
        2   -1    0    0  501    0  0.00000000000E+00  0.00000000000E+00  0.11077848827E+04  0.11077848827E+04  0.25500000920E-02 0. -1.
       -2   -1    0    0    0  501  0.00000000000E+00  0.00000000000E+00 -0.12015933773E+04  0.12015933773E+04  0.25500000920E-02 0.  1.
    10030    2    1    2    0    0  0.00000000000E+00  0.00000000000E+00 -0.93808494618E+02  0.23093782600E+04  0.23074721914E+04 0.  0.
        5    1    3    3  502    0 -0.72498037417E+02 -0.63077823190E+03  0.91719192310E+03  0.11155268966E+04  0.46999998093E+01 0. -1.
       -5    1    3    3    0  502  0.72498037417E+02  0.63077823190E+03 -0.10110004177E+04  0.11938513634E+04  0.46999998093E+01 0.  1.
</event>
<event>
 5   0  0.3575091E-04  0.1798667E+04  0.7818609E-02  0.8707008E-01
        2   -1    0    0  501    0  0.00000000000E+00  0.00000000000E+00  0.84517277147E+03  0.84517277148E+03  0.25500000920E-02 0. -1.
       -2   -1    0    0    0  501  0.00000000000E+00  0.00000000000E+00 -0.95696536828E+03  0.95696536828E+03  0.25500000920E-02 0.  1.
    10030    2    1    2    0    0  0.00000000000E+00  0.00000000000E+00 -0.11179259681E+03  0.18021381398E+04  0.17986673650E+04 0.  0.
        5    1    3    3  502    0 -0.63821049968E+03  0.62685599174E+03  0.36574296356E+02  0.89533281266E+03  0.46999998093E+01 0. -1.
       -5    1    3    3    0  502  0.63821049968E+03 -0.62685599174E+03 -0.14836689316E+03  0.90680532710E+03  0.46999998093E+01 0.  1.
</event>
<event>
 5   0  0.1883959E-04  0.1802296E+04  0.7818609E-02  0.8705079E-01
        1   -1    0    0  501    0  0.00000000000E+00  0.00000000000E+00  0.15301706974E+04  0.15301706974E+04  0.50400001928E-02 0. -1.
       -1   -1    0    0    0  501  0.00000000000E+00  0.00000000000E+00 -0.53070406984E+03  0.53070406987E+03  0.50400001928E-02 0.  1.
    10030    2    1    2    0    0  0.00000000000E+00  0.00000000000E+00  0.99946662751E+03  0.20608747672E+04  0.18022961096E+04 0.  0.
        5    1    3    3  502    0 -0.28221224525E+03 -0.25707829098E+03  0.14331262527E+04  0.14831068557E+04  0.46999998093E+01 0. -1.
       -5    1    3    3    0  502  0.28221224525E+03  0.25707829098E+03 -0.43365962523E+03  0.57776791155E+03  0.46999998093E+01 0.  1.
</event>
<event>
 5   0  0.3628581E-04  0.1755922E+04  0.7818609E-02  0.8730097E-01
       -2   -1    0    0    0  501  0.00000000000E+00  0.00000000000E+00  0.95284082296E+03  0.95284082296E+03  0.25500000920E-02 0. -1.
        2   -1    0    0  501    0  0.00000000000E+00  0.00000000000E+00 -0.80896601898E+03  0.80896601898E+03  0.25500000920E-02 0.  1.
    10030    2    1    2    0    0  0.00000000000E+00  0.00000000000E+00  0.14387480398E+03  0.17618068419E+04  0.17559223756E+04 0.  0.
        2    1    3    3  502    0  0.53690869928E+03  0.37738516007E+03 -0.51321968821E+03  0.83311761401E+03  0.25500000920E-02 0.  1.
       -2    1    3    3    0  502 -0.53690869928E+03 -0.37738516007E+03  0.65709449219E+03  0.92868922793E+03  0.25500000920E-02 0. -1.
</event>
<event>
 5   0  0.1825253E-04  0.1414668E+04  0.7818609E-02  0.8943269E-01
        1   -1    0    0  501    0  0.00000000000E+00  0.00000000000E+00  0.94555253282E+03  0.94555253283E+03  0.50400001928E-02 0. -1.
       -1   -1    0    0    0  501  0.00000000000E+00  0.00000000000E+00 -0.52913126750E+03  0.52913126752E+03  0.50400001928E-02 0.  1.
    10030    2    1    2    0    0  0.00000000000E+00  0.00000000000E+00  0.41642126532E+03  0.14746838004E+04  0.14146680320E+04 0.  0.
        4    1    3    3  502    0 -0.35942777801E+03 -0.18375164767E+03  0.81368469287E+03  0.90831568738E+03  0.12699999809E+01 0. -1.
       -4    1    3    3    0  502  0.35942777801E+03  0.18375164767E+03 -0.39726342755E+03  0.56636811298E+03  0.12699999809E+01 0.  1.
</event>
<event>
 5   0  0.3531266E-04  0.1812273E+04  0.7818609E-02  0.8699800E-01
       -2   -1    0    0    0  501  0.00000000000E+00  0.00000000000E+00  0.71987316208E+03  0.71987316208E+03  0.25500000920E-02 0. -1.
        2   -1    0    0  501    0  0.00000000000E+00  0.00000000000E+00 -0.11405945260E+04  0.11405945260E+04  0.25500000920E-02 0.  1.
    10030    2    1    2    0    0  0.00000000000E+00  0.00000000000E+00 -0.42072136392E+03  0.18604676881E+04  0.18122730347E+04 0.  0.
        3    1    3    3  502    0 -0.46557776518E+03  0.40819434993E+03  0.46882079260E+03  0.77664549733E+03  0.10100000352E+00 0. -1.
       -3    1    3    3    0  502  0.46557776518E+03 -0.40819434993E+03 -0.88954215652E+03  0.10838221908E+04  0.10100000352E+00 0.  1.
</event>
<event>
 5   0  0.3575091E-04  0.1896629E+04  0.7818609E-02  0.8656536E-01
       -2   -1    0    0    0  501  0.00000000000E+00  0.00000000000E+00  0.64972748134E+03  0.64972748134E+03  0.25500000920E-02 0.  1.
        2   -1    0    0  501    0  0.00000000000E+00  0.00000000000E+00 -0.13841189651E+04  0.13841189651E+04  0.25500000920E-02 0. -1.
    10030    2    1    2    0    0  0.00000000000E+00  0.00000000000E+00 -0.73439148372E+03  0.20338464464E+04  0.18966287239E+04 0.  0.
        5    1    3    3  502    0 -0.13782802454E+03 -0.91064104682E+03 -0.12499132844E+03  0.92946683787E+03  0.46999998093E+01 0.  1.
       -5    1    3    3    0  502  0.13782802454E+03  0.91064104682E+03 -0.60940015528E+03  0.11043796085E+04  0.46999998093E+01 0. -1.
</event>
<event>
 5   0  0.3628581E-04  0.1807537E+04  0.7818609E-02  0.8702302E-01
       -2   -1    0    0    0  501  0.00000000000E+00  0.00000000000E+00  0.65559888222E+03  0.65559888222E+03  0.25500000920E-02 0. -1.
        2   -1    0    0  501    0  0.00000000000E+00  0.00000000000E+00 -0.12458798268E+04  0.12458798268E+04  0.25500000920E-02 0.  1.
    10030    2    1    2    0    0  0.00000000000E+00  0.00000000000E+00 -0.59028094458E+03  0.19014787090E+04  0.18075369118E+04 0.  0.
        2    1    3    3  502    0 -0.10346379348E+03  0.16222215497E+03 -0.12240841898E+04  0.12391137509E+04  0.25500000920E-02 0.  1.
       -2    1    3    3    0  502  0.10346379348E+03 -0.16222215497E+03  0.63380324517E+03  0.66236495810E+03  0.25500000920E-02 0. -1.
</event>
<event>
 5   0  0.1818778E-04  0.1813324E+04  0.7818609E-02  0.8699246E-01
        1   -1    0    0  501    0  0.00000000000E+00  0.00000000000E+00  0.10869758793E+04  0.10869758793E+04  0.50400001928E-02 0.  1.
       -1   -1    0    0    0  501  0.00000000000E+00  0.00000000000E+00 -0.75625974158E+03  0.75625974160E+03  0.50400001928E-02 0. -1.
    10030    2    1    2    0    0  0.00000000000E+00  0.00000000000E+00  0.33071613770E+03  0.18432356209E+04  0.18133241272E+04 0.  0.
        3    1    3    3  502    0 -0.35614292189E+03 -0.77025613714E+03  0.48984751964E+03  0.97983820109E+03  0.10100000352E+00 0. -1.
       -3    1    3    3    0  502  0.35614292189E+03  0.77025613714E+03 -0.15913138194E+03  0.86339741981E+03  0.10100000352E+00 0.  1.
</event>
<event>
 5   0  0.3628581E-04  0.1794594E+04  0.7818609E-02  0.8709180E-01
        2   -1    0    0  501    0  0.00000000000E+00  0.00000000000E+00  0.80780567579E+03  0.80780567580E+03  0.25500000920E-02 0. -1.
       -2   -1    0    0    0  501  0.00000000000E+00  0.00000000000E+00 -0.99670192795E+03  0.99670192795E+03  0.25500000920E-02 0.  1.
    10030    2    1    2    0    0  0.00000000000E+00  0.00000000000E+00 -0.18889625215E+03  0.18045076037E+04  0.17945935189E+04 0.  0.
        2    1    3    3  502    0  0.11767369506E+03 -0.38560624862E+03 -0.90050135948E+03  0.98663163132E+03  0.25500000920E-02 0.  1.
       -2    1    3    3    0  502 -0.11767369506E+03  0.38560624862E+03  0.71160510733E+03  0.81787597243E+03  0.25500000920E-02 0. -1.
</event>
<event>
 5   0  0.1883959E-04  0.1704359E+04  0.7818609E-02  0.8758882E-01
        1   -1    0    0  501    0  0.00000000000E+00  0.00000000000E+00  0.12160523414E+04  0.12160523414E+04  0.50400001928E-02 0.  1.
       -1   -1    0    0    0  501  0.00000000000E+00  0.00000000000E+00 -0.59718673297E+03  0.59718673299E+03  0.50400001928E-02 0. -1.
    10030    2    1    2    0    0  0.00000000000E+00  0.00000000000E+00  0.61886560841E+03  0.18132390744E+04  0.17043594984E+04 0.  0.
        5    1    3    3  502    0 -0.81986186896E+03 -0.20445089824E+03  0.42701272136E+03  0.94675002412E+03  0.46999998093E+01 0.  1.
       -5    1    3    3    0  502  0.81986186896E+03  0.20445089824E+03  0.19185288705E+03  0.86648905027E+03  0.46999998093E+01 0. -1.
</event>
<event>
 5   0  0.1825253E-04  0.1756002E+04  0.7818609E-02  0.8730053E-01
        1   -1    0    0  501    0  0.00000000000E+00  0.00000000000E+00  0.18092000336E+04  0.18092000336E+04  0.50400001928E-02 0. -1.
       -1   -1    0    0    0  501  0.00000000000E+00  0.00000000000E+00 -0.42609227645E+03  0.42609227648E+03  0.50400001928E-02 0.  1.
    10030    2    1    2    0    0  0.00000000000E+00  0.00000000000E+00  0.13831077571E+04  0.22352923101E+04  0.17560024612E+04 0.  0.
        4    1    3    3  502    0  0.59168118259E+03  0.21443691944E+01  0.15172944553E+04  0.16285807616E+04  0.12699999809E+01 0. -1.
       -4    1    3    3    0  502 -0.59168118259E+03 -0.21443691944E+01 -0.13418669817E+03  0.60671154844E+03  0.12699999809E+01 0.  1.
</event>
<event>
 5   0  0.3531266E-04  0.1879961E+04  0.7818609E-02  0.8664896E-01
        2   -1    0    0  501    0  0.00000000000E+00  0.00000000000E+00  0.16961885359E+04  0.16961885359E+04  0.25500000920E-02 0. -1.
       -2   -1    0    0    0  501  0.00000000000E+00  0.00000000000E+00 -0.52091124968E+03  0.52091124968E+03  0.25500000920E-02 0.  1.
    10030    2    1    2    0    0  0.00000000000E+00  0.00000000000E+00  0.11752772863E+04  0.22170997856E+04  0.18799613719E+04 0.  0.
        3    1    3    3  502    0  0.37361127217E+03  0.82559236524E+03  0.88217810271E+03  0.12646842892E+04  0.10100000352E+00 0. -1.
       -3    1    3    3    0  502 -0.37361127217E+03 -0.82559236524E+03  0.29309918356E+03  0.95241549643E+03  0.10100000352E+00 0.  1.
</event>
<event>
 5   0  0.1818778E-04  0.1837268E+04  0.7818609E-02  0.8686728E-01
        1   -1    0    0  501    0  0.00000000000E+00  0.00000000000E+00  0.95235700953E+03  0.95235700955E+03  0.50400001928E-02 0.  1.
       -1   -1    0    0    0  501  0.00000000000E+00  0.00000000000E+00 -0.88610547144E+03  0.88610547145E+03  0.50400001928E-02 0. -1.
    10030    2    1    2    0    0  0.00000000000E+00  0.00000000000E+00  0.66251538098E+02  0.18384624810E+04  0.18372683603E+04 0.  0.
        3    1    3    3  502    0 -0.26062500261E+03 -0.23653843253E+03  0.88221302271E+03  0.94982927397E+03  0.10100000352E+00 0.  1.
       -3    1    3    3    0  502  0.26062500261E+03  0.23653843253E+03 -0.81596148462E+03  0.88863320702E+03  0.10100000352E+00 0. -1.
</event>
<event>
 5   0  0.1835421E-04  0.1788505E+04  0.7818609E-02  0.8712437E-01
        1   -1    0    0  501    0  0.00000000000E+00  0.00000000000E+00  0.13141609878E+04  0.13141609878E+04  0.50400001928E-02 0. -1.
       -1   -1    0    0    0  501  0.00000000000E+00  0.00000000000E+00 -0.60851547585E+03  0.60851547587E+03  0.50400001928E-02 0.  1.
    10030    2    1    2    0    0  0.00000000000E+00  0.00000000000E+00  0.70564551191E+03  0.19226764636E+04  0.17885047373E+04 0.  0.
        2    1    3    3  502    0 -0.38308890251E+03 -0.16067305207E+03  0.12041361935E+04  0.12737805578E+04  0.25500000920E-02 0. -1.
       -2    1    3    3    0  502  0.38308890251E+03  0.16067305207E+03 -0.49849068163E+03  0.64889590581E+03  0.25500000920E-02 0.  1.
</event>
<event>
 5   0  0.1835421E-04  0.1855571E+04  0.7818609E-02  0.8677293E-01
       -1   -1    0    0    0  501  0.00000000000E+00  0.00000000000E+00  0.77850673049E+03  0.77850673051E+03  0.50400001928E-02 0.  1.
        1   -1    0    0  501    0  0.00000000000E+00  0.00000000000E+00 -0.11056884772E+04  0.11056884772E+04  0.50400001928E-02 0. -1.
    10030    2    1    2    0    0  0.00000000000E+00  0.00000000000E+00 -0.32718174669E+03  0.18841952077E+04  0.18555709863E+04 0.  0.
        2    1    3    3  502    0 -0.12502288040E+03 -0.89199257220E+03  0.62337330454E+02  0.90286622058E+03  0.25500000920E-02 0. -1.
       -2    1    3    3    0  502  0.12502288040E+03  0.89199257220E+03 -0.38951907714E+03  0.98132898712E+03  0.25500000920E-02 0.  1.
</event>
<event>
 5   0  0.3582186E-04  0.1797120E+04  0.7818609E-02  0.8707833E-01
       -2   -1    0    0    0  501  0.00000000000E+00  0.00000000000E+00  0.87744121404E+03  0.87744121404E+03  0.25500000920E-02 0.  1.
        2   -1    0    0  501    0  0.00000000000E+00  0.00000000000E+00 -0.92018668590E+03  0.92018668590E+03  0.25500000920E-02 0. -1.
    10030    2    1    2    0    0  0.00000000000E+00  0.00000000000E+00 -0.42745471857E+02  0.17976278999E+04  0.17971196096E+04 0.  0.
        4    1    3    3  502    0  0.36748897855E+03 -0.81653350048E+03  0.53701827330E+02  0.89702876538E+03  0.12699999809E+01 0. -1.
       -4    1    3    3    0  502 -0.36748897855E+03  0.81653350048E+03 -0.96447299187E+02  0.90059913456E+03  0.12699999809E+01 0.  1.
</event>
<event>
 5   0  0.1825253E-04  0.1818889E+04  0.7818609E-02  0.8696319E-01
        1   -1    0    0  501    0  0.00000000000E+00  0.00000000000E+00  0.10402051809E+04  0.10402051809E+04  0.50400001928E-02 0. -1.
       -1   -1    0    0    0  501  0.00000000000E+00  0.00000000000E+00 -0.79512127917E+03  0.79512127919E+03  0.50400001928E-02 0.  1.
    10030    2    1    2    0    0  0.00000000000E+00  0.00000000000E+00  0.24508390168E+03  0.18353264601E+04  0.18188889730E+04 0.  0.
        4    1    3    3  502    0  0.84892899287E+03  0.27957852977E+03  0.29211744901E+03  0.94030782521E+03  0.12699999809E+01 0. -1.
       -4    1    3    3    0  502 -0.84892899287E+03 -0.27957852977E+03 -0.47033547331E+02  0.89501863484E+03  0.12699999809E+01 0.  1.
</event>
<event>
 5   0  0.1837313E-04  0.1797303E+04  0.7818609E-02  0.8707735E-01
        1   -1    0    0  501    0  0.00000000000E+00  0.00000000000E+00  0.74068508080E+03  0.74068508082E+03  0.50400001928E-02 0. -1.
       -1   -1    0    0    0  501  0.00000000000E+00  0.00000000000E+00 -0.10903077925E+04  0.10903077925E+04  0.50400001928E-02 0.  1.
    10030    2    1    2    0    0  0.00000000000E+00  0.00000000000E+00 -0.34962271173E+03  0.18309928734E+04  0.17973032192E+04 0.  0.
        1    1    3    3  502    0  0.10510834136E+03  0.61655045699E+03 -0.83219174428E+03  0.10410212912E+04  0.50400001928E-02 0.  1.
       -1    1    3    3    0  502 -0.10510834136E+03 -0.61655045699E+03  0.48256903255E+03  0.78997158217E+03  0.50400001928E-02 0. -1.
</event>
<event>
 5   0  0.3575091E-04  0.1637873E+04  0.7818609E-02  0.8797613E-01
       -2   -1    0    0    0  501  0.00000000000E+00  0.00000000000E+00  0.54774385889E+03  0.54774385890E+03  0.25500000920E-02 0.  1.
        2   -1    0    0  501    0  0.00000000000E+00  0.00000000000E+00 -0.12243990494E+04  0.12243990494E+04  0.25500000920E-02 0. -1.
    10030    2    1    2    0    0  0.00000000000E+00  0.00000000000E+00 -0.67665519049E+03  0.17721429083E+04  0.16378730844E+04 0.  0.
        5    1    3    3  502    0 -0.58692760134E+03 -0.52774812042E+03 -0.10218630819E+03  0.79590591115E+03  0.46999998093E+01 0.  1.
       -5    1    3    3    0  502  0.58692760134E+03  0.52774812042E+03 -0.57446888230E+03  0.97623699712E+03  0.46999998093E+01 0. -1.
</event>
<event>
 5   0  0.3568870E-04  0.1823842E+04  0.7818609E-02  0.8693722E-01
       -2   -1    0    0    0  501  0.00000000000E+00  0.00000000000E+00  0.69832757979E+03  0.69832757979E+03  0.25500000920E-02 0.  1.
        2   -1    0    0  501    0  0.00000000000E+00  0.00000000000E+00 -0.11908455558E+04  0.11908455558E+04  0.25500000920E-02 0. -1.
    10030    2    1    2    0    0  0.00000000000E+00  0.00000000000E+00 -0.49251797604E+03  0.18891731356E+04  0.18238424218E+04 0.  0.
        1    1    3    3  502    0 -0.58339683270E+03  0.15622743604E+03 -0.95399148618E+03  0.11290963785E+04  0.50400001928E-02 0. -1.
       -1    1    3    3    0  502  0.58339683270E+03 -0.15622743604E+03  0.46147351014E+03  0.76007675715E+03  0.50400001928E-02 0.  1.
</event>
<event>
 5   0  0.3568870E-04  0.1780753E+04  0.7818609E-02  0.8716602E-01
       -2   -1    0    0    0  501  0.00000000000E+00  0.00000000000E+00  0.34346563591E+03  0.34346563592E+03  0.25500000920E-02 0.  1.
        2   -1    0    0  501    0  0.00000000000E+00  0.00000000000E+00 -0.23081506081E+04  0.23081506081E+04  0.25500000920E-02 0. -1.
    10030    2    1    2    0    0  0.00000000000E+00  0.00000000000E+00 -0.19646849722E+04  0.26516162441E+04  0.17807531175E+04 0.  0.
        1    1    3    3  502    0  0.56157210490E+03 -0.23607105455E+03 -0.19492774095E+04  0.20422475832E+04  0.50400001928E-02 0. -1.
       -1    1    3    3    0  502 -0.56157210490E+03  0.23607105455E+03 -0.15407562689E+02  0.60936866084E+03  0.50400001928E-02 0.  1.
</event>
<event>
 5   0  0.1818778E-04  0.1814290E+04  0.7818609E-02  0.8698737E-01
       -1   -1    0    0    0  501  0.00000000000E+00  0.00000000000E+00  0.94393264450E+03  0.94393264452E+03  0.50400001928E-02 0. -1.
        1   -1    0    0  501    0  0.00000000000E+00  0.00000000000E+00 -0.87179131234E+03  0.87179131235E+03  0.50400001928E-02 0.  1.
    10030    2    1    2    0    0  0.00000000000E+00  0.00000000000E+00  0.72141332164E+02  0.18157239569E+04  0.18142902512E+04 0.  0.
        3    1    3    3  502    0  0.19418239093E+03 -0.35913807174E+03 -0.77464683106E+03  0.87565100274E+03  0.10100000352E+00 0.  1.
       -3    1    3    3    0  502 -0.19418239093E+03  0.35913807174E+03  0.84678816322E+03  0.94007295413E+03  0.10100000352E+00 0. -1.
</event>
<event>
 5   0  0.3575091E-04  0.1801638E+04  0.7818609E-02  0.8705429E-01
       -2   -1    0    0    0  501  0.00000000000E+00  0.00000000000E+00  0.69211357695E+03  0.69211357695E+03  0.25500000920E-02 0.  1.
        2   -1    0    0  501    0  0.00000000000E+00  0.00000000000E+00 -0.11724591527E+04  0.11724591527E+04  0.25500000920E-02 0. -1.
    10030    2    1    2    0    0  0.00000000000E+00  0.00000000000E+00 -0.48034557578E+03  0.18645727297E+04  0.18016380303E+04 0.  0.
        5    1    3    3  502    0 -0.90155198491E+02 -0.41878050805E+03 -0.10602854862E+04  0.11435613127E+04  0.46999998093E+01 0. -1.
       -5    1    3    3    0  502  0.90155198491E+02  0.41878050805E+03  0.57993991039E+03  0.72101141697E+03  0.46999998093E+01 0.  1.
</event>
<event>
 5   0  0.3628581E-04  0.1798363E+04  0.7818609E-02  0.8707170E-01
        2   -1    0    0  501    0  0.00000000000E+00  0.00000000000E+00  0.22416549484E+04  0.22416549484E+04  0.25500000920E-02 0. -1.
       -2   -1    0    0    0  501  0.00000000000E+00  0.00000000000E+00 -0.36068327815E+03  0.36068327816E+03  0.25500000920E-02 0.  1.
    10030    2    1    2    0    0  0.00000000000E+00  0.00000000000E+00  0.18809716703E+04  0.26023382266E+04  0.17983630949E+04 0.  0.
        2    1    3    3  502    0  0.77525643157E+03  0.17303945681E+03  0.33072194766E+03  0.86043140050E+03  0.25500000920E-02 0.  1.
       -2    1    3    3    0  502 -0.77525643157E+03 -0.17303945681E+03  0.15502497226E+04  0.17419068261E+04  0.25500000920E-02 0. -1.
</event>
<event>
 5   0  0.1883959E-04  0.1840312E+04  0.7818609E-02  0.8685151E-01
        1   -1    0    0  501    0  0.00000000000E+00  0.00000000000E+00  0.60120801992E+03  0.60120801994E+03  0.50400001928E-02 0.  1.
       -1   -1    0    0    0  501  0.00000000000E+00  0.00000000000E+00 -0.14083101410E+04  0.14083101410E+04  0.50400001928E-02 0. -1.
    10030    2    1    2    0    0  0.00000000000E+00  0.00000000000E+00 -0.80710212105E+03  0.20095181609E+04  0.18403123119E+04 0.  0.
        5    1    3    3  502    0  0.88516804191E+02  0.12194925966E+03  0.58763012687E+03  0.60666143981E+03  0.46999998093E+01 0.  1.
       -5    1    3    3    0  502 -0.88516804191E+02 -0.12194925966E+03 -0.13947322479E+04  0.14028567211E+04  0.46999998093E+01 0. -1.
</event>
<event>
 5   0  0.3568870E-04  0.1761055E+04  0.7818609E-02  0.8727288E-01
        2   -1    0    0  501    0  0.00000000000E+00  0.00000000000E+00  0.13018171617E+04  0.13018171617E+04  0.25500000920E-02 0. -1.
       -2   -1    0    0    0  501  0.00000000000E+00  0.00000000000E+00 -0.59557428911E+03  0.59557428911E+03  0.25500000920E-02 0.  1.
    10030    2    1    2    0    0  0.00000000000E+00  0.00000000000E+00  0.70624287255E+03  0.18973914508E+04  0.17610551730E+04 0.  0.
        1    1    3    3  502    0  0.14991961838E+03  0.32367637314E+03 -0.51424073925E+03  0.62584808415E+03  0.50400001928E-02 0.  1.
       -1    1    3    3    0  502 -0.14991961838E+03 -0.32367637314E+03  0.12204836118E+04  0.12715433666E+04  0.50400001928E-02 0. -1.
</event>
<event>
 5   0  0.3582186E-04  0.1741851E+04  0.7818609E-02  0.8737849E-01
        2   -1    0    0  501    0  0.00000000000E+00  0.00000000000E+00  0.13161499619E+04  0.13161499619E+04  0.25500000920E-02 0.  1.
       -2   -1    0    0    0  501  0.00000000000E+00  0.00000000000E+00 -0.57631079939E+03  0.57631079939E+03  0.25500000920E-02 0. -1.
    10030    2    1    2    0    0  0.00000000000E+00  0.00000000000E+00  0.73983916256E+03  0.18924607613E+04  0.17418512413E+04 0.  0.
        4    1    3    3  502    0  0.29490958832E+03 -0.60590815948E+03  0.96936238020E+03  0.11805767235E+04  0.12699999809E+01 0.  1.
       -4    1    3    3    0  502 -0.29490958832E+03  0.60590815948E+03 -0.22952321764E+03  0.71188403785E+03  0.12699999809E+01 0. -1.
</event>
<event>
 5   0  0.3568870E-04  0.1805138E+04  0.7818609E-02  0.8703572E-01
        2   -1    0    0  501    0  0.00000000000E+00  0.00000000000E+00  0.13268280414E+04  0.13268280414E+04  0.25500000920E-02 0.  1.
       -2   -1    0    0    0  501  0.00000000000E+00  0.00000000000E+00 -0.61396843338E+03  0.61396843339E+03  0.25500000920E-02 0. -1.
    10030    2    1    2    0    0  0.00000000000E+00  0.00000000000E+00  0.71285960802E+03  0.19407964748E+04  0.18051377055E+04 0.  0.
        1    1    3    3  502    0 -0.56610333892E+03 -0.71835145690E+01  0.11121824818E+04  0.12479881674E+04  0.50400001928E-02 0.  1.
       -1    1    3    3    0  502  0.56610333892E+03  0.71835145690E+01 -0.39932287376E+03  0.69280830737E+03  0.50400001928E-02 0. -1.
</event>
<event>
 5   0  0.3628581E-04  0.1593982E+04  0.7818609E-02  0.8824254E-01
       -2   -1    0    0    0  501  0.00000000000E+00  0.00000000000E+00  0.86131517931E+03  0.86131517931E+03  0.25500000920E-02 0.  1.
        2   -1    0    0  501    0  0.00000000000E+00  0.00000000000E+00 -0.73747036588E+03  0.73747036588E+03  0.25500000920E-02 0. -1.
    10030    2    1    2    0    0  0.00000000000E+00  0.00000000000E+00  0.12384481343E+03  0.15987855452E+04  0.15939817068E+04 0.  0.
        2    1    3    3  502    0  0.36021789331E+03 -0.13113711582E+03  0.76277034764E+03  0.85368171882E+03  0.25500000920E-02 0.  1.
       -2    1    3    3    0  502 -0.36021789331E+03  0.13113711582E+03 -0.63892553421E+03  0.74510382637E+03  0.25500000920E-02 0. -1.
</event>
<event>
 5   0  0.1835421E-04  0.1692634E+04  0.7818609E-02  0.8765576E-01
       -1   -1    0    0    0  501  0.00000000000E+00  0.00000000000E+00  0.22481389077E+03  0.22481389082E+03  0.50400001928E-02 0. -1.
        1   -1    0    0  501    0  0.00000000000E+00  0.00000000000E+00 -0.31859812118E+04  0.31859812118E+04  0.50400001928E-02 0.  1.
    10030    2    1    2    0    0  0.00000000000E+00  0.00000000000E+00 -0.29611673211E+04  0.34107951027E+04  0.16926344345E+04 0.  0.
        2    1    3    3  502    0 -0.38230292212E+03 -0.15581481133E+03  0.81493027144E+01  0.41291668752E+03  0.25500000920E-02 0. -1.
       -2    1    3    3    0  502  0.38230292212E+03  0.15581481133E+03 -0.29693166238E+04  0.29978784151E+04  0.25500000920E-02 0.  1.
</event>
<event>
 5   0  0.1835421E-04  0.1777044E+04  0.7818609E-02  0.8718604E-01
        1   -1    0    0  501    0  0.00000000000E+00  0.00000000000E+00  0.97416129702E+03  0.97416129704E+03  0.50400001928E-02 0.  1.
       -1   -1    0    0    0  501  0.00000000000E+00  0.00000000000E+00 -0.81041096130E+03  0.81041096131E+03  0.50400001928E-02 0. -1.
    10030    2    1    2    0    0  0.00000000000E+00  0.00000000000E+00  0.16375033573E+03  0.17845722583E+04  0.17770436046E+04 0.  0.
        2    1    3    3  502    0 -0.22941470789E+03  0.52486109087E+03  0.76398822217E+03  0.95487605296E+03  0.25500000920E-02 0.  1.
       -2    1    3    3    0  502  0.22941470789E+03 -0.52486109087E+03 -0.60023788644E+03  0.82969620539E+03  0.25500000920E-02 0. -1.
</event>
<event>
 5   0  0.3568870E-04  0.1789582E+04  0.7818609E-02  0.8711859E-01
       -2   -1    0    0    0  501  0.00000000000E+00  0.00000000000E+00  0.73300678875E+03  0.73300678875E+03  0.25500000920E-02 0.  1.
        2   -1    0    0  501    0  0.00000000000E+00  0.00000000000E+00 -0.10922835867E+04  0.10922835867E+04  0.25500000920E-02 0. -1.
    10030    2    1    2    0    0  0.00000000000E+00  0.00000000000E+00 -0.35927679794E+03  0.18252903754E+04  0.17895823918E+04 0.  0.
        1    1    3    3  502    0  0.61025238378E+03 -0.45252354911E+03  0.30251557476E+03  0.81774152849E+03  0.50400001928E-02 0.  1.
       -1    1    3    3    0  502 -0.61025238378E+03  0.45252354911E+03 -0.66179237270E+03  0.10075488470E+04  0.50400001928E-02 0. -1.
</event>
<event>
 5   0  0.1837313E-04  0.1780560E+04  0.7818609E-02  0.8716706E-01
        1   -1    0    0  501    0  0.00000000000E+00  0.00000000000E+00  0.10930527979E+04  0.10930527979E+04  0.50400001928E-02 0. -1.
       -1   -1    0    0    0  501  0.00000000000E+00  0.00000000000E+00 -0.72512379403E+03  0.72512379405E+03  0.50400001928E-02 0.  1.
    10030    2    1    2    0    0  0.00000000000E+00  0.00000000000E+00  0.36792900388E+03  0.18181765920E+04  0.17805601275E+04 0.  0.
        1    1    3    3  502    0  0.53246457419E+03  0.22514124505E+03  0.87531406220E+03  0.10489908534E+04  0.50400001928E-02 0. -1.
       -1    1    3    3    0  502 -0.53246457419E+03 -0.22514124505E+03 -0.50738505832E+03  0.76918573858E+03  0.50400001928E-02 0.  1.
</event>
<event>
 5   0  0.1883959E-04  0.1817095E+04  0.7818609E-02  0.8697261E-01
        1   -1    0    0  501    0  0.00000000000E+00  0.00000000000E+00  0.16655524252E+04  0.16655524252E+04  0.50400001928E-02 0. -1.
       -1   -1    0    0    0  501  0.00000000000E+00  0.00000000000E+00 -0.49560637315E+03  0.49560637317E+03  0.50400001928E-02 0.  1.
    10030    2    1    2    0    0  0.00000000000E+00  0.00000000000E+00  0.11699460520E+04  0.21611587983E+04  0.18170948206E+04 0.  0.
        5    1    3    3  502    0  0.22590546437E+03 -0.15071689947E+03 -0.44619096048E+03  0.52235746939E+03  0.46999998093E+01 0.  1.
       -5    1    3    3    0  502 -0.22590546437E+03  0.15071689947E+03  0.16161370125E+04  0.16388013289E+04  0.46999998093E+01 0. -1.
</event>
<event>
 5   0  0.3568870E-04  0.1808813E+04  0.7818609E-02  0.8701627E-01
       -2   -1    0    0    0  501  0.00000000000E+00  0.00000000000E+00  0.86632831738E+03  0.86632831738E+03  0.25500000920E-02 0. -1.
        2   -1    0    0  501    0  0.00000000000E+00  0.00000000000E+00 -0.94415808655E+03  0.94415808655E+03  0.25500000920E-02 0.  1.
    10030    2    1    2    0    0  0.00000000000E+00  0.00000000000E+00 -0.77829769174E+02  0.18104864039E+04  0.18088127448E+04 0.  0.
        1    1    3    3  502    0 -0.76250108864E+03 -0.60691269675E+02  0.44408684024E+03  0.88447976918E+03  0.50400001928E-02 0.  1.
       -1    1    3    3    0  502  0.76250108864E+03  0.60691269675E+02 -0.52191660941E+03  0.92600663475E+03  0.50400001928E-02 0. -1.
</event>
<event>
 5   0  0.1825253E-04  0.1823297E+04  0.7818609E-02  0.8694007E-01
       -1   -1    0    0    0  501  0.00000000000E+00  0.00000000000E+00  0.39493714531E+03  0.39493714534E+03  0.50400001928E-02 0. -1.
        1   -1    0    0  501    0  0.00000000000E+00  0.00000000000E+00 -0.21043940619E+04  0.21043940619E+04  0.50400001928E-02 0.  1.
    10030    2    1    2    0    0  0.00000000000E+00  0.00000000000E+00 -0.17094569166E+04  0.24993312072E+04  0.18232974343E+04 0.  0.
        4    1    3    3  502    0  0.17333271027E+03  0.86472052399E+03 -0.53821302023E+03  0.10331798881E+04  0.12699999809E+01 0. -1.
       -4    1    3    3    0  502 -0.17333271027E+03 -0.86472052399E+03 -0.11712438964E+04  0.14661513192E+04  0.12699999809E+01 0.  1.
</event>
<event>
 5   0  0.3628581E-04  0.1769122E+04  0.7818609E-02  0.8722894E-01
       -2   -1    0    0    0  501  0.00000000000E+00  0.00000000000E+00  0.51786795080E+03  0.51786795081E+03  0.25500000920E-02 0. -1.
        2   -1    0    0  501    0  0.00000000000E+00  0.00000000000E+00 -0.15109036179E+04  0.15109036179E+04  0.25500000920E-02 0.  1.
    10030    2    1    2    0    0  0.00000000000E+00  0.00000000000E+00 -0.99303566708E+03  0.20287715687E+04  0.17691224496E+04 0.  0.
        2    1    3    3  502    0  0.33719768371E+03  0.44389560622E+03 -0.12841248262E+04  0.13999007666E+04  0.25500000920E-02 0.  1.
       -2    1    3    3    0  502 -0.33719768371E+03 -0.44389560622E+03  0.29108915913E+03  0.62887080206E+03  0.25500000920E-02 0. -1.
</event>
<event>
 5   0  0.1825253E-04  0.1781879E+04  0.7818609E-02  0.8715996E-01
        1   -1    0    0  501    0  0.00000000000E+00  0.00000000000E+00  0.12622503403E+04  0.12622503403E+04  0.50400001928E-02 0.  1.
       -1   -1    0    0    0  501  0.00000000000E+00  0.00000000000E+00 -0.62885527956E+03  0.62885527958E+03  0.50400001928E-02 0. -1.
    10030    2    1    2    0    0  0.00000000000E+00  0.00000000000E+00  0.63339506073E+03  0.18911056199E+04  0.17818785488E+04 0.  0.
        4    1    3    3  502    0  0.10591564936E+03  0.88460407474E+03  0.32238156963E+03  0.94745658642E+03  0.12699999809E+01 0. -1.
       -4    1    3    3    0  502 -0.10591564936E+03 -0.88460407474E+03  0.31101349110E+03  0.94364903347E+03  0.12699999809E+01 0.  1.
</event>
<event>
 5   0  0.1837313E-04  0.1804283E+04  0.7818609E-02  0.8704025E-01
       -1   -1    0    0    0  501  0.00000000000E+00  0.00000000000E+00  0.75647225899E+03  0.75647225901E+03  0.50400001928E-02 0.  1.
        1   -1    0    0  501    0  0.00000000000E+00  0.00000000000E+00 -0.10758615518E+04  0.10758615518E+04  0.50400001928E-02 0. -1.
    10030    2    1    2    0    0  0.00000000000E+00  0.00000000000E+00 -0.31938929285E+03  0.18323338109E+04  0.18042831469E+04 0.  0.
        1    1    3    3  502    0  0.45989491019E+03 -0.69232640146E+03  0.19652961488E+03  0.85407439028E+03  0.50400001928E-02 0.  1.
       -1    1    3    3    0  502 -0.45989491019E+03  0.69232640146E+03 -0.51591890772E+03  0.97825942058E+03  0.50400001928E-02 0. -1.
</event>
<event>
 5   0  0.3575091E-04  0.1900756E+04  0.7818609E-02  0.8654480E-01
        2   -1    0    0  501    0  0.00000000000E+00  0.00000000000E+00  0.12127422593E+04  0.12127422593E+04  0.25500000920E-02 0. -1.
       -2   -1    0    0    0  501  0.00000000000E+00  0.00000000000E+00 -0.74477367066E+03  0.74477367066E+03  0.25500000920E-02 0.  1.
    10030    2    1    2    0    0  0.00000000000E+00  0.00000000000E+00  0.46796858867E+03  0.19575159300E+04  0.19007561696E+04 0.  0.
        5    1    3    3  502    0  0.27738956525E+03  0.17753793983E+03 -0.68411397904E+03  0.75927512623E+03  0.46999998093E+01 0.  1.
       -5    1    3    3    0  502 -0.27738956525E+03 -0.17753793983E+03  0.11520825677E+04  0.11982408038E+04  0.46999998093E+01 0. -1.
</event>
<event>
 5   0  0.1818778E-04  0.1871984E+04  0.7818609E-02  0.8668929E-01
       -1   -1    0    0    0  501  0.00000000000E+00  0.00000000000E+00  0.80822949960E+03  0.80822949962E+03  0.50400001928E-02 0.  1.
        1   -1    0    0  501    0  0.00000000000E+00  0.00000000000E+00 -0.10839512181E+04  0.10839512182E+04  0.50400001928E-02 0. -1.
    10030    2    1    2    0    0  0.00000000000E+00  0.00000000000E+00 -0.27572171854E+03  0.18921807178E+04  0.18719843489E+04 0.  0.
        3    1    3    3  502    0 -0.14622268946E+03 -0.80989094606E+02  0.79302071982E+03  0.81044566791E+03  0.10100000352E+00 0.  1.
       -3    1    3    3    0  502  0.14622268946E+03  0.80989094606E+02 -0.10687424384E+04  0.10817350499E+04  0.10100000352E+00 0. -1.
</event>
<event>
 5   0  0.1818778E-04  0.1868790E+04  0.7818609E-02  0.8670550E-01
        1   -1    0    0  501    0  0.00000000000E+00  0.00000000000E+00  0.95326037074E+03  0.95326037076E+03  0.50400001928E-02 0. -1.
       -1   -1    0    0    0  501  0.00000000000E+00  0.00000000000E+00 -0.91590267860E+03  0.91590267861E+03  0.50400001928E-02 0.  1.
    10030    2    1    2    0    0  0.00000000000E+00  0.00000000000E+00  0.37357692144E+02  0.18691630494E+04  0.18687896907E+04 0.  0.
        3    1    3    3  502    0  0.84555352472E+03 -0.18118858040E+03 -0.33537443365E+03  0.92750530229E+03  0.10100000352E+00 0. -1.
       -3    1    3    3    0  502 -0.84555352472E+03  0.18118858040E+03  0.37273212579E+03  0.94165774708E+03  0.10100000352E+00 0.  1.
</event>
<event>
 5   0  0.3628581E-04  0.1801502E+04  0.7818609E-02  0.8705501E-01
        2   -1    0    0  501    0  0.00000000000E+00  0.00000000000E+00  0.83422782701E+03  0.83422782702E+03  0.25500000920E-02 0. -1.
       -2   -1    0    0    0  501  0.00000000000E+00  0.00000000000E+00 -0.97257850438E+03  0.97257850438E+03  0.25500000920E-02 0.  1.
    10030    2    1    2    0    0  0.00000000000E+00  0.00000000000E+00 -0.13835067737E+03  0.18068063314E+04  0.18015016540E+04 0.  0.
        2    1    3    3  502    0  0.62732317431E+03  0.39371994566E+03  0.44497664125E+03  0.86403354791E+03  0.25500000920E-02 0. -1.
       -2    1    3    3    0  502 -0.62732317431E+03 -0.39371994566E+03 -0.58332731862E+03  0.94277278349E+03  0.25500000920E-02 0.  1.
</event>
<event>
 5   0  0.3582186E-04  0.1798794E+04  0.7818609E-02  0.8706941E-01
       -2   -1    0    0    0  501  0.00000000000E+00  0.00000000000E+00  0.32038910579E+03  0.32038910580E+03  0.25500000920E-02 0. -1.
        2   -1    0    0  501    0  0.00000000000E+00  0.00000000000E+00 -0.25247878829E+04  0.25247878829E+04  0.25500000920E-02 0.  1.
    10030    2    1    2    0    0  0.00000000000E+00  0.00000000000E+00 -0.22043987771E+04  0.28451769887E+04  0.17987935203E+04 0.  0.
        4    1    3    3  502    0 -0.22111833744E+03  0.41285435519E+03  0.11229632409E+03  0.48161614908E+03  0.12699999809E+01 0. -1.
       -4    1    3    3    0  502  0.22111833744E+03 -0.41285435519E+03 -0.23166951012E+04  0.23635608397E+04  0.12699999809E+01 0.  1.
</event>
<event>
 5   0  0.1818778E-04  0.1777997E+04  0.7818609E-02  0.8718088E-01
        1   -1    0    0  501    0  0.00000000000E+00  0.00000000000E+00  0.13491216234E+04  0.13491216234E+04  0.50400001928E-02 0. -1.
       -1   -1    0    0    0  501  0.00000000000E+00  0.00000000000E+00 -0.58580246442E+03  0.58580246444E+03  0.50400001928E-02 0.  1.
    10030    2    1    2    0    0  0.00000000000E+00  0.00000000000E+00  0.76331915893E+03  0.19349240878E+04  0.17779974936E+04 0.  0.
        3    1    3    3  502    0 -0.23400506866E+03 -0.17876477720E+03 -0.53118490505E+03  0.60734885468E+03  0.10100000352E+00 0.  1.
       -3    1    3    3    0  502  0.23400506866E+03  0.17876477720E+03  0.12945040640E+04  0.13275752331E+04  0.10100000352E+00 0. -1.
</event>
<event>
 5   0  0.3628581E-04  0.1690645E+04  0.7818609E-02  0.8766718E-01
        2   -1    0    0  501    0  0.00000000000E+00  0.00000000000E+00  0.13335693048E+04  0.13335693048E+04  0.25500000920E-02 0. -1.
       -2   -1    0    0    0  501  0.00000000000E+00  0.00000000000E+00 -0.53583246174E+03  0.53583246174E+03  0.25500000920E-02 0.  1.
    10030    2    1    2    0    0  0.00000000000E+00  0.00000000000E+00  0.79773684305E+03  0.18694017665E+04  0.16906445203E+04 0.  0.
        2    1    3    3  502    0 -0.58145286361E+03 -0.54251416898E+03  0.81924573360E+02  0.79945024352E+03  0.25500000920E-02 0.  1.
       -2    1    3    3    0  502  0.58145286361E+03  0.54251416898E+03  0.71581226969E+03  0.10699515230E+04  0.25500000920E-02 0. -1.
</event>
<event>
 5   0  0.3582186E-04  0.1801937E+04  0.7818609E-02  0.8705270E-01
       -2   -1    0    0    0  501  0.00000000000E+00  0.00000000000E+00  0.57198292565E+03  0.57198292566E+03  0.25500000920E-02 0. -1.
        2   -1    0    0  501    0  0.00000000000E+00  0.00000000000E+00 -0.14191751062E+04  0.14191751062E+04  0.25500000920E-02 0.  1.
    10030    2    1    2    0    0  0.00000000000E+00  0.00000000000E+00 -0.84719218055E+03  0.19911580319E+04  0.18019366573E+04 0.  0.
        4    1    3    3  502    0  0.31562101032E+02 -0.82798179130E+03 -0.32615656000E+02  0.82922578763E+03  0.12699999809E+01 0. -1.
       -4    1    3    3    0  502 -0.31562101032E+02  0.82798179130E+03 -0.81457652455E+03  0.11619322442E+04  0.12699999809E+01 0.  1.
</event>
<event>
 5   0  0.3531266E-04  0.1754836E+04  0.7818609E-02  0.8730693E-01
       -2   -1    0    0    0  501  0.00000000000E+00  0.00000000000E+00  0.11656927264E+04  0.11656927265E+04  0.25500000920E-02 0. -1.
        2   -1    0    0  501    0  0.00000000000E+00  0.00000000000E+00 -0.66043314579E+03  0.66043314579E+03  0.25500000920E-02 0.  1.
    10030    2    1    2    0    0  0.00000000000E+00  0.00000000000E+00  0.50525958066E+03  0.18261258722E+04  0.17548357352E+04 0.  0.
        3    1    3    3  502    0  0.65301659878E+03 -0.15431096477E+03 -0.33568654738E+03  0.75028529269E+03  0.10100000352E+00 0.  1.
       -3    1    3    3    0  502 -0.65301659878E+03  0.15431096477E+03  0.84094612805E+03  0.10758405796E+04  0.10100000352E+00 0. -1.
</event>
<event>
 5   0  0.1818778E-04  0.1762379E+04  0.7818609E-02  0.8726566E-01
       -1   -1    0    0    0  501  0.00000000000E+00  0.00000000000E+00  0.17678925232E+04  0.17678925232E+04  0.50400001928E-02 0.  1.
        1   -1    0    0  501    0  0.00000000000E+00  0.00000000000E+00 -0.43922043632E+03  0.43922043635E+03  0.50400001928E-02 0. -1.
    10030    2    1    2    0    0  0.00000000000E+00  0.00000000000E+00  0.13286720869E+04  0.22071129595E+04  0.17623785353E+04 0.  0.
        3    1    3    3  502    0 -0.85851269507E+02  0.68383453145E+03 -0.23310076889E+02  0.68959660438E+03  0.10100000352E+00 0. -1.
       -3    1    3    3    0  502  0.85851269507E+02 -0.68383453145E+03  0.13519821638E+04  0.15175163552E+04  0.10100000352E+00 0.  1.
</event>
<event>
 5   0  0.3628581E-04  0.1880138E+04  0.7818609E-02  0.8664807E-01
       -2   -1    0    0    0  501  0.00000000000E+00  0.00000000000E+00  0.81714264457E+03  0.81714264457E+03  0.25500000920E-02 0.  1.
        2   -1    0    0  501    0  0.00000000000E+00  0.00000000000E+00 -0.10814873254E+04  0.10814873254E+04  0.25500000920E-02 0. -1.
    10030    2    1    2    0    0  0.00000000000E+00  0.00000000000E+00 -0.26434468082E+03  0.18986299700E+04  0.18801376685E+04 0.  0.
        2    1    3    3  502    0  0.21918124803E+02 -0.87745119700E+03  0.20778159355E+03  0.90198347985E+03  0.25500000920E-02 0.  1.
       -2    1    3    3    0  502 -0.21918124803E+02  0.87745119700E+03 -0.47212627437E+03  0.99664649012E+03  0.25500000920E-02 0. -1.
</event>
<event>
 5   0  0.1883959E-04  0.1794307E+04  0.7818609E-02  0.8709333E-01
       -1   -1    0    0    0  501  0.00000000000E+00  0.00000000000E+00  0.11951891146E+04  0.11951891146E+04  0.50400001928E-02 0. -1.
        1   -1    0    0  501    0  0.00000000000E+00  0.00000000000E+00 -0.67343668359E+03  0.67343668361E+03  0.50400001928E-02 0.  1.
    10030    2    1    2    0    0  0.00000000000E+00  0.00000000000E+00  0.52175243101E+03  0.18686257982E+04  0.17943067671E+04 0.  0.
        5    1    3    3  502    0  0.85772851089E+03  0.24891541525E+03  0.17247804448E+03  0.90963061083E+03  0.46999998093E+01 0.  1.
       -5    1    3    3    0  502 -0.85772851089E+03 -0.24891541525E+03  0.34927438653E+03  0.95899518738E+03  0.46999998093E+01 0. -1.
</event>
<event>
 5   0  0.1825253E-04  0.1846942E+04  0.7818609E-02  0.8681727E-01
       -1   -1    0    0    0  501  0.00000000000E+00  0.00000000000E+00  0.99806007378E+03  0.99806007379E+03  0.50400001928E-02 0. -1.
        1   -1    0    0  501    0  0.00000000000E+00  0.00000000000E+00 -0.85445600846E+03  0.85445600848E+03  0.50400001928E-02 0.  1.
    10030    2    1    2    0    0  0.00000000000E+00  0.00000000000E+00  0.14360406532E+03  0.18525160823E+04  0.18469417174E+04 0.  0.
        4    1    3    3  502    0 -0.33578925340E+03 -0.54335978934E+03  0.74075012667E+03  0.97811382080E+03  0.12699999809E+01 0. -1.
       -4    1    3    3    0  502  0.33578925340E+03  0.54335978934E+03 -0.59714606136E+03  0.87440226147E+03  0.12699999809E+01 0.  1.
</event>
<event>
 5   0  0.3628581E-04  0.1857579E+04  0.7818609E-02  0.8676265E-01
        2   -1    0    0  501    0  0.00000000000E+00  0.00000000000E+00  0.89437174341E+03  0.89437174341E+03  0.25500000920E-02 0. -1.
       -2   -1    0    0    0  501  0.00000000000E+00  0.00000000000E+00 -0.96453178589E+03  0.96453178589E+03  0.25500000920E-02 0.  1.
    10030    2    1    2    0    0  0.00000000000E+00  0.00000000000E+00 -0.70160042477E+02  0.18589035293E+04  0.18575790427E+04 0.  0.
        2    1    3    3  502    0  0.58510554618E+03  0.44608260598E+03  0.53216785112E+03  0.90804229709E+03  0.25500000920E-02 0. -1.
       -2    1    3    3    0  502 -0.58510554618E+03 -0.44608260598E+03 -0.60232789359E+03  0.95086123222E+03  0.25500000920E-02 0.  1.
</event>
<event>
 5   0  0.1883959E-04  0.1809806E+04  0.7818609E-02  0.8701102E-01
        1   -1    0    0  501    0  0.00000000000E+00  0.00000000000E+00  0.13682641526E+04  0.13682641526E+04  0.50400001928E-02 0.  1.
       -1   -1    0    0    0  501  0.00000000000E+00  0.00000000000E+00 -0.59845882130E+03  0.59845882132E+03  0.50400001928E-02 0. -1.
    10030    2    1    2    0    0  0.00000000000E+00  0.00000000000E+00  0.76980533132E+03  0.19667229740E+04  0.18098063455E+04 0.  0.
        5    1    3    3  502    0 -0.51625438167E+03  0.29476118247E+03 -0.35646885885E+03  0.69317737889E+03  0.46999998093E+01 0. -1.
       -5    1    3    3    0  502  0.51625438167E+03 -0.29476118247E+03  0.11262741902E+04  0.12735455951E+04  0.46999998093E+01 0.  1.
</event>
<event>
 5   0  0.1818778E-04  0.1800048E+04  0.7818609E-02  0.8706274E-01
       -1   -1    0    0    0  501  0.00000000000E+00  0.00000000000E+00  0.95403115946E+03  0.95403115947E+03  0.50400001928E-02 0. -1.
        1   -1    0    0  501    0  0.00000000000E+00  0.00000000000E+00 -0.84907431706E+03  0.84907431707E+03  0.50400001928E-02 0.  1.
    10030    2    1    2    0    0  0.00000000000E+00  0.00000000000E+00  0.10495684240E+03  0.18031054765E+04  0.18000481718E+04 0.  0.
        3    1    3    3  502    0 -0.28855911499E+03 -0.63799044957E+03 -0.51394212729E+03  0.86858200361E+03  0.10100000352E+00 0.  1.
       -3    1    3    3    0  502  0.28855911499E+03  0.63799044957E+03  0.61889896969E+03  0.93452347294E+03  0.10100000352E+00 0. -1.
</event>
<event>
 5   0  0.1818778E-04  0.1806069E+04  0.7818609E-02  0.8703079E-01
       -1   -1    0    0    0  501  0.00000000000E+00  0.00000000000E+00  0.12786063408E+04  0.12786063408E+04  0.50400001928E-02 0. -1.
        1   -1    0    0  501    0  0.00000000000E+00  0.00000000000E+00 -0.63778154669E+03  0.63778154671E+03  0.50400001928E-02 0.  1.
    10030    2    1    2    0    0  0.00000000000E+00  0.00000000000E+00  0.64082479407E+03  0.19163878875E+04  0.18060692452E+04 0.  0.
        3    1    3    3  502    0 -0.64353571367E+03  0.36305617359E+03 -0.23045536152E+03  0.77398816774E+03  0.10100000352E+00 0.  1.
       -3    1    3    3    0  502  0.64353571367E+03 -0.36305617359E+03  0.87128015558E+03  0.11423997197E+04  0.10100000352E+00 0. -1.
</event>
<event>
 5   0  0.1835421E-04  0.1801731E+04  0.7818609E-02  0.8705380E-01
       -1   -1    0    0    0  501  0.00000000000E+00  0.00000000000E+00  0.86201307311E+03  0.86201307312E+03  0.50400001928E-02 0.  1.
        1   -1    0    0  501    0  0.00000000000E+00  0.00000000000E+00 -0.94146869080E+03  0.94146869081E+03  0.50400001928E-02 0. -1.
    10030    2    1    2    0    0  0.00000000000E+00  0.00000000000E+00 -0.79455617693E+02  0.18034817639E+04  0.18017306340E+04 0.  0.
        2    1    3    3  502    0 -0.75830390450E+03 -0.34735052961E+03  0.30101620089E+03  0.88672879462E+03  0.25500000920E-02 0.  1.
       -2    1    3    3    0  502  0.75830390450E+03  0.34735052961E+03 -0.38047181859E+03  0.91675296932E+03  0.25500000920E-02 0. -1.
</event>
<event>
 5   0  0.3575091E-04  0.1794778E+04  0.7818609E-02  0.8709081E-01
       -2   -1    0    0    0  501  0.00000000000E+00  0.00000000000E+00  0.10102243133E+04  0.10102243133E+04  0.25500000920E-02 0.  1.
        2   -1    0    0  501    0  0.00000000000E+00  0.00000000000E+00 -0.79715652774E+03  0.79715652775E+03  0.25500000920E-02 0. -1.
    10030    2    1    2    0    0  0.00000000000E+00  0.00000000000E+00  0.21306778554E+03  0.18073808410E+04  0.17947778758E+04 0.  0.
        5    1    3    3  502    0 -0.35728854769E+03  0.70725298982E+03 -0.31763989331E+03  0.85368559185E+03  0.46999998093E+01 0. -1.
       -5    1    3    3    0  502  0.35728854769E+03 -0.70725298982E+03  0.53070767885E+03  0.95369524918E+03  0.46999998093E+01 0.  1.
</event>
<event>
 5   0  0.1825253E-04  0.1654230E+04  0.7818609E-02  0.8787908E-01
       -1   -1    0    0    0  501  0.00000000000E+00  0.00000000000E+00  0.45366865877E+03  0.45366865880E+03  0.50400001928E-02 0.  1.
        1   -1    0    0  501    0  0.00000000000E+00  0.00000000000E+00 -0.15079708053E+04  0.15079708053E+04  0.50400001928E-02 0. -1.
    10030    2    1    2    0    0  0.00000000000E+00  0.00000000000E+00 -0.10543021466E+04  0.19616394641E+04  0.16542298423E+04 0.  0.
        4    1    3    3  502    0 -0.26094869362E+03 -0.32223048382E+03  0.32151963859E+03  0.52469343078E+03  0.12699999809E+01 0.  1.
       -4    1    3    3    0  502  0.26094869362E+03  0.32223048382E+03 -0.13758217852E+04  0.14369460334E+04  0.12699999809E+01 0. -1.
</event>
<event>
 5   0  0.1818778E-04  0.1794477E+04  0.7818609E-02  0.8709242E-01
        1   -1    0    0  501    0  0.00000000000E+00  0.00000000000E+00  0.86545468444E+03  0.86545468445E+03  0.50400001928E-02 0. -1.
       -1   -1    0    0    0  501  0.00000000000E+00  0.00000000000E+00 -0.93018972081E+03  0.93018972083E+03  0.50400001928E-02 0.  1.
    10030    2    1    2    0    0  0.00000000000E+00  0.00000000000E+00 -0.64735036375E+02  0.17956444053E+04  0.17944771398E+04 0.  0.
        3    1    3    3  502    0  0.34686332749E+03 -0.34656016815E+03 -0.78426758120E+03  0.92492906065E+03  0.10100000352E+00 0.  1.
       -3    1    3    3    0  502 -0.34686332749E+03  0.34656016815E+03  0.71953254483E+03  0.87071534463E+03  0.10100000352E+00 0. -1.
</event>
<event>
 5   0  0.3628581E-04  0.1802562E+04  0.7818609E-02  0.8704938E-01
        2   -1    0    0  501    0  0.00000000000E+00  0.00000000000E+00  0.21602740907E+04  0.21602740907E+04  0.25500000920E-02 0.  1.
       -2   -1    0    0    0  501  0.00000000000E+00  0.00000000000E+00 -0.37602033827E+03  0.37602033828E+03  0.25500000920E-02 0. -1.
    10030    2    1    2    0    0  0.00000000000E+00  0.00000000000E+00  0.17842537524E+04  0.25362944290E+04  0.18025615045E+04 0.  0.
        2    1    3    3  502    0  0.76020394136E+03  0.40260074754E+03  0.12704889135E+04  0.15343205251E+04  0.25500000920E-02 0.  1.
       -2    1    3    3    0  502 -0.76020394136E+03 -0.40260074754E+03  0.51376483894E+03  0.10019739039E+04  0.25500000920E-02 0. -1.
</event>
<event>
 5   0  0.1330125E-04  0.1815843E+04  0.7818609E-02  0.8697919E-01
       -4   -1    0    0    0  501  0.00000000000E+00  0.00000000000E+00  0.16667405457E+04  0.16667410295E+04  0.12699999809E+01 0.  1.
        4   -1    0    0  501    0  0.00000000000E+00  0.00000000000E+00 -0.49456953319E+03  0.49457116380E+03  0.12699999809E+01 0. -1.
    10030    2    1    2    0    0  0.00000000000E+00  0.00000000000E+00  0.11721710125E+04  0.21613121933E+04  0.18158429212E+04 0.  0.
        3    1    3    3  502    0  0.64633956495E+03 -0.61208428185E+03  0.37343502882E+03  0.96532674896E+03  0.10100000352E+00 0. -1.
       -3    1    3    3    0  502 -0.64633956495E+03  0.61208428185E+03  0.79873598365E+03  0.11959854443E+04  0.10100000352E+00 0.  1.
</event>
<event>
 5   0  0.3575091E-04  0.1822667E+04  0.7818609E-02  0.8694338E-01
        2   -1    0    0  501    0  0.00000000000E+00  0.00000000000E+00  0.14204615754E+04  0.14204615754E+04  0.25500000920E-02 0. -1.
       -2   -1    0    0    0  501  0.00000000000E+00  0.00000000000E+00 -0.58468902968E+03  0.58468902968E+03  0.25500000920E-02 0.  1.
    10030    2    1    2    0    0  0.00000000000E+00  0.00000000000E+00  0.83577254576E+03  0.20051506051E+04  0.18226665084E+04 0.  0.
        5    1    3    3  502    0 -0.10888910546E+02 -0.74597027998E+03  0.99365552892E+03  0.12425633292E+04  0.46999998093E+01 0. -1.
       -5    1    3    3    0  502  0.10888910546E+02  0.74597027998E+03 -0.15788298316E+03  0.76258727589E+03  0.46999998093E+01 0.  1.
</event>
<event>
 5   0  0.1837313E-04  0.1740849E+04  0.7818609E-02  0.8738404E-01
        1   -1    0    0  501    0  0.00000000000E+00  0.00000000000E+00  0.11117526650E+04  0.11117526650E+04  0.50400001928E-02 0. -1.
       -1   -1    0    0    0  501  0.00000000000E+00  0.00000000000E+00 -0.68148149647E+03  0.68148149649E+03  0.50400001928E-02 0.  1.
    10030    2    1    2    0    0  0.00000000000E+00  0.00000000000E+00  0.43027116850E+03  0.17932341615E+04  0.17408490685E+04 0.  0.
        1    1    3    3  502    0 -0.53398812596E+03 -0.54229110873E+03  0.65023917491E+03  0.10010164583E+04  0.50400001928E-02 0. -1.
       -1    1    3    3    0  502  0.53398812596E+03  0.54229110873E+03 -0.21996800641E+03  0.79221770313E+03  0.50400001928E-02 0.  1.
</event>
<event>
 5   0  0.3531266E-04  0.1800521E+04  0.7818609E-02  0.8706022E-01
       -2   -1    0    0    0  501  0.00000000000E+00  0.00000000000E+00  0.55678229437E+03  0.55678229438E+03  0.25500000920E-02 0. -1.
        2   -1    0    0  501    0  0.00000000000E+00  0.00000000000E+00 -0.14556298393E+04  0.14556298393E+04  0.25500000920E-02 0.  1.
    10030    2    1    2    0    0  0.00000000000E+00  0.00000000000E+00 -0.89884754492E+03  0.20124121337E+04  0.18005209487E+04 0.  0.
        3    1    3    3  502    0  0.40375493216E+03 -0.20775308109E+01 -0.13487571440E+04  0.14078949553E+04  0.10100000352E+00 0.  1.
       -3    1    3    3    0  502 -0.40375493216E+03  0.20775308109E+01  0.44990959911E+03  0.60451717838E+03  0.10100000352E+00 0. -1.
</event>
<event>
 5   0  0.3575091E-04  0.1785241E+04  0.7818609E-02  0.8714188E-01
       -2   -1    0    0    0  501  0.00000000000E+00  0.00000000000E+00  0.32375589399E+03  0.32375589400E+03  0.25500000920E-02 0. -1.
        2   -1    0    0  501    0  0.00000000000E+00  0.00000000000E+00 -0.24610250721E+04  0.24610250721E+04  0.25500000920E-02 0.  1.
    10030    2    1    2    0    0  0.00000000000E+00  0.00000000000E+00 -0.21372691781E+04  0.27847809661E+04  0.17852410172E+04 0.  0.
        5    1    3    3  502    0 -0.64576726651E+03  0.58905981254E+03 -0.13508949021E+04  0.16090201838E+04  0.46999998093E+01 0.  1.
       -5    1    3    3    0  502  0.64576726651E+03 -0.58905981254E+03 -0.78637427593E+03  0.11757607823E+04  0.46999998093E+01 0. -1.
</event>
<event>
 5   0  0.1837313E-04  0.1817208E+04  0.7818609E-02  0.8697202E-01
       -1   -1    0    0    0  501  0.00000000000E+00  0.00000000000E+00  0.10373747230E+04  0.10373747230E+04  0.50400001928E-02 0.  1.
        1   -1    0    0  501    0  0.00000000000E+00  0.00000000000E+00 -0.79581781972E+03  0.79581781973E+03  0.50400001928E-02 0. -1.
    10030    2    1    2    0    0  0.00000000000E+00  0.00000000000E+00  0.24155690328E+03  0.18331925427E+04  0.18172080677E+04 0.  0.
        1    1    3    3  502    0  0.25190029670E+02 -0.27224996295E+02 -0.79505378067E+03  0.79591849596E+03  0.50400001928E-02 0. -1.
       -1    1    3    3    0  502 -0.25190029670E+02  0.27224996295E+02  0.10366106840E+04  0.10372740468E+04  0.50400001928E-02 0.  1.
</event>
<event>
 5   0  0.3628581E-04  0.1818808E+04  0.7818609E-02  0.8696361E-01
        2   -1    0    0  501    0  0.00000000000E+00  0.00000000000E+00  0.12098430708E+04  0.12098430708E+04  0.25500000920E-02 0. -1.
       -2   -1    0    0    0  501  0.00000000000E+00  0.00000000000E+00 -0.68357241297E+03  0.68357241297E+03  0.25500000920E-02 0.  1.
    10030    2    1    2    0    0  0.00000000000E+00  0.00000000000E+00  0.52627065780E+03  0.18934154837E+04  0.18188076833E+04 0.  0.
        2    1    3    3  502    0 -0.58381546299E+02  0.12620996643E+02 -0.68152818577E+03  0.68414060142E+03  0.25500000920E-02 0.  1.
       -2    1    3    3    0  502  0.58381546299E+02 -0.12620996643E+02  0.12077988436E+04  0.12092748823E+04  0.25500000920E-02 0. -1.
</event>
<event>
 5   0  0.3575091E-04  0.1806161E+04  0.7818609E-02  0.8703030E-01
        2   -1    0    0  501    0  0.00000000000E+00  0.00000000000E+00  0.10666454840E+04  0.10666454841E+04  0.25500000920E-02 0. -1.
       -2   -1    0    0    0  501  0.00000000000E+00  0.00000000000E+00 -0.76459769643E+03  0.76459769643E+03  0.25500000920E-02 0.  1.
    10030    2    1    2    0    0  0.00000000000E+00  0.00000000000E+00  0.30204778762E+03  0.18312431805E+04  0.18061613217E+04 0.  0.
        5    1    3    3  502    0  0.76029296287E+03  0.14762555955E+03 -0.31985411569E+03  0.83795431889E+03  0.46999998093E+01 0.  1.
       -5    1    3    3    0  502 -0.76029296287E+03 -0.14762555955E+03  0.62190190331E+03  0.99328886159E+03  0.46999998093E+01 0. -1.
</event>
<event>
 5   0  0.1835421E-04  0.1803818E+04  0.7818609E-02  0.8704272E-01
       -1   -1    0    0    0  501  0.00000000000E+00  0.00000000000E+00  0.80034892698E+03  0.80034892699E+03  0.50400001928E-02 0. -1.
        1   -1    0    0  501    0  0.00000000000E+00  0.00000000000E+00 -0.10163564770E+04  0.10163564770E+04  0.50400001928E-02 0.  1.
    10030    2    1    2    0    0  0.00000000000E+00  0.00000000000E+00 -0.21600754999E+03  0.18167054040E+04  0.18038179684E+04 0.  0.
        2    1    3    3  502    0  0.30217125695E+03 -0.79461442300E+03 -0.41135374532E+03  0.94442122677E+03  0.25500000920E-02 0.  1.
       -2    1    3    3    0  502 -0.30217125695E+03  0.79461442300E+03  0.19534619533E+03  0.87228417721E+03  0.25500000920E-02 0. -1.
</event>
<event>
 5   0  0.3575091E-04  0.1770404E+04  0.7818609E-02  0.8722198E-01
       -2   -1    0    0    0  501  0.00000000000E+00  0.00000000000E+00  0.56877294501E+03  0.56877294501E+03  0.25500000920E-02 0. -1.
        2   -1    0    0  501    0  0.00000000000E+00  0.00000000000E+00 -0.13776721664E+04  0.13776721664E+04  0.25500000920E-02 0.  1.
    10030    2    1    2    0    0  0.00000000000E+00  0.00000000000E+00 -0.80889922135E+03  0.19464451114E+04  0.17704040842E+04 0.  0.
        5    1    3    3  502    0  0.79179164002E+03  0.21231625484E+03 -0.37250706189E+02  0.82062287220E+03  0.46999998093E+01 0. -1.
       -5    1    3    3    0  502 -0.79179164002E+03 -0.21231625484E+03 -0.77164851516E+03  0.11258222392E+04  0.46999998093E+01 0.  1.
</event>
<event>
 5   0  0.1825253E-04  0.1720344E+04  0.7818609E-02  0.8749846E-01
       -1   -1    0    0    0  501  0.00000000000E+00  0.00000000000E+00  0.47598579356E+03  0.47598579359E+03  0.50400001928E-02 0.  1.
        1   -1    0    0  501    0  0.00000000000E+00  0.00000000000E+00 -0.15544498328E+04  0.15544498329E+04  0.50400001928E-02 0. -1.
    10030    2    1    2    0    0  0.00000000000E+00  0.00000000000E+00 -0.10784640393E+04  0.20304356264E+04  0.17203441949E+04 0.  0.
        4    1    3    3  502    0 -0.19678079999E+03  0.54200234836E+02  0.44698932703E+03  0.49138724045E+03  0.12699999809E+01 0.  1.
       -4    1    3    3    0  502  0.19678079999E+03 -0.54200234836E+02 -0.15254533663E+04  0.15390483860E+04  0.12699999809E+01 0. -1.
</event>
<event>
 5   0  0.1883959E-04  0.1788822E+04  0.7818609E-02  0.8712267E-01
       -1   -1    0    0    0  501  0.00000000000E+00  0.00000000000E+00  0.65033474862E+03  0.65033474864E+03  0.50400001928E-02 0.  1.
        1   -1    0    0  501    0  0.00000000000E+00  0.00000000000E+00 -0.12300909653E+04  0.12300909653E+04  0.50400001928E-02 0. -1.
    10030    2    1    2    0    0  0.00000000000E+00  0.00000000000E+00 -0.57975621669E+03  0.18804257140E+04  0.17888218455E+04 0.  0.
        5    1    3    3  502    0 -0.61271552137E+03 -0.57668128544E+03 -0.60866874607E+03  0.10384995655E+04  0.46999998093E+01 0. -1.
       -5    1    3    3    0  502  0.61271552137E+03  0.57668128544E+03  0.28912529372E+02  0.84192614846E+03  0.46999998093E+01 0.  1.
</event>
<event>
 5   0  0.1883959E-04  0.1774784E+04  0.7818609E-02  0.8719825E-01
        1   -1    0    0  501    0  0.00000000000E+00  0.00000000000E+00  0.19758857275E+04  0.19758857275E+04  0.50400001928E-02 0. -1.
       -1   -1    0    0    0  501  0.00000000000E+00  0.00000000000E+00 -0.39853758678E+03  0.39853758681E+03  0.50400001928E-02 0.  1.
    10030    2    1    2    0    0  0.00000000000E+00  0.00000000000E+00  0.15773481407E+04  0.23744233143E+04  0.17747841893E+04 0.  0.
        5    1    3    3  502    0 -0.52596387393E+03  0.55223504736E+03  0.13956600210E+04  0.15904372130E+04  0.46999998093E+01 0. -1.
       -5    1    3    3    0  502  0.52596387393E+03 -0.55223504736E+03  0.18168811969E+03  0.78398610131E+03  0.46999998093E+01 0.  1.
</event>
<event>
 5   0  0.1883959E-04  0.1834861E+04  0.7818609E-02  0.8687977E-01
       -1   -1    0    0    0  501  0.00000000000E+00  0.00000000000E+00  0.14116557331E+04  0.14116557332E+04  0.50400001928E-02 0. -1.
        1   -1    0    0  501    0  0.00000000000E+00  0.00000000000E+00 -0.59623535972E+03  0.59623535974E+03  0.50400001928E-02 0.  1.
    10030    2    1    2    0    0  0.00000000000E+00  0.00000000000E+00  0.81542037343E+03  0.20078910929E+04  0.18348613723E+04 0.  0.
        5    1    3    3  502    0 -0.24932705204E+03  0.87376405209E+03  0.26916379894E+03  0.94768076812E+03  0.46999998093E+01 0. -1.
       -5    1    3    3    0  502  0.24932705204E+03 -0.87376405209E+03  0.54625657449E+03  0.10602103248E+04  0.46999998093E+01 0.  1.
</event>
<event>
 5   0  0.3531266E-04  0.1785206E+04  0.7818609E-02  0.8714206E-01
       -2   -1    0    0    0  501  0.00000000000E+00  0.00000000000E+00  0.77293946984E+03  0.77293946985E+03  0.25500000920E-02 0. -1.
        2   -1    0    0  501    0  0.00000000000E+00  0.00000000000E+00 -0.10307925699E+04  0.10307925699E+04  0.25500000920E-02 0.  1.
    10030    2    1    2    0    0  0.00000000000E+00  0.00000000000E+00 -0.25785310008E+03  0.18037320398E+04  0.17852061646E+04 0.  0.
        3    1    3    3  502    0 -0.67070758765E+02  0.96032130612E+01  0.77033749629E+03  0.77331143582E+03  0.10100000352E+00 0. -1.
       -3    1    3    3    0  502  0.67070758765E+02 -0.96032130612E+01 -0.10281905964E+04  0.10304206040E+04  0.10100000352E+00 0.  1.
</event>
<event>
 5   0  0.1883959E-04  0.1797895E+04  0.7818609E-02  0.8707420E-01
       -1   -1    0    0    0  501  0.00000000000E+00  0.00000000000E+00  0.91809228360E+03  0.91809228361E+03  0.50400001928E-02 0. -1.
        1   -1    0    0  501    0  0.00000000000E+00  0.00000000000E+00 -0.88020155667E+03  0.88020155669E+03  0.50400001928E-02 0.  1.
    10030    2    1    2    0    0  0.00000000000E+00  0.00000000000E+00  0.37890726929E+02  0.17982938403E+04  0.17978946101E+04 0.  0.
        5    1    3    3  502    0  0.47648569594E+02  0.32077955619E+03  0.85753135327E+03  0.91681624206E+03  0.46999998093E+01 0. -1.
       -5    1    3    3    0  502 -0.47648569594E+02 -0.32077955619E+03 -0.81964062635E+03  0.88147759824E+03  0.46999998093E+01 0.  1.
</event>
<event>
 5   0  0.1883959E-04  0.1805725E+04  0.7818609E-02  0.8703261E-01
        1   -1    0    0  501    0  0.00000000000E+00  0.00000000000E+00  0.11786436071E+04  0.11786436071E+04  0.50400001928E-02 0.  1.
       -1   -1    0    0    0  501  0.00000000000E+00  0.00000000000E+00 -0.69160938396E+03  0.69160938397E+03  0.50400001928E-02 0. -1.
    10030    2    1    2    0    0  0.00000000000E+00  0.00000000000E+00  0.48703422311E+03  0.18702529911E+04  0.18057253158E+04 0.  0.
        5    1    3    3  502    0 -0.40395174612E+03  0.32826877252E+02  0.10791212070E+04  0.11527268915E+04  0.46999998093E+01 0.  1.
       -5    1    3    3    0  502  0.40395174612E+03 -0.32826877252E+02 -0.59208698386E+03  0.71752609954E+03  0.46999998093E+01 0. -1.
</event>
<event>
 5   0  0.3531266E-04  0.1796686E+04  0.7818609E-02  0.8708064E-01
       -2   -1    0    0    0  501  0.00000000000E+00  0.00000000000E+00  0.47809033263E+03  0.47809033263E+03  0.25500000920E-02 0.  1.
        2   -1    0    0  501    0  0.00000000000E+00  0.00000000000E+00 -0.16880070934E+04  0.16880070934E+04  0.25500000920E-02 0. -1.
    10030    2    1    2    0    0  0.00000000000E+00  0.00000000000E+00 -0.12099167608E+04  0.21660974261E+04  0.17966856963E+04 0.  0.
        3    1    3    3  502    0 -0.12563322395E+03 -0.49583630399E+03 -0.14952996023E+04  0.15803664949E+04  0.10100000352E+00 0. -1.
       -3    1    3    3    0  502  0.12563322395E+03  0.49583630399E+03  0.28538284151E+03  0.58573093118E+03  0.10100000352E+00 0.  1.
</event>
<event>
 5   0  0.3568870E-04  0.1788584E+04  0.7818609E-02  0.8712394E-01
        2   -1    0    0  501    0  0.00000000000E+00  0.00000000000E+00  0.15340479467E+04  0.15340479467E+04  0.25500000920E-02 0.  1.
       -2   -1    0    0    0  501  0.00000000000E+00  0.00000000000E+00 -0.52133870575E+03  0.52133870576E+03  0.25500000920E-02 0. -1.
    10030    2    1    2    0    0  0.00000000000E+00  0.00000000000E+00  0.10127092409E+04  0.20553866524E+04  0.17885844359E+04 0.  0.
        1    1    3    3  502    0 -0.52153730997E+03 -0.50521464741E+03 -0.93546594141E+02  0.73211609117E+03  0.50400001928E-02 0.  1.
       -1    1    3    3    0  502  0.52153730997E+03  0.50521464741E+03  0.11062558351E+04  0.13232705613E+04  0.50400001928E-02 0. -1.
</event>
<event>
 5   0  0.3582186E-04  0.1781553E+04  0.7818609E-02  0.8716171E-01
        2   -1    0    0  501    0  0.00000000000E+00  0.00000000000E+00  0.97413085128E+03  0.97413085129E+03  0.25500000920E-02 0. -1.
       -2   -1    0    0    0  501  0.00000000000E+00  0.00000000000E+00 -0.81455433081E+03  0.81455433081E+03  0.25500000920E-02 0.  1.
    10030    2    1    2    0    0  0.00000000000E+00  0.00000000000E+00  0.15957652047E+03  0.17886851821E+04  0.17815526977E+04 0.  0.
        4    1    3    3  502    0 -0.22049072886E+03 -0.13456888368E+02  0.94619364525E+03  0.97163844951E+03  0.12699999809E+01 0. -1.
       -4    1    3    3    0  502  0.22049072886E+03  0.13456888368E+02 -0.78661712477E+03  0.81704673259E+03  0.12699999809E+01 0.  1.
</event>
<event>
 5   0  0.1835421E-04  0.1815194E+04  0.7818609E-02  0.8698261E-01
        1   -1    0    0  501    0  0.00000000000E+00  0.00000000000E+00  0.12051701010E+04  0.12051701010E+04  0.50400001928E-02 0. -1.
       -1   -1    0    0    0  501  0.00000000000E+00  0.00000000000E+00 -0.68349845210E+03  0.68349845212E+03  0.50400001928E-02 0.  1.
    10030    2    1    2    0    0  0.00000000000E+00  0.00000000000E+00  0.52167164893E+03  0.18886685532E+04  0.18151935419E+04 0.  0.
        2    1    3    3  502    0  0.82250567696E+03  0.37614141325E+03  0.33962374830E+03  0.96609639364E+03  0.25500000920E-02 0.  1.
       -2    1    3    3    0  502 -0.82250567696E+03 -0.37614141325E+03  0.18204790063E+03  0.92257215952E+03  0.25500000920E-02 0. -1.
</event>
<event>
 5   0  0.3575091E-04  0.1794411E+04  0.7818609E-02  0.8709277E-01
        2   -1    0    0  501    0  0.00000000000E+00  0.00000000000E+00  0.52334197527E+03  0.52334197528E+03  0.25500000920E-02 0. -1.
       -2   -1    0    0    0  501  0.00000000000E+00  0.00000000000E+00 -0.15381493823E+04  0.15381493823E+04  0.25500000920E-02 0.  1.
    10030    2    1    2    0    0  0.00000000000E+00  0.00000000000E+00 -0.10148074071E+04  0.20614913576E+04  0.17944114757E+04 0.  0.
        5    1    3    3  502    0 -0.14353925180E+03  0.71832810108E+03  0.87732214311E+02  0.73777897031E+03  0.46999998093E+01 0. -1.
       -5    1    3    3    0  502  0.14353925180E+03 -0.71832810108E+03 -0.11025396214E+04  0.13237123873E+04  0.46999998093E+01 0.  1.
</event>
<event>
 5   0  0.1825253E-04  0.1769576E+04  0.7818609E-02  0.8722648E-01
        1   -1    0    0  501    0  0.00000000000E+00  0.00000000000E+00  0.10374964674E+04  0.10374964674E+04  0.50400001928E-02 0.  1.
       -1   -1    0    0    0  501  0.00000000000E+00  0.00000000000E+00 -0.75455668722E+03  0.75455668724E+03  0.50400001928E-02 0. -1.
    10030    2    1    2    0    0  0.00000000000E+00  0.00000000000E+00  0.28293978013E+03  0.17920531546E+04  0.17695761045E+04 0.  0.
        4    1    3    3  502    0 -0.52036078687E+03 -0.44470719211E+03 -0.42628341371E+03  0.80638638191E+03  0.12699999809E+01 0. -1.
       -4    1    3    3    0  502  0.52036078687E+03  0.44470719211E+03  0.70922319383E+03  0.98566677270E+03  0.12699999809E+01 0.  1.
</event>
<event>
 5   0  0.3568870E-04  0.1471804E+04  0.7818609E-02  0.8903422E-01
       -2   -1    0    0    0  501  0.00000000000E+00  0.00000000000E+00  0.15162696030E+04  0.15162696030E+04  0.25500000920E-02 0.  1.
        2   -1    0    0  501    0  0.00000000000E+00  0.00000000000E+00 -0.35716060334E+03  0.35716060335E+03  0.25500000920E-02 0. -1.
    10030    2    1    2    0    0  0.00000000000E+00  0.00000000000E+00  0.11591089997E+04  0.18734302064E+04  0.14718040172E+04 0.  0.
        1    1    3    3  502    0 -0.34727311091E+02 -0.71178634570E+03  0.34586402993E+03  0.79212859770E+03  0.50400001928E-02 0. -1.
       -1    1    3    3    0  502  0.34727311091E+02  0.71178634570E+03  0.81324496975E+03  0.10813016087E+04  0.50400001928E-02 0.  1.
</event>
<event>
 5   0  0.3575091E-04  0.1802735E+04  0.7818609E-02  0.8704846E-01
       -2   -1    0    0    0  501  0.00000000000E+00  0.00000000000E+00  0.63909575063E+03  0.63909575064E+03  0.25500000920E-02 0.  1.
        2   -1    0    0  501    0  0.00000000000E+00  0.00000000000E+00 -0.12712701142E+04  0.12712701142E+04  0.25500000920E-02 0. -1.
    10030    2    1    2    0    0  0.00000000000E+00  0.00000000000E+00 -0.63217436356E+03  0.19103658648E+04  0.18027349532E+04 0.  0.
        5    1    3    3  502    0  0.40091245023E+03  0.17096477371E+03  0.51999292732E+03  0.67850901325E+03  0.46999998093E+01 0.  1.
       -5    1    3    3    0  502 -0.40091245023E+03 -0.17096477371E+03 -0.11521672909E+04  0.12318568516E+04  0.46999998093E+01 0. -1.
</event>
<event>
 5   0  0.3628581E-04  0.1770995E+04  0.7818609E-02  0.8721878E-01
       -2   -1    0    0    0  501  0.00000000000E+00  0.00000000000E+00  0.65492228077E+03  0.65492228077E+03  0.25500000920E-02 0.  1.
        2   -1    0    0  501    0  0.00000000000E+00  0.00000000000E+00 -0.11972496588E+04  0.11972496588E+04  0.25500000920E-02 0. -1.
    10030    2    1    2    0    0  0.00000000000E+00  0.00000000000E+00 -0.54232737799E+03  0.18521719395E+04  0.17709946100E+04 0.  0.
        2    1    3    3  502    0 -0.35571056065E+03 -0.64396314793E+03  0.24426209613E+03  0.77516611798E+03  0.25500000920E-02 0. -1.
       -2    1    3    3    0  502  0.35571056065E+03  0.64396314793E+03 -0.78658947412E+03  0.10770058216E+04  0.25500000920E-02 0.  1.
</event>
<event>
 5   0  0.1837313E-04  0.1812329E+04  0.7818609E-02  0.8699770E-01
       -1   -1    0    0    0  501  0.00000000000E+00  0.00000000000E+00  0.18632679291E+04  0.18632679292E+04  0.50400001928E-02 0. -1.
        1   -1    0    0  501    0  0.00000000000E+00  0.00000000000E+00 -0.44069589529E+03  0.44069589532E+03  0.50400001928E-02 0.  1.
    10030    2    1    2    0    0  0.00000000000E+00  0.00000000000E+00  0.14225720339E+04  0.23039638245E+04  0.18123294714E+04 0.  0.
        1    1    3    3  502    0  0.70212031261E+03  0.12390354547E+03  0.14223005443E+04  0.15909946136E+04  0.50400001928E-02 0. -1.
       -1    1    3    3    0  502 -0.70212031261E+03 -0.12390354547E+03  0.27148951883E+00  0.71296921090E+03  0.50400001928E-02 0.  1.
</event>
<event>
 5   0  0.1825253E-04  0.1744346E+04  0.7818609E-02  0.8736468E-01
        1   -1    0    0  501    0  0.00000000000E+00  0.00000000000E+00  0.98992136233E+03  0.98992136234E+03  0.50400001928E-02 0. -1.
       -1   -1    0    0    0  501  0.00000000000E+00  0.00000000000E+00 -0.76843078193E+03  0.76843078194E+03  0.50400001928E-02 0.  1.
    10030    2    1    2    0    0  0.00000000000E+00  0.00000000000E+00  0.22149058040E+03  0.17583521443E+04  0.17443463492E+04 0.  0.
        4    1    3    3  502    0  0.41911742534E+03 -0.36125175586E+03  0.79034107776E+03  0.96478125988E+03  0.12699999809E+01 0. -1.
       -4    1    3    3    0  502 -0.41911742534E+03  0.36125175586E+03 -0.56885049735E+03  0.79357088440E+03  0.12699999809E+01 0.  1.
</event>
<event>
 5   0  0.3628581E-04  0.1781558E+04  0.7818609E-02  0.8716169E-01
        2   -1    0    0  501    0  0.00000000000E+00  0.00000000000E+00  0.18252693860E+04  0.18252693860E+04  0.25500000920E-02 0.  1.
       -2   -1    0    0    0  501  0.00000000000E+00  0.00000000000E+00 -0.43472329244E+03  0.43472329245E+03  0.25500000920E-02 0. -1.
    10030    2    1    2    0    0  0.00000000000E+00  0.00000000000E+00  0.13905460935E+04  0.22599926784E+04  0.17815578768E+04 0.  0.
        2    1    3    3  502    0 -0.12444281556E+02 -0.88307227311E+03  0.84275030015E+03  0.12207373051E+04  0.25500000920E-02 0. -1.
       -2    1    3    3    0  502  0.12444281556E+02  0.88307227311E+03  0.54779579336E+03  0.10392553733E+04  0.25500000920E-02 0.  1.
</event>
<event>
 5   0  0.3575091E-04  0.1821306E+04  0.7818609E-02  0.8695051E-01
        2   -1    0    0  501    0  0.00000000000E+00  0.00000000000E+00  0.16944345120E+04  0.16944345120E+04  0.25500000920E-02 0. -1.
       -2   -1    0    0    0  501  0.00000000000E+00  0.00000000000E+00 -0.48941913062E+03  0.48941913062E+03  0.25500000920E-02 0.  1.
    10030    2    1    2    0    0  0.00000000000E+00  0.00000000000E+00  0.12050153814E+04  0.21838536426E+04  0.18213057577E+04 0.  0.
        5    1    3    3  502    0 -0.21090167634E+03  0.22528935774E+03  0.16298096012E+04  0.16587755237E+04  0.46999998093E+01 0. -1.
       -5    1    3    3    0  502  0.21090167634E+03 -0.22528935774E+03 -0.42479421982E+03  0.52507811894E+03  0.46999998093E+01 0.  1.
</event>
<event>
 5   0  0.1825253E-04  0.1813783E+04  0.7818609E-02  0.8699004E-01
       -1   -1    0    0    0  501  0.00000000000E+00  0.00000000000E+00  0.10139702094E+04  0.10139702094E+04  0.50400001928E-02 0. -1.
        1   -1    0    0  501    0  0.00000000000E+00  0.00000000000E+00 -0.81112094193E+03  0.81112094195E+03  0.50400001928E-02 0.  1.
    10030    2    1    2    0    0  0.00000000000E+00  0.00000000000E+00  0.20284926743E+03  0.18250911513E+04  0.18137833072E+04 0.  0.
        4    1    3    3  502    0  0.40707606721E+03  0.42919268825E+03 -0.59027173015E+03  0.83566716847E+03  0.12699999809E+01 0.  1.
       -4    1    3    3    0  502 -0.40707606721E+03 -0.42919268825E+03  0.79312099758E+03  0.98942398286E+03  0.12699999809E+01 0. -1.
</event>
<event>
 5   0  0.1835421E-04  0.1777530E+04  0.7818609E-02  0.8718341E-01
       -1   -1    0    0    0  501  0.00000000000E+00  0.00000000000E+00  0.13327643381E+04  0.13327643381E+04  0.50400001928E-02 0. -1.
        1   -1    0    0  501    0  0.00000000000E+00  0.00000000000E+00 -0.59268027370E+03  0.59268027372E+03  0.50400001928E-02 0.  1.
    10030    2    1    2    0    0  0.00000000000E+00  0.00000000000E+00  0.74008406438E+03  0.19254446118E+04  0.17775298959E+04 0.  0.
        2    1    3    3  502    0  0.86638494326E+03 -0.55362506446E+02  0.16390316082E+03  0.88348860953E+03  0.25500000920E-02 0.  1.
       -2    1    3    3    0  502 -0.86638494326E+03  0.55362506446E+02  0.57618090356E+03  0.10419560023E+04  0.25500000920E-02 0. -1.
</event>
<event>
 5   0  0.3582186E-04  0.1811514E+04  0.7818609E-02  0.8700200E-01
        2   -1    0    0  501    0  0.00000000000E+00  0.00000000000E+00  0.12059875017E+04  0.12059875017E+04  0.25500000920E-02 0. -1.
       -2   -1    0    0    0  501  0.00000000000E+00  0.00000000000E+00 -0.68026868571E+03  0.68026868572E+03  0.25500000920E-02 0.  1.
    10030    2    1    2    0    0  0.00000000000E+00  0.00000000000E+00  0.52571881594E+03  0.18862561874E+04  0.18115137678E+04 0.  0.
        4    1    3    3  502    0 -0.52360092335E+03 -0.56878952193E+03 -0.22853844899E+03  0.80617050476E+03  0.12699999809E+01 0.  1.
       -4    1    3    3    0  502  0.52360092335E+03  0.56878952193E+03  0.75425726493E+03  0.10800856826E+04  0.12699999809E+01 0. -1.
</event>
<event>
 5   0  0.1883959E-04  0.1816273E+04  0.7818609E-02  0.8697693E-01
        1   -1    0    0  501    0  0.00000000000E+00  0.00000000000E+00  0.94300959765E+03  0.94300959767E+03  0.50400001928E-02 0.  1.
       -1   -1    0    0    0  501  0.00000000000E+00  0.00000000000E+00 -0.87455345894E+03  0.87455345896E+03  0.50400001928E-02 0. -1.
    10030    2    1    2    0    0  0.00000000000E+00  0.00000000000E+00  0.68456138709E+02  0.18175630566E+04  0.18162734436E+04 0.  0.
        5    1    3    3  502    0 -0.66687712667E+03 -0.46771839978E+02  0.64930055890E+03  0.93194743032E+03  0.46999998093E+01 0.  1.
       -5    1    3    3    0  502  0.66687712667E+03  0.46771839978E+02 -0.58084442019E+03  0.88561562630E+03  0.46999998093E+01 0. -1.
</event>
<event>
 5   0  0.3582186E-04  0.1734637E+04  0.7818609E-02  0.8741853E-01
       -2   -1    0    0    0  501  0.00000000000E+00  0.00000000000E+00  0.85009674655E+03  0.85009674655E+03  0.25500000920E-02 0. -1.
        2   -1    0    0  501    0  0.00000000000E+00  0.00000000000E+00 -0.88488876647E+03  0.88488876648E+03  0.25500000920E-02 0.  1.
    10030    2    1    2    0    0  0.00000000000E+00  0.00000000000E+00 -0.34792019922E+02  0.17349855130E+04  0.17346366322E+04 0.  0.
        4    1    3    3  502    0 -0.27348380261E+03 -0.17831267916E+03  0.78628949277E+03  0.85137628648E+03  0.12699999809E+01 0. -1.
       -4    1    3    3    0  502  0.27348380261E+03  0.17831267916E+03 -0.82108151270E+03  0.88360922654E+03  0.12699999809E+01 0.  1.
</event>
<event>
 5   0  0.3582186E-04  0.1714820E+04  0.7818609E-02  0.8752957E-01
        2   -1    0    0  501    0  0.00000000000E+00  0.00000000000E+00  0.61060471233E+03  0.61060471234E+03  0.25500000920E-02 0. -1.
       -2   -1    0    0    0  501  0.00000000000E+00  0.00000000000E+00 -0.12039730109E+04  0.12039730109E+04  0.25500000920E-02 0.  1.
    10030    2    1    2    0    0  0.00000000000E+00  0.00000000000E+00 -0.59336829855E+03  0.18145777232E+04  0.17148196336E+04 0.  0.
        4    1    3    3  502    0 -0.43353822202E+03  0.73081636496E+03 -0.17556119562E+03  0.86768156345E+03  0.12699999809E+01 0. -1.
       -4    1    3    3    0  502  0.43353822202E+03 -0.73081636496E+03 -0.41780710293E+03  0.94689615978E+03  0.12699999809E+01 0.  1.
</event>
<event>
 5   0  0.3531266E-04  0.1799643E+04  0.7818609E-02  0.8706490E-01
       -2   -1    0    0    0  501  0.00000000000E+00  0.00000000000E+00  0.57926081545E+03  0.57926081546E+03  0.25500000920E-02 0.  1.
        2   -1    0    0  501    0  0.00000000000E+00  0.00000000000E+00 -0.13977786976E+04  0.13977786976E+04  0.25500000920E-02 0. -1.
    10030    2    1    2    0    0  0.00000000000E+00  0.00000000000E+00 -0.81851788219E+03  0.19770395131E+04  0.17996426626E+04 0.  0.
        3    1    3    3  502    0  0.59120413845E+03  0.67048281593E+03 -0.29610653284E+03  0.94167331319E+03  0.10100000352E+00 0.  1.
       -3    1    3    3    0  502 -0.59120413845E+03 -0.67048281593E+03 -0.52241134935E+03  0.10353661999E+04  0.10100000352E+00 0. -1.
</event>
<event>
 5   0  0.1835421E-04  0.1292527E+04  0.7818609E-02  0.9035512E-01
        1   -1    0    0  501    0  0.00000000000E+00  0.00000000000E+00  0.60953749201E+03  0.60953749203E+03  0.50400001928E-02 0. -1.
       -1   -1    0    0    0  501  0.00000000000E+00  0.00000000000E+00 -0.68520236950E+03  0.68520236952E+03  0.50400001928E-02 0.  1.
    10030    2    1    2    0    0  0.00000000000E+00  0.00000000000E+00 -0.75664877499E+02  0.12947398615E+04  0.12925270347E+04 0.  0.
        2    1    3    3  502    0  0.48675265368E+03 -0.33979979365E+03  0.21807408167E+03  0.63241469838E+03  0.25500000920E-02 0. -1.
       -2    1    3    3    0  502 -0.48675265368E+03  0.33979979365E+03 -0.29373895917E+03  0.66232516317E+03  0.25500000920E-02 0.  1.
</event>
<event>
 5   0  0.1825253E-04  0.1818068E+04  0.7818609E-02  0.8696750E-01
        1   -1    0    0  501    0  0.00000000000E+00  0.00000000000E+00  0.22789725998E+04  0.22789725998E+04  0.50400001928E-02 0. -1.
       -1   -1    0    0    0  501  0.00000000000E+00  0.00000000000E+00 -0.36259457380E+03  0.36259457384E+03  0.50400001928E-02 0.  1.
    10030    2    1    2    0    0  0.00000000000E+00  0.00000000000E+00  0.19163780260E+04  0.26415671736E+04  0.18180683140E+04 0.  0.
        4    1    3    3  502    0  0.65699713262E+03  0.77967518735E+02  0.52430265218E+02  0.66368268913E+03  0.12699999809E+01 0.  1.
       -4    1    3    3    0  502 -0.65699713262E+03 -0.77967518735E+02  0.18639477608E+04  0.19778844845E+04  0.12699999809E+01 0. -1.
</event>
<event>
 5   0  0.1883959E-04  0.1795614E+04  0.7818609E-02  0.8708636E-01
       -1   -1    0    0    0  501  0.00000000000E+00  0.00000000000E+00  0.21568702637E+04  0.21568702637E+04  0.50400001928E-02 0. -1.
        1   -1    0    0  501    0  0.00000000000E+00  0.00000000000E+00 -0.37371601688E+03  0.37371601691E+03  0.50400001928E-02 0.  1.
    10030    2    1    2    0    0  0.00000000000E+00  0.00000000000E+00  0.17831542468E+04  0.25305862806E+04  0.17956135040E+04 0.  0.
        5    1    3    3  502    0 -0.40445480532E+03  0.38782110432E+03 -0.97001302154E+02  0.56870048454E+03  0.46999998093E+01 0.  1.
       -5    1    3    3    0  502  0.40445480532E+03 -0.38782110432E+03  0.18801555490E+04  0.19618857961E+04  0.46999998093E+01 0. -1.
</event>
<event>
 5   0  0.3568870E-04  0.1797036E+04  0.7818609E-02  0.8707877E-01
       -2   -1    0    0    0  501  0.00000000000E+00  0.00000000000E+00  0.73909343738E+03  0.73909343739E+03  0.25500000920E-02 0.  1.
        2   -1    0    0  501    0  0.00000000000E+00  0.00000000000E+00 -0.10923305781E+04  0.10923305781E+04  0.25500000920E-02 0. -1.
    10030    2    1    2    0    0  0.00000000000E+00  0.00000000000E+00 -0.35323714073E+03  0.18314240155E+04  0.17970357389E+04 0.  0.
        1    1    3    3  502    0 -0.18049076574E+03 -0.17896618793E+03 -0.10549274010E+04  0.10851164151E+04  0.50400001928E-02 0. -1.
       -1    1    3    3    0  502  0.18049076574E+03  0.17896618793E+03  0.70169026030E+03  0.74630760037E+03  0.50400001928E-02 0.  1.
</event>
<event>
 5   0  0.3575091E-04  0.1731603E+04  0.7818609E-02  0.8743543E-01
       -2   -1    0    0    0  501  0.00000000000E+00  0.00000000000E+00  0.17074210641E+04  0.17074210641E+04  0.25500000920E-02 0. -1.
        2   -1    0    0  501    0  0.00000000000E+00  0.00000000000E+00 -0.43903174535E+03  0.43903174536E+03  0.25500000920E-02 0.  1.
    10030    2    1    2    0    0  0.00000000000E+00  0.00000000000E+00  0.12683893188E+04  0.21464528095E+04  0.17316027834E+04 0.  0.
        5    1    3    3  502    0 -0.74413113351E+03  0.29216386016E+03  0.10462470420E+04  0.13167178240E+04  0.46999998093E+01 0. -1.
       -5    1    3    3    0  502  0.74413113351E+03 -0.29216386016E+03  0.22214227674E+03  0.82973498550E+03  0.46999998093E+01 0.  1.
</event>
<event>
 5   0  0.3582186E-04  0.1816437E+04  0.7818609E-02  0.8697607E-01
        2   -1    0    0  501    0  0.00000000000E+00  0.00000000000E+00  0.13458557990E+04  0.13458557990E+04  0.25500000920E-02 0.  1.
       -2   -1    0    0    0  501  0.00000000000E+00  0.00000000000E+00 -0.61288940902E+03  0.61288940902E+03  0.25500000920E-02 0. -1.
    10030    2    1    2    0    0  0.00000000000E+00  0.00000000000E+00  0.73296639000E+03  0.19587452080E+04  0.18164369136E+04 0.  0.
        4    1    3    3  502    0  0.35548368549E+03  0.38937959121E+03  0.11639291882E+04  0.12777784959E+04  0.12699999809E+01 0.  1.
       -4    1    3    3    0  502 -0.35548368549E+03 -0.38937959121E+03 -0.43096279816E+03  0.68096671211E+03  0.12699999809E+01 0. -1.
</event>
<event>
 5   0  0.1883959E-04  0.1790708E+04  0.7818609E-02  0.8711256E-01
        1   -1    0    0  501    0  0.00000000000E+00  0.00000000000E+00  0.80557646058E+03  0.80557646060E+03  0.50400001928E-02 0. -1.
       -1   -1    0    0    0  501  0.00000000000E+00  0.00000000000E+00 -0.99513708416E+03  0.99513708418E+03  0.50400001928E-02 0.  1.
    10030    2    1    2    0    0  0.00000000000E+00  0.00000000000E+00 -0.18956062358E+03  0.18007135448E+04  0.17907082510E+04 0.  0.
        5    1    3    3  502    0 -0.29028252096E+03 -0.41441606206E+03  0.64801616403E+03  0.82216279003E+03  0.46999998093E+01 0. -1.
       -5    1    3    3    0  502  0.29028252096E+03  0.41441606206E+03 -0.83757678761E+03  0.97855075474E+03  0.46999998093E+01 0.  1.
</event>
<event>
 5   0  0.1837313E-04  0.1431870E+04  0.7818609E-02  0.8931067E-01
        1   -1    0    0  501    0  0.00000000000E+00  0.00000000000E+00  0.11146322654E+04  0.11146322654E+04  0.50400001928E-02 0.  1.
       -1   -1    0    0    0  501  0.00000000000E+00  0.00000000000E+00 -0.45984904138E+03  0.45984904141E+03  0.50400001928E-02 0. -1.
    10030    2    1    2    0    0  0.00000000000E+00  0.00000000000E+00  0.65478322403E+03  0.15744813068E+04  0.14318695175E+04 0.  0.
        1    1    3    3  502    0 -0.17727190259E+03 -0.26160552908E+03 -0.37900920609E+03  0.49346809281E+03  0.50400001928E-02 0. -1.
       -1    1    3    3    0  502  0.17727190259E+03  0.26160552908E+03  0.10337924301E+04  0.10810132140E+04  0.50400001928E-02 0.  1.
</event>
<event>
 5   0  0.1835421E-04  0.1801563E+04  0.7818609E-02  0.8705469E-01
       -1   -1    0    0    0  501  0.00000000000E+00  0.00000000000E+00  0.81038693795E+03  0.81038693797E+03  0.50400001928E-02 0.  1.
        1   -1    0    0  501    0  0.00000000000E+00  0.00000000000E+00 -0.10012594821E+04  0.10012594821E+04  0.50400001928E-02 0. -1.
    10030    2    1    2    0    0  0.00000000000E+00  0.00000000000E+00 -0.19087254414E+03  0.18116464201E+04  0.18015633276E+04 0.  0.
        2    1    3    3  502    0  0.41353536372E+03 -0.76678299096E+03  0.13484311058E+03  0.88156129494E+03  0.25500000920E-02 0.  1.
       -2    1    3    3    0  502 -0.41353536372E+03  0.76678299096E+03 -0.32571565472E+03  0.93008512514E+03  0.25500000920E-02 0. -1.
</event>
<event>
 5   0  0.1835421E-04  0.1768654E+04  0.7818609E-02  0.8723149E-01
       -1   -1    0    0    0  501  0.00000000000E+00  0.00000000000E+00  0.65283806837E+03  0.65283806839E+03  0.50400001928E-02 0. -1.
        1   -1    0    0  501    0  0.00000000000E+00  0.00000000000E+00 -0.11978996670E+04  0.11978996670E+04  0.50400001928E-02 0.  1.
    10030    2    1    2    0    0  0.00000000000E+00  0.00000000000E+00 -0.54506159861E+03  0.18507377354E+04  0.17686542960E+04 0.  0.
        2    1    3    3  502    0 -0.11831354530E+03  0.58184513829E+03  0.41324126886E+03  0.72340182903E+03  0.25500000920E-02 0. -1.
       -2    1    3    3    0  502  0.11831354530E+03 -0.58184513829E+03 -0.95830286748E+03  0.11273359064E+04  0.25500000920E-02 0.  1.
</event>
<event>
 5   0  0.1818778E-04  0.1823894E+04  0.7818609E-02  0.8693695E-01
        1   -1    0    0  501    0  0.00000000000E+00  0.00000000000E+00  0.16808075126E+04  0.16808075126E+04  0.50400001928E-02 0. -1.
       -1   -1    0    0    0  501  0.00000000000E+00  0.00000000000E+00 -0.49479049894E+03  0.49479049897E+03  0.50400001928E-02 0.  1.
    10030    2    1    2    0    0  0.00000000000E+00  0.00000000000E+00  0.11860170137E+04  0.21755980116E+04  0.18238942818E+04 0.  0.
        3    1    3    3  502    0  0.46594138098E+03 -0.72814827303E+03  0.24658128697E+03  0.89894583781E+03  0.10100000352E+00 0.  1.
       -3    1    3    3    0  502 -0.46594138098E+03  0.72814827303E+03  0.93943572673E+03  0.12766521738E+04  0.10100000352E+00 0. -1.
</event>
<event>
 5   0  0.3568870E-04  0.1800245E+04  0.7818609E-02  0.8706169E-01
       -2   -1    0    0    0  501  0.00000000000E+00  0.00000000000E+00  0.15521030321E+04  0.15521030321E+04  0.25500000920E-02 0. -1.
        2   -1    0    0  501    0  0.00000000000E+00  0.00000000000E+00 -0.52201436519E+03  0.52201436520E+03  0.25500000920E-02 0.  1.
    10030    2    1    2    0    0  0.00000000000E+00  0.00000000000E+00  0.10300886669E+04  0.20741173973E+04  0.18002445156E+04 0.  0.
        1    1    3    3  502    0 -0.39376970235E+03  0.18509679879E+03  0.14228947619E+04  0.14879330989E+04  0.50400001928E-02 0. -1.
       -1    1    3    3    0  502  0.39376970235E+03 -0.18509679879E+03 -0.39280609497E+03  0.58618429839E+03  0.50400001928E-02 0.  1.
</event>
<event>
 5   0  0.1835421E-04  0.1814968E+04  0.7818609E-02  0.8698380E-01
       -1   -1    0    0    0  501  0.00000000000E+00  0.00000000000E+00  0.66467784109E+03  0.66467784111E+03  0.50400001928E-02 0.  1.
        1   -1    0    0  501    0  0.00000000000E+00  0.00000000000E+00 -0.12389866731E+04  0.12389866731E+04  0.50400001928E-02 0. -1.
    10030    2    1    2    0    0  0.00000000000E+00  0.00000000000E+00 -0.57430883202E+03  0.19036645142E+04  0.18149677540E+04 0.  0.
        2    1    3    3  502    0  0.89823548802E+03 -0.12469569349E+03 -0.25157037852E+03  0.94109705306E+03  0.25500000920E-02 0.  1.
       -2    1    3    3    0  502 -0.89823548802E+03  0.12469569349E+03 -0.32273845350E+03  0.96256746117E+03  0.25500000920E-02 0. -1.
</event>
<event>
 5   0  0.1825253E-04  0.1781958E+04  0.7818609E-02  0.8715953E-01
       -1   -1    0    0    0  501  0.00000000000E+00  0.00000000000E+00  0.60489133956E+03  0.60489133958E+03  0.50400001928E-02 0. -1.
        1   -1    0    0  501    0  0.00000000000E+00  0.00000000000E+00 -0.13123740165E+04  0.13123740165E+04  0.50400001928E-02 0.  1.
    10030    2    1    2    0    0  0.00000000000E+00  0.00000000000E+00 -0.70748267689E+03  0.19172653560E+04  0.17819581104E+04 0.  0.
        4    1    3    3  502    0  0.59566637355E+03 -0.37822773425E+03  0.23159661528E+03  0.74263938263E+03  0.12699999809E+01 0. -1.
       -4    1    3    3    0  502 -0.59566637355E+03  0.37822773425E+03 -0.93907929217E+03  0.11746259734E+04  0.12699999809E+01 0.  1.
</event>
<event>
 5   0  0.3582186E-04  0.1799776E+04  0.7818609E-02  0.8706419E-01
        2   -1    0    0  501    0  0.00000000000E+00  0.00000000000E+00  0.16184757337E+04  0.16184757337E+04  0.25500000920E-02 0.  1.
       -2   -1    0    0    0  501  0.00000000000E+00  0.00000000000E+00 -0.50034620113E+03  0.50034620114E+03  0.25500000920E-02 0. -1.
    10030    2    1    2    0    0  0.00000000000E+00  0.00000000000E+00  0.11181295325E+04  0.21188219348E+04  0.17997757471E+04 0.  0.
        4    1    3    3  502    0  0.74009479638E+03  0.17847308392E+03 -0.57839447631E+01  0.76133305211E+03  0.12699999809E+01 0. -1.
       -4    1    3    3    0  502 -0.74009479638E+03 -0.17847308392E+03  0.11239134773E+04  0.13574888827E+04  0.12699999809E+01 0.  1.
</event>
<event>
 5   0  0.1883959E-04  0.1795111E+04  0.7818609E-02  0.8708904E-01
       -1   -1    0    0    0  501  0.00000000000E+00  0.00000000000E+00  0.88200451997E+03  0.88200451999E+03  0.50400001928E-02 0. -1.
        1   -1    0    0  501    0  0.00000000000E+00  0.00000000000E+00 -0.91338019584E+03  0.91338019585E+03  0.50400001928E-02 0.  1.
    10030    2    1    2    0    0  0.00000000000E+00  0.00000000000E+00 -0.31375675863E+02  0.17953847158E+04  0.17951105383E+04 0.  0.
        5    1    3    3  502    0  0.54221069022E+03  0.12540639992E+03  0.68859595245E+03  0.88538447776E+03  0.46999998093E+01 0. -1.
       -5    1    3    3    0  502 -0.54221069022E+03 -0.12540639992E+03 -0.71997162831E+03  0.91000023808E+03  0.46999998093E+01 0.  1.
</event>
<event>
 5   0  0.1883959E-04  0.1791933E+04  0.7818609E-02  0.8710601E-01
        1   -1    0    0  501    0  0.00000000000E+00  0.00000000000E+00  0.18271596777E+04  0.18271596777E+04  0.50400001928E-02 0. -1.
       -1   -1    0    0    0  501  0.00000000000E+00  0.00000000000E+00 -0.43934653588E+03  0.43934653591E+03  0.50400001928E-02 0.  1.
    10030    2    1    2    0    0  0.00000000000E+00  0.00000000000E+00  0.13878131418E+04  0.22665062136E+04  0.17919333413E+04 0.  0.
        5    1    3    3  502    0  0.88838329265E+03  0.10497996598E+03  0.75700308565E+03  0.11718879766E+04  0.46999998093E+01 0. -1.
       -5    1    3    3    0  502 -0.88838329265E+03 -0.10497996598E+03  0.63081005614E+03  0.10946182370E+04  0.46999998093E+01 0.  1.
</event>
<event>
 5   0  0.1835421E-04  0.1832041E+04  0.7818609E-02  0.8689443E-01
       -1   -1    0    0    0  501  0.00000000000E+00  0.00000000000E+00  0.10635857384E+04  0.10635857384E+04  0.50400001928E-02 0. -1.
        1   -1    0    0  501    0  0.00000000000E+00  0.00000000000E+00 -0.78892929158E+03  0.78892929159E+03  0.50400001928E-02 0.  1.
    10030    2    1    2    0    0  0.00000000000E+00  0.00000000000E+00  0.27465644685E+03  0.18525150300E+04  0.18320414222E+04 0.  0.
        2    1    3    3  502    0  0.29576186277E+03 -0.10171476845E+03  0.10079219501E+04  0.10553329480E+04  0.25500000920E-02 0. -1.
       -2    1    3    3    0  502 -0.29576186277E+03  0.10171476845E+03 -0.73326550328E+03  0.79718208202E+03  0.25500000920E-02 0.  1.
</event>
<event>
 5   0  0.3568870E-04  0.1799032E+04  0.7818609E-02  0.8706815E-01
       -2   -1    0    0    0  501  0.00000000000E+00  0.00000000000E+00  0.16787157311E+04  0.16787157311E+04  0.25500000920E-02 0.  1.
        2   -1    0    0  501    0  0.00000000000E+00  0.00000000000E+00 -0.48199276576E+03  0.48199276576E+03  0.25500000920E-02 0. -1.
    10030    2    1    2    0    0  0.00000000000E+00  0.00000000000E+00  0.11967229654E+04  0.21607084969E+04  0.17990317820E+04 0.  0.
        1    1    3    3  502    0  0.51127275234E+03 -0.53225388571E+03 -0.19251843384E+02  0.73828494475E+03  0.50400001928E-02 0. -1.
       -1    1    3    3    0  502 -0.51127275234E+03  0.53225388571E+03  0.12159748088E+04  0.14224235522E+04  0.50400001928E-02 0.  1.
</event>
<event>
 5   0  0.1835421E-04  0.1682546E+04  0.7818609E-02  0.8771382E-01
       -1   -1    0    0    0  501  0.00000000000E+00  0.00000000000E+00  0.15531900796E+04  0.15531900796E+04  0.50400001928E-02 0.  1.
        1   -1    0    0  501    0  0.00000000000E+00  0.00000000000E+00 -0.45566906063E+03  0.45566906065E+03  0.50400001928E-02 0. -1.
    10030    2    1    2    0    0  0.00000000000E+00  0.00000000000E+00  0.10975210190E+04  0.20088591402E+04  0.16825464803E+04 0.  0.
        2    1    3    3  502    0 -0.27727612217E+03 -0.45286640378E+03 -0.23029834616E+03  0.57879819959E+03  0.25500000920E-02 0. -1.
       -2    1    3    3    0  502  0.27727612217E+03  0.45286640378E+03  0.13278193651E+04  0.14300609407E+04  0.25500000920E-02 0.  1.
</event>
<event>
 5   0  0.3568870E-04  0.1799433E+04  0.7818609E-02  0.8706601E-01
       -2   -1    0    0    0  501  0.00000000000E+00  0.00000000000E+00  0.39910258712E+03  0.39910258713E+03  0.25500000920E-02 0.  1.
        2   -1    0    0  501    0  0.00000000000E+00  0.00000000000E+00 -0.20282755807E+04  0.20282755807E+04  0.25500000920E-02 0. -1.
    10030    2    1    2    0    0  0.00000000000E+00  0.00000000000E+00 -0.16291729936E+04  0.24273781679E+04  0.17994332793E+04 0.  0.
        1    1    3    3  502    0 -0.86559168908E+03 -0.16674134582E+03 -0.10575445462E+04  0.13767541959E+04  0.50400001928E-02 0. -1.
       -1    1    3    3    0  502  0.86559168908E+03  0.16674134582E+03 -0.57162844740E+03  0.10506239720E+04  0.50400001928E-02 0.  1.
</event>
<event>
 5   0  0.3531266E-04  0.1787458E+04  0.7818609E-02  0.8712998E-01
       -2   -1    0    0    0  501  0.00000000000E+00  0.00000000000E+00  0.12736985189E+04  0.12736985189E+04  0.25500000920E-02 0. -1.
        2   -1    0    0  501    0  0.00000000000E+00  0.00000000000E+00 -0.62711189841E+03  0.62711189841E+03  0.25500000920E-02 0.  1.
    10030    2    1    2    0    0  0.00000000000E+00  0.00000000000E+00  0.64658662051E+03  0.19008104173E+04  0.17874579673E+04 0.  0.
        3    1    3    3  502    0  0.86934228142E+03 -0.18520523323E+03  0.42245077276E+03  0.98413497361E+03  0.10100000352E+00 0.  1.
       -3    1    3    3    0  502 -0.86934228142E+03  0.18520523323E+03  0.22413584775E+03  0.91667544372E+03  0.10100000352E+00 0. -1.
</event>
<event>
 5   0  0.3531266E-04  0.1756336E+04  0.7818609E-02  0.8729870E-01
        2   -1    0    0  501    0  0.00000000000E+00  0.00000000000E+00  0.92198347201E+03  0.92198347201E+03  0.25500000920E-02 0.  1.
       -2   -1    0    0    0  501  0.00000000000E+00  0.00000000000E+00 -0.83643503346E+03  0.83643503346E+03  0.25500000920E-02 0. -1.
    10030    2    1    2    0    0  0.00000000000E+00  0.00000000000E+00  0.85548438550E+02  0.17584185055E+04  0.17563362733E+04 0.  0.
        3    1    3    3  502    0  0.50022718095E+02  0.17130442066E+03  0.90363766049E+03  0.92109093390E+03  0.10100000352E+00 0.  1.
       -3    1    3    3    0  502 -0.50022718095E+02 -0.17130442066E+03 -0.81808922194E+03  0.83732757157E+03  0.10100000352E+00 0. -1.
</event>
<event>
 5   0  0.1837313E-04  0.1791407E+04  0.7818609E-02  0.8710883E-01
        1   -1    0    0  501    0  0.00000000000E+00  0.00000000000E+00  0.11291797091E+04  0.11291797091E+04  0.50400001928E-02 0.  1.
       -1   -1    0    0    0  501  0.00000000000E+00  0.00000000000E+00 -0.71050224825E+03  0.71050224827E+03  0.50400001928E-02 0. -1.
    10030    2    1    2    0    0  0.00000000000E+00  0.00000000000E+00  0.41867746089E+03  0.18396819574E+04  0.17914069577E+04 0.  0.
        1    1    3    3  502    0  0.53842632078E+03 -0.30674374598E+03 -0.45484354534E+03  0.76868542289E+03  0.50400001928E-02 0. -1.
       -1    1    3    3    0  502 -0.53842632078E+03  0.30674374598E+03  0.87352100623E+03  0.10709965345E+04  0.50400001928E-02 0.  1.
</event>
<event>
 5   0  0.1883959E-04  0.1793905E+04  0.7818609E-02  0.8709548E-01
        1   -1    0    0  501    0  0.00000000000E+00  0.00000000000E+00  0.18500176809E+04  0.18500176809E+04  0.50400001928E-02 0. -1.
       -1   -1    0    0    0  501  0.00000000000E+00  0.00000000000E+00 -0.43487336067E+03  0.43487336070E+03  0.50400001928E-02 0.  1.
    10030    2    1    2    0    0  0.00000000000E+00  0.00000000000E+00  0.14151443203E+04  0.22848910416E+04  0.17939045752E+04 0.  0.
        5    1    3    3  502    0 -0.27801032066E+03  0.76661406115E+03  0.23182547902E+03  0.84779242735E+03  0.46999998093E+01 0.  1.
       -5    1    3    3    0  502  0.27801032066E+03 -0.76661406115E+03  0.11833188412E+04  0.14370986143E+04  0.46999998093E+01 0. -1.
</event>
<event>
 5   0  0.3531266E-04  0.1792680E+04  0.7818609E-02  0.8710202E-01
       -2   -1    0    0    0  501  0.00000000000E+00  0.00000000000E+00  0.66889320808E+03  0.66889320808E+03  0.25500000920E-02 0. -1.
        2   -1    0    0  501    0  0.00000000000E+00  0.00000000000E+00 -0.12011264603E+04  0.12011264603E+04  0.25500000920E-02 0.  1.
    10030    2    1    2    0    0  0.00000000000E+00  0.00000000000E+00 -0.53223325226E+03  0.18700196684E+04  0.17926799283E+04 0.  0.
        3    1    3    3  502    0 -0.79752202760E+03 -0.39974505010E+03 -0.35698280386E+03  0.96087159498E+03  0.10100000352E+00 0.  1.
       -3    1    3    3    0  502  0.79752202760E+03  0.39974505010E+03 -0.17525044839E+03  0.90914807344E+03  0.10100000352E+00 0. -1.
</event>
<event>
 5   0  0.1883959E-04  0.1824702E+04  0.7818609E-02  0.8693272E-01
       -1   -1    0    0    0  501  0.00000000000E+00  0.00000000000E+00  0.56643645832E+03  0.56643645835E+03  0.50400001928E-02 0.  1.
        1   -1    0    0  501    0  0.00000000000E+00  0.00000000000E+00 -0.14695105713E+04  0.14695105713E+04  0.50400001928E-02 0. -1.
    10030    2    1    2    0    0  0.00000000000E+00  0.00000000000E+00 -0.90307411295E+03  0.20359470296E+04  0.18247020179E+04 0.  0.
        5    1    3    3  502    0 -0.60480851110E+03  0.41678132926E+02  0.30917880432E+03  0.68054685724E+03  0.46999998093E+01 0.  1.
       -5    1    3    3    0  502  0.60480851110E+03 -0.41678132926E+02 -0.12122529173E+04  0.13554001724E+04  0.46999998093E+01 0. -1.
</event>
<event>
 5   0  0.3628581E-04  0.1787886E+04  0.7818609E-02  0.8712768E-01
       -2   -1    0    0    0  501  0.00000000000E+00  0.00000000000E+00  0.12313901072E+04  0.12313901072E+04  0.25500000920E-02 0. -1.
        2   -1    0    0  501    0  0.00000000000E+00  0.00000000000E+00 -0.64896881449E+03  0.64896881450E+03  0.25500000920E-02 0.  1.
    10030    2    1    2    0    0  0.00000000000E+00  0.00000000000E+00  0.58242129266E+03  0.18803589217E+04  0.17878856541E+04 0.  0.
        2    1    3    3  502    0 -0.38617624879E+03  0.41490156187E+03  0.10182377759E+04  0.11653684265E+04  0.25500000920E-02 0. -1.
       -2    1    3    3    0  502  0.38617624879E+03 -0.41490156187E+03 -0.43581648321E+03  0.71499049519E+03  0.25500000920E-02 0.  1.
</event>
<event>
 5   0  0.1837313E-04  0.1791130E+04  0.7818609E-02  0.8711031E-01
       -1   -1    0    0    0  501  0.00000000000E+00  0.00000000000E+00  0.64439925716E+03  0.64439925718E+03  0.50400001928E-02 0. -1.
        1   -1    0    0  501    0  0.00000000000E+00  0.00000000000E+00 -0.12446268910E+04  0.12446268910E+04  0.50400001928E-02 0.  1.
    10030    2    1    2    0    0  0.00000000000E+00  0.00000000000E+00 -0.60022763380E+03  0.18890261482E+04  0.17911299718E+04 0.  0.
        1    1    3    3  502    0  0.65233608825E+03  0.89743368915E+02 -0.94028259722E+03  0.11479231712E+04  0.50400001928E-02 0.  1.
       -1    1    3    3    0  502 -0.65233608825E+03 -0.89743368915E+02  0.34005496342E+03  0.74110297696E+03  0.50400001928E-02 0. -1.
</event>
<event>
 5   0  0.1837313E-04  0.1770863E+04  0.7818609E-02  0.8721949E-01
       -1   -1    0    0    0  501  0.00000000000E+00  0.00000000000E+00  0.11350180907E+04  0.11350180907E+04  0.50400001928E-02 0. -1.
        1   -1    0    0  501    0  0.00000000000E+00  0.00000000000E+00 -0.69072825187E+03  0.69072825189E+03  0.50400001928E-02 0.  1.
    10030    2    1    2    0    0  0.00000000000E+00  0.00000000000E+00  0.44428983878E+03  0.18257463426E+04  0.17708631360E+04 0.  0.
        1    1    3    3  502    0  0.87187121048E+03 -0.15148632977E+03  0.19153389319E+03  0.90542407083E+03  0.50400001928E-02 0.  1.
       -1    1    3    3    0  502 -0.87187121048E+03  0.15148632977E+03  0.25275594559E+03  0.92032227172E+03  0.50400001928E-02 0. -1.
</event>
<event>
 5   0  0.1835421E-04  0.1543640E+04  0.7818609E-02  0.8855940E-01
        1   -1    0    0  501    0  0.00000000000E+00  0.00000000000E+00  0.11582111396E+04  0.11582111396E+04  0.50400001928E-02 0. -1.
       -1   -1    0    0    0  501  0.00000000000E+00  0.00000000000E+00 -0.51433300754E+03  0.51433300757E+03  0.50400001928E-02 0.  1.
    10030    2    1    2    0    0  0.00000000000E+00  0.00000000000E+00  0.64387813208E+03  0.16725441472E+04  0.15436401379E+04 0.  0.
        2    1    3    3  502    0 -0.61984374345E+03 -0.43290876207E+03  0.49010945667E+03  0.90101250940E+03  0.25500000920E-02 0. -1.
       -2    1    3    3    0  502  0.61984374345E+03  0.43290876207E+03  0.15376867541E+03  0.77153163779E+03  0.25500000920E-02 0.  1.
</event>
<event>
 5   0  0.3582186E-04  0.1797479E+04  0.7818609E-02  0.8707641E-01
       -2   -1    0    0    0  501  0.00000000000E+00  0.00000000000E+00  0.34350679391E+03  0.34350679392E+03  0.25500000920E-02 0.  1.
        2   -1    0    0  501    0  0.00000000000E+00  0.00000000000E+00 -0.23514305342E+04  0.23514305342E+04  0.25500000920E-02 0. -1.
    10030    2    1    2    0    0  0.00000000000E+00  0.00000000000E+00 -0.20079237403E+04  0.26949373281E+04  0.17974786384E+04 0.  0.
        4    1    3    3  502    0  0.83615462452E+00 -0.55099504881E+03  0.60568718297E+02  0.55431617828E+03  0.12699999809E+01 0.  1.
       -4    1    3    3    0  502 -0.83615462452E+00  0.55099504881E+03 -0.20684924586E+04  0.21406211498E+04  0.12699999809E+01 0. -1.
</event>
<event>
 5   0  0.1818778E-04  0.1806710E+04  0.7818609E-02  0.8702740E-01
       -1   -1    0    0    0  501  0.00000000000E+00  0.00000000000E+00  0.99793499652E+03  0.99793499653E+03  0.50400001928E-02 0. -1.
        1   -1    0    0  501    0  0.00000000000E+00  0.00000000000E+00 -0.81773849640E+03  0.81773849641E+03  0.50400001928E-02 0.  1.
    10030    2    1    2    0    0  0.00000000000E+00  0.00000000000E+00  0.18019650012E+03  0.18156734929E+04  0.18067095656E+04 0.  0.
        3    1    3    3  502    0 -0.48904614458E+03  0.48789964312E+03 -0.49488744529E+03  0.84977984619E+03  0.10100000352E+00 0.  1.
       -3    1    3    3    0  502  0.48904614458E+03 -0.48789964312E+03  0.67508394541E+03  0.96589364675E+03  0.10100000352E+00 0. -1.
</event>
<event>
 5   0  0.1883959E-04  0.1801425E+04  0.7818609E-02  0.8705542E-01
       -1   -1    0    0    0  501  0.00000000000E+00  0.00000000000E+00  0.60224534877E+03  0.60224534879E+03  0.50400001928E-02 0.  1.
        1   -1    0    0  501    0  0.00000000000E+00  0.00000000000E+00 -0.13470974193E+04  0.13470974193E+04  0.50400001928E-02 0. -1.
    10030    2    1    2    0    0  0.00000000000E+00  0.00000000000E+00 -0.74485207051E+03  0.19493427681E+04  0.18014251637E+04 0.  0.
        5    1    3    3  502    0  0.50756716528E+03 -0.40683813751E+01 -0.11775780898E+04  0.12823233705E+04  0.46999998093E+01 0. -1.
       -5    1    3    3    0  502 -0.50756716528E+03  0.40683813751E+01  0.43272601926E+03  0.66701939758E+03  0.46999998093E+01 0.  1.
</event>
<event>
 5   0  0.1835421E-04  0.1760779E+04  0.7818609E-02  0.8727440E-01
       -1   -1    0    0    0  501  0.00000000000E+00  0.00000000000E+00  0.17652810019E+04  0.17652810019E+04  0.50400001928E-02 0. -1.
        1   -1    0    0  501    0  0.00000000000E+00  0.00000000000E+00 -0.43907195137E+03  0.43907195140E+03  0.50400001928E-02 0.  1.
    10030    2    1    2    0    0  0.00000000000E+00  0.00000000000E+00  0.13262090505E+04  0.22043529533E+04  0.17607786621E+04 0.  0.
        2    1    3    3  502    0  0.11204971160E+03 -0.25614714720E+03 -0.38201865537E+03  0.47339703415E+03  0.25500000920E-02 0.  1.
       -2    1    3    3    0  502 -0.11204971160E+03  0.25614714720E+03  0.17082277059E+04  0.17309559192E+04  0.25500000920E-02 0. -1.
</event>
<event>
 5   0  0.3628581E-04  0.1804001E+04  0.7818609E-02  0.8704175E-01
       -2   -1    0    0    0  501  0.00000000000E+00  0.00000000000E+00  0.65591601800E+03  0.65591601801E+03  0.25500000920E-02 0.  1.
        2   -1    0    0  501    0  0.00000000000E+00  0.00000000000E+00 -0.12404097676E+04  0.12404097676E+04  0.25500000920E-02 0. -1.
    10030    2    1    2    0    0  0.00000000000E+00  0.00000000000E+00 -0.58449374960E+03  0.18963257856E+04  0.18040007045E+04 0.  0.
        2    1    3    3  502    0 -0.72290078285E+03  0.13769523336E+03  0.25604004999E+03  0.77916752136E+03  0.25500000920E-02 0.  1.
       -2    1    3    3    0  502  0.72290078285E+03 -0.13769523336E+03 -0.84053379958E+03  0.11171582643E+04  0.25500000920E-02 0. -1.
</event>
<event>
 5   0  0.1330125E-04  0.2039845E+04  0.7818609E-02  0.8588215E-01
       -3   -1    0    0    0  501  0.00000000000E+00  0.00000000000E+00  0.83563728327E+03  0.83563728938E+03  0.10100000352E+00 0.  1.
        3   -1    0    0  501    0  0.00000000000E+00  0.00000000000E+00 -0.12448480626E+04  0.12448480667E+04  0.10100000352E+00 0. -1.
    10030    2    1    2    0    0  0.00000000000E+00  0.00000000000E+00 -0.40921077936E+03  0.20804853561E+04  0.20398445664E+04 0.  0.
        5    1    3    3  502    0  0.80512422013E+03 -0.61298985663E+03 -0.33457181554E+03  0.10658057815E+04  0.46999998093E+01 0.  1.
       -5    1    3    3    0  502 -0.80512422013E+03  0.61298985663E+03 -0.74638963822E+02  0.10146795746E+04  0.46999998093E+01 0. -1.
</event>
<event>
 5   0  0.3582186E-04  0.1806081E+04  0.7818609E-02  0.8703072E-01
       -2   -1    0    0    0  501  0.00000000000E+00  0.00000000000E+00  0.82758117237E+03  0.82758117237E+03  0.25500000920E-02 0.  1.
        2   -1    0    0  501    0  0.00000000000E+00  0.00000000000E+00 -0.98538037587E+03  0.98538037587E+03  0.25500000920E-02 0. -1.
    10030    2    1    2    0    0  0.00000000000E+00  0.00000000000E+00 -0.15779920350E+03  0.18129615482E+04  0.18060811130E+04 0.  0.
        4    1    3    3  502    0 -0.56080674409E+02  0.37783168579E+03 -0.90029486166E+03  0.97797457822E+03  0.12699999809E+01 0. -1.
       -4    1    3    3    0  502  0.56080674409E+02 -0.37783168579E+03  0.74249565815E+03  0.83498697002E+03  0.12699999809E+01 0.  1.
</event>
<event>
 5   0  0.3582186E-04  0.1803633E+04  0.7818609E-02  0.8704370E-01
       -2   -1    0    0    0  501  0.00000000000E+00  0.00000000000E+00  0.10876878920E+04  0.10876878921E+04  0.25500000920E-02 0. -1.
        2   -1    0    0  501    0  0.00000000000E+00  0.00000000000E+00 -0.74770817138E+03  0.74770817139E+03  0.25500000920E-02 0.  1.
    10030    2    1    2    0    0  0.00000000000E+00  0.00000000000E+00  0.33997972067E+03  0.18353960634E+04  0.18036331388E+04 0.  0.
        4    1    3    3  502    0 -0.25336924285E+03  0.35826151673E+02 -0.70998852436E+03  0.75469517289E+03  0.12699999809E+01 0.  1.
       -4    1    3    3    0  502  0.25336924285E+03 -0.35826151673E+02  0.10499682450E+04  0.10807008905E+04  0.12699999809E+01 0. -1.
</event>
<event>
 5   0  0.1825253E-04  0.1820519E+04  0.7818609E-02  0.8695463E-01
       -1   -1    0    0    0  501  0.00000000000E+00  0.00000000000E+00  0.58182052663E+03  0.58182052666E+03  0.50400001928E-02 0.  1.
        1   -1    0    0  501    0  0.00000000000E+00  0.00000000000E+00 -0.14241024371E+04  0.14241024371E+04  0.50400001928E-02 0. -1.
    10030    2    1    2    0    0  0.00000000000E+00  0.00000000000E+00 -0.84228191051E+03  0.20059229638E+04  0.18205186404E+04 0.  0.
        4    1    3    3  502    0 -0.44767412121E+03  0.69404017388E+02  0.44878462086E+03  0.63768196247E+03  0.12699999809E+01 0.  1.
       -4    1    3    3    0  502  0.44767412121E+03 -0.69404017388E+02 -0.12910665314E+04  0.13682410013E+04  0.12699999809E+01 0. -1.
</event>
<event>
 5   0  0.3628581E-04  0.1848032E+04  0.7818609E-02  0.8681165E-01
       -2   -1    0    0    0  501  0.00000000000E+00  0.00000000000E+00  0.85638894581E+03  0.85638894582E+03  0.25500000920E-02 0. -1.
        2   -1    0    0  501    0  0.00000000000E+00  0.00000000000E+00 -0.99698374596E+03  0.99698374596E+03  0.25500000920E-02 0.  1.
    10030    2    1    2    0    0  0.00000000000E+00  0.00000000000E+00 -0.14059480015E+03  0.18533726918E+04  0.18480323149E+04 0.  0.
        2    1    3    3  502    0 -0.62218845384E+03 -0.62079619784E+03  0.21565717548E+03  0.90499414843E+03  0.25500000920E-02 0. -1.
       -2    1    3    3    0  502  0.62218845384E+03  0.62079619784E+03 -0.35625197563E+03  0.94837854335E+03  0.25500000920E-02 0.  1.
</event>
<event>
 5   0  0.3582186E-04  0.1800751E+04  0.7818609E-02  0.8705900E-01
       -2   -1    0    0    0  501  0.00000000000E+00  0.00000000000E+00  0.30061177302E+04  0.30061177302E+04  0.25500000920E-02 0.  1.
        2   -1    0    0  501    0  0.00000000000E+00  0.00000000000E+00 -0.26967526382E+03  0.26967526383E+03  0.25500000920E-02 0. -1.
    10030    2    1    2    0    0  0.00000000000E+00  0.00000000000E+00  0.27364424663E+04  0.32757929940E+04  0.18007505013E+04 0.  0.
        4    1    3    3  502    0 -0.47458980205E+03  0.63476794934E+02  0.27553087186E+04  0.27966037495E+04  0.12699999809E+01 0.  1.
       -4    1    3    3    0  502  0.47458980205E+03 -0.63476794934E+02 -0.18866252278E+02  0.47918924453E+03  0.12699999809E+01 0. -1.
</event>
<event>
 5   0  0.3575091E-04  0.1780619E+04  0.7818609E-02  0.8716675E-01
       -2   -1    0    0    0  501  0.00000000000E+00  0.00000000000E+00  0.67098238312E+03  0.67098238312E+03  0.25500000920E-02 0.  1.
        2   -1    0    0  501    0  0.00000000000E+00  0.00000000000E+00 -0.11813286150E+04  0.11813286150E+04  0.25500000920E-02 0. -1.
    10030    2    1    2    0    0  0.00000000000E+00  0.00000000000E+00 -0.51034623190E+03  0.18523109981E+04  0.17806186446E+04 0.  0.
        5    1    3    3  502    0 -0.30041462959E+03 -0.17944069334E+03  0.59643333610E+03  0.69152203617E+03  0.46999998093E+01 0.  1.
       -5    1    3    3    0  502  0.30041462959E+03  0.17944069334E+03 -0.11067795680E+04  0.11607889620E+04  0.46999998093E+01 0. -1.
</event>
<event>
 5   0  0.3575091E-04  0.1785404E+04  0.7818609E-02  0.8714100E-01
       -2   -1    0    0    0  501  0.00000000000E+00  0.00000000000E+00  0.34867869826E+03  0.34867869827E+03  0.25500000920E-02 0. -1.
        2   -1    0    0  501    0  0.00000000000E+00  0.00000000000E+00 -0.22855327665E+04  0.22855327665E+04  0.25500000920E-02 0.  1.
    10030    2    1    2    0    0  0.00000000000E+00  0.00000000000E+00 -0.19368540682E+04  0.26342114648E+04  0.17854036965E+04 0.  0.
        5    1    3    3  502    0 -0.83176093615E+02 -0.77527015750E+03 -0.32711786405E+03  0.84557097079E+03  0.46999998093E+01 0. -1.
       -5    1    3    3    0  502  0.83176093615E+02  0.77527015750E+03 -0.16097362042E+04  0.17886404940E+04  0.46999998093E+01 0.  1.
</event>
<event>
 5   0  0.3531266E-04  0.1804442E+04  0.7818609E-02  0.8703941E-01
        2   -1    0    0  501    0  0.00000000000E+00  0.00000000000E+00  0.10802436199E+04  0.10802436199E+04  0.25500000920E-02 0. -1.
       -2   -1    0    0    0  501  0.00000000000E+00  0.00000000000E+00 -0.75353617314E+03  0.75353617314E+03  0.25500000920E-02 0.  1.
    10030    2    1    2    0    0  0.00000000000E+00  0.00000000000E+00  0.32670744677E+03  0.18337797931E+04  0.18044419009E+04 0.  0.
        3    1    3    3  502    0  0.85487696317E+03 -0.12408108878E+03 -0.10124830237E+03  0.86974822086E+03  0.10100000352E+00 0.  1.
       -3    1    3    3    0  502 -0.85487696317E+03  0.12408108878E+03  0.42795574914E+03  0.96403157219E+03  0.10100000352E+00 0. -1.
</event>
<event>
 5   0  0.1883959E-04  0.1826367E+04  0.7818609E-02  0.8692402E-01
        1   -1    0    0  501    0  0.00000000000E+00  0.00000000000E+00  0.10011729261E+04  0.10011729262E+04  0.50400001928E-02 0. -1.
       -1   -1    0    0    0  501  0.00000000000E+00  0.00000000000E+00 -0.83292710524E+03  0.83292710525E+03  0.50400001928E-02 0.  1.
    10030    2    1    2    0    0  0.00000000000E+00  0.00000000000E+00  0.16824582091E+03  0.18341000314E+04  0.18263669590E+04 0.  0.
        5    1    3    3  502    0 -0.46968581113E+03 -0.68725212249E+03  0.46116132170E+03  0.95163653549E+03  0.46999998093E+01 0. -1.
       -5    1    3    3    0  502  0.46968581113E+03  0.68725212249E+03 -0.29291550079E+03  0.88246349593E+03  0.46999998093E+01 0.  1.
</event>
<event>
 5   0  0.1835421E-04  0.1756528E+04  0.7818609E-02  0.8729765E-01
       -1   -1    0    0    0  501  0.00000000000E+00  0.00000000000E+00  0.41979341600E+03  0.41979341603E+03  0.50400001928E-02 0. -1.
        1   -1    0    0  501    0  0.00000000000E+00  0.00000000000E+00 -0.18374467710E+04  0.18374467710E+04  0.50400001928E-02 0.  1.
    10030    2    1    2    0    0  0.00000000000E+00  0.00000000000E+00 -0.14176533550E+04  0.22572401870E+04  0.17565284589E+04 0.  0.
        2    1    3    3  502    0  0.11914706494E+02 -0.87278928965E+03 -0.58393817159E+03  0.10501842184E+04  0.25500000920E-02 0. -1.
       -2    1    3    3    0  502 -0.11914706494E+02  0.87278928965E+03 -0.83371518342E+03  0.12070559686E+04  0.25500000920E-02 0.  1.
</event>
<event>
 5   0  0.3568870E-04  0.1740330E+04  0.7818609E-02  0.8738691E-01
       -2   -1    0    0    0  501  0.00000000000E+00  0.00000000000E+00  0.44816762975E+03  0.44816762976E+03  0.25500000920E-02 0. -1.
        2   -1    0    0  501    0  0.00000000000E+00  0.00000000000E+00 -0.16895177316E+04  0.16895177316E+04  0.25500000920E-02 0.  1.
    10030    2    1    2    0    0  0.00000000000E+00  0.00000000000E+00 -0.12413501018E+04  0.21376853614E+04  0.17403300344E+04 0.  0.
        1    1    3    3  502    0 -0.77838463788E+03 -0.33037574051E+03 -0.36847577374E+03  0.92239100726E+03  0.50400001928E-02 0. -1.
       -1    1    3    3    0  502  0.77838463788E+03  0.33037574051E+03 -0.87287432810E+03  0.12152943541E+04  0.50400001928E-02 0.  1.
</event>
<event>
 5   0  0.1825253E-04  0.1779808E+04  0.7818609E-02  0.8717112E-01
        1   -1    0    0  501    0  0.00000000000E+00  0.00000000000E+00  0.68034697218E+03  0.68034697219E+03  0.50400001928E-02 0.  1.
       -1   -1    0    0    0  501  0.00000000000E+00  0.00000000000E+00 -0.11640071034E+04  0.11640071034E+04  0.50400001928E-02 0. -1.
    10030    2    1    2    0    0  0.00000000000E+00  0.00000000000E+00 -0.48366013121E+03  0.18443540756E+04  0.17798075271E+04 0.  0.
        4    1    3    3  502    0  0.24858921888E+03 -0.50799050577E+03 -0.95382562780E+03  0.11088894872E+04  0.12699999809E+01 0. -1.
       -4    1    3    3    0  502 -0.24858921888E+03  0.50799050577E+03  0.47016549659E+03  0.73546458839E+03  0.12699999809E+01 0.  1.
</event>
<event>
 5   0  0.3531266E-04  0.1623111E+04  0.7818609E-02  0.8806474E-01
       -2   -1    0    0    0  501  0.00000000000E+00  0.00000000000E+00  0.65393759863E+03  0.65393759864E+03  0.25500000920E-02 0. -1.
        2   -1    0    0  501    0  0.00000000000E+00  0.00000000000E+00 -0.10071643054E+04  0.10071643054E+04  0.25500000920E-02 0.  1.
    10030    2    1    2    0    0  0.00000000000E+00  0.00000000000E+00 -0.35322670682E+03  0.16611019041E+04  0.16231113423E+04 0.  0.
        3    1    3    3  502    0 -0.77563273828E+03  0.24883777744E+02 -0.41965288948E+03  0.88223234181E+03  0.10100000352E+00 0.  1.
       -3    1    3    3    0  502  0.77563273828E+03 -0.24883777744E+02  0.66426182666E+02  0.77886956227E+03  0.10100000352E+00 0. -1.
</event>
<event>
 5   0  0.1883959E-04  0.1815082E+04  0.7818609E-02  0.8698320E-01
       -1   -1    0    0    0  501  0.00000000000E+00  0.00000000000E+00  0.68413398404E+03  0.68413398406E+03  0.50400001928E-02 0. -1.
        1   -1    0    0  501    0  0.00000000000E+00  0.00000000000E+00 -0.12039026197E+04  0.12039026197E+04  0.50400001928E-02 0.  1.
    10030    2    1    2    0    0  0.00000000000E+00  0.00000000000E+00 -0.51976863563E+03  0.18880366037E+04  0.18150820319E+04 0.  0.
        5    1    3    3  502    0 -0.49933748026E+03 -0.22203416082E+03 -0.10135556967E+04  0.11515009023E+04  0.46999998093E+01 0.  1.
       -5    1    3    3    0  502  0.49933748026E+03  0.22203416082E+03  0.49378706108E+03  0.73653570140E+03  0.46999998093E+01 0. -1.
</event>
<event>
 5   0  0.1818778E-04  0.1802284E+04  0.7818609E-02  0.8705086E-01
       -1   -1    0    0    0  501  0.00000000000E+00  0.00000000000E+00  0.86442279986E+03  0.86442279988E+03  0.50400001928E-02 0. -1.
        1   -1    0    0  501    0  0.00000000000E+00  0.00000000000E+00 -0.93942106521E+03  0.93942106522E+03  0.50400001928E-02 0.  1.
    10030    2    1    2    0    0  0.00000000000E+00  0.00000000000E+00 -0.74998265345E+02  0.18038438651E+04  0.18022840924E+04 0.  0.
        3    1    3    3  502    0  0.17129152930E+02 -0.89796141631E+03 -0.11124372579E+03  0.90498800532E+03  0.10100000352E+00 0.  1.
       -3    1    3    3    0  502 -0.17129152930E+02  0.89796141631E+03  0.36245460443E+02  0.89885585978E+03  0.10100000352E+00 0. -1.
</event>
<event>
 5   0  0.1883959E-04  0.1799326E+04  0.7818609E-02  0.8706658E-01
        1   -1    0    0  501    0  0.00000000000E+00  0.00000000000E+00  0.52626969255E+03  0.52626969257E+03  0.50400001928E-02 0. -1.
       -1   -1    0    0    0  501  0.00000000000E+00  0.00000000000E+00 -0.15379822663E+04  0.15379822663E+04  0.50400001928E-02 0.  1.
    10030    2    1    2    0    0  0.00000000000E+00  0.00000000000E+00 -0.10117125738E+04  0.20642519589E+04  0.17993259343E+04 0.  0.
        5    1    3    3  502    0  0.92879763707E+02  0.61513505075E+03 -0.12514306348E+04  0.13975401621E+04  0.46999998093E+01 0.  1.
       -5    1    3    3    0  502 -0.92879763707E+02 -0.61513505075E+03  0.23971806099E+03  0.66671179676E+03  0.46999998093E+01 0. -1.
</event>
<event>
 5   0  0.3628581E-04  0.1796367E+04  0.7818609E-02  0.8708234E-01
       -2   -1    0    0    0  501  0.00000000000E+00  0.00000000000E+00  0.49929565743E+03  0.49929565744E+03  0.25500000920E-02 0. -1.
        2   -1    0    0  501    0  0.00000000000E+00  0.00000000000E+00 -0.16157438253E+04  0.16157438253E+04  0.25500000920E-02 0.  1.
    10030    2    1    2    0    0  0.00000000000E+00  0.00000000000E+00 -0.11164481678E+04  0.21150394827E+04  0.17963673071E+04 0.  0.
        2    1    3    3  502    0  0.72847836370E+03  0.31501431734E+03 -0.10533184222E+04  0.13188610409E+04  0.25500000920E-02 0.  1.
       -2    1    3    3    0  502 -0.72847836370E+03 -0.31501431734E+03 -0.63129745635E+02  0.79617844187E+03  0.25500000920E-02 0. -1.
</event>
<event>
 5   0  0.3575091E-04  0.1821021E+04  0.7818609E-02  0.8695200E-01
        2   -1    0    0  501    0  0.00000000000E+00  0.00000000000E+00  0.19362485615E+04  0.19362485615E+04  0.25500000920E-02 0. -1.
       -2   -1    0    0    0  501  0.00000000000E+00  0.00000000000E+00 -0.42816245784E+03  0.42816245785E+03  0.25500000920E-02 0.  1.
    10030    2    1    2    0    0  0.00000000000E+00  0.00000000000E+00  0.15080861037E+04  0.23644110194E+04  0.18210205305E+04 0.  0.
        5    1    3    3  502    0  0.70943821675E+03  0.52824957666E+02  0.16221340159E+02  0.71160261481E+03  0.46999998093E+01 0.  1.
       -5    1    3    3    0  502 -0.70943821675E+03 -0.52824957666E+02  0.14918647635E+04  0.16528084045E+04  0.46999998093E+01 0. -1.
</event>
<event>
 5   0  0.1825253E-04  0.1794040E+04  0.7818609E-02  0.8709475E-01
       -1   -1    0    0    0  501  0.00000000000E+00  0.00000000000E+00  0.88155334077E+03  0.88155334079E+03  0.50400001928E-02 0. -1.
        1   -1    0    0  501    0  0.00000000000E+00  0.00000000000E+00 -0.91275803566E+03  0.91275803567E+03  0.50400001928E-02 0.  1.
    10030    2    1    2    0    0  0.00000000000E+00  0.00000000000E+00 -0.31204694885E+02  0.17943113765E+04  0.17940400170E+04 0.  0.
        4    1    3    3  502    0  0.78732709429E+03 -0.32618279224E+03  0.26437590763E+03  0.89228661359E+03  0.12699999809E+01 0. -1.
       -4    1    3    3    0  502 -0.78732709429E+03  0.32618279224E+03 -0.29558060251E+03  0.90202476287E+03  0.12699999809E+01 0.  1.
</event>
<event>
 5   0  0.3582186E-04  0.1826200E+04  0.7818609E-02  0.8692489E-01
       -2   -1    0    0    0  501  0.00000000000E+00  0.00000000000E+00  0.55557992277E+03  0.55557992278E+03  0.25500000920E-02 0. -1.
        2   -1    0    0  501    0  0.00000000000E+00  0.00000000000E+00 -0.15006873917E+04  0.15006873917E+04  0.25500000920E-02 0.  1.
    10030    2    1    2    0    0  0.00000000000E+00  0.00000000000E+00 -0.94510746889E+03  0.20562673144E+04  0.18262001918E+04 0.  0.
        4    1    3    3  502    0 -0.24724829524E+02  0.56218511943E+03  0.33712529526E+03  0.65598666397E+03  0.12699999809E+01 0. -1.
       -4    1    3    3    0  502  0.24724829524E+02 -0.56218511943E+03 -0.12822327642E+04  0.14002806505E+04  0.12699999809E+01 0.  1.
</event>
<event>
 5   0  0.1883959E-04  0.1715199E+04  0.7818609E-02  0.8752743E-01
       -1   -1    0    0    0  501  0.00000000000E+00  0.00000000000E+00  0.56165469844E+03  0.56165469846E+03  0.50400001928E-02 0. -1.
        1   -1    0    0  501    0  0.00000000000E+00  0.00000000000E+00 -0.13094825103E+04  0.13094825103E+04  0.50400001928E-02 0.  1.
    10030    2    1    2    0    0  0.00000000000E+00  0.00000000000E+00 -0.74782781184E+03  0.18711372088E+04  0.17151991190E+04 0.  0.
        5    1    3    3  502    0 -0.23945932903E+03 -0.60779269141E+03 -0.98003715741E+03  0.11778147757E+04  0.46999998093E+01 0.  1.
       -5    1    3    3    0  502  0.23945932903E+03  0.60779269141E+03  0.23220934557E+03  0.69332243304E+03  0.46999998093E+01 0. -1.
</event>
<event>
 5   0  0.3628581E-04  0.1715815E+04  0.7818609E-02  0.8752396E-01
        2   -1    0    0  501    0  0.00000000000E+00  0.00000000000E+00  0.98033979050E+03  0.98033979050E+03  0.25500000920E-02 0.  1.
       -2   -1    0    0    0  501  0.00000000000E+00  0.00000000000E+00 -0.75076551743E+03  0.75076551744E+03  0.25500000920E-02 0. -1.
    10030    2    1    2    0    0  0.00000000000E+00  0.00000000000E+00  0.22957427306E+03  0.17311053079E+04  0.17158150367E+04 0.  0.
        2    1    3    3  502    0 -0.19200121726E+03  0.40383899518E+03 -0.62389510282E+03  0.76759071177E+03  0.25500000920E-02 0. -1.
       -2    1    3    3    0  502  0.19200121726E+03 -0.40383899518E+03  0.85346937589E+03  0.96351459617E+03  0.25500000920E-02 0.  1.
</event>
<event>
 5   0  0.3531266E-04  0.1810984E+04  0.7818609E-02  0.8700480E-01
        2   -1    0    0  501    0  0.00000000000E+00  0.00000000000E+00  0.12403279805E+04  0.12403279805E+04  0.25500000920E-02 0.  1.
       -2   -1    0    0    0  501  0.00000000000E+00  0.00000000000E+00 -0.66104758716E+03  0.66104758716E+03  0.25500000920E-02 0. -1.
    10030    2    1    2    0    0  0.00000000000E+00  0.00000000000E+00  0.57928039339E+03  0.19013755677E+04  0.18109840627E+04 0.  0.
        3    1    3    3  502    0  0.40883685717E+03 -0.18024164096E+02  0.11376965054E+04  0.12090598806E+04  0.10100000352E+00 0.  1.
       -3    1    3    3    0  502 -0.40883685717E+03  0.18024164096E+02 -0.55841611201E+03  0.69231568712E+03  0.10100000352E+00 0. -1.
</event>
<event>
 5   0  0.1835421E-04  0.1816327E+04  0.7818609E-02  0.8697665E-01
       -1   -1    0    0    0  501  0.00000000000E+00  0.00000000000E+00  0.10578344057E+04  0.10578344057E+04  0.50400001928E-02 0. -1.
        1   -1    0    0  501    0  0.00000000000E+00  0.00000000000E+00 -0.77966898199E+03  0.77966898200E+03  0.50400001928E-02 0.  1.
    10030    2    1    2    0    0  0.00000000000E+00  0.00000000000E+00  0.27816542367E+03  0.18375033877E+04  0.18163267043E+04 0.  0.
        2    1    3    3  502    0 -0.15061989897E+03  0.85335480156E+03  0.41402310313E+03  0.96037279285E+03  0.25500000920E-02 0. -1.
       -2    1    3    3    0  502  0.15061989897E+03 -0.85335480156E+03 -0.13585767946E+03  0.87713059483E+03  0.25500000920E-02 0.  1.
</event>
<event>
 5   0  0.1883959E-04  0.1829197E+04  0.7818609E-02  0.8690925E-01
       -1   -1    0    0    0  501  0.00000000000E+00  0.00000000000E+00  0.74259980305E+03  0.74259980306E+03  0.50400001928E-02 0.  1.
        1   -1    0    0  501    0  0.00000000000E+00  0.00000000000E+00 -0.11264352751E+04  0.11264352751E+04  0.50400001928E-02 0. -1.
    10030    2    1    2    0    0  0.00000000000E+00  0.00000000000E+00 -0.38383547205E+03  0.18690350782E+04  0.18291972157E+04 0.  0.
        5    1    3    3  502    0  0.38573342681E+02  0.39392774910E+03  0.65053975368E+03  0.76150576846E+03  0.46999998093E+01 0.  1.
       -5    1    3    3    0  502 -0.38573342681E+02 -0.39392774910E+03 -0.10343752257E+04  0.11075293097E+04  0.46999998093E+01 0. -1.
</event>
<event>
 5   0  0.3531266E-04  0.1783956E+04  0.7818609E-02  0.8714878E-01
       -2   -1    0    0    0  501  0.00000000000E+00  0.00000000000E+00  0.12976241709E+04  0.12976241709E+04  0.25500000920E-02 0.  1.
        2   -1    0    0  501    0  0.00000000000E+00  0.00000000000E+00 -0.61313990094E+03  0.61313990095E+03  0.25500000920E-02 0. -1.
    10030    2    1    2    0    0  0.00000000000E+00  0.00000000000E+00  0.68448426992E+03  0.19107640718E+04  0.17839564519E+04 0.  0.
        3    1    3    3  502    0  0.78657077606E+03  0.40165045510E+03  0.20842768708E+03  0.90744629856E+03  0.10100000352E+00 0. -1.
       -3    1    3    3    0  502 -0.78657077606E+03 -0.40165045510E+03  0.47605658284E+03  0.10033177732E+04  0.10100000352E+00 0.  1.
</event>
<event>
 5   0  0.3531266E-04  0.1782169E+04  0.7818609E-02  0.8715840E-01
        2   -1    0    0  501    0  0.00000000000E+00  0.00000000000E+00  0.23542663948E+04  0.23542663948E+04  0.25500000920E-02 0. -1.
       -2   -1    0    0    0  501  0.00000000000E+00  0.00000000000E+00 -0.33727328942E+03  0.33727328943E+03  0.25500000920E-02 0.  1.
    10030    2    1    2    0    0  0.00000000000E+00  0.00000000000E+00  0.20169931054E+04  0.26915396843E+04  0.17821685343E+04 0.  0.
        3    1    3    3  502    0  0.37108726087E+03 -0.17966297461E+03  0.22015517418E+04  0.22398246855E+04  0.10100000352E+00 0. -1.
       -3    1    3    3    0  502 -0.37108726087E+03  0.17966297461E+03 -0.18455863642E+03  0.45171499876E+03  0.10100000352E+00 0.  1.
</event>
<event>
 5   0  0.3628581E-04  0.1772920E+04  0.7818609E-02  0.8720834E-01
       -2   -1    0    0    0  501  0.00000000000E+00  0.00000000000E+00  0.83203125751E+03  0.83203125752E+03  0.25500000920E-02 0.  1.
        2   -1    0    0  501    0  0.00000000000E+00  0.00000000000E+00 -0.94444915269E+03  0.94444915270E+03  0.25500000920E-02 0. -1.
    10030    2    1    2    0    0  0.00000000000E+00  0.00000000000E+00 -0.11241789518E+03  0.17764804102E+04  0.17729198698E+04 0.  0.
        2    1    3    3  502    0 -0.77628751993E+03  0.53973202745E+01 -0.48504013438E+03  0.91537717725E+03  0.25500000920E-02 0. -1.
       -2    1    3    3    0  502  0.77628751993E+03 -0.53973202745E+01  0.37262223920E+03  0.86110323296E+03  0.25500000920E-02 0.  1.
</event>
<event>
 5   0  0.1837313E-04  0.1761161E+04  0.7818609E-02  0.8727230E-01
        1   -1    0    0  501    0  0.00000000000E+00  0.00000000000E+00  0.75248792245E+03  0.75248792246E+03  0.50400001928E-02 0. -1.
       -1   -1    0    0    0  501  0.00000000000E+00  0.00000000000E+00 -0.10304781759E+04  0.10304781759E+04  0.50400001928E-02 0.  1.
    10030    2    1    2    0    0  0.00000000000E+00  0.00000000000E+00 -0.27799025345E+03  0.17829660984E+04  0.17611614142E+04 0.  0.
        1    1    3    3  502    0 -0.52463496554E+03 -0.60515517001E+03  0.23155252322E+03  0.83370930059E+03  0.50400001928E-02 0. -1.
       -1    1    3    3    0  502  0.52463496554E+03  0.60515517001E+03 -0.50954277667E+03  0.94925679779E+03  0.50400001928E-02 0.  1.
</event>
<event>
 5   0  0.3582186E-04  0.1750414E+04  0.7818609E-02  0.8733122E-01
       -2   -1    0    0    0  501  0.00000000000E+00  0.00000000000E+00  0.62737746499E+03  0.62737746499E+03  0.25500000920E-02 0. -1.
        2   -1    0    0  501    0  0.00000000000E+00  0.00000000000E+00 -0.12209354140E+04  0.12209354140E+04  0.25500000920E-02 0.  1.
    10030    2    1    2    0    0  0.00000000000E+00  0.00000000000E+00 -0.59355794897E+03  0.18483128789E+04  0.17504140824E+04 0.  0.
        4    1    3    3  502    0  0.14107774874E+03 -0.70100429779E+03 -0.82965787744E+03  0.10952825038E+04  0.12699999809E+01 0.  1.
       -4    1    3    3    0  502 -0.14107774874E+03  0.70100429779E+03  0.23609992847E+03  0.75303037511E+03  0.12699999809E+01 0. -1.
</event>
<event>
 5   0  0.3531266E-04  0.1796750E+04  0.7818609E-02  0.8708030E-01
        2   -1    0    0  501    0  0.00000000000E+00  0.00000000000E+00  0.71645453461E+03  0.71645453461E+03  0.25500000920E-02 0.  1.
       -2   -1    0    0    0  501  0.00000000000E+00  0.00000000000E+00 -0.11264881200E+04  0.11264881200E+04  0.25500000920E-02 0. -1.
    10030    2    1    2    0    0  0.00000000000E+00  0.00000000000E+00 -0.41003358537E+03  0.18429426546E+04  0.17967498677E+04 0.  0.
        3    1    3    3  502    0 -0.29621358075E+03  0.71449363455E+03  0.26371528018E+03  0.81718382170E+03  0.10100000352E+00 0.  1.
       -3    1    3    3    0  502  0.29621358075E+03 -0.71449363455E+03 -0.67374886554E+03  0.10257588329E+04  0.10100000352E+00 0. -1.
</event>
<event>
 5   0  0.1835421E-04  0.1803028E+04  0.7818609E-02  0.8704691E-01
        1   -1    0    0  501    0  0.00000000000E+00  0.00000000000E+00  0.95240237921E+03  0.95240237922E+03  0.50400001928E-02 0. -1.
       -1   -1    0    0    0  501  0.00000000000E+00  0.00000000000E+00 -0.85334435298E+03  0.85334435299E+03  0.50400001928E-02 0.  1.
    10030    2    1    2    0    0  0.00000000000E+00  0.00000000000E+00  0.99058026233E+02  0.18057467322E+04  0.18030276671E+04 0.  0.
        2    1    3    3  502    0 -0.50085034586E+03 -0.61663141391E+03  0.47636632096E+03  0.92628842232E+03  0.25500000920E-02 0.  1.
       -2    1    3    3    0  502  0.50085034586E+03  0.61663141391E+03 -0.37730829473E+03  0.87945830990E+03  0.25500000920E-02 0. -1.
</event>
<event>
 5   0  0.1837313E-04  0.1808546E+04  0.7818609E-02  0.8701768E-01
       -1   -1    0    0    0  501  0.00000000000E+00  0.00000000000E+00  0.90558757588E+03  0.90558757589E+03  0.50400001928E-02 0.  1.
        1   -1    0    0  501    0  0.00000000000E+00  0.00000000000E+00 -0.90296066479E+03  0.90296066481E+03  0.50400001928E-02 0. -1.
    10030    2    1    2    0    0  0.00000000000E+00  0.00000000000E+00  0.26269110862E+01  0.18085482407E+04  0.18085463329E+04 0.  0.
        1    1    3    3  502    0 -0.35995039534E+02  0.28734854151E+03  0.85796197191E+03  0.90551839984E+03  0.50400001928E-02 0.  1.
       -1    1    3    3    0  502  0.35995039534E+02 -0.28734854151E+03 -0.85533506083E+03  0.90302984086E+03  0.50400001928E-02 0. -1.
</event>
<event>
 5   0  0.3568870E-04  0.1761189E+04  0.7818609E-02  0.8727215E-01
        2   -1    0    0  501    0  0.00000000000E+00  0.00000000000E+00  0.15285833534E+04  0.15285833534E+04  0.25500000920E-02 0.  1.
       -2   -1    0    0    0  501  0.00000000000E+00  0.00000000000E+00 -0.50729784108E+03  0.50729784109E+03  0.25500000920E-02 0. -1.
    10030    2    1    2    0    0  0.00000000000E+00  0.00000000000E+00  0.10212855123E+04  0.20358811945E+04  0.17611894107E+04 0.  0.
        1    1    3    3  502    0 -0.70601665465E+03  0.49099499456E+03  0.72970258168E+03  0.11278304212E+04  0.50400001928E-02 0.  1.
       -1    1    3    3    0  502  0.70601665465E+03 -0.49099499456E+03  0.29158293061E+03  0.90805077323E+03  0.50400001928E-02 0. -1.
</event>
<event>
 5   0  0.1883959E-04  0.1867923E+04  0.7818609E-02  0.8670990E-01
        1   -1    0    0  501    0  0.00000000000E+00  0.00000000000E+00  0.72043919717E+03  0.72043919719E+03  0.50400001928E-02 0.  1.
       -1   -1    0    0    0  501  0.00000000000E+00  0.00000000000E+00 -0.12107664817E+04  0.12107664818E+04  0.50400001928E-02 0. -1.
    10030    2    1    2    0    0  0.00000000000E+00  0.00000000000E+00 -0.49032728457E+03  0.19312056789E+04  0.18679225167E+04 0.  0.
        5    1    3    3  502    0  0.62747463149E+03 -0.47544407294E+03  0.27434385256E+03  0.83370145681E+03  0.46999998093E+01 0.  1.
       -5    1    3    3    0  502 -0.62747463149E+03  0.47544407294E+03 -0.76467113712E+03  0.10975042221E+04  0.46999998093E+01 0. -1.
</event>
<event>
 5   0  0.1825253E-04  0.1817742E+04  0.7818609E-02  0.8696921E-01
       -1   -1    0    0    0  501  0.00000000000E+00  0.00000000000E+00  0.69764246754E+03  0.69764246756E+03  0.50400001928E-02 0.  1.
        1   -1    0    0  501    0  0.00000000000E+00  0.00000000000E+00 -0.11840543861E+04  0.11840543861E+04  0.50400001928E-02 0. -1.
    10030    2    1    2    0    0  0.00000000000E+00  0.00000000000E+00 -0.48641191852E+03  0.18816968536E+04  0.18177421419E+04 0.  0.
        4    1    3    3  502    0 -0.65779744990E+03  0.48177255122E+03 -0.65888436165E+03  0.10482998098E+04  0.12699999809E+01 0. -1.
       -4    1    3    3    0  502  0.65779744990E+03 -0.48177255122E+03  0.17247244314E+03  0.83339704388E+03  0.12699999809E+01 0.  1.
</event>
<event>
 5   0  0.3531266E-04  0.1774793E+04  0.7818609E-02  0.8719820E-01
       -2   -1    0    0    0  501  0.00000000000E+00  0.00000000000E+00  0.59962134839E+03  0.59962134839E+03  0.25500000920E-02 0. -1.
        2   -1    0    0  501    0  0.00000000000E+00  0.00000000000E+00 -0.13132827245E+04  0.13132827245E+04  0.25500000920E-02 0.  1.
    10030    2    1    2    0    0  0.00000000000E+00  0.00000000000E+00 -0.71366137616E+03  0.19129040729E+04  0.17747927858E+04 0.  0.
        3    1    3    3  502    0  0.43208627883E+03  0.43469110131E+03 -0.10484990416E+04  0.12144979029E+04  0.10100000352E+00 0.  1.
       -3    1    3    3    0  502 -0.43208627883E+03 -0.43469110131E+03  0.33483766540E+03  0.69840616999E+03  0.10100000352E+00 0. -1.
</event>
<event>
 5   0  0.1825253E-04  0.1650374E+04  0.7818609E-02  0.8790185E-01
       -1   -1    0    0    0  501  0.00000000000E+00  0.00000000000E+00  0.79133179927E+03  0.79133179928E+03  0.50400001928E-02 0.  1.
        1   -1    0    0  501    0  0.00000000000E+00  0.00000000000E+00 -0.86049067487E+03  0.86049067488E+03  0.50400001928E-02 0. -1.
    10030    2    1    2    0    0  0.00000000000E+00  0.00000000000E+00 -0.69158875598E+02  0.16518224742E+04  0.16503740594E+04 0.  0.
        4    1    3    3  502    0  0.38320637045E+03  0.37329332914E+03  0.59425293876E+03  0.79958314143E+03  0.12699999809E+01 0.  1.
       -4    1    3    3    0  502 -0.38320637045E+03 -0.37329332914E+03 -0.66341181435E+03  0.85223933274E+03  0.12699999809E+01 0. -1.
</event>
<event>
 5   0  0.1837313E-04  0.1623807E+04  0.7818609E-02  0.8806055E-01
        1   -1    0    0  501    0  0.00000000000E+00  0.00000000000E+00  0.10309000305E+04  0.10309000305E+04  0.50400001928E-02 0.  1.
       -1   -1    0    0    0  501  0.00000000000E+00  0.00000000000E+00 -0.63942862643E+03  0.63942862645E+03  0.50400001928E-02 0. -1.
    10030    2    1    2    0    0  0.00000000000E+00  0.00000000000E+00  0.39147140409E+03  0.16703286570E+04  0.16238066271E+04 0.  0.
        1    1    3    3  502    0  0.24117476473E+03 -0.43066852466E+03  0.85883314950E+03  0.99057307857E+03  0.50400001928E-02 0.  1.
       -1    1    3    3    0  502 -0.24117476473E+03  0.43066852466E+03 -0.46736174541E+03  0.67975557841E+03  0.50400001928E-02 0. -1.
</event>
<event>
 5   0  0.1835421E-04  0.1757859E+04  0.7818609E-02  0.8729036E-01
        1   -1    0    0  501    0  0.00000000000E+00  0.00000000000E+00  0.12544534530E+04  0.12544534530E+04  0.50400001928E-02 0. -1.
       -1   -1    0    0    0  501  0.00000000000E+00  0.00000000000E+00 -0.61581940543E+03  0.61581940545E+03  0.50400001928E-02 0.  1.
    10030    2    1    2    0    0  0.00000000000E+00  0.00000000000E+00  0.63863404756E+03  0.18702728585E+04  0.17578586742E+04 0.  0.
        2    1    3    3  502    0 -0.14584833348E+03 -0.20849175279E+03 -0.57577771064E+03  0.62949227115E+03  0.25500000920E-02 0.  1.
       -2    1    3    3    0  502  0.14584833348E+03  0.20849175279E+03  0.12144117582E+04  0.12407805873E+04  0.25500000920E-02 0. -1.
</event>
<event>
 5   0  0.3568870E-04  0.1803402E+04  0.7818609E-02  0.8704492E-01
       -2   -1    0    0    0  501  0.00000000000E+00  0.00000000000E+00  0.13614006830E+04  0.13614006830E+04  0.25500000920E-02 0.  1.
        2   -1    0    0  501    0  0.00000000000E+00  0.00000000000E+00 -0.59722686362E+03  0.59722686362E+03  0.25500000920E-02 0. -1.
    10030    2    1    2    0    0  0.00000000000E+00  0.00000000000E+00  0.76417381937E+03  0.19586275466E+04  0.18034024066E+04 0.  0.
        1    1    3    3  502    0  0.35230472130E+03 -0.76743023845E+03  0.38644999870E+02  0.84531723251E+03  0.50400001928E-02 0.  1.
       -1    1    3    3    0  502 -0.35230472130E+03  0.76743023845E+03  0.72552881950E+03  0.11133103141E+04  0.50400001928E-02 0. -1.
</event>
<event>
 5   0  0.1883959E-04  0.1827073E+04  0.7818609E-02  0.8692033E-01
        1   -1    0    0  501    0  0.00000000000E+00  0.00000000000E+00  0.24779965184E+04  0.24779965184E+04  0.50400001928E-02 0. -1.
       -1   -1    0    0    0  501  0.00000000000E+00  0.00000000000E+00 -0.33678371112E+03  0.33678371116E+03  0.50400001928E-02 0.  1.
    10030    2    1    2    0    0  0.00000000000E+00  0.00000000000E+00  0.21412128073E+04  0.28147802295E+04  0.18270729199E+04 0.  0.
        5    1    3    3  502    0 -0.24470691839E+03 -0.43962746691E+03 -0.10406402542E+03  0.51381436041E+03  0.46999998093E+01 0.  1.
       -5    1    3    3    0  502  0.24470691839E+03  0.43962746691E+03  0.22452768327E+04  0.23009658691E+04  0.46999998093E+01 0. -1.
</event>
<event>
 5   0  0.3531266E-04  0.1816917E+04  0.7818609E-02  0.8697354E-01
        2   -1    0    0  501    0  0.00000000000E+00  0.00000000000E+00  0.98056173276E+03  0.98056173277E+03  0.25500000920E-02 0. -1.
       -2   -1    0    0    0  501  0.00000000000E+00  0.00000000000E+00 -0.84165752484E+03  0.84165752484E+03  0.25500000920E-02 0.  1.
    10030    2    1    2    0    0  0.00000000000E+00  0.00000000000E+00  0.13890420792E+03  0.18222192576E+04  0.18169173465E+04 0.  0.
        3    1    3    3  502    0  0.33351076459E+03  0.76410117288E+03  0.43136120190E+03  0.93869725109E+03  0.10100000352E+00 0. -1.
       -3    1    3    3    0  502 -0.33351076459E+03 -0.76410117288E+03 -0.29245699397E+03  0.88352200653E+03  0.10100000352E+00 0.  1.
</event>
<event>
 5   0  0.3628581E-04  0.1814246E+04  0.7818609E-02  0.8698760E-01
        2   -1    0    0  501    0  0.00000000000E+00  0.00000000000E+00  0.71643682232E+03  0.71643682232E+03  0.25500000920E-02 0.  1.
       -2   -1    0    0    0  501  0.00000000000E+00  0.00000000000E+00 -0.11485617937E+04  0.11485617937E+04  0.25500000920E-02 0. -1.
    10030    2    1    2    0    0  0.00000000000E+00  0.00000000000E+00 -0.43212497141E+03  0.18649986161E+04  0.18142458067E+04 0.  0.
        2    1    3    3  502    0  0.10318951217E+03 -0.81232029278E+02  0.70661286582E+03  0.71871305829E+03  0.25500000920E-02 0.  1.
       -2    1    3    3    0  502 -0.10318951217E+03  0.81232029278E+02 -0.11387378372E+04  0.11462855578E+04  0.25500000920E-02 0. -1.
</event>
<event>
 5   0  0.3582186E-04  0.1792299E+04  0.7818609E-02  0.8710406E-01
       -2   -1    0    0    0  501  0.00000000000E+00  0.00000000000E+00  0.69429186047E+03  0.69429186047E+03  0.25500000920E-02 0. -1.
        2   -1    0    0  501    0  0.00000000000E+00  0.00000000000E+00 -0.11566949207E+04  0.11566949207E+04  0.25500000920E-02 0.  1.
    10030    2    1    2    0    0  0.00000000000E+00  0.00000000000E+00 -0.46240306023E+03  0.18509867812E+04  0.17922989354E+04 0.  0.
        4    1    3    3  502    0  0.24990346813E+03 -0.61174841873E+03  0.39392405607E+03  0.76932804839E+03  0.12699999809E+01 0. -1.
       -4    1    3    3    0  502 -0.24990346813E+03  0.61174841873E+03 -0.85632711630E+03  0.10816587328E+04  0.12699999809E+01 0.  1.
</event>
<event>
 5   0  0.3531266E-04  0.1795296E+04  0.7818609E-02  0.8708805E-01
       -2   -1    0    0    0  501  0.00000000000E+00  0.00000000000E+00  0.11135806648E+04  0.11135806648E+04  0.25500000920E-02 0. -1.
        2   -1    0    0  501    0  0.00000000000E+00  0.00000000000E+00 -0.72358663971E+03  0.72358663972E+03  0.25500000920E-02 0.  1.
    10030    2    1    2    0    0  0.00000000000E+00  0.00000000000E+00  0.38999402507E+03  0.18371673045E+04  0.17952961776E+04 0.  0.
        3    1    3    3  502    0 -0.96933466016E+02 -0.75332017833E+03  0.68457397848E+03  0.10225110905E+04  0.10100000352E+00 0. -1.
       -3    1    3    3    0  502  0.96933466016E+02  0.75332017833E+03 -0.29457995341E+03  0.81465621404E+03  0.10100000352E+00 0.  1.
</event>
<event>
 5   0  0.1837313E-04  0.1790401E+04  0.7818609E-02  0.8711421E-01
       -1   -1    0    0    0  501  0.00000000000E+00  0.00000000000E+00  0.12008311831E+04  0.12008311832E+04  0.50400001928E-02 0.  1.
        1   -1    0    0  501    0  0.00000000000E+00  0.00000000000E+00 -0.66735785543E+03  0.66735785545E+03  0.50400001928E-02 0. -1.
    10030    2    1    2    0    0  0.00000000000E+00  0.00000000000E+00  0.53347332771E+03  0.18681890386E+04  0.17904012099E+04 0.  0.
        1    1    3    3  502    0 -0.20448791317E+02 -0.42472376708E+03 -0.55525580195E+03  0.69936931375E+03  0.50400001928E-02 0. -1.
       -1    1    3    3    0  502  0.20448791317E+02  0.42472376708E+03  0.10887291297E+04  0.11688197248E+04  0.50400001928E-02 0.  1.
</event>
<event>
 5   0  0.1883959E-04  0.1817798E+04  0.7818609E-02  0.8696892E-01
       -1   -1    0    0    0  501  0.00000000000E+00  0.00000000000E+00  0.10429708611E+04  0.10429708611E+04  0.50400001928E-02 0. -1.
        1   -1    0    0  501    0  0.00000000000E+00  0.00000000000E+00 -0.79206186869E+03  0.79206186871E+03  0.50400001928E-02 0.  1.
    10030    2    1    2    0    0  0.00000000000E+00  0.00000000000E+00  0.25090899239E+03  0.18350327298E+04  0.18177980628E+04 0.  0.
        5    1    3    3  502    0  0.15983717342E+03  0.59639829430E+03 -0.54782965546E+03  0.82545640034E+03  0.46999998093E+01 0.  1.
       -5    1    3    3    0  502 -0.15983717342E+03 -0.59639829430E+03  0.79873864785E+03  0.10095763295E+04  0.46999998093E+01 0. -1.
</event>
<event>
 5   0  0.1330125E-04  0.1758406E+04  0.7818609E-02  0.8728737E-01
        3   -1    0    0  501    0  0.00000000000E+00  0.00000000000E+00  0.80981407379E+03  0.80981408009E+03  0.10100000352E+00 0.  1.
       -3   -1    0    0    0  501  0.00000000000E+00  0.00000000000E+00 -0.95453741247E+03  0.95453741781E+03  0.10100000352E+00 0. -1.
    10030    2    1    2    0    0  0.00000000000E+00  0.00000000000E+00 -0.14472333868E+03  0.17643514979E+04  0.17584059154E+04 0.  0.
        4    1    3    3  502    0 -0.75904915388E+03  0.33684738131E+03 -0.36208433322E+03  0.90594064572E+03  0.12699999809E+01 0. -1.
       -4    1    3    3    0  502  0.75904915388E+03 -0.33684738131E+03  0.21736099453E+03  0.85841085218E+03  0.12699999809E+01 0.  1.
</event>
<event>
 5   0  0.3582186E-04  0.1815772E+04  0.7818609E-02  0.8697957E-01
       -2   -1    0    0    0  501  0.00000000000E+00  0.00000000000E+00  0.11907135464E+04  0.11907135464E+04  0.25500000920E-02 0.  1.
        2   -1    0    0  501    0  0.00000000000E+00  0.00000000000E+00 -0.69223758227E+03  0.69223758228E+03  0.25500000920E-02 0. -1.
    10030    2    1    2    0    0  0.00000000000E+00  0.00000000000E+00  0.49847596415E+03  0.18829511287E+04  0.18157716449E+04 0.  0.
        4    1    3    3  502    0  0.11657405490E+01  0.64892879993E+03  0.90766632151E+03  0.11157821071E+04  0.12699999809E+01 0.  1.
       -4    1    3    3    0  502 -0.11657405490E+01 -0.64892879993E+03 -0.40919035736E+03  0.76716902165E+03  0.12699999809E+01 0. -1.
</event>
<event>
 5   0  0.3628581E-04  0.1688061E+04  0.7818609E-02  0.8768203E-01
       -2   -1    0    0    0  501  0.00000000000E+00  0.00000000000E+00  0.30215385101E+04  0.30215385101E+04  0.25500000920E-02 0. -1.
        2   -1    0    0  501    0  0.00000000000E+00  0.00000000000E+00 -0.23576982166E+03  0.23576982167E+03  0.25500000920E-02 0.  1.
    10030    2    1    2    0    0  0.00000000000E+00  0.00000000000E+00  0.27857686885E+04  0.32573083318E+04  0.16880611312E+04 0.  0.
        2    1    3    3  502    0  0.55304626187E+03  0.15125753265E+03  0.19769282882E+03  0.60648286334E+03  0.25500000920E-02 0.  1.
       -2    1    3    3    0  502 -0.55304626187E+03 -0.15125753265E+03  0.25880758596E+04  0.26508254684E+04  0.25500000920E-02 0. -1.
</event>
<event>
 5   0  0.1835421E-04  0.1800493E+04  0.7818609E-02  0.8706037E-01
        1   -1    0    0  501    0  0.00000000000E+00  0.00000000000E+00  0.16763992874E+04  0.16763992874E+04  0.50400001928E-02 0. -1.
       -1   -1    0    0    0  501  0.00000000000E+00  0.00000000000E+00 -0.48344303342E+03  0.48344303344E+03  0.50400001928E-02 0.  1.
    10030    2    1    2    0    0  0.00000000000E+00  0.00000000000E+00  0.11929562540E+04  0.21598423209E+04  0.18004927734E+04 0.  0.
        2    1    3    3  502    0 -0.14469875152E+02  0.33788688835E+03  0.15972983471E+04  0.16327090789E+04  0.25500000920E-02 0. -1.
       -2    1    3    3    0  502  0.14469875152E+02 -0.33788688835E+03 -0.40434209307E+03  0.52713324202E+03  0.25500000920E-02 0.  1.
</event>
<event>
 5   0  0.1330125E-04  0.1789781E+04  0.7818609E-02  0.8711753E-01
       -4   -1    0    0    0  501  0.00000000000E+00  0.00000000000E+00  0.10970570385E+04  0.10970577736E+04  0.12699999809E+01 0.  1.
        4   -1    0    0  501    0  0.00000000000E+00  0.00000000000E+00 -0.72997769184E+03  0.72997879659E+03  0.12699999809E+01 0. -1.
    10030    2    1    2    0    0  0.00000000000E+00  0.00000000000E+00  0.36707934662E+03  0.18270365702E+04  0.17897808195E+04 0.  0.
        2    1    3    3  502    0  0.45731631683E+03  0.17919685133E+02  0.96855268963E+03  0.10712393016E+04  0.25500000920E-02 0.  1.
       -2    1    3    3    0  502 -0.45731631683E+03 -0.17919685133E+02 -0.60147334301E+03  0.75579726853E+03  0.25500000920E-02 0. -1.
</event>
<event>
 5   0  0.3568870E-04  0.1806581E+04  0.7818609E-02  0.8702808E-01
        2   -1    0    0  501    0  0.00000000000E+00  0.00000000000E+00  0.70684206612E+03  0.70684206613E+03  0.25500000920E-02 0. -1.
       -2   -1    0    0    0  501  0.00000000000E+00  0.00000000000E+00 -0.11543368208E+04  0.11543368208E+04  0.25500000920E-02 0.  1.
    10030    2    1    2    0    0  0.00000000000E+00  0.00000000000E+00 -0.44749475465E+03  0.18611788869E+04  0.18065811063E+04 0.  0.
        1    1    3    3  502    0  0.39988407338E+03  0.37911272906E+03  0.51363519554E+03  0.75329598937E+03  0.50400001928E-02 0. -1.
       -1    1    3    3    0  502 -0.39988407338E+03 -0.37911272906E+03 -0.96112995019E+03  0.11078828975E+04  0.50400001928E-02 0.  1.
</event>
<event>
 5   0  0.1825253E-04  0.1791623E+04  0.7818609E-02  0.8710767E-01
        1   -1    0    0  501    0  0.00000000000E+00  0.00000000000E+00  0.15629506700E+04  0.15629506701E+04  0.50400001928E-02 0. -1.
       -1   -1    0    0    0  501  0.00000000000E+00  0.00000000000E+00 -0.51343774282E+03  0.51343774285E+03  0.50400001928E-02 0.  1.
    10030    2    1    2    0    0  0.00000000000E+00  0.00000000000E+00  0.10495129272E+04  0.20763884129E+04  0.17916225766E+04 0.  0.
        4    1    3    3  502    0 -0.77113857227E+03 -0.45586903465E+03  0.52217097745E+03  0.10368873695E+04  0.12699999809E+01 0.  1.
       -4    1    3    3    0  502  0.77113857227E+03  0.45586903465E+03  0.52734194978E+03  0.10395010434E+04  0.12699999809E+01 0. -1.
</event>
<event>
 5   0  0.1883959E-04  0.1787231E+04  0.7818609E-02  0.8713120E-01
        1   -1    0    0  501    0  0.00000000000E+00  0.00000000000E+00  0.92706485316E+03  0.92706485318E+03  0.50400001928E-02 0.  1.
       -1   -1    0    0    0  501  0.00000000000E+00  0.00000000000E+00 -0.86137266075E+03  0.86137266076E+03  0.50400001928E-02 0. -1.
    10030    2    1    2    0    0  0.00000000000E+00  0.00000000000E+00  0.65692192416E+02  0.17884375139E+04  0.17872306167E+04 0.  0.
        5    1    3    3  502    0  0.39624578285E+03 -0.75260054183E+03  0.30708943100E+03  0.90429215667E+03  0.46999998093E+01 0.  1.
       -5    1    3    3    0  502 -0.39624578285E+03  0.75260054183E+03 -0.24139723859E+03  0.88414535727E+03  0.46999998093E+01 0. -1.
</event>
<event>
 5   0  0.1837313E-04  0.1794684E+04  0.7818609E-02  0.8709132E-01
        1   -1    0    0  501    0  0.00000000000E+00  0.00000000000E+00  0.10392133463E+04  0.10392133463E+04  0.50400001928E-02 0.  1.
       -1   -1    0    0    0  501  0.00000000000E+00  0.00000000000E+00 -0.77483849458E+03  0.77483849460E+03  0.50400001928E-02 0. -1.
    10030    2    1    2    0    0  0.00000000000E+00  0.00000000000E+00  0.26437485171E+03  0.18140518409E+04  0.17946838215E+04 0.  0.
        1    1    3    3  502    0 -0.57897780072E+03 -0.63567608193E+03  0.39171329581E+03  0.94484849632E+03  0.50400001928E-02 0. -1.
       -1    1    3    3    0  502  0.57897780072E+03  0.63567608193E+03 -0.12733844410E+03  0.86920334458E+03  0.50400001928E-02 0.  1.
</event>
<event>
 5   0  0.1818778E-04  0.1795913E+04  0.7818609E-02  0.8708476E-01
        1   -1    0    0  501    0  0.00000000000E+00  0.00000000000E+00  0.73273458651E+03  0.73273458652E+03  0.50400001928E-02 0.  1.
       -1   -1    0    0    0  501  0.00000000000E+00  0.00000000000E+00 -0.11004335148E+04  0.11004335148E+04  0.50400001928E-02 0. -1.
    10030    2    1    2    0    0  0.00000000000E+00  0.00000000000E+00 -0.36769892829E+03  0.18331681013E+04  0.17959128002E+04 0.  0.
        3    1    3    3  502    0 -0.84518344414E+02  0.38706154165E+03  0.63869942053E+03  0.75159626633E+03  0.10100000352E+00 0.  1.
       -3    1    3    3    0  502  0.84518344414E+02 -0.38706154165E+03 -0.10063983488E+04  0.10815718350E+04  0.10100000352E+00 0. -1.
</event>
<event>
 5   0  0.3568870E-04  0.1806437E+04  0.7818609E-02  0.8702884E-01
        2   -1    0    0  501    0  0.00000000000E+00  0.00000000000E+00  0.64614923402E+03  0.64614923402E+03  0.25500000920E-02 0. -1.
       -2   -1    0    0    0  501  0.00000000000E+00  0.00000000000E+00 -0.12625625882E+04  0.12625625882E+04  0.25500000920E-02 0.  1.
    10030    2    1    2    0    0  0.00000000000E+00  0.00000000000E+00 -0.61641335420E+03  0.19087118222E+04  0.18064372110E+04 0.  0.
        1    1    3    3  502    0  0.34371199465E+02  0.89771571906E+03 -0.20948814573E+03  0.92247502667E+03  0.50400001928E-02 0. -1.
       -1    1    3    3    0  502 -0.34371199465E+02 -0.89771571906E+03 -0.40692520847E+03  0.98623679556E+03  0.50400001928E-02 0.  1.
</event>
<event>
 5   0  0.3568870E-04  0.1816082E+04  0.7818609E-02  0.8697794E-01
        2   -1    0    0  501    0  0.00000000000E+00  0.00000000000E+00  0.22537243681E+04  0.22537243681E+04  0.25500000920E-02 0. -1.
       -2   -1    0    0    0  501  0.00000000000E+00  0.00000000000E+00 -0.36585580681E+03  0.36585580682E+03  0.25500000920E-02 0.  1.
    10030    2    1    2    0    0  0.00000000000E+00  0.00000000000E+00  0.18878685613E+04  0.26195801749E+04  0.18160816579E+04 0.  0.
        1    1    3    3  502    0  0.14858804722E+03 -0.49846835599E+03  0.20175451711E+04  0.20835156892E+04  0.50400001928E-02 0. -1.
       -1    1    3    3    0  502 -0.14858804722E+03  0.49846835599E+03 -0.12967660981E+03  0.53606448573E+03  0.50400001928E-02 0.  1.
</event>
<event>
 5   0  0.1330125E-04  0.1780424E+04  0.7818609E-02  0.8716780E-01
        3   -1    0    0  501    0  0.00000000000E+00  0.00000000000E+00  0.67314392316E+03  0.67314393073E+03  0.10100000352E+00 0. -1.
       -3   -1    0    0    0  501  0.00000000000E+00  0.00000000000E+00 -0.11772771964E+04  0.11772772008E+04  0.10100000352E+00 0.  1.
    10030    2    1    2    0    0  0.00000000000E+00  0.00000000000E+00 -0.50413327328E+03  0.18504211315E+04  0.17804235470E+04 0.  0.
        2    1    3    3  502    0  0.46641853668E+03  0.57367887173E+02  0.53372686342E+03  0.71112705656E+03  0.25500000920E-02 0. -1.
       -2    1    3    3    0  502 -0.46641853668E+03 -0.57367887173E+02 -0.10378601367E+04  0.11392940749E+04  0.25500000920E-02 0.  1.
</event>
<event>
 5   0  0.3582186E-04  0.1803271E+04  0.7818609E-02  0.8704562E-01
        2   -1    0    0  501    0  0.00000000000E+00  0.00000000000E+00  0.81731254283E+03  0.81731254283E+03  0.25500000920E-02 0. -1.
       -2   -1    0    0    0  501  0.00000000000E+00  0.00000000000E+00 -0.99465805476E+03  0.99465805477E+03  0.25500000920E-02 0.  1.
    10030    2    1    2    0    0  0.00000000000E+00  0.00000000000E+00 -0.17734551193E+03  0.18119705976E+04  0.18032709214E+04 0.  0.
        4    1    3    3  502    0  0.56680184705E+03  0.23839864090E+03 -0.75128312635E+03  0.97083788278E+03  0.12699999809E+01 0.  1.
       -4    1    3    3    0  502 -0.56680184705E+03 -0.23839864090E+03  0.57393761441E+03  0.84113271482E+03  0.12699999809E+01 0. -1.
</event>
<event>
 5   0  0.1835421E-04  0.1782200E+04  0.7818609E-02  0.8715823E-01
        1   -1    0    0  501    0  0.00000000000E+00  0.00000000000E+00  0.10148656779E+04  0.10148656779E+04  0.50400001928E-02 0. -1.
       -1   -1    0    0    0  501  0.00000000000E+00  0.00000000000E+00 -0.78242812517E+03  0.78242812519E+03  0.50400001928E-02 0.  1.
    10030    2    1    2    0    0  0.00000000000E+00  0.00000000000E+00  0.23243755273E+03  0.17972938031E+04  0.17822002690E+04 0.  0.
        2    1    3    3  502    0  0.38011778115E+03 -0.51385692096E+03  0.74238059843E+03  0.97962616120E+03  0.25500000920E-02 0. -1.
       -2    1    3    3    0  502 -0.38011778115E+03  0.51385692096E+03 -0.50994304570E+03  0.81766764191E+03  0.25500000920E-02 0.  1.
</event>
<event>
 5   0  0.3575091E-04  0.1569579E+04  0.7818609E-02  0.8839458E-01
        2   -1    0    0  501    0  0.00000000000E+00  0.00000000000E+00  0.49971861427E+03  0.49971861428E+03  0.25500000920E-02 0. -1.
       -2   -1    0    0    0  501  0.00000000000E+00  0.00000000000E+00 -0.12324833639E+04  0.12324833639E+04  0.25500000920E-02 0.  1.
    10030    2    1    2    0    0  0.00000000000E+00  0.00000000000E+00 -0.73276474966E+03  0.17322019782E+04  0.15695794070E+04 0.  0.
        5    1    3    3  502    0  0.65861595793E+03  0.35534243105E+03 -0.62714621116E+03  0.97641061214E+03  0.46999998093E+01 0.  1.
       -5    1    3    3    0  502 -0.65861595793E+03 -0.35534243105E+03 -0.10561853850E+03  0.75579136606E+03  0.46999998093E+01 0. -1.
</event>
<event>
 5   0  0.3575091E-04  0.1790941E+04  0.7818609E-02  0.8711132E-01
        2   -1    0    0  501    0  0.00000000000E+00  0.00000000000E+00  0.61303752508E+03  0.61303752508E+03  0.25500000920E-02 0.  1.
       -2   -1    0    0    0  501  0.00000000000E+00  0.00000000000E+00 -0.13080231834E+04  0.13080231834E+04  0.25500000920E-02 0. -1.
    10030    2    1    2    0    0  0.00000000000E+00  0.00000000000E+00 -0.69498565831E+03  0.19210607085E+04  0.17909408646E+04 0.  0.
        5    1    3    3  502    0  0.27720705910E+03  0.33360510102E+03 -0.11878059034E+04  0.12645319574E+04  0.46999998093E+01 0. -1.
       -5    1    3    3    0  502 -0.27720705910E+03 -0.33360510102E+03  0.49282024510E+03  0.65652875110E+03  0.46999998093E+01 0.  1.
</event>
<event>
 5   0  0.3531266E-04  0.1745475E+04  0.7818609E-02  0.8735845E-01
        2   -1    0    0  501    0  0.00000000000E+00  0.00000000000E+00  0.75097882468E+03  0.75097882469E+03  0.25500000920E-02 0. -1.
       -2   -1    0    0    0  501  0.00000000000E+00  0.00000000000E+00 -0.10142367308E+04  0.10142367308E+04  0.25500000920E-02 0.  1.
    10030    2    1    2    0    0  0.00000000000E+00  0.00000000000E+00 -0.26325790615E+03  0.17652155555E+04  0.17454745006E+04 0.  0.
        3    1    3    3  502    0  0.15348184545E+03  0.54815147197E+03 -0.80065730196E+03  0.98238426213E+03  0.10100000352E+00 0.  1.
       -3    1    3    3    0  502 -0.15348184545E+03 -0.54815147197E+03  0.53739939580E+03  0.78283129339E+03  0.10100000352E+00 0. -1.
</event>
<event>
 5   0  0.3575091E-04  0.1670327E+04  0.7818609E-02  0.8778471E-01
        2   -1    0    0  501    0  0.00000000000E+00  0.00000000000E+00  0.60034893577E+03  0.60034893578E+03  0.25500000920E-02 0. -1.
       -2   -1    0    0    0  501  0.00000000000E+00  0.00000000000E+00 -0.11618211946E+04  0.11618211946E+04  0.25500000920E-02 0.  1.
    10030    2    1    2    0    0  0.00000000000E+00  0.00000000000E+00 -0.56147225884E+03  0.17621701304E+04  0.16703270551E+04 0.  0.
        5    1    3    3  502    0  0.22759455076E+03  0.75250165410E+03  0.16571337599E+02  0.78635533837E+03  0.46999998093E+01 0. -1.
       -5    1    3    3    0  502 -0.22759455076E+03 -0.75250165410E+03 -0.57804359644E+03  0.97581479203E+03  0.46999998093E+01 0.  1.
</event>
<event>
 5   0  0.3628581E-04  0.1794895E+04  0.7818609E-02  0.8709019E-01
        2   -1    0    0  501    0  0.00000000000E+00  0.00000000000E+00  0.14705132896E+04  0.14705132896E+04  0.25500000920E-02 0. -1.
       -2   -1    0    0    0  501  0.00000000000E+00  0.00000000000E+00 -0.54770822965E+03  0.54770822966E+03  0.25500000920E-02 0.  1.
    10030    2    1    2    0    0  0.00000000000E+00  0.00000000000E+00  0.92280505993E+03  0.20182215192E+04  0.17948952399E+04 0.  0.
        2    1    3    3  502    0  0.81915994370E+03  0.95062794626E+02  0.63299164141E+02  0.82708326816E+03  0.25500000920E-02 0.  1.
       -2    1    3    3    0  502 -0.81915994370E+03 -0.95062794626E+02  0.85950589579E+03  0.11911382511E+04  0.25500000920E-02 0. -1.
</event>
<event>
 5   0  0.3575091E-04  0.1824056E+04  0.7818609E-02  0.8693610E-01
       -2   -1    0    0    0  501  0.00000000000E+00  0.00000000000E+00  0.57504596254E+03  0.57504596254E+03  0.25500000920E-02 0.  1.
        2   -1    0    0  501    0  0.00000000000E+00  0.00000000000E+00 -0.14464848330E+04  0.14464848330E+04  0.25500000920E-02 0. -1.
    10030    2    1    2    0    0  0.00000000000E+00  0.00000000000E+00 -0.87143887047E+03  0.20215307955E+04  0.18240562087E+04 0.  0.
        5    1    3    3  502    0  0.69012670614E+03  0.17567342871E+03  0.19573388689E+03  0.73855931959E+03  0.46999998093E+01 0.  1.
       -5    1    3    3    0  502 -0.69012670614E+03 -0.17567342871E+03 -0.10671727574E+04  0.12829714760E+04  0.46999998093E+01 0. -1.
</event>
<event>
 5   0  0.3628581E-04  0.1803981E+04  0.7818609E-02  0.8704185E-01
       -2   -1    0    0    0  501  0.00000000000E+00  0.00000000000E+00  0.83475764318E+03  0.83475764318E+03  0.25500000920E-02 0. -1.
        2   -1    0    0  501    0  0.00000000000E+00  0.00000000000E+00 -0.97463864068E+03  0.97463864068E+03  0.25500000920E-02 0.  1.
    10030    2    1    2    0    0  0.00000000000E+00  0.00000000000E+00 -0.13988099750E+03  0.18093962839E+04  0.18039812135E+04 0.  0.
        2    1    3    3  502    0  0.59564657407E+03 -0.52601595694E+03 -0.49795252554E+03  0.93778694055E+03  0.25500000920E-02 0. -1.
       -2    1    3    3    0  502 -0.59564657407E+03  0.52601595694E+03  0.35807152804E+03  0.87160934332E+03  0.25500000920E-02 0.  1.
</event>
<event>
 5   0  0.3582186E-04  0.1806674E+04  0.7818609E-02  0.8702758E-01
       -2   -1    0    0    0  501  0.00000000000E+00  0.00000000000E+00  0.83894229864E+03  0.83894229865E+03  0.25500000920E-02 0. -1.
        2   -1    0    0  501    0  0.00000000000E+00  0.00000000000E+00 -0.97267469118E+03  0.97267469119E+03  0.25500000920E-02 0.  1.
    10030    2    1    2    0    0  0.00000000000E+00  0.00000000000E+00 -0.13373239254E+03  0.18116169898E+04  0.18066742277E+04 0.  0.
        4    1    3    3  502    0  0.29664200831E+03  0.27975317804E+03  0.74141477654E+03  0.84614171715E+03  0.12699999809E+01 0. -1.
       -4    1    3    3    0  502 -0.29664200831E+03 -0.27975317804E+03 -0.87514716909E+03  0.96547527269E+03  0.12699999809E+01 0.  1.
</event>
<event>
 5   0  0.3568870E-04  0.1807353E+04  0.7818609E-02  0.8702399E-01
       -2   -1    0    0    0  501  0.00000000000E+00  0.00000000000E+00  0.55856838254E+03  0.55856838255E+03  0.25500000920E-02 0.  1.
        2   -1    0    0  501    0  0.00000000000E+00  0.00000000000E+00 -0.14620073523E+04  0.14620073523E+04  0.25500000920E-02 0. -1.
    10030    2    1    2    0    0  0.00000000000E+00  0.00000000000E+00 -0.90343896980E+03  0.20205757349E+04  0.18073528511E+04 0.  0.
        1    1    3    3  502    0 -0.14377048132E+03  0.47270869776E+03  0.39418790618E+03  0.63206611176E+03  0.50400001928E-02 0.  1.
       -1    1    3    3    0  502  0.14377048132E+03 -0.47270869776E+03 -0.12976268760E+04  0.13885096231E+04  0.50400001928E-02 0. -1.
</event>
<event>
 5   0  0.1837313E-04  0.1822657E+04  0.7818609E-02  0.8694343E-01
        1   -1    0    0  501    0  0.00000000000E+00  0.00000000000E+00  0.11484535518E+04  0.11484535518E+04  0.50400001928E-02 0. -1.
       -1   -1    0    0    0  501  0.00000000000E+00  0.00000000000E+00 -0.72316319468E+03  0.72316319469E+03  0.50400001928E-02 0.  1.
    10030    2    1    2    0    0  0.00000000000E+00  0.00000000000E+00  0.42529035708E+03  0.18716167465E+04  0.18226566758E+04 0.  0.
        1    1    3    3  502    0 -0.40838428008E+03  0.23827471824E+03  0.10126535143E+04  0.11175955000E+04  0.50400001928E-02 0. -1.
       -1    1    3    3    0  502  0.40838428008E+03 -0.23827471824E+03 -0.58736315724E+03  0.75402124644E+03  0.50400001928E-02 0.  1.
</event>
<event>
 5   0  0.1883959E-04  0.1851972E+04  0.7818609E-02  0.8679139E-01
       -1   -1    0    0    0  501  0.00000000000E+00  0.00000000000E+00  0.40412290913E+03  0.40412290916E+03  0.50400001928E-02 0.  1.
        1   -1    0    0  501    0  0.00000000000E+00  0.00000000000E+00 -0.21217559575E+04  0.21217559575E+04  0.50400001928E-02 0. -1.
    10030    2    1    2    0    0  0.00000000000E+00  0.00000000000E+00 -0.17176330483E+04  0.25258788666E+04  0.18519721273E+04 0.  0.
        5    1    3    3  502    0 -0.63443631559E+03 -0.22119843289E+03 -0.17278483786E+04  0.18538932803E+04  0.46999998093E+01 0. -1.
       -5    1    3    3    0  502  0.63443631559E+03  0.22119843289E+03  0.10215330294E+02  0.67198558632E+03  0.46999998093E+01 0.  1.
</event>
<event>
 5   0  0.1835421E-04  0.1879679E+04  0.7818609E-02  0.8665038E-01
       -1   -1    0    0    0  501  0.00000000000E+00  0.00000000000E+00  0.10951948625E+04  0.10951948625E+04  0.50400001928E-02 0. -1.
        1   -1    0    0  501    0  0.00000000000E+00  0.00000000000E+00 -0.80652129632E+03  0.80652129634E+03  0.50400001928E-02 0.  1.
    10030    2    1    2    0    0  0.00000000000E+00  0.00000000000E+00  0.28867356616E+03  0.19017161588E+04  0.18796786749E+04 0.  0.
        2    1    3    3  502    0  0.45421386772E+03  0.80413132536E+03 -0.31948854065E+02  0.92409856365E+03  0.25500000920E-02 0.  1.
       -2    1    3    3    0  502 -0.45421386772E+03 -0.80413132536E+03  0.32062242023E+03  0.97761759518E+03  0.25500000920E-02 0. -1.
</event>
<event>
 5   0  0.1883959E-04  0.1709710E+04  0.7818609E-02  0.8755846E-01
       -1   -1    0    0    0  501  0.00000000000E+00  0.00000000000E+00  0.39240036450E+03  0.39240036453E+03  0.50400001928E-02 0. -1.
        1   -1    0    0  501    0  0.00000000000E+00  0.00000000000E+00 -0.18623242142E+04  0.18623242142E+04  0.50400001928E-02 0.  1.
    10030    2    1    2    0    0  0.00000000000E+00  0.00000000000E+00 -0.14699238497E+04  0.22547245787E+04  0.17097095666E+04 0.  0.
        5    1    3    3  502    0 -0.35535884240E+03  0.42599972769E+03 -0.15926725590E+04  0.16865300605E+04  0.46999998093E+01 0.  1.
       -5    1    3    3    0  502  0.35535884240E+03 -0.42599972769E+03  0.12274870932E+03  0.56819451819E+03  0.46999998093E+01 0. -1.
</event>
<event>
 5   0  0.3568870E-04  0.1877084E+04  0.7818609E-02  0.8666348E-01
       -2   -1    0    0    0  501  0.00000000000E+00  0.00000000000E+00  0.12562524822E+04  0.12562524822E+04  0.25500000920E-02 0. -1.
        2   -1    0    0  501    0  0.00000000000E+00  0.00000000000E+00 -0.70118163851E+03  0.70118163852E+03  0.25500000920E-02 0.  1.
    10030    2    1    2    0    0  0.00000000000E+00  0.00000000000E+00  0.55507084366E+03  0.19574341207E+04  0.18770840938E+04 0.  0.
        1    1    3    3  502    0  0.10686371578E+02  0.30122516055E+03  0.12044075506E+04  0.12415507818E+04  0.50400001928E-02 0. -1.
       -1    1    3    3    0  502 -0.10686371578E+02 -0.30122516055E+03 -0.64933670693E+03  0.71588333887E+03  0.50400001928E-02 0.  1.
</event>
<event>
 5   0  0.3582186E-04  0.1799231E+04  0.7818609E-02  0.8706709E-01
        2   -1    0    0  501    0  0.00000000000E+00  0.00000000000E+00  0.21715148095E+04  0.21715148095E+04  0.25500000920E-02 0.  1.
       -2   -1    0    0    0  501  0.00000000000E+00  0.00000000000E+00 -0.37269273644E+03  0.37269273645E+03  0.25500000920E-02 0. -1.
    10030    2    1    2    0    0  0.00000000000E+00  0.00000000000E+00  0.17988220731E+04  0.25442075460E+04  0.17992307207E+04 0.  0.
        4    1    3    3  502    0 -0.83376440329E+03  0.12479830659E+03  0.13433617128E+04  0.15859886512E+04  0.12699999809E+01 0.  1.
       -4    1    3    3    0  502  0.83376440329E+03 -0.12479830659E+03  0.45546036027E+03  0.95821889472E+03  0.12699999809E+01 0. -1.
</event>
<event>
 5   0  0.1825253E-04  0.1741538E+04  0.7818609E-02  0.8738022E-01
        1   -1    0    0  501    0  0.00000000000E+00  0.00000000000E+00  0.12241653781E+04  0.12241653782E+04  0.50400001928E-02 0. -1.
       -1   -1    0    0    0  501  0.00000000000E+00  0.00000000000E+00 -0.61939210289E+03  0.61939210291E+03  0.50400001928E-02 0.  1.
    10030    2    1    2    0    0  0.00000000000E+00  0.00000000000E+00  0.60477327525E+03  0.18435574811E+04  0.17415376744E+04 0.  0.
        4    1    3    3  502    0  0.48403444571E+03 -0.72211740240E+03  0.35525069553E+03  0.93912062966E+03  0.12699999809E+01 0. -1.
       -4    1    3    3    0  502 -0.48403444571E+03  0.72211740240E+03  0.24952257972E+03  0.90443685140E+03  0.12699999809E+01 0.  1.
</event>
<event>
 5   0  0.1835421E-04  0.1786745E+04  0.7818609E-02  0.8713380E-01
       -1   -1    0    0    0  501  0.00000000000E+00  0.00000000000E+00  0.49453874311E+03  0.49453874313E+03  0.50400001928E-02 0. -1.
        1   -1    0    0  501    0  0.00000000000E+00  0.00000000000E+00 -0.16138555169E+04  0.16138555169E+04  0.50400001928E-02 0.  1.
    10030    2    1    2    0    0  0.00000000000E+00  0.00000000000E+00 -0.11193167738E+04  0.21083942600E+04  0.17867446140E+04 0.  0.
        2    1    3    3  502    0  0.43909765089E+02 -0.67093065621E+03  0.13448834231E+03  0.68568442241E+03  0.25500000920E-02 0. -1.
       -2    1    3    3    0  502 -0.43909765089E+02  0.67093065621E+03 -0.12538051161E+04  0.14227098376E+04  0.25500000920E-02 0.  1.
</event>
<event>
 5   0  0.1835421E-04  0.1798311E+04  0.7818609E-02  0.8707198E-01
       -1   -1    0    0    0  501  0.00000000000E+00  0.00000000000E+00  0.69522384864E+03  0.69522384866E+03  0.50400001928E-02 0. -1.
        1   -1    0    0  501    0  0.00000000000E+00  0.00000000000E+00 -0.11629070351E+04  0.11629070352E+04  0.50400001928E-02 0.  1.
    10030    2    1    2    0    0  0.00000000000E+00  0.00000000000E+00 -0.46768318651E+03  0.18581308838E+04  0.17983111017E+04 0.  0.
        2    1    3    3  502    0 -0.66961578886E+03  0.42506745171E+03  0.20382006831E+03  0.81890797007E+03  0.25500000920E-02 0. -1.
       -2    1    3    3    0  502  0.66961578886E+03 -0.42506745171E+03 -0.67150325482E+03  0.10392229137E+04  0.25500000920E-02 0.  1.
</event>
<event>
 5   0  0.3628581E-04  0.1789183E+04  0.7818609E-02  0.8712073E-01
       -2   -1    0    0    0  501  0.00000000000E+00  0.00000000000E+00  0.45799659877E+03  0.45799659878E+03  0.25500000920E-02 0.  1.
        2   -1    0    0  501    0  0.00000000000E+00  0.00000000000E+00 -0.17473787822E+04  0.17473787822E+04  0.25500000920E-02 0. -1.
    10030    2    1    2    0    0  0.00000000000E+00  0.00000000000E+00 -0.12893821834E+04  0.22053753810E+04  0.17891825385E+04 0.  0.
        2    1    3    3  502    0  0.72355928575E+03  0.28721624559E+02 -0.12921732087E+04  0.14812408896E+04  0.25500000920E-02 0. -1.
       -2    1    3    3    0  502 -0.72355928575E+03 -0.28721624559E+02  0.27910253303E+01  0.72413449133E+03  0.25500000920E-02 0.  1.
</event>
<event>
 5   0  0.1837313E-04  0.1789876E+04  0.7818609E-02  0.8711702E-01
       -1   -1    0    0    0  501  0.00000000000E+00  0.00000000000E+00  0.17520009856E+04  0.17520009856E+04  0.50400001928E-02 0.  1.
        1   -1    0    0  501    0  0.00000000000E+00  0.00000000000E+00 -0.45714220186E+03  0.45714220189E+03  0.50400001928E-02 0. -1.
    10030    2    1    2    0    0  0.00000000000E+00  0.00000000000E+00  0.12948587838E+04  0.22091431875E+04  0.17898755133E+04 0.  0.
        1    1    3    3  502    0 -0.51263866220E+02  0.10403680716E+03 -0.44782707839E+03  0.46260213293E+03  0.50400001928E-02 0. -1.
       -1    1    3    3    0  502  0.51263866220E+02 -0.10403680716E+03  0.17426858621E+04  0.17465410546E+04  0.50400001928E-02 0.  1.
</event>
<event>
 5   0  0.1835421E-04  0.1805730E+04  0.7818609E-02  0.8703258E-01
       -1   -1    0    0    0  501  0.00000000000E+00  0.00000000000E+00  0.50158378234E+03  0.50158378237E+03  0.50400001928E-02 0. -1.
        1   -1    0    0  501    0  0.00000000000E+00  0.00000000000E+00 -0.16251821422E+04  0.16251821422E+04  0.50400001928E-02 0.  1.
    10030    2    1    2    0    0  0.00000000000E+00  0.00000000000E+00 -0.11235983599E+04  0.21267659246E+04  0.18057297759E+04 0.  0.
        2    1    3    3  502    0  0.51006594343E+03 -0.29188839418E+03  0.24547847910E+03  0.63688757643E+03  0.25500000920E-02 0. -1.
       -2    1    3    3    0  502 -0.51006594343E+03  0.29188839418E+03 -0.13690768390E+04  0.14898783481E+04  0.25500000920E-02 0.  1.
</event>
<event>
 5   0  0.1818778E-04  0.1786879E+04  0.7818609E-02  0.8713308E-01
        1   -1    0    0  501    0  0.00000000000E+00  0.00000000000E+00  0.70764273530E+03  0.70764273532E+03  0.50400001928E-02 0. -1.
       -1   -1    0    0    0  501  0.00000000000E+00  0.00000000000E+00 -0.11280183120E+04  0.11280183120E+04  0.50400001928E-02 0.  1.
    10030    2    1    2    0    0  0.00000000000E+00  0.00000000000E+00 -0.42037557674E+03  0.18356610474E+04  0.17868788026E+04 0.  0.
        3    1    3    3  502    0  0.77480172440E+03  0.40298465039E+02 -0.66533197479E+03  0.10220608227E+04  0.10100000352E+00 0.  1.
       -3    1    3    3    0  502 -0.77480172440E+03 -0.40298465039E+02  0.24495639806E+03  0.81360022466E+03  0.10100000352E+00 0. -1.
</event>
<event>
 5   0  0.1825253E-04  0.1781858E+04  0.7818609E-02  0.8716007E-01
       -1   -1    0    0    0  501  0.00000000000E+00  0.00000000000E+00  0.60562778966E+03  0.60562778968E+03  0.50400001928E-02 0. -1.
        1   -1    0    0  501    0  0.00000000000E+00  0.00000000000E+00 -0.13106304366E+04  0.13106304366E+04  0.50400001928E-02 0.  1.
    10030    2    1    2    0    0  0.00000000000E+00  0.00000000000E+00 -0.70500264693E+03  0.19162582263E+04  0.17818576985E+04 0.  0.
        4    1    3    3  502    0 -0.73323337339E+03  0.20178637491E+03  0.14662166662E+03  0.77449883601E+03  0.12699999809E+01 0. -1.
       -4    1    3    3    0  502  0.73323337339E+03 -0.20178637491E+03 -0.85162431354E+03  0.11417593903E+04  0.12699999809E+01 0.  1.
</event>
<event>
 5   0  0.3582186E-04  0.1834495E+04  0.7818609E-02  0.8688168E-01
        2   -1    0    0  501    0  0.00000000000E+00  0.00000000000E+00  0.20242710193E+04  0.20242710193E+04  0.25500000920E-02 0.  1.
       -2   -1    0    0    0  501  0.00000000000E+00  0.00000000000E+00 -0.41562752597E+03  0.41562752598E+03  0.25500000920E-02 0. -1.
    10030    2    1    2    0    0  0.00000000000E+00  0.00000000000E+00  0.16086434933E+04  0.24398985453E+04  0.18344947595E+04 0.  0.
        4    1    3    3  502    0 -0.68395327052E+03  0.45524365204E+03  0.13467026615E+04  0.15775450961E+04  0.12699999809E+01 0. -1.
       -4    1    3    3    0  502  0.68395327052E+03 -0.45524365204E+03  0.26194083184E+03  0.86235344915E+03  0.12699999809E+01 0.  1.
</event>
<event>
 5   0  0.3628581E-04  0.1664582E+04  0.7818609E-02  0.8781827E-01
        2   -1    0    0  501    0  0.00000000000E+00  0.00000000000E+00  0.13150431429E+04  0.13150431429E+04  0.25500000920E-02 0.  1.
       -2   -1    0    0    0  501  0.00000000000E+00  0.00000000000E+00 -0.52675678358E+03  0.52675678359E+03  0.25500000920E-02 0. -1.
    10030    2    1    2    0    0  0.00000000000E+00  0.00000000000E+00  0.78828635929E+03  0.18417999265E+04  0.16645815044E+04 0.  0.
        2    1    3    3  502    0  0.24451306764E+03 -0.44040186759E+03  0.11272268507E+04  0.12346581787E+04  0.25500000920E-02 0.  1.
       -2    1    3    3    0  502 -0.24451306764E+03  0.44040186759E+03 -0.33894049139E+03  0.60714174781E+03  0.25500000920E-02 0. -1.
</event>
<event>
 5   0  0.3575091E-04  0.1815743E+04  0.7818609E-02  0.8697972E-01
        2   -1    0    0  501    0  0.00000000000E+00  0.00000000000E+00  0.10946086146E+04  0.10946086146E+04  0.25500000920E-02 0.  1.
       -2   -1    0    0    0  501  0.00000000000E+00  0.00000000000E+00 -0.75299094617E+03  0.75299094617E+03  0.25500000920E-02 0. -1.
    10030    2    1    2    0    0  0.00000000000E+00  0.00000000000E+00  0.34161766844E+03  0.18475995608E+04  0.18157426871E+04 0.  0.
        5    1    3    3  502    0 -0.30842329512E+03  0.10195646200E+03 -0.69181969069E+03  0.76430139575E+03  0.46999998093E+01 0. -1.
       -5    1    3    3    0  502  0.30842329512E+03 -0.10195646200E+03  0.10334373591E+04  0.10832981650E+04  0.46999998093E+01 0.  1.
</event>
<event>
 5   0  0.3531266E-04  0.1811807E+04  0.7818609E-02  0.8700046E-01
        2   -1    0    0  501    0  0.00000000000E+00  0.00000000000E+00  0.18094274710E+04  0.18094274710E+04  0.25500000920E-02 0. -1.
       -2   -1    0    0    0  501  0.00000000000E+00  0.00000000000E+00 -0.45354749515E+03  0.45354749515E+03  0.25500000920E-02 0.  1.
    10030    2    1    2    0    0  0.00000000000E+00  0.00000000000E+00  0.13558799759E+04  0.22629749662E+04  0.18118071610E+04 0.  0.
        3    1    3    3  502    0 -0.34135772176E+03 -0.38158157521E+03  0.16113913399E+04  0.16907725019E+04  0.10100000352E+00 0. -1.
       -3    1    3    3    0  502  0.34135772176E+03  0.38158157521E+03 -0.25551136404E+03  0.57220246425E+03  0.10100000352E+00 0.  1.
</event>
<event>
 5   0  0.3568870E-04  0.1790823E+04  0.7818609E-02  0.8711195E-01
       -2   -1    0    0    0  501  0.00000000000E+00  0.00000000000E+00  0.72898581075E+03  0.72898581076E+03  0.25500000920E-02 0.  1.
        2   -1    0    0  501    0  0.00000000000E+00  0.00000000000E+00 -0.10998313776E+04  0.10998313777E+04  0.25500000920E-02 0. -1.
    10030    2    1    2    0    0  0.00000000000E+00  0.00000000000E+00 -0.37084556689E+03  0.18288171884E+04  0.17908226808E+04 0.  0.
        1    1    3    3  502    0 -0.97728156159E+02  0.70269986129E+03  0.37244884795E+03  0.80128398956E+03  0.50400001928E-02 0.  1.
       -1    1    3    3    0  502  0.97728156159E+02 -0.70269986129E+03 -0.74329441484E+03  0.10275331988E+04  0.50400001928E-02 0. -1.
</event>
<event>
 5   0  0.1818778E-04  0.1837381E+04  0.7818609E-02  0.8686670E-01
       -1   -1    0    0    0  501  0.00000000000E+00  0.00000000000E+00  0.39505577527E+03  0.39505577530E+03  0.50400001928E-02 0. -1.
        1   -1    0    0  501    0  0.00000000000E+00  0.00000000000E+00 -0.21363865177E+04  0.21363865177E+04  0.50400001928E-02 0.  1.
    10030    2    1    2    0    0  0.00000000000E+00  0.00000000000E+00 -0.17413307424E+04  0.25314422930E+04  0.18373805616E+04 0.  0.
        3    1    3    3  502    0 -0.25134173548E+03  0.23979044077E+03 -0.20424129381E+04  0.20717438894E+04  0.10100000352E+00 0.  1.
       -3    1    3    3    0  502  0.25134173548E+03 -0.23979044077E+03  0.30108219568E+03  0.45969840356E+03  0.10100000352E+00 0. -1.
</event>
<event>
 5   0  0.1818778E-04  0.1773158E+04  0.7818609E-02  0.8720705E-01
        1   -1    0    0  501    0  0.00000000000E+00  0.00000000000E+00  0.12300684626E+04  0.12300684626E+04  0.50400001928E-02 0. -1.
       -1   -1    0    0    0  501  0.00000000000E+00  0.00000000000E+00 -0.63900687846E+03  0.63900687848E+03  0.50400001928E-02 0.  1.
    10030    2    1    2    0    0  0.00000000000E+00  0.00000000000E+00  0.59106158413E+03  0.18690753411E+04  0.17731578707E+04 0.  0.
        3    1    3    3  502    0  0.39795413901E+03  0.16869508197E+03  0.11114818308E+04  0.11925675653E+04  0.10100000352E+00 0. -1.
       -3    1    3    3    0  502 -0.39795413901E+03 -0.16869508197E+03 -0.52042024663E+03  0.67650777581E+03  0.10100000352E+00 0.  1.
</event>
<event>
 5   0  0.3531266E-04  0.1880112E+04  0.7818609E-02  0.8664820E-01
        2   -1    0    0  501    0  0.00000000000E+00  0.00000000000E+00  0.14032489239E+04  0.14032489239E+04  0.25500000920E-02 0.  1.
       -2   -1    0    0    0  501  0.00000000000E+00  0.00000000000E+00 -0.62975654756E+03  0.62975654757E+03  0.25500000920E-02 0. -1.
    10030    2    1    2    0    0  0.00000000000E+00  0.00000000000E+00  0.77349237632E+03  0.20330054715E+04  0.18801119091E+04 0.  0.
        3    1    3    3  502    0 -0.93681234195E+03  0.67061411612E+02  0.42987167815E+03  0.10329105803E+04  0.10100000352E+00 0. -1.
       -3    1    3    3    0  502  0.93681234195E+03 -0.67061411612E+02  0.34362069817E+03  0.10000948912E+04  0.10100000352E+00 0.  1.
</event>
<event>
 5   0  0.1825253E-04  0.1799076E+04  0.7818609E-02  0.8706791E-01
        1   -1    0    0  501    0  0.00000000000E+00  0.00000000000E+00  0.74397493924E+03  0.74397493926E+03  0.50400001928E-02 0.  1.
       -1   -1    0    0    0  501  0.00000000000E+00  0.00000000000E+00 -0.10876284288E+04  0.10876284289E+04  0.50400001928E-02 0. -1.
    10030    2    1    2    0    0  0.00000000000E+00  0.00000000000E+00 -0.34365348960E+03  0.18316033681E+04  0.17990756452E+04 0.  0.
        4    1    3    3  502    0  0.94956799590E+02  0.38866411495E+02  0.73799716350E+03  0.74509651587E+03  0.12699999809E+01 0.  1.
       -4    1    3    3    0  502 -0.94956799590E+02 -0.38866411495E+02 -0.10816506531E+04  0.10865068522E+04  0.12699999809E+01 0. -1.
</event>
<event>
 5   0  0.3568870E-04  0.1782671E+04  0.7818609E-02  0.8715570E-01
        2   -1    0    0  501    0  0.00000000000E+00  0.00000000000E+00  0.14131768799E+04  0.14131768799E+04  0.25500000920E-02 0. -1.
       -2   -1    0    0    0  501  0.00000000000E+00  0.00000000000E+00 -0.56219335450E+03  0.56219335450E+03  0.25500000920E-02 0.  1.
    10030    2    1    2    0    0  0.00000000000E+00  0.00000000000E+00  0.85098352537E+03  0.19753702344E+04  0.17826706377E+04 0.  0.
        1    1    3    3  502    0  0.33128813402E+03  0.25917778803E+03 -0.44530089211E+03  0.61255027393E+03  0.50400001928E-02 0.  1.
       -1    1    3    3    0  502 -0.33128813402E+03 -0.25917778803E+03  0.12962844175E+04  0.13628199604E+04  0.50400001928E-02 0. -1.
</event>
<event>
 5   0  0.3531266E-04  0.1792050E+04  0.7818609E-02  0.8710539E-01
        2   -1    0    0  501    0  0.00000000000E+00  0.00000000000E+00  0.17087492094E+04  0.17087492094E+04  0.25500000920E-02 0.  1.
       -2   -1    0    0    0  501  0.00000000000E+00  0.00000000000E+00 -0.46985290472E+03  0.46985290473E+03  0.25500000920E-02 0. -1.
    10030    2    1    2    0    0  0.00000000000E+00  0.00000000000E+00  0.12388963047E+04  0.21786021141E+04  0.17920499764E+04 0.  0.
        3    1    3    3  502    0 -0.17299888366E+03  0.30734134899E+03 -0.38192105555E+03  0.51985673163E+03  0.10100000352E+00 0. -1.
       -3    1    3    3    0  502  0.17299888366E+03 -0.30734134899E+03  0.16208173602E+04  0.16587453825E+04  0.10100000352E+00 0.  1.
</event>
<event>
 5   0  0.1837313E-04  0.1786829E+04  0.7818609E-02  0.8713335E-01
        1   -1    0    0  501    0  0.00000000000E+00  0.00000000000E+00  0.14437616457E+04  0.14437616457E+04  0.50400001928E-02 0. -1.
       -1   -1    0    0    0  501  0.00000000000E+00  0.00000000000E+00 -0.55285383454E+03  0.55285383456E+03  0.50400001928E-02 0.  1.
    10030    2    1    2    0    0  0.00000000000E+00  0.00000000000E+00  0.89090781113E+03  0.19966154802E+04  0.17868286566E+04 0.  0.
        1    1    3    3  502    0 -0.42759792775E+03 -0.78308456804E+03  0.39391085292E+03  0.97530876577E+03  0.50400001928E-02 0. -1.
       -1    1    3    3    0  502  0.42759792775E+03  0.78308456804E+03  0.49699695820E+03  0.10213067145E+04  0.50400001928E-02 0.  1.
</event>
<event>
 5   0  0.3531266E-04  0.1799770E+04  0.7818609E-02  0.8706422E-01
        2   -1    0    0  501    0  0.00000000000E+00  0.00000000000E+00  0.86371086085E+03  0.86371086085E+03  0.25500000920E-02 0. -1.
       -2   -1    0    0    0  501  0.00000000000E+00  0.00000000000E+00 -0.93757458209E+03  0.93757458209E+03  0.25500000920E-02 0.  1.
    10030    2    1    2    0    0  0.00000000000E+00  0.00000000000E+00 -0.73863721239E+02  0.18012854429E+04  0.17997703736E+04 0.  0.
        3    1    3    3  502    0 -0.41693469192E+03 -0.51116626701E+03 -0.64954831085E+03  0.92576374317E+03  0.10100000352E+00 0.  1.
       -3    1    3    3    0  502  0.41693469192E+03  0.51116626701E+03  0.57568458961E+03  0.87552169977E+03  0.10100000352E+00 0. -1.
</event>
<event>
 5   0  0.3568870E-04  0.1834107E+04  0.7818609E-02  0.8688369E-01
        2   -1    0    0  501    0  0.00000000000E+00  0.00000000000E+00  0.11040842223E+04  0.11040842223E+04  0.25500000920E-02 0.  1.
       -2   -1    0    0    0  501  0.00000000000E+00  0.00000000000E+00 -0.76170533460E+03  0.76170533460E+03  0.25500000920E-02 0. -1.
    10030    2    1    2    0    0  0.00000000000E+00  0.00000000000E+00  0.34237888768E+03  0.18657895569E+04  0.18341066948E+04 0.  0.
        1    1    3    3  502    0  0.58555257940E+03 -0.65044694862E+03 -0.10746533223E+03  0.88176065566E+03  0.50400001928E-02 0. -1.
       -1    1    3    3    0  502 -0.58555257940E+03  0.65044694862E+03  0.44984421991E+03  0.98402890121E+03  0.50400001928E-02 0.  1.
</event>
<event>
 5   0  0.1835421E-04  0.1815639E+04  0.7818609E-02  0.8698027E-01
       -1   -1    0    0    0  501  0.00000000000E+00  0.00000000000E+00  0.30785602969E+03  0.30785602973E+03  0.50400001928E-02 0.  1.
        1   -1    0    0  501    0  0.00000000000E+00  0.00000000000E+00 -0.26770194480E+04  0.26770194480E+04  0.50400001928E-02 0. -1.
    10030    2    1    2    0    0  0.00000000000E+00  0.00000000000E+00 -0.23691634183E+04  0.29848754777E+04  0.18156393681E+04 0.  0.
        2    1    3    3  502    0  0.27836118392E+03  0.84885777607E+03 -0.91902871998E+03  0.12816623038E+04  0.25500000920E-02 0.  1.
       -2    1    3    3    0  502 -0.27836118392E+03 -0.84885777607E+03 -0.14501346983E+04  0.17032131740E+04  0.25500000920E-02 0. -1.
</event>
<event>
 5   0  0.3582186E-04  0.1785250E+04  0.7818609E-02  0.8714183E-01
        2   -1    0    0  501    0  0.00000000000E+00  0.00000000000E+00  0.54769262874E+03  0.54769262874E+03  0.25500000920E-02 0.  1.
       -2   -1    0    0    0  501  0.00000000000E+00  0.00000000000E+00 -0.14547933548E+04  0.14547933548E+04  0.25500000920E-02 0. -1.
    10030    2    1    2    0    0  0.00000000000E+00  0.00000000000E+00 -0.90710072609E+03  0.20024859836E+04  0.17852502310E+04 0.  0.
        4    1    3    3  502    0  0.84311642869E+02  0.17468683521E+03 -0.14308671103E+04  0.14439550698E+04  0.12699999809E+01 0. -1.
       -4    1    3    3    0  502 -0.84311642869E+02 -0.17468683521E+03  0.52376638418E+03  0.55853091375E+03  0.12699999809E+01 0.  1.
</event>
<event>
 5   0  0.3628581E-04  0.1809566E+04  0.7818609E-02  0.8701229E-01
        2   -1    0    0  501    0  0.00000000000E+00  0.00000000000E+00  0.16225792397E+04  0.16225792397E+04  0.25500000920E-02 0. -1.
       -2   -1    0    0    0  501  0.00000000000E+00  0.00000000000E+00 -0.50452527635E+03  0.50452527635E+03  0.25500000920E-02 0.  1.
    10030    2    1    2    0    0  0.00000000000E+00  0.00000000000E+00  0.11180539634E+04  0.21271045161E+04  0.18095659583E+04 0.  0.
        2    1    3    3  502    0 -0.67809911653E+03  0.40580441714E+02  0.12615330960E+04  0.14328052682E+04  0.25500000920E-02 0. -1.
       -2    1    3    3    0  502  0.67809911653E+03 -0.40580441714E+02 -0.14347913269E+03  0.69429924788E+03  0.25500000920E-02 0.  1.
</event>
<event>
 5   0  0.1818778E-04  0.1804372E+04  0.7818609E-02  0.8703978E-01
        1   -1    0    0  501    0  0.00000000000E+00  0.00000000000E+00  0.17634149295E+04  0.17634149295E+04  0.50400001928E-02 0. -1.
       -1   -1    0    0    0  501  0.00000000000E+00  0.00000000000E+00 -0.46157003144E+03  0.46157003146E+03  0.50400001928E-02 0.  1.
    10030    2    1    2    0    0  0.00000000000E+00  0.00000000000E+00  0.13018448980E+04  0.22249849610E+04  0.18043718957E+04 0.  0.
        3    1    3    3  502    0 -0.76131907602E+03 -0.21206761584E+03  0.11875157209E+04  0.14264546984E+04  0.10100000352E+00 0. -1.
       -3    1    3    3    0  502  0.76131907602E+03  0.21206761584E+03  0.11432917719E+03  0.79853026252E+03  0.10100000352E+00 0.  1.
</event>
<event>
 5   0  0.1825253E-04  0.1797536E+04  0.7818609E-02  0.8707611E-01
        1   -1    0    0  501    0  0.00000000000E+00  0.00000000000E+00  0.12801219248E+04  0.12801219248E+04  0.50400001928E-02 0.  1.
       -1   -1    0    0    0  501  0.00000000000E+00  0.00000000000E+00 -0.63102099682E+03  0.63102099684E+03  0.50400001928E-02 0. -1.
    10030    2    1    2    0    0  0.00000000000E+00  0.00000000000E+00  0.64910092795E+03  0.19111429216E+04  0.17975358834E+04 0.  0.
        4    1    3    3  502    0  0.66290229785E+03 -0.47863535431E+03  0.72129839184E+03  0.10903229989E+04  0.12699999809E+01 0.  1.
       -4    1    3    3    0  502 -0.66290229785E+03  0.47863535431E+03 -0.72197463889E+02  0.82081992275E+03  0.12699999809E+01 0. -1.
</event>
<event>
 5   0  0.1883959E-04  0.1568428E+04  0.7818609E-02  0.8840182E-01
       -1   -1    0    0    0  501  0.00000000000E+00  0.00000000000E+00  0.69258983165E+03  0.69258983167E+03  0.50400001928E-02 0.  1.
        1   -1    0    0  501    0  0.00000000000E+00  0.00000000000E+00 -0.88795953283E+03  0.88795953285E+03  0.50400001928E-02 0. -1.
    10030    2    1    2    0    0  0.00000000000E+00  0.00000000000E+00 -0.19536970118E+03  0.15805493645E+04  0.15684281856E+04 0.  0.
        5    1    3    3  502    0 -0.75550748908E+03  0.85038119902E+02 -0.29138533101E+03  0.81421775283E+03  0.46999998093E+01 0.  1.
       -5    1    3    3    0  502  0.75550748908E+03 -0.85038119902E+02  0.96015629829E+02  0.76633161169E+03  0.46999998093E+01 0. -1.
</event>
<event>
 5   0  0.1825253E-04  0.1802326E+04  0.7818609E-02  0.8705063E-01
        1   -1    0    0  501    0  0.00000000000E+00  0.00000000000E+00  0.10484812501E+04  0.10484812501E+04  0.50400001928E-02 0. -1.
       -1   -1    0    0    0  501  0.00000000000E+00  0.00000000000E+00 -0.77454402269E+03  0.77454402271E+03  0.50400001928E-02 0.  1.
    10030    2    1    2    0    0  0.00000000000E+00  0.00000000000E+00  0.27393722738E+03  0.18230252728E+04  0.18023261471E+04 0.  0.
        4    1    3    3  502    0  0.29567948639E+03  0.57667202806E+03  0.77035211457E+03  0.10066881245E+04  0.12699999809E+01 0. -1.
       -4    1    3    3    0  502 -0.29567948639E+03 -0.57667202806E+03 -0.49641488719E+03  0.81633714833E+03  0.12699999809E+01 0.  1.
</event>
<event>
 5   0  0.1837313E-04  0.1662136E+04  0.7818609E-02  0.8783259E-01
       -1   -1    0    0    0  501  0.00000000000E+00  0.00000000000E+00  0.71388596900E+03  0.71388596902E+03  0.50400001928E-02 0.  1.
        1   -1    0    0  501    0  0.00000000000E+00  0.00000000000E+00 -0.96748543702E+03  0.96748543703E+03  0.50400001928E-02 0. -1.
    10030    2    1    2    0    0  0.00000000000E+00  0.00000000000E+00 -0.25359946802E+03  0.16813714061E+04  0.16621363106E+04 0.  0.
        1    1    3    3  502    0 -0.73597546734E+03 -0.12813722086E+03 -0.49515000337E+03  0.89624358394E+03  0.50400001928E-02 0. -1.
       -1    1    3    3    0  502  0.73597546734E+03  0.12813722086E+03  0.24155053536E+03  0.78512782211E+03  0.50400001928E-02 0.  1.
</event>
<event>
 5   0  0.3575091E-04  0.1832203E+04  0.7818609E-02  0.8689359E-01
        2   -1    0    0  501    0  0.00000000000E+00  0.00000000000E+00  0.17883385107E+04  0.17883385107E+04  0.25500000920E-02 0. -1.
       -2   -1    0    0    0  501  0.00000000000E+00  0.00000000000E+00 -0.46928608018E+03  0.46928608018E+03  0.25500000920E-02 0.  1.
    10030    2    1    2    0    0  0.00000000000E+00  0.00000000000E+00  0.13190524306E+04  0.22576245909E+04  0.18322034491E+04 0.  0.
        5    1    3    3  502    0 -0.29537669221E+03 -0.81853604392E+03  0.10123109848E+04  0.13349323074E+04  0.46999998093E+01 0.  1.
       -5    1    3    3    0  502  0.29537669221E+03  0.81853604392E+03  0.30674144580E+03  0.92269228352E+03  0.46999998093E+01 0. -1.
</event>
<event>
 5   0  0.1825253E-04  0.1348815E+04  0.7818609E-02  0.8991726E-01
        1   -1    0    0  501    0  0.00000000000E+00  0.00000000000E+00  0.14370119294E+04  0.14370119294E+04  0.50400001928E-02 0. -1.
       -1   -1    0    0    0  501  0.00000000000E+00  0.00000000000E+00 -0.31650773169E+03  0.31650773173E+03  0.50400001928E-02 0.  1.
    10030    2    1    2    0    0  0.00000000000E+00  0.00000000000E+00  0.11205041977E+04  0.17535196612E+04  0.13488148668E+04 0.  0.
        4    1    3    3  502    0 -0.65468695638E+02 -0.27674531186E+03 -0.23474375622E+03  0.36875515146E+03  0.12699999809E+01 0.  1.
       -4    1    3    3    0  502  0.65468695638E+02  0.27674531186E+03  0.13552479539E+04  0.13847645097E+04  0.12699999809E+01 0. -1.
</event>
<event>
 5   0  0.3575091E-04  0.1800515E+04  0.7818609E-02  0.8706026E-01
       -2   -1    0    0    0  501  0.00000000000E+00  0.00000000000E+00  0.33668231997E+03  0.33668231998E+03  0.25500000920E-02 0. -1.
        2   -1    0    0  501    0  0.00000000000E+00  0.00000000000E+00 -0.24072057967E+04  0.24072057967E+04  0.25500000920E-02 0.  1.
    10030    2    1    2    0    0  0.00000000000E+00  0.00000000000E+00 -0.20705234767E+04  0.27438881167E+04  0.18005150733E+04 0.  0.
        5    1    3    3  502    0  0.35750561711E+03 -0.90367225367E+02  0.21629158939E+03  0.42752852925E+03  0.46999998093E+01 0. -1.
       -5    1    3    3    0  502 -0.35750561711E+03  0.90367225367E+02 -0.22868150661E+04  0.23163595874E+04  0.46999998093E+01 0.  1.
</event>
<event>
 5   0  0.3531266E-04  0.1799361E+04  0.7818609E-02  0.8706640E-01
       -2   -1    0    0    0  501  0.00000000000E+00  0.00000000000E+00  0.78720123396E+03  0.78720123396E+03  0.25500000920E-02 0.  1.
        2   -1    0    0  501    0  0.00000000000E+00  0.00000000000E+00 -0.10282310124E+04  0.10282310124E+04  0.25500000920E-02 0. -1.
    10030    2    1    2    0    0  0.00000000000E+00  0.00000000000E+00 -0.24102977840E+03  0.18154322463E+04  0.17993606884E+04 0.  0.
        3    1    3    3  502    0 -0.65065290268E+03  0.33809576520E+03  0.40545391921E+03  0.83788473970E+03  0.10100000352E+00 0.  1.
       -3    1    3    3    0  502  0.65065290268E+03 -0.33809576520E+03 -0.64648369761E+03  0.97754750662E+03  0.10100000352E+00 0. -1.
</event>
<event>
 5   0  0.3531266E-04  0.1860458E+04  0.7818609E-02  0.8674793E-01
        2   -1    0    0  501    0  0.00000000000E+00  0.00000000000E+00  0.77790338692E+03  0.77790338692E+03  0.25500000920E-02 0. -1.
       -2   -1    0    0    0  501  0.00000000000E+00  0.00000000000E+00 -0.11123820097E+04  0.11123820097E+04  0.25500000920E-02 0.  1.
    10030    2    1    2    0    0  0.00000000000E+00  0.00000000000E+00 -0.33447862282E+03  0.18902853967E+04  0.18604577210E+04 0.  0.
        3    1    3    3  502    0 -0.73729173472E+03  0.34711657732E+03  0.28854688689E+03  0.86449310956E+03  0.10100000352E+00 0. -1.
       -3    1    3    3    0  502  0.73729173472E+03 -0.34711657732E+03 -0.62302550971E+03  0.10257922871E+04  0.10100000352E+00 0.  1.
</event>
<event>
 5   0  0.1883959E-04  0.1800934E+04  0.7818609E-02  0.8705803E-01
        1   -1    0    0  501    0  0.00000000000E+00  0.00000000000E+00  0.12544429566E+04  0.12544429566E+04  0.50400001928E-02 0.  1.
       -1   -1    0    0    0  501  0.00000000000E+00  0.00000000000E+00 -0.64637507990E+03  0.64637507992E+03  0.50400001928E-02 0. -1.
    10030    2    1    2    0    0  0.00000000000E+00  0.00000000000E+00  0.60806787673E+03  0.19008180366E+04  0.18009338315E+04 0.  0.
        5    1    3    3  502    0 -0.37537127079E+03 -0.34454296519E+02 -0.55907875736E+03  0.67430099838E+03  0.46999998093E+01 0. -1.
       -5    1    3    3    0  502  0.37537127079E+03  0.34454296519E+02  0.11671466341E+04  0.12265170382E+04  0.46999998093E+01 0.  1.
</event>
<event>
 5   0  0.3575091E-04  0.1817737E+04  0.7818609E-02  0.8696924E-01
        2   -1    0    0  501    0  0.00000000000E+00  0.00000000000E+00  0.23530214487E+04  0.23530214487E+04  0.25500000920E-02 0.  1.
       -2   -1    0    0    0  501  0.00000000000E+00  0.00000000000E+00 -0.35105572470E+03  0.35105572471E+03  0.25500000920E-02 0. -1.
    10030    2    1    2    0    0  0.00000000000E+00  0.00000000000E+00  0.20019657240E+04  0.27040771734E+04  0.18177366695E+04 0.  0.
        5    1    3    3  502    0  0.37857625053E+03  0.73445347181E+02  0.22252617799E+04  0.22584344745E+04  0.46999998093E+01 0.  1.
       -5    1    3    3    0  502 -0.37857625053E+03 -0.73445347181E+02 -0.22329605593E+03  0.44564269890E+03  0.46999998093E+01 0. -1.
</event>
<event>
 5   0  0.3531266E-04  0.1792649E+04  0.7818609E-02  0.8710218E-01
        2   -1    0    0  501    0  0.00000000000E+00  0.00000000000E+00  0.18739403574E+04  0.18739403574E+04  0.25500000920E-02 0. -1.
       -2   -1    0    0    0  501  0.00000000000E+00  0.00000000000E+00 -0.42872111335E+03  0.42872111336E+03  0.25500000920E-02 0.  1.
    10030    2    1    2    0    0  0.00000000000E+00  0.00000000000E+00  0.14452192441E+04  0.23026614708E+04  0.17926492087E+04 0.  0.
        3    1    3    3  502    0 -0.15202401630E+03 -0.85075919397E+03  0.10279195014E+04  0.13429523518E+04  0.10100000352E+00 0. -1.
       -3    1    3    3    0  502  0.15202401630E+03  0.85075919397E+03  0.41729974273E+03  0.95970911903E+03  0.10100000352E+00 0.  1.
</event>
<event>
 5   0  0.1818778E-04  0.1792204E+04  0.7818609E-02  0.8710456E-01
        1   -1    0    0  501    0  0.00000000000E+00  0.00000000000E+00  0.94782875672E+03  0.94782875673E+03  0.50400001928E-02 0.  1.
       -1   -1    0    0    0  501  0.00000000000E+00  0.00000000000E+00 -0.84719818828E+03  0.84719818829E+03  0.50400001928E-02 0. -1.
    10030    2    1    2    0    0  0.00000000000E+00  0.00000000000E+00  0.10063056844E+03  0.17950269450E+04  0.17922040124E+04 0.  0.
        3    1    3    3  502    0  0.13470547103E+01  0.71564214776E+03  0.59047292341E+03  0.92779511838E+03  0.10100000352E+00 0.  1.
       -3    1    3    3    0  502 -0.13470547103E+01 -0.71564214776E+03 -0.48984235497E+03  0.86723182664E+03  0.10100000352E+00 0. -1.
</event>
<event>
 5   0  0.1818778E-04  0.1816628E+04  0.7818609E-02  0.8697507E-01
        1   -1    0    0  501    0  0.00000000000E+00  0.00000000000E+00  0.18614117020E+04  0.18614117020E+04  0.50400001928E-02 0. -1.
       -1   -1    0    0    0  501  0.00000000000E+00  0.00000000000E+00 -0.44323033717E+03  0.44323033720E+03  0.50400001928E-02 0.  1.
    10030    2    1    2    0    0  0.00000000000E+00  0.00000000000E+00  0.14181813648E+04  0.23046420392E+04  0.18166277949E+04 0.  0.
        3    1    3    3  502    0 -0.87537029666E+03  0.17516914736E+03  0.92166503364E+03  0.12831304809E+04  0.10100000352E+00 0.  1.
       -3    1    3    3    0  502  0.87537029666E+03 -0.17516914736E+03  0.49651633115E+03  0.10215115583E+04  0.10100000352E+00 0. -1.
</event>
<event>
 5   0  0.1825253E-04  0.1804923E+04  0.7818609E-02  0.8703686E-01
       -1   -1    0    0    0  501  0.00000000000E+00  0.00000000000E+00  0.57986253147E+03  0.57986253149E+03  0.50400001928E-02 0. -1.
        1   -1    0    0  501    0  0.00000000000E+00  0.00000000000E+00 -0.14045341029E+04  0.14045341029E+04  0.50400001928E-02 0.  1.
    10030    2    1    2    0    0  0.00000000000E+00  0.00000000000E+00 -0.82467157147E+03  0.19843966344E+04  0.18049229352E+04 0.  0.
        4    1    3    3  502    0  0.82877300942E+03  0.32424907688E+03 -0.24766644484E+03  0.92376536295E+03  0.12699999809E+01 0. -1.
       -4    1    3    3    0  502 -0.82877300942E+03 -0.32424907688E+03 -0.57700512663E+03  0.10606312715E+04  0.12699999809E+01 0.  1.
</event>
<event>
 5   0  0.3568870E-04  0.1810429E+04  0.7818609E-02  0.8700773E-01
        2   -1    0    0  501    0  0.00000000000E+00  0.00000000000E+00  0.18956687315E+04  0.18956687315E+04  0.25500000920E-02 0.  1.
       -2   -1    0    0    0  501  0.00000000000E+00  0.00000000000E+00 -0.43225562364E+03  0.43225562365E+03  0.25500000920E-02 0. -1.
    10030    2    1    2    0    0  0.00000000000E+00  0.00000000000E+00  0.14634131079E+04  0.23279243552E+04  0.18104291975E+04 0.  0.
        1    1    3    3  502    0 -0.57089861831E+03 -0.27093528513E+03  0.15651085091E+04  0.16878672360E+04  0.50400001928E-02 0.  1.
       -1    1    3    3    0  502  0.57089861831E+03  0.27093528513E+03 -0.10169540124E+03  0.64005711915E+03  0.50400001928E-02 0. -1.
</event>
<event>
 5   0  0.3575091E-04  0.1801125E+04  0.7818609E-02  0.8705701E-01
        2   -1    0    0  501    0  0.00000000000E+00  0.00000000000E+00  0.17378525585E+04  0.17378525585E+04  0.25500000920E-02 0.  1.
       -2   -1    0    0    0  501  0.00000000000E+00  0.00000000000E+00 -0.46667545347E+03  0.46667545348E+03  0.25500000920E-02 0. -1.
    10030    2    1    2    0    0  0.00000000000E+00  0.00000000000E+00  0.12711771050E+04  0.22045280120E+04  0.18011253491E+04 0.  0.
        5    1    3    3  502    0  0.13230905321E+03 -0.32408217679E+03  0.16511584245E+04  0.16878629019E+04  0.46999998093E+01 0.  1.
       -5    1    3    3    0  502 -0.13230905321E+03  0.32408217679E+03 -0.37998131943E+03  0.51666511009E+03  0.46999998093E+01 0. -1.
</event>
<event>
 5   0  0.3628581E-04  0.1815876E+04  0.7818609E-02  0.8697902E-01
        2   -1    0    0  501    0  0.00000000000E+00  0.00000000000E+00  0.16873585606E+04  0.16873585606E+04  0.25500000920E-02 0. -1.
       -2   -1    0    0    0  501  0.00000000000E+00  0.00000000000E+00 -0.48854534457E+03  0.48854534458E+03  0.25500000920E-02 0.  1.
    10030    2    1    2    0    0  0.00000000000E+00  0.00000000000E+00  0.11988132160E+04  0.21759039052E+04  0.18158757330E+04 0.  0.
        2    1    3    3  502    0  0.35679909664E+03  0.49892476281E+03 -0.20273414857E+03  0.64601288634E+03  0.25500000920E-02 0.  1.
       -2    1    3    3    0  502 -0.35679909664E+03 -0.49892476281E+03  0.14015473646E+04  0.15298910188E+04  0.25500000920E-02 0. -1.
</event>
<event>
 5   0  0.3531266E-04  0.1791988E+04  0.7818609E-02  0.8710572E-01
        2   -1    0    0  501    0  0.00000000000E+00  0.00000000000E+00  0.13915355395E+04  0.13915355395E+04  0.25500000920E-02 0. -1.
       -2   -1    0    0    0  501  0.00000000000E+00  0.00000000000E+00 -0.57692036111E+03  0.57692036112E+03  0.25500000920E-02 0.  1.
    10030    2    1    2    0    0  0.00000000000E+00  0.00000000000E+00  0.81461517836E+03  0.19684559006E+04  0.17919879307E+04 0.  0.
        3    1    3    3  502    0  0.41895404431E+03  0.72633390364E+03  0.75419260795E+03  0.11277809765E+04  0.10100000352E+00 0. -1.
       -3    1    3    3    0  502 -0.41895404431E+03 -0.72633390364E+03  0.60422570402E+02  0.84067492411E+03  0.10100000352E+00 0.  1.
</event>
<event>
 5   0  0.1835421E-04  0.1684760E+04  0.7818609E-02  0.8770104E-01
        1   -1    0    0  501    0  0.00000000000E+00  0.00000000000E+00  0.11170647654E+04  0.11170647654E+04  0.50400001928E-02 0.  1.
       -1   -1    0    0    0  501  0.00000000000E+00  0.00000000000E+00 -0.63524002858E+03  0.63524002860E+03  0.50400001928E-02 0. -1.
    10030    2    1    2    0    0  0.00000000000E+00  0.00000000000E+00  0.48182473681E+03  0.17523047940E+04  0.16847602245E+04 0.  0.
        2    1    3    3  502    0 -0.73812643075E+03  0.33468963522E+03  0.47980867115E+03  0.94184082551E+03  0.25500000920E-02 0.  1.
       -2    1    3    3    0  502  0.73812643075E+03 -0.33468963522E+03  0.20160656620E+01  0.81046396849E+03  0.25500000920E-02 0. -1.
</event>
<event>
 5   0  0.1837313E-04  0.1810759E+04  0.7818609E-02  0.8700599E-01
       -1   -1    0    0    0  501  0.00000000000E+00  0.00000000000E+00  0.10873447858E+04  0.10873447858E+04  0.50400001928E-02 0. -1.
        1   -1    0    0  501    0  0.00000000000E+00  0.00000000000E+00 -0.75386538157E+03  0.75386538159E+03  0.50400001928E-02 0.  1.
    10030    2    1    2    0    0  0.00000000000E+00  0.00000000000E+00  0.33347940418E+03  0.18412101674E+04  0.18107585061E+04 0.  0.
        1    1    3    3  502    0 -0.56625272335E+03  0.45478625120E+03 -0.38294272199E+03  0.82104677658E+03  0.50400001928E-02 0.  1.
       -1    1    3    3    0  502  0.56625272335E+03 -0.45478625120E+03  0.71642212617E+03  0.10201633908E+04  0.50400001928E-02 0. -1.
</event>
<event>
 5   0  0.3531266E-04  0.1783390E+04  0.7818609E-02  0.8715183E-01
        2   -1    0    0  501    0  0.00000000000E+00  0.00000000000E+00  0.14972847915E+04  0.14972847915E+04  0.25500000920E-02 0. -1.
       -2   -1    0    0    0  501  0.00000000000E+00  0.00000000000E+00 -0.53104108331E+03  0.53104108332E+03  0.25500000920E-02 0.  1.
    10030    2    1    2    0    0  0.00000000000E+00  0.00000000000E+00  0.96624370815E+03  0.20283258748E+04  0.17833897361E+04 0.  0.
        3    1    3    3  502    0  0.23602746522E+03 -0.84940552709E+03  0.33086643674E+03  0.94163226525E+03  0.10100000352E+00 0.  1.
       -3    1    3    3    0  502 -0.23602746522E+03  0.84940552709E+03  0.63537727141E+03  0.10866936095E+04  0.10100000352E+00 0. -1.
</event>
<event>
 5   0  0.3575091E-04  0.1825389E+04  0.7818609E-02  0.8692913E-01
        2   -1    0    0  501    0  0.00000000000E+00  0.00000000000E+00  0.17236617442E+04  0.17236617442E+04  0.25500000920E-02 0.  1.
       -2   -1    0    0    0  501  0.00000000000E+00  0.00000000000E+00 -0.48327981771E+03  0.48327981772E+03  0.25500000920E-02 0. -1.
    10030    2    1    2    0    0  0.00000000000E+00  0.00000000000E+00  0.12403819264E+04  0.22069415619E+04  0.18253886529E+04 0.  0.
        5    1    3    3  502    0  0.13170593157E+03 -0.78842769602E+03  0.87637280658E+02  0.80415612117E+03  0.46999998093E+01 0. -1.
       -5    1    3    3    0  502 -0.13170593157E+03  0.78842769602E+03  0.11527446458E+04  0.14027854407E+04  0.46999998093E+01 0.  1.
</event>
<event>
 5   0  0.1818778E-04  0.1861635E+04  0.7818609E-02  0.8674192E-01
       -1   -1    0    0    0  501  0.00000000000E+00  0.00000000000E+00  0.57910051436E+03  0.57910051439E+03  0.50400001928E-02 0. -1.
        1   -1    0    0  501    0  0.00000000000E+00  0.00000000000E+00 -0.14961503992E+04  0.14961503992E+04  0.50400001928E-02 0.  1.
    10030    2    1    2    0    0  0.00000000000E+00  0.00000000000E+00 -0.91704988482E+03  0.20752509136E+04  0.18616352658E+04 0.  0.
        3    1    3    3  502    0  0.33476864593E+03  0.58291103256E+03  0.25922460760E+03  0.72045313904E+03  0.10100000352E+00 0. -1.
       -3    1    3    3    0  502 -0.33476864593E+03 -0.58291103256E+03 -0.11762744924E+04  0.13547977745E+04  0.10100000352E+00 0.  1.
</event>
<event>
 5   0  0.1835421E-04  0.1812351E+04  0.7818609E-02  0.8699759E-01
       -1   -1    0    0    0  501  0.00000000000E+00  0.00000000000E+00  0.73056588345E+03  0.73056588347E+03  0.50400001928E-02 0. -1.
        1   -1    0    0  501    0  0.00000000000E+00  0.00000000000E+00 -0.11239969492E+04  0.11239969493E+04  0.50400001928E-02 0.  1.
    10030    2    1    2    0    0  0.00000000000E+00  0.00000000000E+00 -0.39343106580E+03  0.18545628327E+04  0.18123507654E+04 0.  0.
        2    1    3    3  502    0  0.51023055880E+03  0.50655564962E+03 -0.76112353097E+03  0.10470161788E+04  0.25500000920E-02 0.  1.
       -2    1    3    3    0  502 -0.51023055880E+03 -0.50655564962E+03  0.36769246517E+03  0.80754665391E+03  0.25500000920E-02 0. -1.
</event>
<event>
 5   0  0.1835421E-04  0.1813066E+04  0.7818609E-02  0.8699382E-01
        1   -1    0    0  501    0  0.00000000000E+00  0.00000000000E+00  0.74319993530E+03  0.74319993532E+03  0.50400001928E-02 0. -1.
       -1   -1    0    0    0  501  0.00000000000E+00  0.00000000000E+00 -0.11057619755E+04  0.11057619756E+04  0.50400001928E-02 0.  1.
    10030    2    1    2    0    0  0.00000000000E+00  0.00000000000E+00 -0.36256204024E+03  0.18489619109E+04  0.18130661639E+04 0.  0.
        2    1    3    3  502    0  0.61135940097E+03 -0.23409396800E+02  0.50091295116E+03  0.79070987199E+03  0.25500000920E-02 0. -1.
       -2    1    3    3    0  502 -0.61135940097E+03  0.23409396800E+02 -0.86347499141E+03  0.10582520389E+04  0.25500000920E-02 0.  1.
</event>
<event>
 5   0  0.3582186E-04  0.1808503E+04  0.7818609E-02  0.8701791E-01
        2   -1    0    0  501    0  0.00000000000E+00  0.00000000000E+00  0.90296961238E+03  0.90296961238E+03  0.25500000920E-02 0.  1.
       -2   -1    0    0    0  501  0.00000000000E+00  0.00000000000E+00 -0.90553500905E+03  0.90553500905E+03  0.25500000920E-02 0. -1.
    10030    2    1    2    0    0  0.00000000000E+00  0.00000000000E+00 -0.25653966693E+01  0.18085046214E+04  0.18085028019E+04 0.  0.
        4    1    3    3  502    0  0.71318784603E+03  0.14101257257E+03 -0.53900764261E+03  0.90501508332E+03  0.12699999809E+01 0. -1.
       -4    1    3    3    0  502 -0.71318784603E+03 -0.14101257257E+03  0.53644224594E+03  0.90348953811E+03  0.12699999809E+01 0.  1.
</event>
<event>
 5   0  0.1883959E-04  0.1717658E+04  0.7818609E-02  0.8751357E-01
       -1   -1    0    0    0  501  0.00000000000E+00  0.00000000000E+00  0.13024414290E+04  0.13024414290E+04  0.50400001928E-02 0.  1.
        1   -1    0    0  501    0  0.00000000000E+00  0.00000000000E+00 -0.56631095699E+03  0.56631095701E+03  0.50400001928E-02 0. -1.
    10030    2    1    2    0    0  0.00000000000E+00  0.00000000000E+00  0.73613047200E+03  0.18687523860E+04  0.17176575353E+04 0.  0.
        5    1    3    3  502    0 -0.10462783070E+03  0.78621027910E+03  0.72641934617E+03  0.10755374203E+04  0.46999998093E+01 0.  1.
       -5    1    3    3    0  502  0.10462783070E+03 -0.78621027910E+03  0.97111258388E+01  0.79321496575E+03  0.46999998093E+01 0. -1.
</event>
<event>
 5   0  0.3575091E-04  0.1796733E+04  0.7818609E-02  0.8708039E-01
       -2   -1    0    0    0  501  0.00000000000E+00  0.00000000000E+00  0.51371459054E+03  0.51371459055E+03  0.25500000920E-02 0.  1.
        2   -1    0    0  501    0  0.00000000000E+00  0.00000000000E+00 -0.15710318334E+04  0.15710318334E+04  0.25500000920E-02 0. -1.
    10030    2    1    2    0    0  0.00000000000E+00  0.00000000000E+00 -0.10573172429E+04  0.20847464239E+04  0.17967325622E+04 0.  0.
        5    1    3    3  502    0 -0.76227408292E+03  0.44889886561E+03 -0.71015513599E+03  0.11344224858E+04  0.46999998093E+01 0. -1.
       -5    1    3    3    0  502  0.76227408292E+03 -0.44889886561E+03 -0.34716210687E+03  0.95032393818E+03  0.46999998093E+01 0.  1.
</event>
<event>
 5   0  0.1835421E-04  0.1802306E+04  0.7818609E-02  0.8705074E-01
       -1   -1    0    0    0  501  0.00000000000E+00  0.00000000000E+00  0.12147072061E+04  0.12147072061E+04  0.50400001928E-02 0. -1.
        1   -1    0    0  501    0  0.00000000000E+00  0.00000000000E+00 -0.66853691808E+03  0.66853691810E+03  0.50400001928E-02 0.  1.
    10030    2    1    2    0    0  0.00000000000E+00  0.00000000000E+00  0.54617028804E+03  0.18832441242E+04  0.18023058697E+04 0.  0.
        2    1    3    3  502    0 -0.33477004397E+03 -0.64061025797E+03  0.83542063324E+03  0.11047081603E+04  0.25500000920E-02 0. -1.
       -2    1    3    3    0  502  0.33477004397E+03  0.64061025797E+03 -0.28925034520E+03  0.77853596395E+03  0.25500000920E-02 0.  1.
</event>
<event>
 5   0  0.3568870E-04  0.1781241E+04  0.7818609E-02  0.8716339E-01
       -2   -1    0    0    0  501  0.00000000000E+00  0.00000000000E+00  0.10954537201E+04  0.10954537201E+04  0.25500000920E-02 0.  1.
        2   -1    0    0  501    0  0.00000000000E+00  0.00000000000E+00 -0.72408817367E+03  0.72408817368E+03  0.25500000920E-02 0. -1.
    10030    2    1    2    0    0  0.00000000000E+00  0.00000000000E+00  0.37136554646E+03  0.18195418938E+04  0.17812412342E+04 0.  0.
        1    1    3    3  502    0  0.29457745756E+03 -0.43225972899E+03 -0.55063593977E+03  0.75948949301E+03  0.50400001928E-02 0. -1.
       -1    1    3    3    0  502 -0.29457745756E+03  0.43225972899E+03  0.92200148623E+03  0.10600524008E+04  0.50400001928E-02 0.  1.
</event>
<event>
 5   0  0.1883959E-04  0.1992541E+04  0.7818609E-02  0.8610116E-01
        1   -1    0    0  501    0  0.00000000000E+00  0.00000000000E+00  0.15066953945E+04  0.15066953945E+04  0.50400001928E-02 0.  1.
       -1   -1    0    0    0  501  0.00000000000E+00  0.00000000000E+00 -0.65876269187E+03  0.65876269189E+03  0.50400001928E-02 0. -1.
    10030    2    1    2    0    0  0.00000000000E+00  0.00000000000E+00  0.84793270267E+03  0.21654580864E+04  0.19925408041E+04 0.  0.
        5    1    3    3  502    0  0.69636621390E+03 -0.66866618581E+03  0.69126233604E+03  0.11873946602E+04  0.46999998093E+01 0.  1.
       -5    1    3    3    0  502 -0.69636621390E+03  0.66866618581E+03  0.15667036663E+03  0.97806342621E+03  0.46999998093E+01 0. -1.
</event>
<event>
 5   0  0.1330125E-04  0.1759801E+04  0.7818609E-02  0.8727974E-01
        4   -1    0    0  501    0  0.00000000000E+00  0.00000000000E+00  0.62742886889E+03  0.62743015421E+03  0.12699999809E+01 0.  1.
       -4   -1    0    0    0  501  0.00000000000E+00  0.00000000000E+00 -0.12339610109E+04  0.12339616644E+04  0.12699999809E+01 0. -1.
    10030    2    1    2    0    0  0.00000000000E+00  0.00000000000E+00 -0.60653214196E+03  0.18613918186E+04  0.17598006316E+04 0.  0.
        4    1    3    3  502    0  0.43320263441E+03  0.13914208877E+03  0.49333638724E+03  0.67112401775E+03  0.12699999809E+01 0.  1.
       -4    1    3    3    0  502 -0.43320263441E+03 -0.13914208877E+03 -0.10998685292E+04  0.11902678009E+04  0.12699999809E+01 0. -1.
</event>
<event>
 5   0  0.3628581E-04  0.1810378E+04  0.7818609E-02  0.8700800E-01
       -2   -1    0    0    0  501  0.00000000000E+00  0.00000000000E+00  0.10047998770E+04  0.10047998770E+04  0.25500000920E-02 0. -1.
        2   -1    0    0  501    0  0.00000000000E+00  0.00000000000E+00 -0.81545336693E+03  0.81545336694E+03  0.25500000920E-02 0.  1.
    10030    2    1    2    0    0  0.00000000000E+00  0.00000000000E+00  0.18934651007E+03  0.18202532439E+04  0.18103783503E+04 0.  0.
        2    1    3    3  502    0 -0.31931522302E+03 -0.29924101735E+02 -0.75641290332E+03  0.82159487817E+03  0.25500000920E-02 0.  1.
       -2    1    3    3    0  502  0.31931522302E+03  0.29924101735E+02  0.94575941339E+03  0.99865836578E+03  0.25500000920E-02 0. -1.
</event>
<event>
 5   0  0.3628581E-04  0.1804325E+04  0.7818609E-02  0.8704003E-01
       -2   -1    0    0    0  501  0.00000000000E+00  0.00000000000E+00  0.10523780148E+04  0.10523780148E+04  0.25500000920E-02 0. -1.
        2   -1    0    0  501    0  0.00000000000E+00  0.00000000000E+00 -0.77338886395E+03  0.77338886395E+03  0.25500000920E-02 0.  1.
    10030    2    1    2    0    0  0.00000000000E+00  0.00000000000E+00  0.27898915086E+03  0.18257668788E+04  0.18043252892E+04 0.  0.
        2    1    3    3  502    0 -0.54904767040E+03  0.49820048820E+03  0.65964633220E+03  0.99236603852E+03  0.25500000920E-02 0. -1.
       -2    1    3    3    0  502  0.54904767040E+03 -0.49820048820E+03 -0.38065718134E+03  0.83340084025E+03  0.25500000920E-02 0.  1.
</event>
<event>
 5   0  0.3582186E-04  0.1766723E+04  0.7818609E-02  0.8724199E-01
        2   -1    0    0  501    0  0.00000000000E+00  0.00000000000E+00  0.15818532547E+04  0.15818532547E+04  0.25500000920E-02 0.  1.
       -2   -1    0    0    0  501  0.00000000000E+00  0.00000000000E+00 -0.49329940970E+03  0.49329940970E+03  0.25500000920E-02 0. -1.
    10030    2    1    2    0    0  0.00000000000E+00  0.00000000000E+00  0.10885538450E+04  0.20751526644E+04  0.17667227024E+04 0.  0.
        4    1    3    3  502    0  0.59336189435E+03 -0.62840577435E+03  0.75878933541E+03  0.11501021795E+04  0.12699999809E+01 0. -1.
       -4    1    3    3    0  502 -0.59336189435E+03  0.62840577435E+03  0.32976450961E+03  0.92505048490E+03  0.12699999809E+01 0.  1.
</event>
<event>
 5   0  0.3628581E-04  0.1819156E+04  0.7818609E-02  0.8696178E-01
        2   -1    0    0  501    0  0.00000000000E+00  0.00000000000E+00  0.66534438608E+03  0.66534438609E+03  0.25500000920E-02 0.  1.
       -2   -1    0    0    0  501  0.00000000000E+00  0.00000000000E+00 -0.12434646860E+04  0.12434646861E+04  0.25500000920E-02 0. -1.
    10030    2    1    2    0    0  0.00000000000E+00  0.00000000000E+00 -0.57812029997E+03  0.19088090721E+04  0.18191561210E+04 0.  0.
        2    1    3    3  502    0  0.67584186727E+03  0.48518231450E+03 -0.67483124845E+03  0.10712428864E+04  0.25500000920E-02 0. -1.
       -2    1    3    3    0  502 -0.67584186727E+03 -0.48518231450E+03  0.96710948486E+02  0.83756618570E+03  0.25500000920E-02 0.  1.
</event>
<event>
 5   0  0.3628581E-04  0.1791057E+04  0.7818609E-02  0.8711070E-01
       -2   -1    0    0    0  501  0.00000000000E+00  0.00000000000E+00  0.59165615253E+03  0.59165615254E+03  0.25500000920E-02 0.  1.
        2   -1    0    0  501    0  0.00000000000E+00  0.00000000000E+00 -0.13554685861E+04  0.13554685861E+04  0.25500000920E-02 0. -1.
    10030    2    1    2    0    0  0.00000000000E+00  0.00000000000E+00 -0.76381243357E+03  0.19471247386E+04  0.17910570382E+04 0.  0.
        2    1    3    3  502    0 -0.13108845467E+03  0.55845686267E+03  0.36570364252E+03  0.68029214648E+03  0.25500000920E-02 0.  1.
       -2    1    3    3    0  502  0.13108845467E+03 -0.55845686267E+03 -0.11295160761E+04  0.12668325922E+04  0.25500000920E-02 0. -1.
</event>
<event>
 5   0  0.3531266E-04  0.1806022E+04  0.7818609E-02  0.8703104E-01
        2   -1    0    0  501    0  0.00000000000E+00  0.00000000000E+00  0.17541448329E+04  0.17541448329E+04  0.25500000920E-02 0.  1.
       -2   -1    0    0    0  501  0.00000000000E+00  0.00000000000E+00 -0.46485817736E+03  0.46485817737E+03  0.25500000920E-02 0. -1.
    10030    2    1    2    0    0  0.00000000000E+00  0.00000000000E+00  0.12892866555E+04  0.22190030102E+04  0.18060216719E+04 0.  0.
        3    1    3    3  502    0 -0.36982519928E+03 -0.51356629961E+02  0.16548606887E+04  0.16964586911E+04  0.10100000352E+00 0.  1.
       -3    1    3    3    0  502  0.36982519928E+03  0.51356629961E+02 -0.36557403321E+03  0.52254431910E+03  0.10100000352E+00 0. -1.
</event>
<event>
 5   0  0.1825253E-04  0.1807647E+04  0.7818609E-02  0.8702243E-01
        1   -1    0    0  501    0  0.00000000000E+00  0.00000000000E+00  0.14855164974E+04  0.14855164974E+04  0.50400001928E-02 0. -1.
       -1   -1    0    0    0  501  0.00000000000E+00  0.00000000000E+00 -0.54990779036E+03  0.54990779039E+03  0.50400001928E-02 0.  1.
    10030    2    1    2    0    0  0.00000000000E+00  0.00000000000E+00  0.93560870703E+03  0.20354242878E+04  0.18076471942E+04 0.  0.
        4    1    3    3  502    0  0.71346202582E+03  0.23513660478E+03  0.10337037230E+04  0.12778349992E+04  0.12699999809E+01 0. -1.
       -4    1    3    3    0  502 -0.71346202582E+03 -0.23513660478E+03 -0.98095015984E+02  0.75758928863E+03  0.12699999809E+01 0.  1.
</event>
<event>
 5   0  0.1837313E-04  0.1796216E+04  0.7818609E-02  0.8708314E-01
        1   -1    0    0  501    0  0.00000000000E+00  0.00000000000E+00  0.56692192632E+03  0.56692192634E+03  0.50400001928E-02 0. -1.
       -1   -1    0    0    0  501  0.00000000000E+00  0.00000000000E+00 -0.14227668583E+04  0.14227668583E+04  0.50400001928E-02 0.  1.
    10030    2    1    2    0    0  0.00000000000E+00  0.00000000000E+00 -0.85584493195E+03  0.19896887846E+04  0.17962157198E+04 0.  0.
        1    1    3    3  502    0 -0.56595690270E+03  0.48580011796E+03 -0.98209797699E+03  0.12332175018E+04  0.50400001928E-02 0.  1.
       -1    1    3    3    0  502  0.56595690270E+03 -0.48580011796E+03  0.12625304503E+03  0.75647128282E+03  0.50400001928E-02 0. -1.
</event>
<event>
 5   0  0.1818778E-04  0.1794437E+04  0.7818609E-02  0.8709263E-01
        1   -1    0    0  501    0  0.00000000000E+00  0.00000000000E+00  0.54156936962E+03  0.54156936965E+03  0.50400001928E-02 0. -1.
       -1   -1    0    0    0  501  0.00000000000E+00  0.00000000000E+00 -0.14864233550E+04  0.14864233550E+04  0.50400001928E-02 0.  1.
    10030    2    1    2    0    0  0.00000000000E+00  0.00000000000E+00 -0.94485398539E+03  0.20279927247E+04  0.17944373596E+04 0.  0.
        3    1    3    3  502    0  0.67636953989E+03  0.11471036290E+03 -0.11259334409E+04  0.13184689398E+04  0.10100000352E+00 0.  1.
       -3    1    3    3    0  502 -0.67636953989E+03 -0.11471036290E+03  0.18107945548E+03  0.70952378483E+03  0.10100000352E+00 0. -1.
</event>
<event>
 5   0  0.1835421E-04  0.1734600E+04  0.7818609E-02  0.8741873E-01
        1   -1    0    0  501    0  0.00000000000E+00  0.00000000000E+00  0.98720915056E+03  0.98720915057E+03  0.50400001928E-02 0. -1.
       -1   -1    0    0    0  501  0.00000000000E+00  0.00000000000E+00 -0.76195559993E+03  0.76195559995E+03  0.50400001928E-02 0.  1.
    10030    2    1    2    0    0  0.00000000000E+00  0.00000000000E+00  0.22525355063E+03  0.17491647505E+04  0.17346002889E+04 0.  0.
        2    1    3    3  502    0 -0.29808671825E+03  0.46143688473E+03 -0.56414912354E+03  0.78742867853E+03  0.25500000920E-02 0.  1.
       -2    1    3    3    0  502  0.29808671825E+03 -0.46143688473E+03  0.78940267416E+03  0.96173607199E+03  0.25500000920E-02 0. -1.
</event>
<event>
 5   0  0.1837313E-04  0.1822919E+04  0.7818609E-02  0.8694205E-01
       -1   -1    0    0    0  501  0.00000000000E+00  0.00000000000E+00  0.41667928189E+03  0.41667928192E+03  0.50400001928E-02 0. -1.
        1   -1    0    0  501    0  0.00000000000E+00  0.00000000000E+00 -0.19937604238E+04  0.19937604238E+04  0.50400001928E-02 0.  1.
    10030    2    1    2    0    0  0.00000000000E+00  0.00000000000E+00 -0.15770811419E+04  0.24104397057E+04  0.18229192650E+04 0.  0.
        1    1    3    3  502    0  0.31715733566E+03 -0.10401582639E+03 -0.19100402179E+04  0.19389847090E+04  0.50400001928E-02 0.  1.
       -1    1    3    3    0  502 -0.31715733566E+03  0.10401582639E+03  0.33295907595E+03  0.47145499678E+03  0.50400001928E-02 0. -1.
</event>
<event>
 5   0  0.3582186E-04  0.1808341E+04  0.7818609E-02  0.8701876E-01
       -2   -1    0    0    0  501  0.00000000000E+00  0.00000000000E+00  0.35346780932E+03  0.35346780933E+03  0.25500000920E-02 0.  1.
        2   -1    0    0  501    0  0.00000000000E+00  0.00000000000E+00 -0.23128676178E+04  0.23128676178E+04  0.25500000920E-02 0. -1.
    10030    2    1    2    0    0  0.00000000000E+00  0.00000000000E+00 -0.19593998085E+04  0.26663354272E+04  0.18083409525E+04 0.  0.
        4    1    3    3  502    0 -0.40610603064E+03  0.27050706705E+03 -0.21020636396E+04  0.21579548974E+04  0.12699999809E+01 0. -1.
       -4    1    3    3    0  502  0.40610603064E+03 -0.27050706705E+03  0.14266383107E+03  0.50838052977E+03  0.12699999809E+01 0.  1.
</event>
<event>
 5   0  0.3582186E-04  0.1876629E+04  0.7818609E-02  0.8666578E-01
       -2   -1    0    0    0  501  0.00000000000E+00  0.00000000000E+00  0.13210276175E+04  0.13210276176E+04  0.25500000920E-02 0. -1.
        2   -1    0    0  501    0  0.00000000000E+00  0.00000000000E+00 -0.66647666386E+03  0.66647666387E+03  0.25500000920E-02 0.  1.
    10030    2    1    2    0    0  0.00000000000E+00  0.00000000000E+00  0.65455095369E+03  0.19875042814E+04  0.18766289771E+04 0.  0.
        4    1    3    3  502    0  0.20316179255E+02 -0.46905034654E+03 -0.53313443255E+03  0.71039067477E+03  0.12699999809E+01 0.  1.
       -4    1    3    3    0  502 -0.20316179255E+02  0.46905034654E+03  0.11876853862E+04  0.12771136067E+04  0.12699999809E+01 0. -1.
</event>
<event>
 5   0  0.3628581E-04  0.1823700E+04  0.7818609E-02  0.8693796E-01
       -2   -1    0    0    0  501  0.00000000000E+00  0.00000000000E+00  0.50547224660E+03  0.50547224660E+03  0.25500000920E-02 0.  1.
        2   -1    0    0  501    0  0.00000000000E+00  0.00000000000E+00 -0.16449386540E+04  0.16449386540E+04  0.25500000920E-02 0. -1.
    10030    2    1    2    0    0  0.00000000000E+00  0.00000000000E+00 -0.11394664074E+04  0.21504109006E+04  0.18237004545E+04 0.  0.
        2    1    3    3  502    0  0.32438810428E+02  0.88970609829E+03 -0.80212276144E+03  0.11983447510E+04  0.25500000920E-02 0. -1.
       -2    1    3    3    0  502 -0.32438810428E+02 -0.88970609829E+03 -0.33734364594E+03  0.95206614961E+03  0.25500000920E-02 0.  1.
</event>
<event>
 5   0  0.1883959E-04  0.1770673E+04  0.7818609E-02  0.8722053E-01
        1   -1    0    0  501    0  0.00000000000E+00  0.00000000000E+00  0.89256878519E+03  0.89256878521E+03  0.50400001928E-02 0.  1.
       -1   -1    0    0    0  501  0.00000000000E+00  0.00000000000E+00 -0.87816264576E+03  0.87816264577E+03  0.50400001928E-02 0. -1.
    10030    2    1    2    0    0  0.00000000000E+00  0.00000000000E+00  0.14406139433E+02  0.17707314310E+04  0.17706728280E+04 0.  0.
        5    1    3    3  502    0  0.77730655768E+03 -0.42328677413E+03 -0.13323159015E+02  0.88519872025E+03  0.46999998093E+01 0. -1.
       -5    1    3    3    0  502 -0.77730655768E+03  0.42328677413E+03  0.27729298447E+02  0.88553271073E+03  0.46999998093E+01 0.  1.
</event>
<event>
 5   0  0.1825253E-04  0.1767932E+04  0.7818609E-02  0.8723541E-01
        1   -1    0    0  501    0  0.00000000000E+00  0.00000000000E+00  0.17221731312E+04  0.17221731312E+04  0.50400001928E-02 0. -1.
       -1   -1    0    0    0  501  0.00000000000E+00  0.00000000000E+00 -0.45372660411E+03  0.45372660414E+03  0.50400001928E-02 0.  1.
    10030    2    1    2    0    0  0.00000000000E+00  0.00000000000E+00  0.12684465270E+04  0.21758997353E+04  0.17679318613E+04 0.  0.
        4    1    3    3  502    0  0.26174237621E+03 -0.33270868696E+03  0.15893040989E+04  0.16447167761E+04  0.12699999809E+01 0. -1.
       -4    1    3    3    0  502 -0.26174237621E+03  0.33270868696E+03 -0.32085757183E+03  0.53118295924E+03  0.12699999809E+01 0.  1.
</event>
<event>
 5   0  0.1818778E-04  0.1817024E+04  0.7818609E-02  0.8697298E-01
       -1   -1    0    0    0  501  0.00000000000E+00  0.00000000000E+00  0.71325720540E+03  0.71325720542E+03  0.50400001928E-02 0.  1.
        1   -1    0    0  501    0  0.00000000000E+00  0.00000000000E+00 -0.11572176478E+04  0.11572176478E+04  0.50400001928E-02 0. -1.
    10030    2    1    2    0    0  0.00000000000E+00  0.00000000000E+00 -0.44396044236E+03  0.18704748532E+04  0.18170237483E+04 0.  0.
        3    1    3    3  502    0 -0.75555622989E+03 -0.94547709072E+02  0.28816757757E+03  0.81415296399E+03  0.10100000352E+00 0.  1.
       -3    1    3    3    0  502  0.75555622989E+03  0.94547709072E+02 -0.73212801993E+03  0.10563218892E+04  0.10100000352E+00 0. -1.
</event>
<event>
 5   0  0.1825253E-04  0.1792407E+04  0.7818609E-02  0.8710348E-01
        1   -1    0    0  501    0  0.00000000000E+00  0.00000000000E+00  0.76543089832E+03  0.76543089834E+03  0.50400001928E-02 0. -1.
       -1   -1    0    0    0  501  0.00000000000E+00  0.00000000000E+00 -0.10493180614E+04  0.10493180614E+04  0.50400001928E-02 0.  1.
    10030    2    1    2    0    0  0.00000000000E+00  0.00000000000E+00 -0.28388716309E+03  0.18147489598E+04  0.17924067244E+04 0.  0.
        4    1    3    3  502    0 -0.25113133368E+03  0.78091111367E+03 -0.50739958379E+03  0.96454396724E+03  0.12699999809E+01 0.  1.
       -4    1    3    3    0  502  0.25113133368E+03 -0.78091111367E+03  0.22351242070E+03  0.85020499252E+03  0.12699999809E+01 0. -1.
</event>
<event>
 5   0  0.1835421E-04  0.1807248E+04  0.7818609E-02  0.8702455E-01
        1   -1    0    0  501    0  0.00000000000E+00  0.00000000000E+00  0.16089969743E+04  0.16089969743E+04  0.50400001928E-02 0. -1.
       -1   -1    0    0    0  501  0.00000000000E+00  0.00000000000E+00 -0.50748138882E+03  0.50748138884E+03  0.50400001928E-02 0.  1.
    10030    2    1    2    0    0  0.00000000000E+00  0.00000000000E+00  0.11015155855E+04  0.21164783632E+04  0.18072476523E+04 0.  0.
        2    1    3    3  502    0  0.73395727857E+03 -0.52627333579E+03  0.51603478124E+03  0.10401676818E+04  0.25500000920E-02 0. -1.
       -2    1    3    3    0  502 -0.73395727857E+03  0.52627333579E+03  0.58548080424E+03  0.10763106814E+04  0.25500000920E-02 0.  1.
</event>
<event>
 5   0  0.3568870E-04  0.1796442E+04  0.7818609E-02  0.8708194E-01
        2   -1    0    0  501    0  0.00000000000E+00  0.00000000000E+00  0.96718185812E+03  0.96718185812E+03  0.25500000920E-02 0.  1.
       -2   -1    0    0    0  501  0.00000000000E+00  0.00000000000E+00 -0.83417755030E+03  0.83417755030E+03  0.25500000920E-02 0. -1.
    10030    2    1    2    0    0  0.00000000000E+00  0.00000000000E+00  0.13300430782E+03  0.18013594084E+04  0.17964424768E+04 0.  0.
        1    1    3    3  502    0  0.24598952400E+01  0.76033302232E+03 -0.41302116316E+03  0.86527385096E+03  0.50400001928E-02 0. -1.
       -1    1    3    3    0  502 -0.24598952400E+01 -0.76033302232E+03  0.54602547098E+03  0.93608555747E+03  0.50400001928E-02 0.  1.
</event>
<event>
 5   0  0.3628581E-04  0.1798626E+04  0.7818609E-02  0.8707031E-01
        2   -1    0    0  501    0  0.00000000000E+00  0.00000000000E+00  0.72478700074E+03  0.72478700075E+03  0.25500000920E-02 0. -1.
       -2   -1    0    0    0  501  0.00000000000E+00  0.00000000000E+00 -0.11158640493E+04  0.11158640493E+04  0.25500000920E-02 0.  1.
    10030    2    1    2    0    0  0.00000000000E+00  0.00000000000E+00 -0.39107704859E+03  0.18406510501E+04  0.17986258728E+04 0.  0.
        2    1    3    3  502    0  0.58463766098E+03 -0.62455273955E+03  0.88242753079E+02  0.86003145442E+03  0.25500000920E-02 0. -1.
       -2    1    3    3    0  502 -0.58463766098E+03  0.62455273955E+03 -0.47931980167E+03  0.98061959566E+03  0.25500000920E-02 0.  1.
</event>
<event>
 5   0  0.3531266E-04  0.1806038E+04  0.7818609E-02  0.8703095E-01
        2   -1    0    0  501    0  0.00000000000E+00  0.00000000000E+00  0.11142784974E+04  0.11142784974E+04  0.25500000920E-02 0. -1.
       -2   -1    0    0    0  501  0.00000000000E+00  0.00000000000E+00 -0.73181300408E+03  0.73181300409E+03  0.25500000920E-02 0.  1.
    10030    2    1    2    0    0  0.00000000000E+00  0.00000000000E+00  0.38246549329E+03  0.18460915015E+04  0.18060381996E+04 0.  0.
        3    1    3    3  502    0  0.38027445153E+03 -0.57621420802E+03  0.78621729996E+03  0.10463121546E+04  0.10100000352E+00 0. -1.
       -3    1    3    3    0  502 -0.38027445153E+03  0.57621420802E+03 -0.40375180666E+03  0.79977934682E+03  0.10100000352E+00 0.  1.
</event>
<event>
 5   0  0.3575091E-04  0.1785857E+04  0.7818609E-02  0.8713857E-01
       -2   -1    0    0    0  501  0.00000000000E+00  0.00000000000E+00  0.92673077194E+03  0.92673077194E+03  0.25500000920E-02 0.  1.
        2   -1    0    0  501    0  0.00000000000E+00  0.00000000000E+00 -0.86035919109E+03  0.86035919110E+03  0.25500000920E-02 0. -1.
    10030    2    1    2    0    0  0.00000000000E+00  0.00000000000E+00  0.66371580847E+02  0.17870899630E+04  0.17858570349E+04 0.  0.
        5    1    3    3  502    0  0.64004119956E+03 -0.50018798140E+03  0.40419570591E+03  0.90732409455E+03  0.46999998093E+01 0.  1.
       -5    1    3    3    0  502 -0.64004119956E+03  0.50018798140E+03 -0.33782412507E+03  0.87976586849E+03  0.46999998093E+01 0. -1.
</event>
<event>
 5   0  0.1883959E-04  0.1803562E+04  0.7818609E-02  0.8704407E-01
       -1   -1    0    0    0  501  0.00000000000E+00  0.00000000000E+00  0.63749614689E+03  0.63749614691E+03  0.50400001928E-02 0.  1.
        1   -1    0    0  501    0  0.00000000000E+00  0.00000000000E+00 -0.12756299804E+04  0.12756299804E+04  0.50400001928E-02 0. -1.
    10030    2    1    2    0    0  0.00000000000E+00  0.00000000000E+00 -0.63813383349E+03  0.19131261273E+04  0.18035622500E+04 0.  0.
        5    1    3    3  502    0  0.47963289932E+03 -0.15972467148E+03 -0.11111751478E+04  0.12207751586E+04  0.46999998093E+01 0. -1.
       -5    1    3    3    0  502 -0.47963289932E+03  0.15972467148E+03  0.47304131431E+03  0.69235096868E+03  0.46999998093E+01 0.  1.
</event>
<event>
 5   0  0.1835421E-04  0.1797828E+04  0.7818609E-02  0.8707455E-01
       -1   -1    0    0    0  501  0.00000000000E+00  0.00000000000E+00  0.12606243619E+04  0.12606243619E+04  0.50400001928E-02 0.  1.
        1   -1    0    0  501    0  0.00000000000E+00  0.00000000000E+00 -0.64098893883E+03  0.64098893885E+03  0.50400001928E-02 0. -1.
    10030    2    1    2    0    0  0.00000000000E+00  0.00000000000E+00  0.61963542307E+03  0.19016133008E+04  0.17978278805E+04 0.  0.
        2    1    3    3  502    0  0.37012620880E+02 -0.34163474659E+03  0.11884085966E+04  0.12370930549E+04  0.25500000920E-02 0.  1.
       -2    1    3    3    0  502 -0.37012620880E+02  0.34163474659E+03 -0.56877317350E+03  0.66452024581E+03  0.25500000920E-02 0. -1.
</event>
<event>
 5   0  0.1883959E-04  0.1815972E+04  0.7818609E-02  0.8697852E-01
        1   -1    0    0  501    0  0.00000000000E+00  0.00000000000E+00  0.15212894021E+04  0.15212894021E+04  0.50400001928E-02 0.  1.
       -1   -1    0    0    0  501  0.00000000000E+00  0.00000000000E+00 -0.54193381685E+03  0.54193381687E+03  0.50400001928E-02 0. -1.
    10030    2    1    2    0    0  0.00000000000E+00  0.00000000000E+00  0.97935558522E+03  0.20632232189E+04  0.18159715551E+04 0.  0.
        5    1    3    3  502    0 -0.39300918113E+03 -0.70889380755E+03  0.24784712961E+02  0.81093959013E+03  0.46999998093E+01 0. -1.
       -5    1    3    3    0  502  0.39300918113E+03  0.70889380755E+03  0.95457087226E+03  0.12522836288E+04  0.46999998093E+01 0.  1.
</event>
<event>
 5   0  0.3628581E-04  0.1815537E+04  0.7818609E-02  0.8698081E-01
       -2   -1    0    0    0  501  0.00000000000E+00  0.00000000000E+00  0.90060845482E+03  0.90060845482E+03  0.25500000920E-02 0. -1.
        2   -1    0    0  501    0  0.00000000000E+00  0.00000000000E+00 -0.91498507982E+03  0.91498507982E+03  0.25500000920E-02 0.  1.
    10030    2    1    2    0    0  0.00000000000E+00  0.00000000000E+00 -0.14376624997E+02  0.18155935346E+04  0.18155366137E+04 0.  0.
        2    1    3    3  502    0 -0.80385465710E+03  0.39765683967E+03 -0.14765633100E+03  0.90890905154E+03  0.25500000920E-02 0.  1.
       -2    1    3    3    0  502  0.80385465710E+03 -0.39765683967E+03  0.13327970601E+03  0.90668448311E+03  0.25500000920E-02 0. -1.
</event>
<event>
 5   0  0.3568870E-04  0.1790250E+04  0.7818609E-02  0.8711502E-01
        2   -1    0    0  501    0  0.00000000000E+00  0.00000000000E+00  0.66679537000E+03  0.66679537000E+03  0.25500000920E-02 0. -1.
       -2   -1    0    0    0  501  0.00000000000E+00  0.00000000000E+00 -0.12016406214E+04  0.12016406214E+04  0.25500000920E-02 0.  1.
    10030    2    1    2    0    0  0.00000000000E+00  0.00000000000E+00 -0.53484525143E+03  0.18684359914E+04  0.17902495946E+04 0.  0.
        1    1    3    3  502    0  0.56549153823E+03  0.61036941267E+03 -0.61186159613E+03  0.10328146555E+04  0.50400001928E-02 0.  1.
       -1    1    3    3    0  502 -0.56549153823E+03 -0.61036941267E+03  0.77016344696E+02  0.83562133596E+03  0.50400001928E-02 0. -1.
</event>
<event>
 5   0  0.3568870E-04  0.1794635E+04  0.7818609E-02  0.8709158E-01
       -2   -1    0    0    0  501  0.00000000000E+00  0.00000000000E+00  0.44537956681E+03  0.44537956682E+03  0.25500000920E-02 0.  1.
        2   -1    0    0  501    0  0.00000000000E+00  0.00000000000E+00 -0.18078474632E+04  0.18078474632E+04  0.25500000920E-02 0. -1.
    10030    2    1    2    0    0  0.00000000000E+00  0.00000000000E+00 -0.13624678964E+04  0.22532270300E+04  0.17946345812E+04 0.  0.
        1    1    3    3  502    0  0.32366802064E+03  0.64943241362E+02 -0.17288347901E+04  0.17600705508E+04  0.50400001928E-02 0. -1.
       -1    1    3    3    0  502 -0.32366802064E+03 -0.64943241362E+02  0.36636689372E+03  0.49315647925E+03  0.50400001928E-02 0.  1.
</event>
<event>
 5   0  0.3531266E-04  0.1809927E+04  0.7818609E-02  0.8701038E-01
       -2   -1    0    0    0  501  0.00000000000E+00  0.00000000000E+00  0.43170858507E+03  0.43170858508E+03  0.25500000920E-02 0. -1.
        2   -1    0    0  501    0  0.00000000000E+00  0.00000000000E+00 -0.18970175601E+04  0.18970175601E+04  0.25500000920E-02 0.  1.
    10030    2    1    2    0    0  0.00000000000E+00  0.00000000000E+00 -0.14653089751E+04  0.23287261452E+04  0.18099268126E+04 0.  0.
        3    1    3    3  502    0  0.32879566440E+03 -0.38472527599E+03  0.23261672386E+03  0.55698355212E+03  0.10100000352E+00 0. -1.
       -3    1    3    3    0  502 -0.32879566440E+03  0.38472527599E+03 -0.16979256989E+04  0.17717425931E+04  0.10100000352E+00 0.  1.
</event>
<event>
 5   0  0.1825253E-04  0.1798666E+04  0.7818609E-02  0.8707009E-01
        1   -1    0    0  501    0  0.00000000000E+00  0.00000000000E+00  0.14150055795E+04  0.14150055795E+04  0.50400001928E-02 0.  1.
       -1   -1    0    0    0  501  0.00000000000E+00  0.00000000000E+00 -0.57158768113E+03  0.57158768115E+03  0.50400001928E-02 0. -1.
    10030    2    1    2    0    0  0.00000000000E+00  0.00000000000E+00  0.84341789833E+03  0.19865932606E+04  0.17986659034E+04 0.  0.
        4    1    3    3  502    0  0.44817737740E+03  0.13984005593E+03 -0.42549385678E+03  0.63361252979E+03  0.12699999809E+01 0. -1.
       -4    1    3    3    0  502 -0.44817737740E+03 -0.13984005593E+03  0.12689117551E+04  0.13529807308E+04  0.12699999809E+01 0.  1.
</event>
<event>
 5   0  0.3568870E-04  0.1880097E+04  0.7818609E-02  0.8664827E-01
        2   -1    0    0  501    0  0.00000000000E+00  0.00000000000E+00  0.10649094811E+04  0.10649094811E+04  0.25500000920E-02 0. -1.
       -2   -1    0    0    0  501  0.00000000000E+00  0.00000000000E+00 -0.82982768838E+03  0.82982768838E+03  0.25500000920E-02 0.  1.
    10030    2    1    2    0    0  0.00000000000E+00  0.00000000000E+00  0.23508179269E+03  0.18947371695E+04  0.18800972028E+04 0.  0.
        1    1    3    3  502    0  0.14273639493E+03 -0.59217437659E+03  0.83911006342E+03  0.10368943385E+04  0.50400001928E-02 0. -1.
       -1    1    3    3    0  502 -0.14273639493E+03  0.59217437659E+03 -0.60402827072E+03  0.85784283093E+03  0.50400001928E-02 0.  1.
</event>
<event>
 5   0  0.1835421E-04  0.1797782E+04  0.7818609E-02  0.8707480E-01
        1   -1    0    0  501    0  0.00000000000E+00  0.00000000000E+00  0.11001800152E+04  0.11001800152E+04  0.50400001928E-02 0. -1.
       -1   -1    0    0    0  501  0.00000000000E+00  0.00000000000E+00 -0.73442994850E+03  0.73442994852E+03  0.50400001928E-02 0.  1.
    10030    2    1    2    0    0  0.00000000000E+00  0.00000000000E+00  0.36575006670E+03  0.18346099637E+04  0.17977821358E+04 0.  0.
        2    1    3    3  502    0  0.37677139590E+03 -0.66732073157E+03 -0.29657003167E+03  0.82172223241E+03  0.25500000920E-02 0.  1.
       -2    1    3    3    0  502 -0.37677139590E+03  0.66732073157E+03  0.66232009838E+03  0.10128877313E+04  0.25500000920E-02 0. -1.
</event>
<event>
 5   0  0.3575091E-04  0.1750046E+04  0.7818609E-02  0.8733325E-01
       -2   -1    0    0    0  501  0.00000000000E+00  0.00000000000E+00  0.70904101063E+03  0.70904101064E+03  0.25500000920E-02 0. -1.
        2   -1    0    0  501    0  0.00000000000E+00  0.00000000000E+00 -0.10798603500E+04  0.10798603500E+04  0.25500000920E-02 0.  1.
    10030    2    1    2    0    0  0.00000000000E+00  0.00000000000E+00 -0.37081933933E+03  0.17889013606E+04  0.17500460267E+04 0.  0.
        5    1    3    3  502    0 -0.21251015939E+03 -0.76113456696E+02 -0.10495724975E+04  0.10735820153E+04  0.46999998093E+01 0.  1.
       -5    1    3    3    0  502  0.21251015939E+03  0.76113456696E+02  0.67875315812E+03  0.71531934532E+03  0.46999998093E+01 0. -1.
</event>
<event>
 5   0  0.3531266E-04  0.1793820E+04  0.7818609E-02  0.8709593E-01
       -2   -1    0    0    0  501  0.00000000000E+00  0.00000000000E+00  0.77628545599E+03  0.77628545600E+03  0.25500000920E-02 0. -1.
        2   -1    0    0  501    0  0.00000000000E+00  0.00000000000E+00 -0.10362781461E+04  0.10362781461E+04  0.25500000920E-02 0.  1.
    10030    2    1    2    0    0  0.00000000000E+00  0.00000000000E+00 -0.25999269012E+03  0.18125636021E+04  0.17938201172E+04 0.  0.
        3    1    3    3  502    0  0.66830205994E+03 -0.14597510658E+03  0.45616094408E+03  0.82220386290E+03  0.10100000352E+00 0. -1.
       -3    1    3    3    0  502 -0.66830205994E+03  0.14597510658E+03 -0.71615363421E+03  0.99035973921E+03  0.10100000352E+00 0.  1.
</event>
<event>
 5   0  0.1835421E-04  0.1806727E+04  0.7818609E-02  0.8702730E-01
       -1   -1    0    0    0  501  0.00000000000E+00  0.00000000000E+00  0.10382605209E+04  0.10382605209E+04  0.50400001928E-02 0. -1.
        1   -1    0    0  501    0  0.00000000000E+00  0.00000000000E+00 -0.78599296029E+03  0.78599296030E+03  0.50400001928E-02 0.  1.
    10030    2    1    2    0    0  0.00000000000E+00  0.00000000000E+00  0.25226756063E+03  0.18242534812E+04  0.18067268309E+04 0.  0.
        2    1    3    3  502    0 -0.73673123125E+03  0.46702972848E+03 -0.11104015187E+03  0.87932905656E+03  0.25500000920E-02 0. -1.
       -2    1    3    3    0  502  0.73673123125E+03 -0.46702972848E+03  0.36330771250E+03  0.94492442467E+03  0.25500000920E-02 0.  1.
</event>
<event>
 5   0  0.1835421E-04  0.1783965E+04  0.7818609E-02  0.8714874E-01
       -1   -1    0    0    0  501  0.00000000000E+00  0.00000000000E+00  0.97019654836E+03  0.97019654838E+03  0.50400001928E-02 0.  1.
        1   -1    0    0  501    0  0.00000000000E+00  0.00000000000E+00 -0.82007342574E+03  0.82007342576E+03  0.50400001928E-02 0. -1.
    10030    2    1    2    0    0  0.00000000000E+00  0.00000000000E+00  0.15012312262E+03  0.17902699741E+04  0.17839645816E+04 0.  0.
        2    1    3    3  502    0 -0.23480027371E+03  0.74301068867E+03 -0.36056529658E+03  0.85860548864E+03  0.25500000920E-02 0. -1.
       -2    1    3    3    0  502  0.23480027371E+03 -0.74301068867E+03  0.51068841921E+03  0.93166448550E+03  0.25500000920E-02 0.  1.
</event>
<event>
 5   0  0.1883959E-04  0.1786671E+04  0.7818609E-02  0.8713420E-01
       -1   -1    0    0    0  501  0.00000000000E+00  0.00000000000E+00  0.75463423623E+03  0.75463423625E+03  0.50400001928E-02 0. -1.
        1   -1    0    0  501    0  0.00000000000E+00  0.00000000000E+00 -0.10575299183E+04  0.10575299183E+04  0.50400001928E-02 0.  1.
    10030    2    1    2    0    0  0.00000000000E+00  0.00000000000E+00 -0.30289568203E+03  0.18121641545E+04  0.17866709626E+04 0.  0.
        5    1    3    3  502    0 -0.37078450958E+03 -0.79588469088E+03  0.15560640569E+02  0.87816730596E+03  0.46999998093E+01 0. -1.
       -5    1    3    3    0  502  0.37078450958E+03  0.79588469088E+03 -0.31845632260E+03  0.93399684856E+03  0.46999998093E+01 0.  1.
</event>
<event>
 5   0  0.3628581E-04  0.1740887E+04  0.7818609E-02  0.8738382E-01
       -2   -1    0    0    0  501  0.00000000000E+00  0.00000000000E+00  0.39728210613E+03  0.39728210614E+03  0.25500000920E-02 0. -1.
        2   -1    0    0  501    0  0.00000000000E+00  0.00000000000E+00 -0.19071387062E+04  0.19071387062E+04  0.25500000920E-02 0.  1.
    10030    2    1    2    0    0  0.00000000000E+00  0.00000000000E+00 -0.15098566001E+04  0.23044208124E+04  0.17408872243E+04 0.  0.
        2    1    3    3  502    0 -0.37845157144E+03 -0.76142059660E+03 -0.10014544728E+04  0.13137343636E+04  0.25500000920E-02 0.  1.
       -2    1    3    3    0  502  0.37845157144E+03  0.76142059660E+03 -0.50840212729E+03  0.99068644883E+03  0.25500000920E-02 0. -1.
</event>
<event>
 5   0  0.3628581E-04  0.1791006E+04  0.7818609E-02  0.8711097E-01
       -2   -1    0    0    0  501  0.00000000000E+00  0.00000000000E+00  0.11523288790E+04  0.11523288790E+04  0.25500000920E-02 0.  1.
        2   -1    0    0  501    0  0.00000000000E+00  0.00000000000E+00 -0.69591755273E+03  0.69591755274E+03  0.25500000920E-02 0. -1.
    10030    2    1    2    0    0  0.00000000000E+00  0.00000000000E+00  0.45641132622E+03  0.18482464317E+04  0.17910063019E+04 0.  0.
        2    1    3    3  502    0 -0.11011523361E+02 -0.19217558296E+03  0.11307270046E+04  0.11469944496E+04  0.25500000920E-02 0.  1.
       -2    1    3    3    0  502  0.11011523361E+02  0.19217558296E+03 -0.67431567839E+03  0.70125198215E+03  0.25500000920E-02 0. -1.
</event>
<event>
 5   0  0.1818778E-04  0.1795553E+04  0.7818609E-02  0.8708668E-01
        1   -1    0    0  501    0  0.00000000000E+00  0.00000000000E+00  0.15664708759E+04  0.15664708759E+04  0.50400001928E-02 0. -1.
       -1   -1    0    0    0  501  0.00000000000E+00  0.00000000000E+00 -0.51453401567E+03  0.51453401570E+03  0.50400001928E-02 0.  1.
    10030    2    1    2    0    0  0.00000000000E+00  0.00000000000E+00  0.10519368602E+04  0.20810048916E+04  0.17955528956E+04 0.  0.
        3    1    3    3  502    0 -0.39530885185E+03  0.64684816488E+03 -0.31451300630E+02  0.75872974851E+03  0.10100000352E+00 0.  1.
       -3    1    3    3    0  502  0.39530885185E+03 -0.64684816488E+03  0.10833881609E+04  0.13222751431E+04  0.10100000352E+00 0. -1.
</event>
<event>
 5   0  0.3582186E-04  0.1767389E+04  0.7818609E-02  0.8723836E-01
        2   -1    0    0  501    0  0.00000000000E+00  0.00000000000E+00  0.61425922730E+03  0.61425922731E+03  0.25500000920E-02 0.  1.
       -2   -1    0    0    0  501  0.00000000000E+00  0.00000000000E+00 -0.12713133272E+04  0.12713133272E+04  0.25500000920E-02 0. -1.
    10030    2    1    2    0    0  0.00000000000E+00  0.00000000000E+00 -0.65705409988E+03  0.18855725545E+04  0.17673889691E+04 0.  0.
        4    1    3    3  502    0 -0.25989875788E+03  0.79539894341E+03 -0.63161454385E+03  0.10484013489E+04  0.12699999809E+01 0. -1.
       -4    1    3    3    0  502  0.25989875788E+03 -0.79539894341E+03 -0.25439556036E+02  0.83717120557E+03  0.12699999809E+01 0.  1.
</event>
<event>
 5   0  0.1837313E-04  0.1796847E+04  0.7818609E-02  0.8707978E-01
       -1   -1    0    0    0  501  0.00000000000E+00  0.00000000000E+00  0.12139636336E+04  0.12139636336E+04  0.50400001928E-02 0.  1.
        1   -1    0    0  501    0  0.00000000000E+00  0.00000000000E+00 -0.66490048057E+03  0.66490048059E+03  0.50400001928E-02 0. -1.
    10030    2    1    2    0    0  0.00000000000E+00  0.00000000000E+00  0.54906315302E+03  0.18788641142E+04  0.17968472427E+04 0.  0.
        1    1    3    3  502    0 -0.36928034553E+03 -0.50394053195E+03  0.94963360511E+03  0.11367180905E+04  0.50400001928E-02 0.  1.
       -1    1    3    3    0  502  0.36928034553E+03  0.50394053195E+03 -0.40057045209E+03  0.74214602367E+03  0.50400001928E-02 0. -1.
</event>
<event>
 5   0  0.3628581E-04  0.1802408E+04  0.7818609E-02  0.8705020E-01
        2   -1    0    0  501    0  0.00000000000E+00  0.00000000000E+00  0.14786279516E+04  0.14786279516E+04  0.25500000920E-02 0. -1.
       -2   -1    0    0    0  501  0.00000000000E+00  0.00000000000E+00 -0.54927169042E+03  0.54927169043E+03  0.25500000920E-02 0.  1.
    10030    2    1    2    0    0  0.00000000000E+00  0.00000000000E+00  0.92935626118E+03  0.20278996420E+04  0.18024078057E+04 0.  0.
        2    1    3    3  502    0 -0.12146623606E+03 -0.34381364764E+03  0.13919228077E+04  0.14388922730E+04  0.25500000920E-02 0. -1.
       -2    1    3    3    0  502  0.12146623606E+03  0.34381364764E+03 -0.46256654650E+03  0.58900736901E+03  0.25500000920E-02 0.  1.
</event>
<event>
 5   0  0.1818778E-04  0.1769157E+04  0.7818609E-02  0.8722875E-01
        1   -1    0    0  501    0  0.00000000000E+00  0.00000000000E+00  0.88356834104E+03  0.88356834105E+03  0.50400001928E-02 0. -1.
       -1   -1    0    0    0  501  0.00000000000E+00  0.00000000000E+00 -0.88559015551E+03  0.88559015553E+03  0.50400001928E-02 0.  1.
    10030    2    1    2    0    0  0.00000000000E+00  0.00000000000E+00 -0.20218144776E+01  0.17691584966E+04  0.17691573413E+04 0.  0.
        3    1    3    3  502    0  0.50715144114E+03 -0.25758771695E+03 -0.67845167776E+03  0.88535343532E+03  0.10100000352E+00 0.  1.
       -3    1    3    3    0  502 -0.50715144114E+03  0.25758771695E+03  0.67642986328E+03  0.88380506126E+03  0.10100000352E+00 0. -1.
</event>
<event>
 5   0  0.3568870E-04  0.1747608E+04  0.7818609E-02  0.8734668E-01
        2   -1    0    0  501    0  0.00000000000E+00  0.00000000000E+00  0.21082532268E+04  0.21082532268E+04  0.25500000920E-02 0. -1.
       -2   -1    0    0    0  501  0.00000000000E+00  0.00000000000E+00 -0.36216415570E+03  0.36216415571E+03  0.25500000920E-02 0.  1.
    10030    2    1    2    0    0  0.00000000000E+00  0.00000000000E+00  0.17460890711E+04  0.24704173825E+04  0.17476083656E+04 0.  0.
        1    1    3    3  502    0 -0.40077747445E+03  0.66919078954E+02  0.19665828086E+04  0.20081206862E+04  0.50400001928E-02 0. -1.
       -1    1    3    3    0  502  0.40077747445E+03 -0.66919078954E+02 -0.22049373749E+03  0.46229669635E+03  0.50400001928E-02 0.  1.
</event>
<event>
 5   0  0.3575091E-04  0.1725624E+04  0.7818609E-02  0.8746883E-01
        2   -1    0    0  501    0  0.00000000000E+00  0.00000000000E+00  0.10952495632E+04  0.10952495632E+04  0.25500000920E-02 0. -1.
       -2   -1    0    0    0  501  0.00000000000E+00  0.00000000000E+00 -0.67970339724E+03  0.67970339724E+03  0.25500000920E-02 0.  1.
    10030    2    1    2    0    0  0.00000000000E+00  0.00000000000E+00  0.41554616600E+03  0.17749529605E+04  0.17256243496E+04 0.  0.
        5    1    3    3  502    0 -0.55028526532E+02  0.85708809716E+03  0.12298731072E+03  0.86762671330E+03  0.46999998093E+01 0.  1.
       -5    1    3    3    0  502  0.55028526532E+02 -0.85708809716E+03  0.29255885528E+03  0.90732624718E+03  0.46999998093E+01 0. -1.
</event>
<event>
 5   0  0.1837313E-04  0.1801621E+04  0.7818609E-02  0.8705438E-01
        1   -1    0    0  501    0  0.00000000000E+00  0.00000000000E+00  0.55988402728E+03  0.55988402731E+03  0.50400001928E-02 0.  1.
       -1   -1    0    0    0  501  0.00000000000E+00  0.00000000000E+00 -0.14493356333E+04  0.14493356333E+04  0.50400001928E-02 0. -1.
    10030    2    1    2    0    0  0.00000000000E+00  0.00000000000E+00 -0.88945160598E+03  0.20092196606E+04  0.18016213490E+04 0.  0.
        1    1    3    3  502    0 -0.55369490934E+02 -0.18912056943E+03  0.53555157577E+03  0.57065564103E+03  0.50400001928E-02 0.  1.
       -1    1    3    3    0  502  0.55369490934E+02  0.18912056943E+03 -0.14250031817E+04  0.14385640195E+04  0.50400001928E-02 0. -1.
</event>
<event>
 5   0  0.1835421E-04  0.1787332E+04  0.7818609E-02  0.8713065E-01
        1   -1    0    0  501    0  0.00000000000E+00  0.00000000000E+00  0.67718765191E+03  0.67718765193E+03  0.50400001928E-02 0.  1.
       -1   -1    0    0    0  501  0.00000000000E+00  0.00000000000E+00 -0.11793468717E+04  0.11793468717E+04  0.50400001928E-02 0. -1.
    10030    2    1    2    0    0  0.00000000000E+00  0.00000000000E+00 -0.50215921975E+03  0.18565345236E+04  0.17873322454E+04 0.  0.
        2    1    3    3  502    0  0.55274621153E+03  0.67506930338E+03 -0.50222019329E+02  0.87393889372E+03  0.25500000920E-02 0. -1.
       -2    1    3    3    0  502 -0.55274621153E+03 -0.67506930338E+03 -0.45193720042E+03  0.98259562987E+03  0.25500000920E-02 0.  1.
</event>
<event>
 5   0  0.1825253E-04  0.1774992E+04  0.7818609E-02  0.8719712E-01
       -1   -1    0    0    0  501  0.00000000000E+00  0.00000000000E+00  0.97349103095E+03  0.97349103096E+03  0.50400001928E-02 0. -1.
        1   -1    0    0  501    0  0.00000000000E+00  0.00000000000E+00 -0.80909781140E+03  0.80909781141E+03  0.50400001928E-02 0.  1.
    10030    2    1    2    0    0  0.00000000000E+00  0.00000000000E+00  0.16439321955E+03  0.17825888424E+04  0.17749923522E+04 0.  0.
        4    1    3    3  502    0  0.98977299590E+02 -0.88016331844E+03  0.13868568627E+03  0.89650393498E+03  0.12699999809E+01 0.  1.
       -4    1    3    3    0  502 -0.98977299590E+02  0.88016331844E+03  0.25707533284E+02  0.88608490740E+03  0.12699999809E+01 0. -1.
</event>
<event>
 5   0  0.3628581E-04  0.1489921E+04  0.7818609E-02  0.8891183E-01
        2   -1    0    0  501    0  0.00000000000E+00  0.00000000000E+00  0.91372674760E+03  0.91372674760E+03  0.25500000920E-02 0.  1.
       -2   -1    0    0    0  501  0.00000000000E+00  0.00000000000E+00 -0.60736539039E+03  0.60736539039E+03  0.25500000920E-02 0. -1.
    10030    2    1    2    0    0  0.00000000000E+00  0.00000000000E+00  0.30636135721E+03  0.15210921380E+04  0.14899208070E+04 0.  0.
        2    1    3    3  502    0  0.15879574092E+03 -0.50316864867E+03 -0.38372232579E+03  0.65240907387E+03  0.25500000920E-02 0. -1.
       -2    1    3    3    0  502 -0.15879574092E+03  0.50316864867E+03  0.69008368300E+03  0.86868306412E+03  0.25500000920E-02 0.  1.
</event>
<event>
 5   0  0.3628581E-04  0.1707057E+04  0.7818609E-02  0.8757350E-01
       -2   -1    0    0    0  501  0.00000000000E+00  0.00000000000E+00  0.66740084862E+03  0.66740084863E+03  0.25500000920E-02 0. -1.
        2   -1    0    0  501    0  0.00000000000E+00  0.00000000000E+00 -0.10915640692E+04  0.10915640692E+04  0.25500000920E-02 0.  1.
    10030    2    1    2    0    0  0.00000000000E+00  0.00000000000E+00 -0.42416322058E+03  0.17589649178E+04  0.17070568662E+04 0.  0.
        2    1    3    3  502    0  0.18911873773E+03  0.38200682822E+03  0.54987399031E+03  0.69574170422E+03  0.25500000920E-02 0. -1.
       -2    1    3    3    0  502 -0.18911873773E+03 -0.38200682822E+03 -0.97403721089E+03  0.10632232136E+04  0.25500000920E-02 0.  1.
</event>
<event>
 5   0  0.3582186E-04  0.1831973E+04  0.7818609E-02  0.8689479E-01
        2   -1    0    0  501    0  0.00000000000E+00  0.00000000000E+00  0.10844365997E+04  0.10844365997E+04  0.25500000920E-02 0.  1.
       -2   -1    0    0    0  501  0.00000000000E+00  0.00000000000E+00 -0.77370225273E+03  0.77370225273E+03  0.25500000920E-02 0. -1.
    10030    2    1    2    0    0  0.00000000000E+00  0.00000000000E+00  0.31073434695E+03  0.18581388524E+04  0.18319727510E+04 0.  0.
        4    1    3    3  502    0  0.58314317203E+03 -0.66154009587E+03  0.40657002265E+03  0.97107777945E+03  0.12699999809E+01 0.  1.
       -4    1    3    3    0  502 -0.58314317203E+03  0.66154009587E+03 -0.95835675693E+02  0.88706107296E+03  0.12699999809E+01 0. -1.
</event>
<event>
 5   0  0.3575091E-04  0.1743762E+04  0.7818609E-02  0.8736792E-01
       -2   -1    0    0    0  501  0.00000000000E+00  0.00000000000E+00  0.47842532006E+03  0.47842532007E+03  0.25500000920E-02 0.  1.
        2   -1    0    0  501    0  0.00000000000E+00  0.00000000000E+00 -0.15889129150E+04  0.15889129150E+04  0.25500000920E-02 0. -1.
    10030    2    1    2    0    0  0.00000000000E+00  0.00000000000E+00 -0.11104875949E+04  0.20673382350E+04  0.17437616464E+04 0.  0.
        5    1    3    3  502    0 -0.75652179967E+03  0.34017524358E+03 -0.23688188127E+03  0.86265841757E+03  0.46999998093E+01 0.  1.
       -5    1    3    3    0  502  0.75652179967E+03 -0.34017524358E+03 -0.87360571361E+03  0.12046798175E+04  0.46999998093E+01 0. -1.
</event>
<event>
 5   0  0.3628581E-04  0.1799015E+04  0.7818609E-02  0.8706823E-01
        2   -1    0    0  501    0  0.00000000000E+00  0.00000000000E+00  0.59476346948E+03  0.59476346949E+03  0.25500000920E-02 0. -1.
       -2   -1    0    0    0  501  0.00000000000E+00  0.00000000000E+00 -0.13603964800E+04  0.13603964800E+04  0.25500000920E-02 0.  1.
    10030    2    1    2    0    0  0.00000000000E+00  0.00000000000E+00 -0.76563301048E+03  0.19551599495E+04  0.17990154311E+04 0.  0.
        2    1    3    3  502    0  0.75570118511E+02 -0.56033612658E+03  0.37749443288E+03  0.67984517680E+03  0.25500000920E-02 0. -1.
       -2    1    3    3    0  502 -0.75570118511E+02  0.56033612658E+03 -0.11431274434E+04  0.12753147727E+04  0.25500000920E-02 0.  1.
</event>
<event>
 5   0  0.3568870E-04  0.1806355E+04  0.7818609E-02  0.8702927E-01
       -2   -1    0    0    0  501  0.00000000000E+00  0.00000000000E+00  0.89797102079E+03  0.89797102080E+03  0.25500000920E-02 0.  1.
        2   -1    0    0  501    0  0.00000000000E+00  0.00000000000E+00 -0.90841381715E+03  0.90841381715E+03  0.25500000920E-02 0. -1.
    10030    2    1    2    0    0  0.00000000000E+00  0.00000000000E+00 -0.10442796353E+02  0.18063848379E+04  0.18063546525E+04 0.  0.
        1    1    3    3  502    0  0.65852658084E+03 -0.41187488093E+03  0.45568879617E+03  0.90052787530E+03  0.50400001928E-02 0.  1.
       -1    1    3    3    0  502 -0.65852658084E+03  0.41187488093E+03 -0.46613159252E+03  0.90585696265E+03  0.50400001928E-02 0. -1.
</event>
<event>
 5   0  0.3582186E-04  0.1821101E+04  0.7818609E-02  0.8695158E-01
       -2   -1    0    0    0  501  0.00000000000E+00  0.00000000000E+00  0.69687579048E+03  0.69687579048E+03  0.25500000920E-02 0.  1.
        2   -1    0    0  501    0  0.00000000000E+00  0.00000000000E+00 -0.11897415431E+04  0.11897415431E+04  0.25500000920E-02 0. -1.
    10030    2    1    2    0    0  0.00000000000E+00  0.00000000000E+00 -0.49286575258E+03  0.18866173335E+04  0.18211008520E+04 0.  0.
        4    1    3    3  502    0 -0.78394723118E+03  0.93899563236E+02  0.22343700237E+03  0.82055840510E+03  0.12699999809E+01 0.  1.
       -4    1    3    3    0  502  0.78394723118E+03 -0.93899563236E+02 -0.71630275495E+03  0.10660589284E+04  0.12699999809E+01 0. -1.
</event>
<event>
 5   0  0.3582186E-04  0.1827052E+04  0.7818609E-02  0.8692044E-01
       -2   -1    0    0    0  501  0.00000000000E+00  0.00000000000E+00  0.59065649510E+03  0.59065649511E+03  0.25500000920E-02 0.  1.
        2   -1    0    0  501    0  0.00000000000E+00  0.00000000000E+00 -0.14128855850E+04  0.14128855851E+04  0.25500000920E-02 0. -1.
    10030    2    1    2    0    0  0.00000000000E+00  0.00000000000E+00 -0.82222908994E+03  0.20035420802E+04  0.18270523229E+04 0.  0.
        4    1    3    3  502    0 -0.99914673369E+02 -0.52835097071E+03 -0.12209585382E+04  0.13341210796E+04  0.12699999809E+01 0. -1.
       -4    1    3    3    0  502  0.99914673369E+02  0.52835097071E+03  0.39872944823E+03  0.66942100056E+03  0.12699999809E+01 0.  1.
</event>
<event>
 5   0  0.3575091E-04  0.1746558E+04  0.7818609E-02  0.8735247E-01
       -2   -1    0    0    0  501  0.00000000000E+00  0.00000000000E+00  0.40949268003E+03  0.40949268004E+03  0.25500000920E-02 0.  1.
        2   -1    0    0  501    0  0.00000000000E+00  0.00000000000E+00 -0.18623448291E+04  0.18623448291E+04  0.25500000920E-02 0. -1.
    10030    2    1    2    0    0  0.00000000000E+00  0.00000000000E+00 -0.14528521491E+04  0.22718375092E+04  0.17465584161E+04 0.  0.
        5    1    3    3  502    0  0.13699907756E+03  0.30682692208E+03 -0.17748692423E+04  0.18064037269E+04  0.46999998093E+01 0. -1.
       -5    1    3    3    0  502 -0.13699907756E+03 -0.30682692208E+03  0.32201709319E+03  0.46543378226E+03  0.46999998093E+01 0.  1.
</event>
<event>
 5   0  0.1835421E-04  0.1404321E+04  0.7818609E-02  0.8950697E-01
       -1   -1    0    0    0  501  0.00000000000E+00  0.00000000000E+00  0.27466087262E+03  0.27466087267E+03  0.50400001928E-02 0. -1.
        1   -1    0    0  501    0  0.00000000000E+00  0.00000000000E+00 -0.17950471182E+04  0.17950471182E+04  0.50400001928E-02 0.  1.
    10030    2    1    2    0    0  0.00000000000E+00  0.00000000000E+00 -0.15203862456E+04  0.20697079909E+04  0.14043207724E+04 0.  0.
        2    1    3    3  502    0 -0.69579771761E+03  0.74935792486E+02 -0.67579397906E+03  0.97285525078E+03  0.25500000920E-02 0. -1.
       -2    1    3    3    0  502  0.69579771761E+03 -0.74935792486E+02 -0.84459226654E+03  0.10968527401E+04  0.25500000920E-02 0.  1.
</event>
<event>
 5   0  0.3575091E-04  0.1809365E+04  0.7818609E-02  0.8701335E-01
       -2   -1    0    0    0  501  0.00000000000E+00  0.00000000000E+00  0.35595587843E+03  0.35595587843E+03  0.25500000920E-02 0.  1.
        2   -1    0    0  501    0  0.00000000000E+00  0.00000000000E+00 -0.22993029789E+04  0.22993029789E+04  0.25500000920E-02 0. -1.
    10030    2    1    2    0    0  0.00000000000E+00  0.00000000000E+00 -0.19433471005E+04  0.26552588574E+04  0.18093649843E+04 0.  0.
        5    1    3    3  502    0  0.21755774874E+03 -0.50608070478E+03  0.81440865104E+02  0.55686960619E+03  0.46999998093E+01 0.  1.
       -5    1    3    3    0  502 -0.21755774874E+03  0.50608070478E+03 -0.20247879656E+04  0.20983892512E+04  0.46999998093E+01 0. -1.
</event>
<event>
 5   0  0.3531266E-04  0.1788760E+04  0.7818609E-02  0.8712299E-01
       -2   -1    0    0    0  501  0.00000000000E+00  0.00000000000E+00  0.55191506964E+03  0.55191506965E+03  0.25500000920E-02 0. -1.
        2   -1    0    0  501    0  0.00000000000E+00  0.00000000000E+00 -0.14493461701E+04  0.14493461701E+04  0.25500000920E-02 0.  1.
    10030    2    1    2    0    0  0.00000000000E+00  0.00000000000E+00 -0.89743110048E+03  0.20012612398E+04  0.17887604562E+04 0.  0.
        3    1    3    3  502    0  0.82512256631E+03 -0.27581933311E+03 -0.21668317845E+03  0.89657970308E+03  0.10100000352E+00 0. -1.
       -3    1    3    3    0  502 -0.82512256631E+03  0.27581933311E+03 -0.68074792203E+03  0.11046815367E+04  0.10100000352E+00 0.  1.
</event>
<event>
 5   0  0.3575091E-04  0.1793090E+04  0.7818609E-02  0.8709983E-01
       -2   -1    0    0    0  501  0.00000000000E+00  0.00000000000E+00  0.13070300414E+04  0.13070300414E+04  0.25500000920E-02 0.  1.
        2   -1    0    0  501    0  0.00000000000E+00  0.00000000000E+00 -0.61497649785E+03  0.61497649786E+03  0.25500000920E-02 0. -1.
    10030    2    1    2    0    0  0.00000000000E+00  0.00000000000E+00  0.69205354354E+03  0.19220065393E+04  0.17930897997E+04 0.  0.
        5    1    3    3  502    0 -0.70012124655E+02 -0.64812666168E+03 -0.31369112365E+03  0.72345979725E+03  0.46999998093E+01 0. -1.
       -5    1    3    3    0  502  0.70012124655E+02  0.64812666168E+03  0.10057446672E+04  0.11985467420E+04  0.46999998093E+01 0.  1.
</event>
<event>
 5   0  0.1837313E-04  0.1821339E+04  0.7818609E-02  0.8695033E-01
       -1   -1    0    0    0  501  0.00000000000E+00  0.00000000000E+00  0.76696388413E+03  0.76696388414E+03  0.50400001928E-02 0.  1.
        1   -1    0    0  501    0  0.00000000000E+00  0.00000000000E+00 -0.10813009629E+04  0.10813009629E+04  0.50400001928E-02 0. -1.
    10030    2    1    2    0    0  0.00000000000E+00  0.00000000000E+00 -0.31433707877E+03  0.18482648471E+04  0.18213388333E+04 0.  0.
        1    1    3    3  502    0 -0.33823784176E+03 -0.24641181332E+03  0.66361213424E+03  0.78454106590E+03  0.50400001928E-02 0.  1.
       -1    1    3    3    0  502  0.33823784176E+03  0.24641181332E+03 -0.97794921301E+03  0.10637237812E+04  0.50400001928E-02 0. -1.
</event>
<event>
 5   0  0.1883959E-04  0.1904349E+04  0.7818609E-02  0.8652695E-01
       -1   -1    0    0    0  501  0.00000000000E+00  0.00000000000E+00  0.57204337009E+03  0.57204337012E+03  0.50400001928E-02 0. -1.
        1   -1    0    0  501    0  0.00000000000E+00  0.00000000000E+00 -0.15849083539E+04  0.15849083539E+04  0.50400001928E-02 0.  1.
    10030    2    1    2    0    0  0.00000000000E+00  0.00000000000E+00 -0.10128649838E+04  0.21569517240E+04  0.19043490395E+04 0.  0.
        5    1    3    3  502    0 -0.91339548041E+03 -0.23606046881E+03 -0.36050850302E+03  0.10099526322E+04  0.46999998093E+01 0. -1.
       -5    1    3    3    0  502  0.91339548041E+03  0.23606046881E+03 -0.65235648077E+03  0.11469990918E+04  0.46999998093E+01 0.  1.
</event>
<event>
 5   0  0.1883959E-04  0.1774620E+04  0.7818609E-02  0.8719914E-01
        1   -1    0    0  501    0  0.00000000000E+00  0.00000000000E+00  0.11440536882E+04  0.11440536882E+04  0.50400001928E-02 0.  1.
       -1   -1    0    0    0  501  0.00000000000E+00  0.00000000000E+00 -0.68818381000E+03  0.68818381002E+03  0.50400001928E-02 0. -1.
    10030    2    1    2    0    0  0.00000000000E+00  0.00000000000E+00  0.45586987817E+03  0.18322374982E+04  0.17746202140E+04 0.  0.
        5    1    3    3  502    0  0.85352720312E+03 -0.23309842314E+03  0.29683676196E+03  0.93326186817E+03  0.46999998093E+01 0. -1.
       -5    1    3    3    0  502 -0.85352720312E+03  0.23309842314E+03  0.15903311621E+03  0.89897563002E+03  0.46999998093E+01 0.  1.
</event>
<event>
 5   0  0.3568870E-04  0.1793900E+04  0.7818609E-02  0.8709550E-01
       -2   -1    0    0    0  501  0.00000000000E+00  0.00000000000E+00  0.11492318735E+04  0.11492318736E+04  0.25500000920E-02 0. -1.
        2   -1    0    0  501    0  0.00000000000E+00  0.00000000000E+00 -0.70004939203E+03  0.70004939204E+03  0.25500000920E-02 0.  1.
    10030    2    1    2    0    0  0.00000000000E+00  0.00000000000E+00  0.44918248152E+03  0.18492812656E+04  0.17938997457E+04 0.  0.
        1    1    3    3  502    0  0.72027009433E+02  0.91824984660E+02 -0.69218935539E+03  0.70195856120E+03  0.50400001928E-02 0.  1.
       -1    1    3    3    0  502 -0.72027009433E+02 -0.91824984660E+02  0.11413718369E+04  0.11473227044E+04  0.50400001928E-02 0. -1.
</event>
<event>
 5   0  0.3568870E-04  0.1792909E+04  0.7818609E-02  0.8710080E-01
       -2   -1    0    0    0  501  0.00000000000E+00  0.00000000000E+00  0.16650659741E+04  0.16650659741E+04  0.25500000920E-02 0.  1.
        2   -1    0    0  501    0  0.00000000000E+00  0.00000000000E+00 -0.48264176381E+03  0.48264176381E+03  0.25500000920E-02 0. -1.
    10030    2    1    2    0    0  0.00000000000E+00  0.00000000000E+00  0.11824242103E+04  0.21477077379E+04  0.17929086743E+04 0.  0.
        1    1    3    3  502    0  0.10803855977E+03 -0.80833376504E+02  0.16528321281E+04  0.16583306090E+04  0.50400001928E-02 0.  1.
       -1    1    3    3    0  502 -0.10803855977E+03  0.80833376504E+02 -0.47040791778E+03  0.48937712890E+03  0.50400001928E-02 0. -1.
</event>
<event>
 5   0  0.1825253E-04  0.1793304E+04  0.7818609E-02  0.8709869E-01
       -1   -1    0    0    0  501  0.00000000000E+00  0.00000000000E+00  0.79391175698E+03  0.79391175700E+03  0.50400001928E-02 0.  1.
        1   -1    0    0  501    0  0.00000000000E+00  0.00000000000E+00 -0.10126875973E+04  0.10126875973E+04  0.50400001928E-02 0. -1.
    10030    2    1    2    0    0  0.00000000000E+00  0.00000000000E+00 -0.21877584032E+03  0.18065993543E+04  0.17933037553E+04 0.  0.
        4    1    3    3  502    0 -0.67924339277E+03  0.32385861493E+03 -0.60057534132E+03  0.96278156536E+03  0.12699999809E+01 0. -1.
       -4    1    3    3    0  502  0.67924339277E+03 -0.32385861493E+03  0.38179950100E+03  0.84381778895E+03  0.12699999809E+01 0.  1.
</event>
<event>
 5   0  0.3628581E-04  0.1816236E+04  0.7818609E-02  0.8697712E-01
        2   -1    0    0  501    0  0.00000000000E+00  0.00000000000E+00  0.13375242681E+04  0.13375242681E+04  0.25500000920E-02 0. -1.
       -2   -1    0    0    0  501  0.00000000000E+00  0.00000000000E+00 -0.61657103480E+03  0.61657103480E+03  0.25500000920E-02 0.  1.
    10030    2    1    2    0    0  0.00000000000E+00  0.00000000000E+00  0.72095323330E+03  0.19540953029E+04  0.18162364626E+04 0.  0.
        2    1    3    3  502    0 -0.18627907963E+03 -0.61391468053E+03 -0.33102695146E+03  0.72192102967E+03  0.25500000920E-02 0.  1.
       -2    1    3    3    0  502  0.18627907963E+03  0.61391468053E+03  0.10519801848E+04  0.12321742732E+04  0.25500000920E-02 0. -1.
</event>
<event>
 5   0  0.1330125E-04  0.1597201E+04  0.7818609E-02  0.8822270E-01
       -3   -1    0    0    0  501  0.00000000000E+00  0.00000000000E+00  0.48910559333E+03  0.48910560376E+03  0.10100000352E+00 0.  1.
        3   -1    0    0  501    0  0.00000000000E+00  0.00000000000E+00 -0.13039363401E+04  0.13039363440E+04  0.10100000352E+00 0. -1.
    10030    2    1    2    0    0  0.00000000000E+00  0.00000000000E+00 -0.81483074677E+03  0.17930419478E+04  0.15972007640E+04 0.  0.
        2    1    3    3  502    0  0.17216972274E+02 -0.10613423083E+03  0.48094269627E+03  0.49281515418E+03  0.25500000920E-02 0.  1.
       -2    1    3    3    0  502 -0.17216972274E+02  0.10613423083E+03 -0.12957734430E+04  0.13002267936E+04  0.25500000920E-02 0. -1.
</event>
<event>
 5   0  0.3575091E-04  0.1817580E+04  0.7818609E-02  0.8697006E-01
        2   -1    0    0  501    0  0.00000000000E+00  0.00000000000E+00  0.13584859536E+04  0.13584859536E+04  0.25500000920E-02 0.  1.
       -2   -1    0    0    0  501  0.00000000000E+00  0.00000000000E+00 -0.60795574731E+03  0.60795574732E+03  0.25500000920E-02 0. -1.
    10030    2    1    2    0    0  0.00000000000E+00  0.00000000000E+00  0.75053020627E+03  0.19664417009E+04  0.18175800870E+04 0.  0.
        5    1    3    3  502    0  0.13060196269E+03 -0.49955258192E+03  0.11843560631E+04  0.12920259398E+04  0.46999998093E+01 0. -1.
       -5    1    3    3    0  502 -0.13060196269E+03  0.49955258192E+03 -0.43382585687E+03  0.67441576112E+03  0.46999998093E+01 0.  1.
</event>
<event>
 5   0  0.3575091E-04  0.1354131E+04  0.7818609E-02  0.8987707E-01
       -2   -1    0    0    0  501  0.00000000000E+00  0.00000000000E+00  0.83188046610E+03  0.83188046610E+03  0.25500000920E-02 0.  1.
        2   -1    0    0  501    0  0.00000000000E+00  0.00000000000E+00 -0.55106197564E+03  0.55106197564E+03  0.25500000920E-02 0. -1.
    10030    2    1    2    0    0  0.00000000000E+00  0.00000000000E+00  0.28081849046E+03  0.13829424417E+04  0.13541310027E+04 0.  0.
        5    1    3    3  502    0  0.41348668848E+03  0.19536016077E+03  0.65029003148E+03  0.79500694903E+03  0.46999998093E+01 0.  1.
       -5    1    3    3    0  502 -0.41348668848E+03 -0.19536016077E+03 -0.36947154102E+03  0.58793549271E+03  0.46999998093E+01 0. -1.
</event>
<event>
 5   0  0.1837313E-04  0.1840388E+04  0.7818609E-02  0.8685112E-01
        1   -1    0    0  501    0  0.00000000000E+00  0.00000000000E+00  0.22419595942E+04  0.22419595942E+04  0.50400001928E-02 0. -1.
       -1   -1    0    0    0  501  0.00000000000E+00  0.00000000000E+00 -0.37768610476E+03  0.37768610480E+03  0.50400001928E-02 0.  1.
    10030    2    1    2    0    0  0.00000000000E+00  0.00000000000E+00  0.18642734894E+04  0.26196456990E+04  0.18403879876E+04 0.  0.
        1    1    3    3  502    0  0.21650790919E+02 -0.67298364068E+03  0.18249075819E+04  0.19451641113E+04  0.50400001928E-02 0. -1.
       -1    1    3    3    0  502 -0.21650790919E+02  0.67298364068E+03  0.39365907474E+02  0.67448158764E+03  0.50400001928E-02 0.  1.
</event>
<event>
 5   0  0.1825253E-04  0.1814319E+04  0.7818609E-02  0.8698722E-01
        1   -1    0    0  501    0  0.00000000000E+00  0.00000000000E+00  0.66001076076E+03  0.66001076078E+03  0.50400001928E-02 0. -1.
       -1   -1    0    0    0  501  0.00000000000E+00  0.00000000000E+00 -0.12468559941E+04  0.12468559941E+04  0.50400001928E-02 0.  1.
    10030    2    1    2    0    0  0.00000000000E+00  0.00000000000E+00 -0.58684523331E+03  0.19068667548E+04  0.18143190163E+04 0.  0.
        4    1    3    3  502    0  0.14479774430E+03  0.75506576137E+03 -0.79948792130E+03  0.11091768299E+04  0.12699999809E+01 0.  1.
       -4    1    3    3    0  502 -0.14479774430E+03 -0.75506576137E+03  0.21264268799E+03  0.79768992497E+03  0.12699999809E+01 0. -1.
</event>
<event>
 5   0  0.3531266E-04  0.1823405E+04  0.7818609E-02  0.8693951E-01
        2   -1    0    0  501    0  0.00000000000E+00  0.00000000000E+00  0.14437337405E+04  0.14437337405E+04  0.25500000920E-02 0. -1.
       -2   -1    0    0    0  501  0.00000000000E+00  0.00000000000E+00 -0.57573055272E+03  0.57573055272E+03  0.25500000920E-02 0.  1.
    10030    2    1    2    0    0  0.00000000000E+00  0.00000000000E+00  0.86800318779E+03  0.20194642932E+04  0.18234051929E+04 0.  0.
        3    1    3    3  502    0 -0.19630510220E+03  0.69864782700E+03 -0.17720408462E+03  0.74702461615E+03  0.10100000352E+00 0.  1.
       -3    1    3    3    0  502  0.19630510220E+03 -0.69864782700E+03  0.10452072724E+04  0.12724396771E+04  0.10100000352E+00 0. -1.
</event>
<event>
 5   0  0.3568870E-04  0.1791325E+04  0.7818609E-02  0.8710927E-01
       -2   -1    0    0    0  501  0.00000000000E+00  0.00000000000E+00  0.79300601076E+03  0.79300601076E+03  0.25500000920E-02 0.  1.
        2   -1    0    0  501    0  0.00000000000E+00  0.00000000000E+00 -0.10116076289E+04  0.10116076290E+04  0.25500000920E-02 0. -1.
    10030    2    1    2    0    0  0.00000000000E+00  0.00000000000E+00 -0.21860161819E+03  0.18046136397E+04  0.17913245717E+04 0.  0.
        1    1    3    3  502    0  0.64636609172E+03 -0.10812856983E+02 -0.73382304579E+03  0.97795823273E+03  0.50400001928E-02 0. -1.
       -1    1    3    3    0  502 -0.64636609172E+03  0.10812856983E+02  0.51522142760E+03  0.82665540698E+03  0.50400001928E-02 0.  1.
</event>
<event>
 5   0  0.3575091E-04  0.1828948E+04  0.7818609E-02  0.8691055E-01
        2   -1    0    0  501    0  0.00000000000E+00  0.00000000000E+00  0.11191283761E+04  0.11191283761E+04  0.25500000920E-02 0. -1.
       -2   -1    0    0    0  501  0.00000000000E+00  0.00000000000E+00 -0.74724427165E+03  0.74724427165E+03  0.25500000920E-02 0.  1.
    10030    2    1    2    0    0  0.00000000000E+00  0.00000000000E+00  0.37188410440E+03  0.18663726477E+04  0.18289475315E+04 0.  0.
        5    1    3    3  502    0  0.44600696954E+03  0.20269726083E+01  0.10005971765E+04  0.10955104405E+04  0.46999998093E+01 0. -1.
       -5    1    3    3    0  502 -0.44600696954E+03 -0.20269726083E+01 -0.62871307213E+03  0.77086220724E+03  0.46999998093E+01 0.  1.
</event>
<event>
 5   0  0.3575091E-04  0.1804298E+04  0.7818609E-02  0.8704017E-01
        2   -1    0    0  501    0  0.00000000000E+00  0.00000000000E+00  0.12017643102E+04  0.12017643102E+04  0.25500000920E-02 0. -1.
       -2   -1    0    0    0  501  0.00000000000E+00  0.00000000000E+00 -0.67723162317E+03  0.67723162317E+03  0.25500000920E-02 0.  1.
    10030    2    1    2    0    0  0.00000000000E+00  0.00000000000E+00  0.52453268700E+03  0.18789959333E+04  0.18042979737E+04 0.  0.
        5    1    3    3  502    0 -0.57647281055E+03 -0.36842079938E+03 -0.35012283789E+03  0.76854595070E+03  0.46999998093E+01 0.  1.
       -5    1    3    3    0  502  0.57647281055E+03  0.36842079938E+03  0.87465552489E+03  0.11104499826E+04  0.46999998093E+01 0. -1.
</event>
<event>
 5   0  0.3531266E-04  0.1781439E+04  0.7818609E-02  0.8716233E-01
        2   -1    0    0  501    0  0.00000000000E+00  0.00000000000E+00  0.16332220478E+04  0.16332220479E+04  0.25500000920E-02 0. -1.
       -2   -1    0    0    0  501  0.00000000000E+00  0.00000000000E+00 -0.48577677887E+03  0.48577677887E+03  0.25500000920E-02 0.  1.
    10030    2    1    2    0    0  0.00000000000E+00  0.00000000000E+00  0.11474452690E+04  0.21189988267E+04  0.17814391324E+04 0.  0.
        3    1    3    3  502    0  0.68608226058E+03 -0.12349152794E+03 -0.85796528086E+02  0.70236748230E+03  0.10100000352E+00 0.  1.
       -3    1    3    3    0  502 -0.68608226058E+03  0.12349152794E+03  0.12332417971E+04  0.14166313444E+04  0.10100000352E+00 0. -1.
</event>
<event>
 5   0  0.3582186E-04  0.1627985E+04  0.7818609E-02  0.8803538E-01
       -2   -1    0    0    0  501  0.00000000000E+00  0.00000000000E+00  0.59764663070E+03  0.59764663071E+03  0.25500000920E-02 0. -1.
        2   -1    0    0  501    0  0.00000000000E+00  0.00000000000E+00 -0.11086551964E+04  0.11086551964E+04  0.25500000920E-02 0.  1.
    10030    2    1    2    0    0  0.00000000000E+00  0.00000000000E+00 -0.51100856571E+03  0.17063018271E+04  0.16279853104E+04 0.  0.
        4    1    3    3  502    0 -0.72767020153E+03  0.17697882447E+03 -0.58984365952E+03  0.95327990752E+03  0.12699999809E+01 0. -1.
       -4    1    3    3    0  502  0.72767020153E+03 -0.17697882447E+03  0.78835093802E+02  0.75302191961E+03  0.12699999809E+01 0.  1.
</event>
<event>
 5   0  0.1883959E-04  0.1703433E+04  0.7818609E-02  0.8759409E-01
       -1   -1    0    0    0  501  0.00000000000E+00  0.00000000000E+00  0.73493398989E+03  0.73493398991E+03  0.50400001928E-02 0.  1.
        1   -1    0    0  501    0  0.00000000000E+00  0.00000000000E+00 -0.98705558289E+03  0.98705558290E+03  0.50400001928E-02 0. -1.
    10030    2    1    2    0    0  0.00000000000E+00  0.00000000000E+00 -0.25212159300E+03  0.17219895728E+04  0.17034326495E+04 0.  0.
        5    1    3    3  502    0  0.18209644798E+03 -0.39934277925E+03  0.61179811449E+03  0.75296267809E+03  0.46999998093E+01 0.  1.
       -5    1    3    3    0  502 -0.18209644798E+03  0.39934277925E+03 -0.86391970749E+03  0.96902689472E+03  0.46999998093E+01 0. -1.
</event>
<event>
 5   0  0.3531266E-04  0.1745704E+04  0.7818609E-02  0.8735719E-01
       -2   -1    0    0    0  501  0.00000000000E+00  0.00000000000E+00  0.86930123767E+03  0.86930123767E+03  0.25500000920E-02 0. -1.
        2   -1    0    0  501    0  0.00000000000E+00  0.00000000000E+00 -0.87641689088E+03  0.87641689089E+03  0.25500000920E-02 0.  1.
    10030    2    1    2    0    0  0.00000000000E+00  0.00000000000E+00 -0.71156532143E+01  0.17457181286E+04  0.17457036266E+04 0.  0.
        3    1    3    3  502    0 -0.22696715689E+03 -0.84276971582E+03  0.62092165820E+01  0.87281925322E+03  0.10100000352E+00 0.  1.
       -3    1    3    3    0  502  0.22696715689E+03  0.84276971582E+03 -0.13324869796E+02  0.87289887534E+03  0.10100000352E+00 0. -1.
</event>
<event>
 5   0  0.3582186E-04  0.1789974E+04  0.7818609E-02  0.8711650E-01
        2   -1    0    0  501    0  0.00000000000E+00  0.00000000000E+00  0.24538462112E+04  0.24538462112E+04  0.25500000920E-02 0.  1.
       -2   -1    0    0    0  501  0.00000000000E+00  0.00000000000E+00 -0.32642689199E+03  0.32642689200E+03  0.25500000920E-02 0. -1.
    10030    2    1    2    0    0  0.00000000000E+00  0.00000000000E+00  0.21274193192E+04  0.27802731032E+04  0.17899736223E+04 0.  0.
        4    1    3    3  502    0 -0.82094696291E+03 -0.38845194255E+02  0.16140439221E+04  0.18112432914E+04  0.12699999809E+01 0.  1.
       -4    1    3    3    0  502  0.82094696291E+03  0.38845194255E+02  0.51337539708E+03  0.96902981185E+03  0.12699999809E+01 0. -1.
</event>
<event>
 5   0  0.3568870E-04  0.1794913E+04  0.7818609E-02  0.8709009E-01
        2   -1    0    0  501    0  0.00000000000E+00  0.00000000000E+00  0.11549871559E+04  0.11549871559E+04  0.25500000920E-02 0.  1.
       -2   -1    0    0    0  501  0.00000000000E+00  0.00000000000E+00 -0.69734803460E+03  0.69734803461E+03  0.25500000920E-02 0. -1.
    10030    2    1    2    0    0  0.00000000000E+00  0.00000000000E+00  0.45763912129E+03  0.18523351905E+04  0.17949128371E+04 0.  0.
        1    1    3    3  502    0 -0.84233502251E+02  0.19704992482E+03 -0.67055638077E+03  0.70396719781E+03  0.50400001928E-02 0. -1.
       -1    1    3    3    0  502  0.84233502251E+02 -0.19704992482E+03  0.11281955021E+04  0.11483679927E+04  0.50400001928E-02 0.  1.
</event>
<event>
 5   0  0.1825253E-04  0.1685490E+04  0.7818609E-02  0.8769683E-01
       -1   -1    0    0    0  501  0.00000000000E+00  0.00000000000E+00  0.61823835406E+03  0.61823835408E+03  0.50400001928E-02 0. -1.
        1   -1    0    0  501    0  0.00000000000E+00  0.00000000000E+00 -0.11487794918E+04  0.11487794918E+04  0.50400001928E-02 0.  1.
    10030    2    1    2    0    0  0.00000000000E+00  0.00000000000E+00 -0.53054113771E+03  0.17670178459E+04  0.16854904831E+04 0.  0.
        4    1    3    3  502    0  0.40714204767E+03 -0.51157045991E+03  0.29219125194E+03  0.71613289482E+03  0.12699999809E+01 0. -1.
       -4    1    3    3    0  502 -0.40714204767E+03  0.51157045991E+03 -0.82273238965E+03  0.10508849510E+04  0.12699999809E+01 0.  1.
</event>
<event>
 5   0  0.3531266E-04  0.1788729E+04  0.7818609E-02  0.8712316E-01
        2   -1    0    0  501    0  0.00000000000E+00  0.00000000000E+00  0.16694222553E+04  0.16694222553E+04  0.25500000920E-02 0.  1.
       -2   -1    0    0    0  501  0.00000000000E+00  0.00000000000E+00 -0.47914065130E+03  0.47914065131E+03  0.25500000920E-02 0. -1.
    10030    2    1    2    0    0  0.00000000000E+00  0.00000000000E+00  0.11902816040E+04  0.21485629066E+04  0.17887292324E+04 0.  0.
        3    1    3    3  502    0  0.71321548162E+03  0.40183510894E+03  0.10277949603E+04  0.13139673773E+04  0.10100000352E+00 0.  1.
       -3    1    3    3    0  502 -0.71321548162E+03 -0.40183510894E+03  0.16248664374E+03  0.83459552934E+03  0.10100000352E+00 0. -1.
</event>
<event>
 5   0  0.3575091E-04  0.1801773E+04  0.7818609E-02  0.8705357E-01
       -2   -1    0    0    0  501  0.00000000000E+00  0.00000000000E+00  0.84556943241E+03  0.84556943241E+03  0.25500000920E-02 0.  1.
        2   -1    0    0  501    0  0.00000000000E+00  0.00000000000E+00 -0.95982188552E+03  0.95982188552E+03  0.25500000920E-02 0. -1.
    10030    2    1    2    0    0  0.00000000000E+00  0.00000000000E+00 -0.11425245311E+03  0.18053913179E+04  0.18017725128E+04 0.  0.
        5    1    3    3  502    0 -0.62458271228E+01  0.15876887384E+03 -0.94565827014E+03  0.95892555475E+03  0.46999998093E+01 0. -1.
       -5    1    3    3    0  502  0.62458271228E+01 -0.15876887384E+03  0.83140581703E+03  0.84646576319E+03  0.46999998093E+01 0.  1.
</event>
<event>
 5   0  0.1818778E-04  0.1790920E+04  0.7818609E-02  0.8711143E-01
        1   -1    0    0  501    0  0.00000000000E+00  0.00000000000E+00  0.10542572404E+04  0.10542572404E+04  0.50400001928E-02 0. -1.
       -1   -1    0    0    0  501  0.00000000000E+00  0.00000000000E+00 -0.76058177227E+03  0.76058177229E+03  0.50400001928E-02 0.  1.
    10030    2    1    2    0    0  0.00000000000E+00  0.00000000000E+00  0.29367546812E+03  0.18148390127E+04  0.17909202555E+04 0.  0.
        3    1    3    3  502    0 -0.85549964680E+03 -0.21900888583E+03  0.29715731687E+03  0.93174407373E+03  0.10100000352E+00 0. -1.
       -3    1    3    3    0  502  0.85549964680E+03  0.21900888583E+03 -0.34818487512E+01  0.88309493896E+03  0.10100000352E+00 0.  1.
</event>
<event>
 5   0  0.1330125E-04  0.1790957E+04  0.7818609E-02  0.8711123E-01
        3   -1    0    0  501    0  0.00000000000E+00  0.00000000000E+00  0.13424439164E+04  0.13424439202E+04  0.10100000352E+00 0.  1.
       -3   -1    0    0    0  501  0.00000000000E+00  0.00000000000E+00 -0.59733006975E+03  0.59733007829E+03  0.10100000352E+00 0. -1.
    10030    2    1    2    0    0  0.00000000000E+00  0.00000000000E+00  0.74511384667E+03  0.19397739985E+04  0.17909574313E+04 0.  0.
        3    1    3    3  502    0 -0.33817343540E+03 -0.29901049230E+03  0.12101974848E+04  0.12916448852E+04  0.10100000352E+00 0.  1.
       -3    1    3    3    0  502  0.33817343540E+03  0.29901049230E+03 -0.46508363813E+03  0.64812911335E+03  0.10100000352E+00 0. -1.
</event>
<event>
 5   0  0.1825253E-04  0.1779724E+04  0.7818609E-02  0.8717157E-01
       -1   -1    0    0    0  501  0.00000000000E+00  0.00000000000E+00  0.63962555867E+03  0.63962555869E+03  0.50400001928E-02 0. -1.
        1   -1    0    0  501    0  0.00000000000E+00  0.00000000000E+00 -0.12379967143E+04  0.12379967143E+04  0.50400001928E-02 0.  1.
    10030    2    1    2    0    0  0.00000000000E+00  0.00000000000E+00 -0.59837115559E+03  0.18776222730E+04  0.17797239561E+04 0.  0.
        4    1    3    3  502    0  0.51540316410E+03 -0.23555515204E+03 -0.10230207968E+04  0.11694869879E+04  0.12699999809E+01 0.  1.
       -4    1    3    3    0  502 -0.51540316410E+03  0.23555515204E+03  0.42464964125E+03  0.70813528505E+03  0.12699999809E+01 0. -1.
</event>
<event>
 5   0  0.3582186E-04  0.1706854E+04  0.7818609E-02  0.8757465E-01
        2   -1    0    0  501    0  0.00000000000E+00  0.00000000000E+00  0.14492403230E+04  0.14492403230E+04  0.25500000920E-02 0.  1.
       -2   -1    0    0    0  501  0.00000000000E+00  0.00000000000E+00 -0.50256511142E+03  0.50256511142E+03  0.25500000920E-02 0. -1.
    10030    2    1    2    0    0  0.00000000000E+00  0.00000000000E+00  0.94667521157E+03  0.19518054344E+04  0.17068539767E+04 0.  0.
        4    1    3    3  502    0 -0.69066157784E+03 -0.50074923613E+03  0.44596972023E+03  0.96262859757E+03  0.12699999809E+01 0.  1.
       -4    1    3    3    0  502  0.69066157784E+03  0.50074923613E+03  0.50070549134E+03  0.98917683685E+03  0.12699999809E+01 0. -1.
</event>
<event>
 5   0  0.1818778E-04  0.1926789E+04  0.7818609E-02  0.8641636E-01
        1   -1    0    0  501    0  0.00000000000E+00  0.00000000000E+00  0.17895498258E+04  0.17895498258E+04  0.50400001928E-02 0.  1.
       -1   -1    0    0    0  501  0.00000000000E+00  0.00000000000E+00 -0.51863810531E+03  0.51863810533E+03  0.50400001928E-02 0. -1.
    10030    2    1    2    0    0  0.00000000000E+00  0.00000000000E+00  0.12709117205E+04  0.23081879312E+04  0.19267887596E+04 0.  0.
        3    1    3    3  502    0  0.47276557108E+03 -0.48213274317E+01  0.16410154765E+04  0.17077653043E+04  0.10100000352E+00 0.  1.
       -3    1    3    3    0  502 -0.47276557108E+03  0.48213274317E+01 -0.37010375599E+03  0.60042262682E+03  0.10100000352E+00 0. -1.
</event>
<event>
 5   0  0.3575091E-04  0.1807403E+04  0.7818609E-02  0.8702372E-01
        2   -1    0    0  501    0  0.00000000000E+00  0.00000000000E+00  0.13861669836E+04  0.13861669836E+04  0.25500000920E-02 0. -1.
       -2   -1    0    0    0  501  0.00000000000E+00  0.00000000000E+00 -0.58916167322E+03  0.58916167322E+03  0.25500000920E-02 0.  1.
    10030    2    1    2    0    0  0.00000000000E+00  0.00000000000E+00  0.79700531038E+03  0.19753286568E+04  0.18074030645E+04 0.  0.
        5    1    3    3  502    0  0.22832629149E+03 -0.85519173470E+03  0.19945927876E+03  0.90735433672E+03  0.46999998093E+01 0. -1.
       -5    1    3    3    0  502 -0.22832629149E+03  0.85519173470E+03  0.59754603162E+03  0.10679743201E+04  0.46999998093E+01 0.  1.
</event>
<event>
 5   0  0.3628581E-04  0.1824400E+04  0.7818609E-02  0.8693431E-01
        2   -1    0    0  501    0  0.00000000000E+00  0.00000000000E+00  0.13117736618E+04  0.13117736618E+04  0.25500000920E-02 0.  1.
       -2   -1    0    0    0  501  0.00000000000E+00  0.00000000000E+00 -0.63433856713E+03  0.63433856713E+03  0.25500000920E-02 0. -1.
    10030    2    1    2    0    0  0.00000000000E+00  0.00000000000E+00  0.67743509468E+03  0.19461122290E+04  0.18243997643E+04 0.  0.
        2    1    3    3  502    0  0.78819979929E+03 -0.33245303270E+03  0.84588297149E+00  0.85544412913E+03  0.25500000920E-02 0.  1.
       -2    1    3    3    0  502 -0.78819979929E+03  0.33245303270E+03  0.67658921171E+03  0.10906680998E+04  0.25500000920E-02 0. -1.
</event>
<event>
 5   0  0.3575091E-04  0.1805132E+04  0.7818609E-02  0.8703575E-01
       -2   -1    0    0    0  501  0.00000000000E+00  0.00000000000E+00  0.11792347709E+04  0.11792347709E+04  0.25500000920E-02 0.  1.
        2   -1    0    0  501    0  0.00000000000E+00  0.00000000000E+00 -0.69080834619E+03  0.69080834619E+03  0.25500000920E-02 0. -1.
    10030    2    1    2    0    0  0.00000000000E+00  0.00000000000E+00  0.48842642472E+03  0.18700431171E+04  0.18051318200E+04 0.  0.
        5    1    3    3  502    0 -0.49065997207E+02 -0.87891183490E+03  0.37774706333E+02  0.88110300422E+03  0.46999998093E+01 0. -1.
       -5    1    3    3    0  502  0.49065997207E+02  0.87891183490E+03  0.45065171839E+03  0.98894011289E+03  0.46999998093E+01 0.  1.
</event>
<event>
 5   0  0.1818778E-04  0.1898576E+04  0.7818609E-02  0.8655565E-01
       -1   -1    0    0    0  501  0.00000000000E+00  0.00000000000E+00  0.66233639882E+03  0.66233639884E+03  0.50400001928E-02 0.  1.
        1   -1    0    0  501    0  0.00000000000E+00  0.00000000000E+00 -0.13605593132E+04  0.13605593132E+04  0.50400001928E-02 0. -1.
    10030    2    1    2    0    0  0.00000000000E+00  0.00000000000E+00 -0.69822291437E+03  0.20228957120E+04  0.18985762623E+04 0.  0.
        3    1    3    3  502    0 -0.88996990677E+03  0.11463777403E+03 -0.67916915705E+03  0.11253706093E+04  0.10100000352E+00 0. -1.
       -3    1    3    3    0  502  0.88996990677E+03 -0.11463777403E+03 -0.19053757316E+02  0.89752510274E+03  0.10100000352E+00 0.  1.
</event>
<event>
 5   0  0.1825253E-04  0.1813457E+04  0.7818609E-02  0.8699176E-01
        1   -1    0    0  501    0  0.00000000000E+00  0.00000000000E+00  0.10856617441E+04  0.10856617441E+04  0.50400001928E-02 0. -1.
       -1   -1    0    0    0  501  0.00000000000E+00  0.00000000000E+00 -0.75728611238E+03  0.75728611240E+03  0.50400001928E-02 0.  1.
    10030    2    1    2    0    0  0.00000000000E+00  0.00000000000E+00  0.32837563171E+03  0.18429478565E+04  0.18134569877E+04 0.  0.
        4    1    3    3  502    0  0.78623524317E+03  0.44207377364E+03  0.25821195501E+03  0.93822710766E+03  0.12699999809E+01 0. -1.
       -4    1    3    3    0  502 -0.78623524317E+03 -0.44207377364E+03  0.70163676693E+02  0.90472074883E+03  0.12699999809E+01 0.  1.
</event>
<event>
 5   0  0.3531266E-04  0.1771013E+04  0.7818609E-02  0.8721868E-01
        2   -1    0    0  501    0  0.00000000000E+00  0.00000000000E+00  0.60224653438E+03  0.60224653439E+03  0.25500000920E-02 0. -1.
       -2   -1    0    0    0  501  0.00000000000E+00  0.00000000000E+00 -0.13019946581E+04  0.13019946581E+04  0.25500000920E-02 0.  1.
    10030    2    1    2    0    0  0.00000000000E+00  0.00000000000E+00 -0.69974812370E+03  0.19042411925E+04  0.17710130103E+04 0.  0.
        3    1    3    3  502    0  0.17946789986E+03  0.82720359521E+03 -0.70217340103E+02  0.84935563815E+03  0.10100000352E+00 0. -1.
       -3    1    3    3    0  502 -0.17946789986E+03 -0.82720359521E+03 -0.62953078360E+03  0.10548855543E+04  0.10100000352E+00 0.  1.
</event>
<event>
 5   0  0.1835421E-04  0.1788474E+04  0.7818609E-02  0.8712453E-01
        1   -1    0    0  501    0  0.00000000000E+00  0.00000000000E+00  0.82179433395E+03  0.82179433397E+03  0.50400001928E-02 0.  1.
       -1   -1    0    0    0  501  0.00000000000E+00  0.00000000000E+00 -0.97306515513E+03  0.97306515515E+03  0.50400001928E-02 0. -1.
    10030    2    1    2    0    0  0.00000000000E+00  0.00000000000E+00 -0.15127082118E+03  0.17948594891E+04  0.17884735738E+04 0.  0.
        2    1    3    3  502    0  0.16622794365E+03 -0.84211984003E+03  0.17598252780E+03  0.87622337581E+03  0.25500000920E-02 0.  1.
       -2    1    3    3    0  502 -0.16622794365E+03  0.84211984003E+03 -0.32725334899E+03  0.91863611330E+03  0.25500000920E-02 0. -1.
</event>
<event>
 5   0  0.3582186E-04  0.1782062E+04  0.7818609E-02  0.8715897E-01
        2   -1    0    0  501    0  0.00000000000E+00  0.00000000000E+00  0.10667667052E+04  0.10667667052E+04  0.25500000920E-02 0.  1.
       -2   -1    0    0    0  501  0.00000000000E+00  0.00000000000E+00 -0.74424570410E+03  0.74424570411E+03  0.25500000920E-02 0. -1.
    10030    2    1    2    0    0  0.00000000000E+00  0.00000000000E+00  0.32252100111E+03  0.18110124093E+04  0.17820623307E+04 0.  0.
        4    1    3    3  502    0  0.89175713700E+02  0.24289903109E+03 -0.70522353863E+03  0.75119511418E+03  0.12699999809E+01 0. -1.
       -4    1    3    3    0  502 -0.89175713700E+02 -0.24289903109E+03  0.10277445397E+04  0.10598172952E+04  0.12699999809E+01 0.  1.
</event>
<event>
 5   0  0.1825253E-04  0.1784638E+04  0.7818609E-02  0.8714512E-01
       -1   -1    0    0    0  501  0.00000000000E+00  0.00000000000E+00  0.90995068708E+03  0.90995068709E+03  0.50400001928E-02 0. -1.
        1   -1    0    0  501    0  0.00000000000E+00  0.00000000000E+00 -0.87502887331E+03  0.87502887332E+03  0.50400001928E-02 0.  1.
    10030    2    1    2    0    0  0.00000000000E+00  0.00000000000E+00  0.34921813769E+02  0.17849795604E+04  0.17846379179E+04 0.  0.
        4    1    3    3  502    0  0.73694165666E+03  0.34552868434E+03  0.38326092277E+03  0.89964638878E+03  0.12699999809E+01 0. -1.
       -4    1    3    3    0  502 -0.73694165666E+03 -0.34552868434E+03 -0.34833910900E+03  0.88533317163E+03  0.12699999809E+01 0.  1.
</event>
<event>
 5   0  0.1837313E-04  0.1697205E+04  0.7818609E-02  0.8762960E-01
       -1   -1    0    0    0  501  0.00000000000E+00  0.00000000000E+00  0.91430077596E+03  0.91430077597E+03  0.50400001928E-02 0.  1.
        1   -1    0    0  501    0  0.00000000000E+00  0.00000000000E+00 -0.78762524273E+03  0.78762524274E+03  0.50400001928E-02 0. -1.
    10030    2    1    2    0    0  0.00000000000E+00  0.00000000000E+00  0.12667553323E+03  0.17019260187E+04  0.16972051975E+04 0.  0.
        1    1    3    3  502    0 -0.41662051237E+02  0.38866831334E+03  0.81864435936E+03  0.90718100258E+03  0.50400001928E-02 0.  1.
       -1    1    3    3    0  502  0.41662051237E+02 -0.38866831334E+03 -0.69196882613E+03  0.79474501613E+03  0.50400001928E-02 0. -1.
</event>
<event>
 5   0  0.1883959E-04  0.1831041E+04  0.7818609E-02  0.8689964E-01
       -1   -1    0    0    0  501  0.00000000000E+00  0.00000000000E+00  0.86066427439E+03  0.86066427440E+03  0.50400001928E-02 0.  1.
        1   -1    0    0  501    0  0.00000000000E+00  0.00000000000E+00 -0.97387331644E+03  0.97387331645E+03  0.50400001928E-02 0. -1.
    10030    2    1    2    0    0  0.00000000000E+00  0.00000000000E+00 -0.11320904205E+03  0.18345375908E+04  0.18310412024E+04 0.  0.
        5    1    3    3  502    0 -0.54074687619E+03 -0.71279914578E+03  0.13784356880E+03  0.90526943270E+03  0.46999998093E+01 0. -1.
       -5    1    3    3    0  502  0.54074687619E+03  0.71279914578E+03 -0.25105261085E+03  0.92926815815E+03  0.46999998093E+01 0.  1.
</event>
<event>
 5   0  0.1818778E-04  0.1746617E+04  0.7818609E-02  0.8735215E-01
        1   -1    0    0  501    0  0.00000000000E+00  0.00000000000E+00  0.80527830212E+03  0.80527830213E+03  0.50400001928E-02 0.  1.
       -1   -1    0    0    0  501  0.00000000000E+00  0.00000000000E+00 -0.94708616634E+03  0.94708616635E+03  0.50400001928E-02 0. -1.
    10030    2    1    2    0    0  0.00000000000E+00  0.00000000000E+00 -0.14180786422E+03  0.17523644685E+04  0.17466172334E+04 0.  0.
        3    1    3    3  502    0 -0.35235994592E+03  0.79110955117E+03 -0.18377333856E+03  0.88531604730E+03  0.10100000352E+00 0. -1.
       -3    1    3    3    0  502  0.35235994592E+03 -0.79110955117E+03  0.41965474335E+02  0.86704842118E+03  0.10100000352E+00 0.  1.
</event>
<event>
 5   0  0.3628581E-04  0.1781781E+04  0.7818609E-02  0.8716049E-01
       -2   -1    0    0    0  501  0.00000000000E+00  0.00000000000E+00  0.81798541962E+03  0.81798541962E+03  0.25500000920E-02 0.  1.
        2   -1    0    0  501    0  0.00000000000E+00  0.00000000000E+00 -0.97029318008E+03  0.97029318008E+03  0.25500000920E-02 0. -1.
    10030    2    1    2    0    0  0.00000000000E+00  0.00000000000E+00 -0.15230776046E+03  0.17882785997E+04  0.17817807655E+04 0.  0.
        2    1    3    3  502    0  0.24992169309E+02  0.88986537870E+03 -0.41376781990E+02  0.89117733299E+03  0.25500000920E-02 0. -1.
       -2    1    3    3    0  502 -0.24992169309E+02 -0.88986537870E+03 -0.11093097847E+03  0.89710126671E+03  0.25500000920E-02 0.  1.
</event>
<event>
 5   0  0.1825253E-04  0.1781634E+04  0.7818609E-02  0.8716128E-01
       -1   -1    0    0    0  501  0.00000000000E+00  0.00000000000E+00  0.11459010228E+04  0.11459010228E+04  0.50400001928E-02 0. -1.
        1   -1    0    0  501    0  0.00000000000E+00  0.00000000000E+00 -0.69251576973E+03  0.69251576975E+03  0.50400001928E-02 0.  1.
    10030    2    1    2    0    0  0.00000000000E+00  0.00000000000E+00  0.45338525305E+03  0.18384167925E+04  0.17816335525E+04 0.  0.
        4    1    3    3  502    0  0.64203509521E+03 -0.61036808339E+03  0.32346134849E+03  0.94307323023E+03  0.12699999809E+01 0. -1.
       -4    1    3    3    0  502 -0.64203509521E+03  0.61036808339E+03  0.12992390457E+03  0.89534356232E+03  0.12699999809E+01 0.  1.
</event>
<event>
 5   0  0.3531266E-04  0.1854871E+04  0.7818609E-02  0.8677652E-01
       -2   -1    0    0    0  501  0.00000000000E+00  0.00000000000E+00  0.11700102616E+04  0.11700102616E+04  0.25500000920E-02 0. -1.
        2   -1    0    0  501    0  0.00000000000E+00  0.00000000000E+00 -0.73515268913E+03  0.73515268913E+03  0.25500000920E-02 0.  1.
    10030    2    1    2    0    0  0.00000000000E+00  0.00000000000E+00  0.43485757250E+03  0.19051629508E+04  0.18548705509E+04 0.  0.
        3    1    3    3  502    0 -0.88631482283E+03  0.27301800486E+03  0.22419401184E+03  0.95412565278E+03  0.10100000352E+00 0. -1.
       -3    1    3    3    0  502  0.88631482283E+03 -0.27301800486E+03  0.21066356066E+03  0.95103729798E+03  0.10100000352E+00 0.  1.
</event>
<event>
 5   0  0.1330125E-04  0.1816525E+04  0.7818609E-02  0.8697561E-01
       -3   -1    0    0    0  501  0.00000000000E+00  0.00000000000E+00  0.91364086306E+03  0.91364086865E+03  0.10100000352E+00 0.  1.
        3   -1    0    0  501    0  0.00000000000E+00  0.00000000000E+00 -0.90291581479E+03  0.90291582044E+03  0.10100000352E+00 0. -1.
    10030    2    1    2    0    0  0.00000000000E+00  0.00000000000E+00  0.10725048273E+02  0.18165566891E+04  0.18165250282E+04 0.  0.
        5    1    3    3  502    0 -0.20995855611E+03  0.11088851881E+03  0.88204184760E+03  0.91345430636E+03  0.46999998093E+01 0.  1.
       -5    1    3    3    0  502  0.20995855611E+03 -0.11088851881E+03 -0.87131679933E+03  0.90310238272E+03  0.46999998093E+01 0. -1.
</event>
<event>
 5   0  0.3582186E-04  0.1692707E+04  0.7818609E-02  0.8765535E-01
       -2   -1    0    0    0  501  0.00000000000E+00  0.00000000000E+00  0.67787208952E+03  0.67787208952E+03  0.25500000920E-02 0.  1.
        2   -1    0    0  501    0  0.00000000000E+00  0.00000000000E+00 -0.10567101524E+04  0.10567101524E+04  0.25500000920E-02 0. -1.
    10030    2    1    2    0    0  0.00000000000E+00  0.00000000000E+00 -0.37883806292E+03  0.17345822420E+04  0.16927070852E+04 0.  0.
        4    1    3    3  502    0  0.19051916725E+02  0.77350752132E+03 -0.54088471060E+03  0.94405229947E+03  0.12699999809E+01 0. -1.
       -4    1    3    3    0  502 -0.19051916725E+02 -0.77350752132E+03  0.16204664768E+03  0.79052994250E+03  0.12699999809E+01 0.  1.
</event>
<event>
 5   0  0.1837313E-04  0.1821429E+04  0.7818609E-02  0.8694986E-01
        1   -1    0    0  501    0  0.00000000000E+00  0.00000000000E+00  0.79338315563E+03  0.79338315564E+03  0.50400001928E-02 0. -1.
       -1   -1    0    0    0  501  0.00000000000E+00  0.00000000000E+00 -0.10453982028E+04  0.10453982028E+04  0.50400001928E-02 0.  1.
    10030    2    1    2    0    0  0.00000000000E+00  0.00000000000E+00 -0.25201504716E+03  0.18387813584E+04  0.18214294661E+04 0.  0.
        1    1    3    3  502    0  0.77956763266E+03 -0.39297211830E+03  0.13578617056E+03  0.88351042088E+03  0.50400001928E-02 0. -1.
       -1    1    3    3    0  502 -0.77956763266E+03  0.39297211830E+03 -0.38780121772E+03  0.95527093756E+03  0.50400001928E-02 0.  1.
</event>
<event>
 5   0  0.3575091E-04  0.1774812E+04  0.7818609E-02  0.8719810E-01
        2   -1    0    0  501    0  0.00000000000E+00  0.00000000000E+00  0.14035087507E+04  0.14035087507E+04  0.25500000920E-02 0.  1.
       -2   -1    0    0    0  501  0.00000000000E+00  0.00000000000E+00 -0.56108633891E+03  0.56108633891E+03  0.25500000920E-02 0. -1.
    10030    2    1    2    0    0  0.00000000000E+00  0.00000000000E+00  0.84242241183E+03  0.19645950896E+04  0.17748122003E+04 0.  0.
        5    1    3    3  502    0 -0.13089166136E+03  0.23959023162E+03  0.13558515367E+04  0.13830732394E+04  0.46999998093E+01 0.  1.
       -5    1    3    3    0  502  0.13089166136E+03 -0.23959023162E+03 -0.51342912482E+03  0.58152185025E+03  0.46999998093E+01 0. -1.
</event>
<event>
 5   0  0.1330125E-04  0.1593324E+04  0.7818609E-02  0.8824660E-01
        3   -1    0    0  501    0  0.00000000000E+00  0.00000000000E+00  0.70318870653E+03  0.70318871379E+03  0.10100000352E+00 0.  1.
       -3   -1    0    0    0  501  0.00000000000E+00  0.00000000000E+00 -0.90256086174E+03  0.90256086739E+03  0.10100000352E+00 0. -1.
    10030    2    1    2    0    0  0.00000000000E+00  0.00000000000E+00 -0.19937215521E+03  0.16057495812E+04  0.15933243427E+04 0.  0.
        3    1    3    3  502    0 -0.48350401693E+03  0.28661815832E+03 -0.66866342639E+03  0.87351982866E+03  0.10100000352E+00 0. -1.
       -3    1    3    3    0  502  0.48350401693E+03 -0.28661815832E+03  0.46929127119E+03  0.73222975252E+03  0.10100000352E+00 0.  1.
</event>
<event>
 5   0  0.3568870E-04  0.1826225E+04  0.7818609E-02  0.8692476E-01
       -2   -1    0    0    0  501  0.00000000000E+00  0.00000000000E+00  0.34864500863E+03  0.34864500863E+03  0.25500000920E-02 0. -1.
        2   -1    0    0  501    0  0.00000000000E+00  0.00000000000E+00 -0.23914718569E+04  0.23914718569E+04  0.25500000920E-02 0.  1.
    10030    2    1    2    0    0  0.00000000000E+00  0.00000000000E+00 -0.20428268482E+04  0.27401168655E+04  0.18262253160E+04 0.  0.
        1    1    3    3  502    0 -0.17584807891E+03 -0.15097453317E+03  0.30377738937E+03  0.38209496049E+03  0.50400001928E-02 0. -1.
       -1    1    3    3    0  502  0.17584807891E+03  0.15097453317E+03 -0.23466042376E+04  0.23580219050E+04  0.50400001928E-02 0.  1.
</event>
<event>
 5   0  0.3531266E-04  0.1790995E+04  0.7818609E-02  0.8711103E-01
       -2   -1    0    0    0  501  0.00000000000E+00  0.00000000000E+00  0.57948132877E+03  0.57948132878E+03  0.25500000920E-02 0.  1.
        2   -1    0    0  501    0  0.00000000000E+00  0.00000000000E+00 -0.13838507146E+04  0.13838507146E+04  0.25500000920E-02 0. -1.
    10030    2    1    2    0    0  0.00000000000E+00  0.00000000000E+00 -0.80436938583E+03  0.19633320434E+04  0.17909948642E+04 0.  0.
        3    1    3    3  502    0 -0.51688858755E+03  0.19148945872E+03  0.37146825136E+03  0.66470346524E+03  0.10100000352E+00 0.  1.
       -3    1    3    3    0  502  0.51688858755E+03 -0.19148945872E+03 -0.11758376372E+04  0.12986285781E+04  0.10100000352E+00 0. -1.
</event>
<event>
 5   0  0.1837313E-04  0.1807194E+04  0.7818609E-02  0.8702483E-01
       -1   -1    0    0    0  501  0.00000000000E+00  0.00000000000E+00  0.67260579216E+03  0.67260579217E+03  0.50400001928E-02 0. -1.
        1   -1    0    0  501    0  0.00000000000E+00  0.00000000000E+00 -0.12139171990E+04  0.12139171990E+04  0.50400001928E-02 0.  1.
    10030    2    1    2    0    0  0.00000000000E+00  0.00000000000E+00 -0.54131140682E+03  0.18865229912E+04  0.18071942223E+04 0.  0.
        1    1    3    3  502    0  0.66661107931E+03 -0.21254735794E+03  0.32623111124E+03  0.77199316603E+03  0.50400001928E-02 0. -1.
       -1    1    3    3    0  502 -0.66661107931E+03  0.21254735794E+03 -0.86754251806E+03  0.11145298251E+04  0.50400001928E-02 0.  1.
</event>
<event>
 5   0  0.1330125E-04  0.1351450E+04  0.7818609E-02  0.8989731E-01
       -4   -1    0    0    0  501  0.00000000000E+00  0.00000000000E+00  0.51963978995E+03  0.51964134188E+03  0.12699999809E+01 0.  1.
        4   -1    0    0  501    0  0.00000000000E+00  0.00000000000E+00 -0.87869111703E+03  0.87869203481E+03  0.12699999809E+01 0. -1.
    10030    2    1    2    0    0  0.00000000000E+00  0.00000000000E+00 -0.35905132708E+03  0.13983333767E+04  0.13514504715E+04 0.  0.
        5    1    3    3  502    0 -0.48514101340E+03 -0.33503175657E+03  0.16203895691E+03  0.61146283153E+03  0.46999998093E+01 0.  1.
       -5    1    3    3    0  502  0.48514101340E+03  0.33503175657E+03 -0.52109028399E+03  0.78687054517E+03  0.46999998093E+01 0. -1.
</event>
<event>
 5   0  0.3568870E-04  0.1881579E+04  0.7818609E-02  0.8664080E-01
        2   -1    0    0  501    0  0.00000000000E+00  0.00000000000E+00  0.13758312884E+04  0.13758312884E+04  0.25500000920E-02 0.  1.
       -2   -1    0    0    0  501  0.00000000000E+00  0.00000000000E+00 -0.64330932333E+03  0.64330932334E+03  0.25500000920E-02 0. -1.
    10030    2    1    2    0    0  0.00000000000E+00  0.00000000000E+00  0.73252196510E+03  0.20191406118E+04  0.18815792252E+04 0.  0.
        1    1    3    3  502    0  0.75069404004E+03  0.36068957914E+03  0.83579586478E+03  0.11799123874E+04  0.50400001928E-02 0.  1.
       -1    1    3    3    0  502 -0.75069404004E+03 -0.36068957914E+03 -0.10327389968E+03  0.83922822440E+03  0.50400001928E-02 0. -1.
</event>
<event>
 5   0  0.3531266E-04  0.1786105E+04  0.7818609E-02  0.8713724E-01
        2   -1    0    0  501    0  0.00000000000E+00  0.00000000000E+00  0.78118419285E+03  0.78118419285E+03  0.25500000920E-02 0. -1.
       -2   -1    0    0    0  501  0.00000000000E+00  0.00000000000E+00 -0.10209409898E+04  0.10209409898E+04  0.25500000920E-02 0.  1.
    10030    2    1    2    0    0  0.00000000000E+00  0.00000000000E+00 -0.23975679696E+03  0.18021251827E+04  0.17861052187E+04 0.  0.
        3    1    3    3  502    0 -0.63638876972E+03 -0.17171895194E+03  0.48807465119E+03  0.82017982176E+03  0.10100000352E+00 0. -1.
       -3    1    3    3    0  502  0.63638876972E+03  0.17171895194E+03 -0.72783144815E+03  0.98194536090E+03  0.10100000352E+00 0.  1.
</event>
<event>
 5   0  0.1883959E-04  0.1794270E+04  0.7818609E-02  0.8709353E-01
       -1   -1    0    0    0  501  0.00000000000E+00  0.00000000000E+00  0.41786253661E+03  0.41786253664E+03  0.50400001928E-02 0.  1.
        1   -1    0    0  501    0  0.00000000000E+00  0.00000000000E+00 -0.19261146389E+04  0.19261146389E+04  0.50400001928E-02 0. -1.
    10030    2    1    2    0    0  0.00000000000E+00  0.00000000000E+00 -0.15082521023E+04  0.23439771756E+04  0.17942699338E+04 0.  0.
        5    1    3    3  502    0 -0.47006137611E+03 -0.76085638302E+03 -0.66203936130E+03  0.11127346219E+04  0.46999998093E+01 0.  1.
       -5    1    3    3    0  502  0.47006137611E+03  0.76085638302E+03 -0.84621274101E+03  0.12312425537E+04  0.46999998093E+01 0. -1.
</event>
<event>
 5   0  0.3531266E-04  0.1712870E+04  0.7818609E-02  0.8754058E-01
        2   -1    0    0  501    0  0.00000000000E+00  0.00000000000E+00  0.23495059240E+04  0.23495059240E+04  0.25500000920E-02 0.  1.
       -2   -1    0    0    0  501  0.00000000000E+00  0.00000000000E+00 -0.31218530882E+03  0.31218530883E+03  0.25500000920E-02 0. -1.
    10030    2    1    2    0    0  0.00000000000E+00  0.00000000000E+00  0.20373206152E+04  0.26616912329E+04  0.17128703775E+04 0.  0.
        3    1    3    3  502    0  0.46215141040E+03  0.71730670056E+02  0.21335507689E+04  0.21842088061E+04  0.10100000352E+00 0.  1.
       -3    1    3    3    0  502 -0.46215141040E+03 -0.71730670056E+02 -0.96230153680E+02  0.47748242673E+03  0.10100000352E+00 0. -1.
</event>
<event>
 5   0  0.1835421E-04  0.1795708E+04  0.7818609E-02  0.8708585E-01
        1   -1    0    0  501    0  0.00000000000E+00  0.00000000000E+00  0.20883447821E+04  0.20883447821E+04  0.50400001928E-02 0.  1.
       -1   -1    0    0    0  501  0.00000000000E+00  0.00000000000E+00 -0.38601958517E+03  0.38601958520E+03  0.50400001928E-02 0. -1.
    10030    2    1    2    0    0  0.00000000000E+00  0.00000000000E+00  0.17023251969E+04  0.24743643673E+04  0.17957082018E+04 0.  0.
        2    1    3    3  502    0  0.87727414892E+03 -0.73571514296E+02  0.10942389458E+04  0.14044150279E+04  0.25500000920E-02 0.  1.
       -2    1    3    3    0  502 -0.87727414892E+03  0.73571514296E+02  0.60808625110E+03  0.10699493394E+04  0.25500000920E-02 0. -1.
</event>
<event>
 5   0  0.1825253E-04  0.1781544E+04  0.7818609E-02  0.8716176E-01
        1   -1    0    0  501    0  0.00000000000E+00  0.00000000000E+00  0.11642734694E+04  0.11642734694E+04  0.50400001928E-02 0.  1.
       -1   -1    0    0    0  501  0.00000000000E+00  0.00000000000E+00 -0.68151887622E+03  0.68151887624E+03  0.50400001928E-02 0. -1.
    10030    2    1    2    0    0  0.00000000000E+00  0.00000000000E+00  0.48275459321E+03  0.18457923457E+04  0.17815435403E+04 0.  0.
        4    1    3    3  502    0  0.70806505386E+02 -0.23792917176E+03  0.11277106789E+04  0.11547107171E+04  0.12699999809E+01 0.  1.
       -4    1    3    3    0  502 -0.70806505386E+02  0.23792917176E+03 -0.64495608570E+03  0.69108162857E+03  0.12699999809E+01 0. -1.
</event>
<event>
 5   0  0.3531266E-04  0.1777566E+04  0.7818609E-02  0.8718321E-01
       -2   -1    0    0    0  501  0.00000000000E+00  0.00000000000E+00  0.54591582655E+03  0.54591582656E+03  0.25500000920E-02 0. -1.
        2   -1    0    0  501    0  0.00000000000E+00  0.00000000000E+00 -0.14469908583E+04  0.14469908583E+04  0.25500000920E-02 0.  1.
    10030    2    1    2    0    0  0.00000000000E+00  0.00000000000E+00 -0.90107503172E+03  0.19929066848E+04  0.17775659880E+04 0.  0.
        3    1    3    3  502    0 -0.21462285008E+03  0.25900698471E+03  0.47179481662E+03  0.57942898193E+03  0.10100000352E+00 0. -1.
       -3    1    3    3    0  502  0.21462285008E+03 -0.25900698471E+03 -0.13728698483E+04  0.14134777029E+04  0.10100000352E+00 0.  1.
</event>
<event>
 5   0  0.1818778E-04  0.1791499E+04  0.7818609E-02  0.8710833E-01
       -1   -1    0    0    0  501  0.00000000000E+00  0.00000000000E+00  0.12051351342E+04  0.12051351342E+04  0.50400001928E-02 0.  1.
        1   -1    0    0  501    0  0.00000000000E+00  0.00000000000E+00 -0.66579016519E+03  0.66579016521E+03  0.50400001928E-02 0. -1.
    10030    2    1    2    0    0  0.00000000000E+00  0.00000000000E+00  0.53934496898E+03  0.18709252994E+04  0.17914989479E+04 0.  0.
        3    1    3    3  502    0 -0.53485819092E+03  0.25793945606E+03 -0.43070280888E+03  0.73356047274E+03  0.10100000352E+00 0. -1.
       -3    1    3    3    0  502  0.53485819092E+03 -0.25793945606E+03  0.97004777786E+03  0.11373648267E+04  0.10100000352E+00 0.  1.
</event>
<event>
 5   0  0.1837313E-04  0.1778734E+04  0.7818609E-02  0.8717691E-01
        1   -1    0    0  501    0  0.00000000000E+00  0.00000000000E+00  0.72802120100E+03  0.72802120102E+03  0.50400001928E-02 0.  1.
       -1   -1    0    0    0  501  0.00000000000E+00  0.00000000000E+00 -0.10864709799E+04  0.10864709799E+04  0.50400001928E-02 0. -1.
    10030    2    1    2    0    0  0.00000000000E+00  0.00000000000E+00 -0.35844977887E+03  0.18144921809E+04  0.17787342777E+04 0.  0.
        1    1    3    3  502    0 -0.65534664274E+03 -0.47952387686E+02 -0.79060220621E+03  0.10280226175E+04  0.50400001928E-02 0. -1.
       -1    1    3    3    0  502  0.65534664274E+03  0.47952387686E+02  0.43215242735E+03  0.78646956338E+03  0.50400001928E-02 0.  1.
</event>
<event>
 5   0  0.1825253E-04  0.1844982E+04  0.7818609E-02  0.8682737E-01
        1   -1    0    0  501    0  0.00000000000E+00  0.00000000000E+00  0.19662795988E+04  0.19662795988E+04  0.50400001928E-02 0. -1.
       -1   -1    0    0    0  501  0.00000000000E+00  0.00000000000E+00 -0.43279193117E+03  0.43279193120E+03  0.50400001928E-02 0.  1.
    10030    2    1    2    0    0  0.00000000000E+00  0.00000000000E+00  0.15334876676E+04  0.23990715300E+04  0.18449823249E+04 0.  0.
        4    1    3    3  502    0  0.13582918500E+03  0.85732103768E+03  0.36063631232E+03  0.93995164333E+03  0.12699999809E+01 0. -1.
       -4    1    3    3    0  502 -0.13582918500E+03 -0.85732103768E+03  0.11728513553E+04  0.14591198867E+04  0.12699999809E+01 0.  1.
</event>
<event>
 5   0  0.3628581E-04  0.1779191E+04  0.7818609E-02  0.8717444E-01
        2   -1    0    0  501    0  0.00000000000E+00  0.00000000000E+00  0.11405190061E+04  0.11405190061E+04  0.25500000920E-02 0.  1.
       -2   -1    0    0    0  501  0.00000000000E+00  0.00000000000E+00 -0.69387719471E+03  0.69387719471E+03  0.25500000920E-02 0. -1.
    10030    2    1    2    0    0  0.00000000000E+00  0.00000000000E+00  0.44664181135E+03  0.18343962008E+04  0.17791909717E+04 0.  0.
        2    1    3    3  502    0  0.35943273064E+02 -0.27320420171E+03  0.10954073062E+04  0.11295351350E+04  0.25500000920E-02 0.  1.
       -2    1    3    3    0  502 -0.35943273064E+02  0.27320420171E+03 -0.64876549486E+03  0.70486106577E+03  0.25500000920E-02 0. -1.
</event>
<event>
 5   0  0.3628581E-04  0.1810281E+04  0.7818609E-02  0.8700851E-01
       -2   -1    0    0    0  501  0.00000000000E+00  0.00000000000E+00  0.99103022583E+03  0.99103022583E+03  0.25500000920E-02 0. -1.
        2   -1    0    0  501    0  0.00000000000E+00  0.00000000000E+00 -0.82669488992E+03  0.82669488992E+03  0.25500000920E-02 0.  1.
    10030    2    1    2    0    0  0.00000000000E+00  0.00000000000E+00  0.16433533591E+03  0.18177251158E+04  0.18102813300E+04 0.  0.
        2    1    3    3  502    0  0.55361042743E+03 -0.69851309144E+03  0.24053296021E+03  0.92317991163E+03  0.25500000920E-02 0.  1.
       -2    1    3    3    0  502 -0.55361042743E+03  0.69851309144E+03 -0.76197624300E+02  0.89454520413E+03  0.25500000920E-02 0. -1.
</event>
<event>
 5   0  0.3628581E-04  0.1788693E+04  0.7818609E-02  0.8712336E-01
       -2   -1    0    0    0  501  0.00000000000E+00  0.00000000000E+00  0.10645264844E+04  0.10645264844E+04  0.25500000920E-02 0. -1.
        2   -1    0    0  501    0  0.00000000000E+00  0.00000000000E+00 -0.75137217538E+03  0.75137217539E+03  0.25500000920E-02 0.  1.
    10030    2    1    2    0    0  0.00000000000E+00  0.00000000000E+00  0.31315430901E+03  0.18158986598E+04  0.17886929086E+04 0.  0.
        2    1    3    3  502    0 -0.20431201494E+03  0.58951845506E+03 -0.49393409156E+03  0.79576773943E+03  0.25500000920E-02 0.  1.
       -2    1    3    3    0  502  0.20431201494E+03 -0.58951845506E+03  0.80708840057E+03  0.10201309204E+04  0.25500000920E-02 0. -1.
</event>
<event>
 5   0  0.1835421E-04  0.1768333E+04  0.7818609E-02  0.8723323E-01
        1   -1    0    0  501    0  0.00000000000E+00  0.00000000000E+00  0.10718492414E+04  0.10718492414E+04  0.50400001928E-02 0. -1.
       -1   -1    0    0    0  501  0.00000000000E+00  0.00000000000E+00 -0.72934734542E+03  0.72934734544E+03  0.50400001928E-02 0.  1.
    10030    2    1    2    0    0  0.00000000000E+00  0.00000000000E+00  0.34250189599E+03  0.18011965869E+04  0.17683329991E+04 0.  0.
        2    1    3    3  502    0 -0.84015928979E+03 -0.15671626312E+03  0.40200649446E+03  0.94447701981E+03  0.25500000920E-02 0. -1.
       -2    1    3    3    0  502  0.84015928979E+03  0.15671626312E+03 -0.59504598465E+02  0.85671956707E+03  0.25500000920E-02 0.  1.
</event>
<event>
 5   0  0.1825253E-04  0.1800980E+04  0.7818609E-02  0.8705779E-01
        1   -1    0    0  501    0  0.00000000000E+00  0.00000000000E+00  0.17035609661E+04  0.17035609661E+04  0.50400001928E-02 0.  1.
       -1   -1    0    0    0  501  0.00000000000E+00  0.00000000000E+00 -0.47599240965E+03  0.47599240968E+03  0.50400001928E-02 0. -1.
    10030    2    1    2    0    0  0.00000000000E+00  0.00000000000E+00  0.12275685565E+04  0.21795533758E+04  0.18009798325E+04 0.  0.
        4    1    3    3  502    0  0.60390160425E+03 -0.52468912552E+03  0.11350768178E+03  0.80801078753E+03  0.12699999809E+01 0. -1.
       -4    1    3    3    0  502 -0.60390160425E+03  0.52468912552E+03  0.11140608747E+04  0.13715425883E+04  0.12699999809E+01 0.  1.
</event>
<event>
 5   0  0.1818778E-04  0.1797458E+04  0.7818609E-02  0.8707652E-01
        1   -1    0    0  501    0  0.00000000000E+00  0.00000000000E+00  0.13596959998E+04  0.13596959998E+04  0.50400001928E-02 0. -1.
       -1   -1    0    0    0  501  0.00000000000E+00  0.00000000000E+00 -0.59404030371E+03  0.59404030373E+03  0.50400001928E-02 0.  1.
    10030    2    1    2    0    0  0.00000000000E+00  0.00000000000E+00  0.76565569607E+03  0.19537363035E+04  0.17974584554E+04 0.  0.
        3    1    3    3  502    0 -0.23333951628E+03  0.57779183747E+03 -0.32110860143E+03  0.70100034338E+03  0.10100000352E+00 0.  1.
       -3    1    3    3    0  502  0.23333951628E+03 -0.57779183747E+03  0.10867642975E+04  0.12527359601E+04  0.10100000352E+00 0. -1.
</event>
<event>
 5   0  0.3575091E-04  0.1554957E+04  0.7818609E-02  0.8848708E-01
        2   -1    0    0  501    0  0.00000000000E+00  0.00000000000E+00  0.75655072474E+03  0.75655072474E+03  0.25500000920E-02 0. -1.
       -2   -1    0    0    0  501  0.00000000000E+00  0.00000000000E+00 -0.79898520702E+03  0.79898520703E+03  0.25500000920E-02 0.  1.
    10030    2    1    2    0    0  0.00000000000E+00  0.00000000000E+00 -0.42434482284E+02  0.15555359318E+04  0.15549570250E+04 0.  0.
        5    1    3    3  502    0  0.36064018152E+03 -0.36262084620E+03  0.56457358730E+03  0.76178779466E+03  0.46999998093E+01 0. -1.
       -5    1    3    3    0  502 -0.36064018152E+03  0.36262084620E+03 -0.60700806958E+03  0.79374813711E+03  0.46999998093E+01 0.  1.
</event>
<event>
 5   0  0.1825253E-04  0.1791587E+04  0.7818609E-02  0.8710786E-01
       -1   -1    0    0    0  501  0.00000000000E+00  0.00000000000E+00  0.74830340386E+03  0.74830340387E+03  0.50400001928E-02 0.  1.
        1   -1    0    0  501    0  0.00000000000E+00  0.00000000000E+00 -0.10723534109E+04  0.10723534109E+04  0.50400001928E-02 0. -1.
    10030    2    1    2    0    0  0.00000000000E+00  0.00000000000E+00 -0.32405000702E+03  0.18206568148E+04  0.17915866795E+04 0.  0.
        4    1    3    3  502    0  0.93137924771E+02 -0.74513157363E+03 -0.65836409732E+03  0.99866943109E+03  0.12699999809E+01 0. -1.
       -4    1    3    3    0  502 -0.93137924771E+02  0.74513157363E+03  0.33431409030E+03  0.82198738367E+03  0.12699999809E+01 0.  1.
</event>
<event>
 5   0  0.3531266E-04  0.1797607E+04  0.7818609E-02  0.8707573E-01
       -2   -1    0    0    0  501  0.00000000000E+00  0.00000000000E+00  0.76832625225E+03  0.76832625225E+03  0.25500000920E-02 0. -1.
        2   -1    0    0  501    0  0.00000000000E+00  0.00000000000E+00 -0.10514380043E+04  0.10514380043E+04  0.25500000920E-02 0.  1.
    10030    2    1    2    0    0  0.00000000000E+00  0.00000000000E+00 -0.28311175205E+03  0.18197642566E+04  0.17976066548E+04 0.  0.
        3    1    3    3  502    0 -0.38671194978E+03  0.60868600709E+03 -0.68464091351E+03  0.99437315832E+03  0.10100000352E+00 0.  1.
       -3    1    3    3    0  502  0.38671194978E+03 -0.60868600709E+03  0.40152916146E+03  0.82539109823E+03  0.10100000352E+00 0. -1.
</event>
<event>
 5   0  0.1825253E-04  0.1885720E+04  0.7818609E-02  0.8661997E-01
       -1   -1    0    0    0  501  0.00000000000E+00  0.00000000000E+00  0.61532851309E+03  0.61532851312E+03  0.50400001928E-02 0. -1.
        1   -1    0    0  501    0  0.00000000000E+00  0.00000000000E+00 -0.14447327040E+04  0.14447327040E+04  0.50400001928E-02 0.  1.
    10030    2    1    2    0    0  0.00000000000E+00  0.00000000000E+00 -0.82940419091E+03  0.20600612171E+04  0.18857202620E+04 0.  0.
        4    1    3    3  502    0  0.61173647235E+03  0.60410741338E+03  0.81441153359E+01  0.85978789130E+03  0.12699999809E+01 0. -1.
       -4    1    3    3    0  502 -0.61173647235E+03 -0.60410741338E+03 -0.83754830625E+03  0.12002733258E+04  0.12699999809E+01 0.  1.
</event>
<event>
 5   0  0.1883959E-04  0.1796108E+04  0.7818609E-02  0.8708372E-01
       -1   -1    0    0    0  501  0.00000000000E+00  0.00000000000E+00  0.41355086892E+03  0.41355086895E+03  0.50400001928E-02 0. -1.
        1   -1    0    0  501    0  0.00000000000E+00  0.00000000000E+00 -0.19501851487E+04  0.19501851487E+04  0.50400001928E-02 0.  1.
    10030    2    1    2    0    0  0.00000000000E+00  0.00000000000E+00 -0.15366342798E+04  0.23637360176E+04  0.17961077505E+04 0.  0.
        5    1    3    3  502    0  0.49344311620E+03  0.74790370046E+03 -0.84763600582E+03  0.12334321799E+04  0.46999998093E+01 0.  1.
       -5    1    3    3    0  502 -0.49344311620E+03 -0.74790370046E+03 -0.68899827393E+03  0.11303038377E+04  0.46999998093E+01 0. -1.
</event>
<event>
 5   0  0.1818778E-04  0.1847047E+04  0.7818609E-02  0.8681673E-01
       -1   -1    0    0    0  501  0.00000000000E+00  0.00000000000E+00  0.90287715954E+03  0.90287715956E+03  0.50400001928E-02 0.  1.
        1   -1    0    0  501    0  0.00000000000E+00  0.00000000000E+00 -0.94464232677E+03  0.94464232678E+03  0.50400001928E-02 0. -1.
    10030    2    1    2    0    0  0.00000000000E+00  0.00000000000E+00 -0.41765167225E+02  0.18475194863E+04  0.18470473527E+04 0.  0.
        3    1    3    3  502    0 -0.20269743367E+03 -0.36960955830E+03  0.80103208452E+03  0.90517947714E+03  0.10100000352E+00 0.  1.
       -3    1    3    3    0  502  0.20269743367E+03  0.36960955830E+03 -0.84279725174E+03  0.94234000920E+03  0.10100000352E+00 0. -1.
</event>
<event>
 5   0  0.1837313E-04  0.1803383E+04  0.7818609E-02  0.8704503E-01
        1   -1    0    0  501    0  0.00000000000E+00  0.00000000000E+00  0.14299379519E+04  0.14299379519E+04  0.50400001928E-02 0.  1.
       -1   -1    0    0    0  501  0.00000000000E+00  0.00000000000E+00 -0.56858929707E+03  0.56858929709E+03  0.50400001928E-02 0. -1.
    10030    2    1    2    0    0  0.00000000000E+00  0.00000000000E+00  0.86134865485E+03  0.19985272490E+04  0.18033828379E+04 0.  0.
        1    1    3    3  502    0 -0.26000612528E+03  0.11466772418E+03  0.13790170964E+04  0.14079914859E+04  0.50400001928E-02 0.  1.
       -1    1    3    3    0  502  0.26000612528E+03 -0.11466772418E+03 -0.51766844154E+03  0.59053576314E+03  0.50400001928E-02 0. -1.
</event>
<event>
 5   0  0.3582186E-04  0.1819362E+04  0.7818609E-02  0.8696070E-01
       -2   -1    0    0    0  501  0.00000000000E+00  0.00000000000E+00  0.84871726867E+03  0.84871726868E+03  0.25500000920E-02 0.  1.
        2   -1    0    0  501    0  0.00000000000E+00  0.00000000000E+00 -0.97502374513E+03  0.97502374513E+03  0.25500000920E-02 0. -1.
    10030    2    1    2    0    0  0.00000000000E+00  0.00000000000E+00 -0.12630647645E+03  0.18237410138E+04  0.18193619649E+04 0.  0.
        4    1    3    3  502    0 -0.59460433072E+03 -0.26217373334E+03 -0.70126102596E+03  0.95606381377E+03  0.12699999809E+01 0. -1.
       -4    1    3    3    0  502  0.59460433072E+03  0.26217373334E+03  0.57495454951E+03  0.86767720004E+03  0.12699999809E+01 0.  1.
</event>
<event>
 5   0  0.3628581E-04  0.1801655E+04  0.7818609E-02  0.8705420E-01
        2   -1    0    0  501    0  0.00000000000E+00  0.00000000000E+00  0.95494368509E+03  0.95494368510E+03  0.25500000920E-02 0.  1.
       -2   -1    0    0    0  501  0.00000000000E+00  0.00000000000E+00 -0.84977781343E+03  0.84977781343E+03  0.25500000920E-02 0. -1.
    10030    2    1    2    0    0  0.00000000000E+00  0.00000000000E+00  0.10516587166E+03  0.18047214985E+04  0.18016547468E+04 0.  0.
        2    1    3    3  502    0 -0.46889935006E+03 -0.10294036298E+03 -0.71096559066E+03  0.85786676700E+03  0.25500000920E-02 0. -1.
       -2    1    3    3    0  502  0.46889935006E+03  0.10294036298E+03  0.81613146233E+03  0.94685473153E+03  0.25500000920E-02 0.  1.
</event>
<event>
 5   0  0.1818778E-04  0.1800251E+04  0.7818609E-02  0.8706166E-01
       -1   -1    0    0    0  501  0.00000000000E+00  0.00000000000E+00  0.53756026351E+03  0.53756026354E+03  0.50400001928E-02 0.  1.
        1   -1    0    0  501    0  0.00000000000E+00  0.00000000000E+00 -0.15072273671E+04  0.15072273671E+04  0.50400001928E-02 0. -1.
    10030    2    1    2    0    0  0.00000000000E+00  0.00000000000E+00 -0.96966710360E+03  0.20447876307E+04  0.18002505833E+04 0.  0.
        3    1    3    3  502    0 -0.50571661383E+03 -0.25947714663E+03  0.30793359273E+03  0.64645246605E+03  0.10100000352E+00 0.  1.
       -3    1    3    3    0  502  0.50571661383E+03  0.25947714663E+03 -0.12776006963E+04  0.13983351646E+04  0.10100000352E+00 0. -1.
</event>
<event>
 5   0  0.3531266E-04  0.1771421E+04  0.7818609E-02  0.8721647E-01
        2   -1    0    0  501    0  0.00000000000E+00  0.00000000000E+00  0.57040032155E+03  0.57040032155E+03  0.25500000920E-02 0. -1.
       -2   -1    0    0    0  501  0.00000000000E+00  0.00000000000E+00 -0.13753198458E+04  0.13753198458E+04  0.25500000920E-02 0.  1.
    10030    2    1    2    0    0  0.00000000000E+00  0.00000000000E+00 -0.80491952422E+03  0.19457201673E+04  0.17714207657E+04 0.  0.
        3    1    3    3  502    0  0.29777628507E+03 -0.30602319576E+03  0.44988502066E+03  0.62025595870E+03  0.10100000352E+00 0. -1.
       -3    1    3    3    0  502 -0.29777628507E+03  0.30602319576E+03 -0.12548045449E+04  0.13254642086E+04  0.10100000352E+00 0.  1.
</event>
<event>
 5   0  0.1837313E-04  0.1784101E+04  0.7818609E-02  0.8714800E-01
       -1   -1    0    0    0  501  0.00000000000E+00  0.00000000000E+00  0.48307653938E+03  0.48307653941E+03  0.50400001928E-02 0.  1.
        1   -1    0    0  501    0  0.00000000000E+00  0.00000000000E+00 -0.16472637035E+04  0.16472637035E+04  0.50400001928E-02 0. -1.
    10030    2    1    2    0    0  0.00000000000E+00  0.00000000000E+00 -0.11641871641E+04  0.21303402429E+04  0.17841013978E+04 0.  0.
        1    1    3    3  502    0 -0.19835741533E+03  0.39102220755E+03 -0.15097172561E+04  0.15720973966E+04  0.50400001928E-02 0. -1.
       -1    1    3    3    0  502  0.19835741533E+03 -0.39102220755E+03  0.34553009195E+03  0.55824284634E+03  0.50400001928E-02 0.  1.
</event>
<event>
 5   0  0.1825253E-04  0.1800553E+04  0.7818609E-02  0.8706006E-01
        1   -1    0    0  501    0  0.00000000000E+00  0.00000000000E+00  0.63908471815E+03  0.63908471817E+03  0.50400001928E-02 0. -1.
       -1   -1    0    0    0  501  0.00000000000E+00  0.00000000000E+00 -0.12682159483E+04  0.12682159483E+04  0.50400001928E-02 0.  1.
    10030    2    1    2    0    0  0.00000000000E+00  0.00000000000E+00 -0.62913123012E+03  0.19073006664E+04  0.18005526173E+04 0.  0.
        4    1    3    3  502    0 -0.14958938561E+03  0.72630130142E+03 -0.85532607294E+03  0.11320224683E+04  0.12699999809E+01 0.  1.
       -4    1    3    3    0  502  0.14958938561E+03 -0.72630130142E+03  0.22619484282E+03  0.77527819817E+03  0.12699999809E+01 0. -1.
</event>
<event>
 5   0  0.1883959E-04  0.1817492E+04  0.7818609E-02  0.8697052E-01
       -1   -1    0    0    0  501  0.00000000000E+00  0.00000000000E+00  0.78685800831E+03  0.78685800832E+03  0.50400001928E-02 0. -1.
        1   -1    0    0  501    0  0.00000000000E+00  0.00000000000E+00 -0.10495154074E+04  0.10495154074E+04  0.50400001928E-02 0.  1.
    10030    2    1    2    0    0  0.00000000000E+00  0.00000000000E+00 -0.26265739905E+03  0.18363734157E+04  0.18174923418E+04 0.  0.
        5    1    3    3  502    0  0.57561056664E+03 -0.34427127185E+03 -0.75084377777E+03  0.10067962563E+04  0.46999998093E+01 0.  1.
       -5    1    3    3    0  502 -0.57561056664E+03  0.34427127185E+03  0.48818637872E+03  0.82957715941E+03  0.46999998093E+01 0. -1.
</event>
<event>
 5   0  0.3531266E-04  0.1802949E+04  0.7818609E-02  0.8704733E-01
       -2   -1    0    0    0  501  0.00000000000E+00  0.00000000000E+00  0.51665455032E+03  0.51665455033E+03  0.25500000920E-02 0. -1.
        2   -1    0    0  501    0  0.00000000000E+00  0.00000000000E+00 -0.15729203085E+04  0.15729203085E+04  0.25500000920E-02 0.  1.
    10030    2    1    2    0    0  0.00000000000E+00  0.00000000000E+00 -0.10562657581E+04  0.20895748588E+04  0.18029491781E+04 0.  0.
        3    1    3    3  502    0  0.13498273989E+03  0.79407336978E+03 -0.58950001552E+02  0.80761870307E+03  0.10100000352E+00 0. -1.
       -3    1    3    3    0  502 -0.13498273989E+03 -0.79407336978E+03 -0.99731575658E+03  0.12819561557E+04  0.10100000352E+00 0.  1.
</event>
<event>
 5   0  0.1837313E-04  0.1802679E+04  0.7818609E-02  0.8704876E-01
        1   -1    0    0  501    0  0.00000000000E+00  0.00000000000E+00  0.11759174224E+04  0.11759174225E+04  0.50400001928E-02 0. -1.
       -1   -1    0    0    0  501  0.00000000000E+00  0.00000000000E+00 -0.69087591891E+03  0.69087591893E+03  0.50400001928E-02 0.  1.
    10030    2    1    2    0    0  0.00000000000E+00  0.00000000000E+00  0.48504150353E+03  0.18667933414E+04  0.18026791504E+04 0.  0.
        1    1    3    3  502    0 -0.39560660818E+03  0.80807278288E+03  0.18649654255E+03  0.91884012280E+03  0.50400001928E-02 0. -1.
       -1    1    3    3    0  502  0.39560660818E+03 -0.80807278288E+03  0.29854496098E+03  0.94795321858E+03  0.50400001928E-02 0.  1.
</event>
<event>
 5   0  0.3568870E-04  0.1822748E+04  0.7818609E-02  0.8694295E-01
        2   -1    0    0  501    0  0.00000000000E+00  0.00000000000E+00  0.16359809331E+04  0.16359809331E+04  0.25500000920E-02 0. -1.
       -2   -1    0    0    0  501  0.00000000000E+00  0.00000000000E+00 -0.50770913697E+03  0.50770913698E+03  0.25500000920E-02 0.  1.
    10030    2    1    2    0    0  0.00000000000E+00  0.00000000000E+00  0.11282717961E+04  0.21436900701E+04  0.18227478900E+04 0.  0.
        1    1    3    3  502    0 -0.16454154634E+03 -0.48215817264E+03 -0.32460105279E+03  0.60408299713E+03  0.50400001928E-02 0.  1.
       -1    1    3    3    0  502  0.16454154634E+03  0.48215817264E+03  0.14528728489E+04  0.15396070729E+04  0.50400001928E-02 0. -1.
</event>
<event>
 5   0  0.1825253E-04  0.1794804E+04  0.7818609E-02  0.8709068E-01
        1   -1    0    0  501    0  0.00000000000E+00  0.00000000000E+00  0.12938875787E+04  0.12938875787E+04  0.50400001928E-02 0. -1.
       -1   -1    0    0    0  501  0.00000000000E+00  0.00000000000E+00 -0.62241127164E+03  0.62241127166E+03  0.50400001928E-02 0.  1.
    10030    2    1    2    0    0  0.00000000000E+00  0.00000000000E+00  0.67147630702E+03  0.19162988503E+04  0.17948038480E+04 0.  0.
        4    1    3    3  502    0 -0.76444304561E+03 -0.20444716760E+03 -0.11618321665E+03  0.79979495313E+03  0.12699999809E+01 0. -1.
       -4    1    3    3    0  502  0.76444304561E+03  0.20444716760E+03  0.78765952367E+03  0.11165038972E+04  0.12699999809E+01 0.  1.
</event>
<event>
 5   0  0.1883959E-04  0.1805145E+04  0.7818609E-02  0.8703568E-01
       -1   -1    0    0    0  501  0.00000000000E+00  0.00000000000E+00  0.94426388272E+03  0.94426388274E+03  0.50400001928E-02 0.  1.
        1   -1    0    0  501    0  0.00000000000E+00  0.00000000000E+00 -0.86272231688E+03  0.86272231690E+03  0.50400001928E-02 0. -1.
    10030    2    1    2    0    0  0.00000000000E+00  0.00000000000E+00  0.81541565840E+02  0.18069861996E+04  0.18051454508E+04 0.  0.
        5    1    3    3  502    0 -0.69587840114E+03  0.56464704101E+03 -0.66774355041E+02  0.89864004729E+03  0.46999998093E+01 0. -1.
       -5    1    3    3    0  502  0.69587840114E+03 -0.56464704101E+03  0.14831592088E+03  0.90834615235E+03  0.46999998093E+01 0.  1.
</event>
<event>
 5   0  0.1835421E-04  0.1845282E+04  0.7818609E-02  0.8682583E-01
        1   -1    0    0  501    0  0.00000000000E+00  0.00000000000E+00  0.52166891163E+03  0.52166891166E+03  0.50400001928E-02 0.  1.
       -1   -1    0    0    0  501  0.00000000000E+00  0.00000000000E+00 -0.16318133922E+04  0.16318133922E+04  0.50400001928E-02 0. -1.
    10030    2    1    2    0    0  0.00000000000E+00  0.00000000000E+00 -0.11101444806E+04  0.21534823039E+04  0.18452818932E+04 0.  0.
        2    1    3    3  502    0 -0.43941265191E+03 -0.48366568677E+03  0.20506093472E+03  0.68488390416E+03  0.25500000920E-02 0.  1.
       -2    1    3    3    0  502  0.43941265191E+03  0.48366568677E+03 -0.13152054153E+04  0.14685983997E+04  0.25500000920E-02 0. -1.
</event>
<event>
 5   0  0.1835421E-04  0.1797706E+04  0.7818609E-02  0.8707520E-01
       -1   -1    0    0    0  501  0.00000000000E+00  0.00000000000E+00  0.49571454810E+03  0.49571454813E+03  0.50400001928E-02 0. -1.
        1   -1    0    0  501    0  0.00000000000E+00  0.00000000000E+00 -0.16298425030E+04  0.16298425030E+04  0.50400001928E-02 0.  1.
    10030    2    1    2    0    0  0.00000000000E+00  0.00000000000E+00 -0.11341279549E+04  0.21255570511E+04  0.17977059157E+04 0.  0.
        2    1    3    3  502    0  0.75632570578E+03  0.44100996641E+03 -0.32643377943E+03  0.93438609582E+03  0.25500000920E-02 0. -1.
       -2    1    3    3    0  502 -0.75632570578E+03 -0.44100996641E+03 -0.80769417544E+03  0.11911709553E+04  0.25500000920E-02 0.  1.
</event>
<event>
 5   0  0.1883959E-04  0.1814954E+04  0.7818609E-02  0.8698387E-01
       -1   -1    0    0    0  501  0.00000000000E+00  0.00000000000E+00  0.62584275475E+03  0.62584275477E+03  0.50400001928E-02 0. -1.
        1   -1    0    0  501    0  0.00000000000E+00  0.00000000000E+00 -0.13158488593E+04  0.13158488593E+04  0.50400001928E-02 0.  1.
    10030    2    1    2    0    0  0.00000000000E+00  0.00000000000E+00 -0.69000610459E+03  0.19416916141E+04  0.18149539663E+04 0.  0.
        5    1    3    3  502    0 -0.59692304838E+03 -0.53006431725E+03 -0.80665294003E+03  0.11348992738E+04  0.46999998093E+01 0.  1.
       -5    1    3    3    0  502  0.59692304838E+03  0.53006431725E+03  0.11664683544E+03  0.80679234028E+03  0.46999998093E+01 0. -1.
</event>
<event>
 5   0  0.3628581E-04  0.1801402E+04  0.7818609E-02  0.8705554E-01
        2   -1    0    0  501    0  0.00000000000E+00  0.00000000000E+00  0.22092309161E+04  0.22092309161E+04  0.25500000920E-02 0. -1.
       -2   -1    0    0    0  501  0.00000000000E+00  0.00000000000E+00 -0.36721477625E+03  0.36721477626E+03  0.25500000920E-02 0.  1.
    10030    2    1    2    0    0  0.00000000000E+00  0.00000000000E+00  0.18420161399E+04  0.25764456924E+04  0.18014019391E+04 0.  0.
        2    1    3    3  502    0  0.28944029333E+03 -0.54269996989E+02 -0.29641617338E+03  0.41783186071E+03  0.25500000920E-02 0.  1.
       -2    1    3    3    0  502 -0.28944029333E+03  0.54269996989E+02  0.21384323132E+04  0.21586138317E+04  0.25500000920E-02 0. -1.
</event>
<event>
 5   0  0.1825253E-04  0.1807015E+04  0.7818609E-02  0.8702578E-01
       -1   -1    0    0    0  501  0.00000000000E+00  0.00000000000E+00  0.19144630324E+04  0.19144630324E+04  0.50400001928E-02 0. -1.
        1   -1    0    0  501    0  0.00000000000E+00  0.00000000000E+00 -0.42639934823E+03  0.42639934826E+03  0.50400001928E-02 0.  1.
    10030    2    1    2    0    0  0.00000000000E+00  0.00000000000E+00  0.14880636842E+04  0.23408623807E+04  0.18070149853E+04 0.  0.
        4    1    3    3  502    0 -0.41843501364E+03 -0.10874914767E+03  0.17717663201E+04  0.18237521059E+04  0.12699999809E+01 0. -1.
       -4    1    3    3    0  502  0.41843501364E+03  0.10874914767E+03 -0.28370263593E+03  0.51711027479E+03  0.12699999809E+01 0.  1.
</event>
<event>
 5   0  0.1837313E-04  0.1810325E+04  0.7818609E-02  0.8700828E-01
       -1   -1    0    0    0  501  0.00000000000E+00  0.00000000000E+00  0.43910183524E+03  0.43910183527E+03  0.50400001928E-02 0. -1.
        1   -1    0    0  501    0  0.00000000000E+00  0.00000000000E+00 -0.18658982854E+04  0.18658982854E+04  0.50400001928E-02 0.  1.
    10030    2    1    2    0    0  0.00000000000E+00  0.00000000000E+00 -0.14267964502E+04  0.23050001207E+04  0.18103252322E+04 0.  0.
        1    1    3    3  502    0 -0.24579344896E+03 -0.10572193638E+03  0.38759872473E+03  0.47098229141E+03  0.50400001928E-02 0. -1.
       -1    1    3    3    0  502  0.24579344896E+03  0.10572193638E+03 -0.18143951749E+04  0.18340178293E+04  0.50400001928E-02 0.  1.
</event>
<event>
 5   0  0.1837313E-04  0.1637083E+04  0.7818609E-02  0.8798085E-01
       -1   -1    0    0    0  501  0.00000000000E+00  0.00000000000E+00  0.64390963706E+03  0.64390963708E+03  0.50400001928E-02 0.  1.
        1   -1    0    0  501    0  0.00000000000E+00  0.00000000000E+00 -0.10405348414E+04  0.10405348414E+04  0.50400001928E-02 0. -1.
    10030    2    1    2    0    0  0.00000000000E+00  0.00000000000E+00 -0.39662520437E+03  0.16844444785E+04  0.16370832748E+04 0.  0.
        1    1    3    3  502    0  0.24417950690E+03 -0.74321574766E+03 -0.44614841366E+03  0.90057852861E+03  0.50400001928E-02 0.  1.
       -1    1    3    3    0  502 -0.24417950690E+03  0.74321574766E+03  0.49523209291E+02  0.78386594992E+03  0.50400001928E-02 0. -1.
</event>
<event>
 5   0  0.1330125E-04  0.1740978E+04  0.7818609E-02  0.8738332E-01
       -3   -1    0    0    0  501  0.00000000000E+00  0.00000000000E+00  0.42185014329E+03  0.42185015538E+03  0.10100000352E+00 0. -1.
        3   -1    0    0  501    0  0.00000000000E+00  0.00000000000E+00 -0.17962562509E+04  0.17962562537E+04  0.10100000352E+00 0.  1.
    10030    2    1    2    0    0  0.00000000000E+00  0.00000000000E+00 -0.13744061076E+04  0.22181064091E+04  0.17409778555E+04 0.  0.
        5    1    3    3  502    0  0.53477624871E+03 -0.19795880413E+03  0.15073145899E+03  0.58984352759E+03  0.46999998093E+01 0. -1.
       -5    1    3    3    0  502 -0.53477624871E+03  0.19795880413E+03 -0.15251375666E+04  0.16282628815E+04  0.46999998093E+01 0.  1.
</event>
<event>
 5   0  0.3582186E-04  0.1893875E+04  0.7818609E-02  0.8657911E-01
        2   -1    0    0  501    0  0.00000000000E+00  0.00000000000E+00  0.15283673170E+04  0.15283673170E+04  0.25500000920E-02 0.  1.
       -2   -1    0    0    0  501  0.00000000000E+00  0.00000000000E+00 -0.58669815590E+03  0.58669815591E+03  0.25500000920E-02 0. -1.
    10030    2    1    2    0    0  0.00000000000E+00  0.00000000000E+00  0.94166916113E+03  0.21150654729E+04  0.18938746384E+04 0.  0.
        4    1    3    3  502    0 -0.27570633312E+03  0.90586081592E+03  0.48148070365E+03  0.10622726019E+04  0.12699999809E+01 0.  1.
       -4    1    3    3    0  502  0.27570633312E+03 -0.90586081592E+03  0.46018845747E+03  0.10527928710E+04  0.12699999809E+01 0. -1.
</event>
<event>
 5   0  0.1837313E-04  0.1788714E+04  0.7818609E-02  0.8712324E-01
       -1   -1    0    0    0  501  0.00000000000E+00  0.00000000000E+00  0.64258263369E+03  0.64258263371E+03  0.50400001928E-02 0. -1.
        1   -1    0    0  501    0  0.00000000000E+00  0.00000000000E+00 -0.12447811649E+04  0.12447811649E+04  0.50400001928E-02 0.  1.
    10030    2    1    2    0    0  0.00000000000E+00  0.00000000000E+00 -0.60219853118E+03  0.18873637986E+04  0.17887143532E+04 0.  0.
        1    1    3    3  502    0 -0.68129793677E+03 -0.52960349880E+03 -0.54906652638E+03  0.10228004669E+04  0.50400001928E-02 0.  1.
       -1    1    3    3    0  502  0.68129793677E+03  0.52960349880E+03 -0.53132004802E+02  0.86456333172E+03  0.50400001928E-02 0. -1.
</event>
<event>
 5   0  0.3582186E-04  0.1799883E+04  0.7818609E-02  0.8706362E-01
        2   -1    0    0  501    0  0.00000000000E+00  0.00000000000E+00  0.11965237012E+04  0.11965237012E+04  0.25500000920E-02 0. -1.
       -2   -1    0    0    0  501  0.00000000000E+00  0.00000000000E+00 -0.67687272130E+03  0.67687272131E+03  0.25500000920E-02 0.  1.
    10030    2    1    2    0    0  0.00000000000E+00  0.00000000000E+00  0.51965097993E+03  0.18733964225E+04  0.17998825003E+04 0.  0.
        4    1    3    3  502    0  0.72168648920E+02 -0.86879972610E+03  0.27385338091E+02  0.87222293458E+03  0.12699999809E+01 0. -1.
       -4    1    3    3    0  502 -0.72168648920E+02  0.86879972610E+03  0.49226564184E+03  0.10011734880E+04  0.12699999809E+01 0.  1.
</event>
<event>
 5   0  0.3531266E-04  0.1809435E+04  0.7818609E-02  0.8701298E-01
        2   -1    0    0  501    0  0.00000000000E+00  0.00000000000E+00  0.12478559337E+04  0.12478559337E+04  0.25500000920E-02 0. -1.
       -2   -1    0    0    0  501  0.00000000000E+00  0.00000000000E+00 -0.65593638566E+03  0.65593638566E+03  0.25500000920E-02 0.  1.
    10030    2    1    2    0    0  0.00000000000E+00  0.00000000000E+00  0.59191954803E+03  0.19037923194E+04  0.18094353937E+04 0.  0.
        3    1    3    3  502    0 -0.68054000124E+03  0.58813706025E+02 -0.32820417838E+03  0.75783358214E+03  0.10100000352E+00 0.  1.
       -3    1    3    3    0  502  0.68054000124E+03 -0.58813706025E+02  0.92012372641E+03  0.11459587372E+04  0.10100000352E+00 0. -1.
</event>
<event>
 5   0  0.3568870E-04  0.1791605E+04  0.7818609E-02  0.8710776E-01
       -2   -1    0    0    0  501  0.00000000000E+00  0.00000000000E+00  0.64412757787E+03  0.64412757787E+03  0.25500000920E-02 0.  1.
        2   -1    0    0  501    0  0.00000000000E+00  0.00000000000E+00 -0.12458127311E+04  0.12458127311E+04  0.25500000920E-02 0. -1.
    10030    2    1    2    0    0  0.00000000000E+00  0.00000000000E+00 -0.60168515328E+03  0.18899403090E+04  0.17916052434E+04 0.  0.
        1    1    3    3  502    0  0.61446373873E+03  0.21925481453E+03  0.34670998762E+03  0.73881403306E+03  0.50400001928E-02 0.  1.
       -1    1    3    3    0  502 -0.61446373873E+03 -0.21925481453E+03 -0.94839514090E+03  0.11511262760E+04  0.50400001928E-02 0. -1.
</event>
<event>
 5   0  0.3582186E-04  0.1801824E+04  0.7818609E-02  0.8705330E-01
       -2   -1    0    0    0  501  0.00000000000E+00  0.00000000000E+00  0.83689742937E+03  0.83689742937E+03  0.25500000920E-02 0. -1.
        2   -1    0    0  501    0  0.00000000000E+00  0.00000000000E+00 -0.96982279108E+03  0.96982279108E+03  0.25500000920E-02 0.  1.
    10030    2    1    2    0    0  0.00000000000E+00  0.00000000000E+00 -0.13292536171E+03  0.18067202205E+04  0.18018237437E+04 0.  0.
        4    1    3    3  502    0 -0.79324790344E+03  0.62491342108E+02 -0.49009532416E+03  0.93452792565E+03  0.12699999809E+01 0.  1.
       -4    1    3    3    0  502  0.79324790344E+03 -0.62491342108E+02  0.35716996245E+03  0.87219229481E+03  0.12699999809E+01 0. -1.
</event>
<event>
 5   0  0.1837313E-04  0.1787942E+04  0.7818609E-02  0.8712738E-01
       -1   -1    0    0    0  501  0.00000000000E+00  0.00000000000E+00  0.11810486303E+04  0.11810486304E+04  0.50400001928E-02 0. -1.
        1   -1    0    0  501    0  0.00000000000E+00  0.00000000000E+00 -0.67667307096E+03  0.67667307098E+03  0.50400001928E-02 0.  1.
    10030    2    1    2    0    0  0.00000000000E+00  0.00000000000E+00  0.50437555938E+03  0.18577217013E+04  0.17879416139E+04 0.  0.
        1    1    3    3  502    0 -0.38915571716E+03  0.78471230318E+03  0.43796250838E+03  0.97929910126E+03  0.50400001928E-02 0.  1.
       -1    1    3    3    0  502  0.38915571716E+03 -0.78471230318E+03  0.66413051002E+02  0.87842260008E+03  0.50400001928E-02 0. -1.
</event>
<event>
 5   0  0.3531266E-04  0.1769233E+04  0.7818609E-02  0.8722834E-01
       -2   -1    0    0    0  501  0.00000000000E+00  0.00000000000E+00  0.39088823305E+03  0.39088823306E+03  0.25500000920E-02 0. -1.
        2   -1    0    0  501    0  0.00000000000E+00  0.00000000000E+00 -0.20019687324E+04  0.20019687324E+04  0.25500000920E-02 0.  1.
    10030    2    1    2    0    0  0.00000000000E+00  0.00000000000E+00 -0.16110804993E+04  0.23928569654E+04  0.17692326251E+04 0.  0.
        3    1    3    3  502    0 -0.42037535025E+03  0.26232883060E+03 -0.17966566634E+04  0.18637346986E+04  0.10100000352E+00 0.  1.
       -3    1    3    3    0  502  0.42037535025E+03 -0.26232883060E+03  0.18557616402E+03  0.52912226688E+03  0.10100000352E+00 0. -1.
</event>
<event>
 5   0  0.1837313E-04  0.1779567E+04  0.7818609E-02  0.8717241E-01
        1   -1    0    0  501    0  0.00000000000E+00  0.00000000000E+00  0.46213287207E+03  0.46213287210E+03  0.50400001928E-02 0. -1.
       -1   -1    0    0    0  501  0.00000000000E+00  0.00000000000E+00 -0.17131761822E+04  0.17131761822E+04  0.50400001928E-02 0.  1.
    10030    2    1    2    0    0  0.00000000000E+00  0.00000000000E+00 -0.12510433101E+04  0.21753090543E+04  0.17795673963E+04 0.  0.
        1    1    3    3  502    0  0.51064654107E+03 -0.28943108772E+03  0.19190733618E+03  0.61754244401E+03  0.50400001928E-02 0. -1.
       -1    1    3    3    0  502 -0.51064654107E+03  0.28943108772E+03 -0.14429506463E+04  0.15577666103E+04  0.50400001928E-02 0.  1.
</event>
<event>
 5   0  0.3582186E-04  0.1797635E+04  0.7818609E-02  0.8707558E-01
        2   -1    0    0  501    0  0.00000000000E+00  0.00000000000E+00  0.93034300365E+03  0.93034300365E+03  0.25500000920E-02 0.  1.
       -2   -1    0    0    0  501  0.00000000000E+00  0.00000000000E+00 -0.86836069566E+03  0.86836069566E+03  0.25500000920E-02 0. -1.
    10030    2    1    2    0    0  0.00000000000E+00  0.00000000000E+00  0.61982307991E+02  0.17987036993E+04  0.17976354445E+04 0.  0.
        4    1    3    3  502    0 -0.82087949743E+03 -0.34984414825E+03 -0.76950696692E+02  0.89563223478E+03  0.12699999809E+01 0.  1.
       -4    1    3    3    0  502  0.82087949743E+03  0.34984414825E+03  0.13893300468E+03  0.90307146453E+03  0.12699999809E+01 0. -1.
</event>
<event>
 5   0  0.3628581E-04  0.1799541E+04  0.7818609E-02  0.8706544E-01
       -2   -1    0    0    0  501  0.00000000000E+00  0.00000000000E+00  0.65072816640E+03  0.65072816641E+03  0.25500000920E-02 0.  1.
        2   -1    0    0  501    0  0.00000000000E+00  0.00000000000E+00 -0.12441243131E+04  0.12441243131E+04  0.25500000920E-02 0. -1.
    10030    2    1    2    0    0  0.00000000000E+00  0.00000000000E+00 -0.59339614665E+03  0.18948524795E+04  0.17995407559E+04 0.  0.
        2    1    3    3  502    0  0.47272302787E+03  0.16429312735E+03 -0.10840504100E+04  0.11939952195E+04  0.25500000920E-02 0. -1.
       -2    1    3    3    0  502 -0.47272302787E+03 -0.16429312735E+03  0.49065426331E+03  0.70085725999E+03  0.25500000920E-02 0.  1.
</event>
<event>
 5   0  0.3568870E-04  0.1774977E+04  0.7818609E-02  0.8719721E-01
       -2   -1    0    0    0  501  0.00000000000E+00  0.00000000000E+00  0.63063751145E+03  0.63063751146E+03  0.25500000920E-02 0. -1.
        2   -1    0    0  501    0  0.00000000000E+00  0.00000000000E+00 -0.12489520988E+04  0.12489520988E+04  0.25500000920E-02 0.  1.
    10030    2    1    2    0    0  0.00000000000E+00  0.00000000000E+00 -0.61831458739E+03  0.18795896103E+04  0.17749772320E+04 0.  0.
        1    1    3    3  502    0  0.71497733391E+03 -0.10373550708E+03 -0.85498005479E+03  0.11193500514E+04  0.50400001928E-02 0.  1.
       -1    1    3    3    0  502 -0.71497733391E+03  0.10373550708E+03  0.23666546741E+03  0.76023955891E+03  0.50400001928E-02 0. -1.
</event>
<event>
 5   0  0.3531266E-04  0.1788348E+04  0.7818609E-02  0.8712521E-01
        2   -1    0    0  501    0  0.00000000000E+00  0.00000000000E+00  0.10935877656E+04  0.10935877656E+04  0.25500000920E-02 0. -1.
       -2   -1    0    0    0  501  0.00000000000E+00  0.00000000000E+00 -0.73112272858E+03  0.73112272859E+03  0.25500000920E-02 0.  1.
    10030    2    1    2    0    0  0.00000000000E+00  0.00000000000E+00  0.36246503704E+03  0.18247104942E+04  0.17883476968E+04 0.  0.
        3    1    3    3  502    0  0.45776672048E+03  0.48352938375E+03  0.79018923208E+03  0.10333199253E+04  0.10100000352E+00 0. -1.
       -3    1    3    3    0  502 -0.45776672048E+03 -0.48352938375E+03 -0.42772419504E+03  0.79139056891E+03  0.10100000352E+00 0.  1.
</event>
<event>
 5   0  0.3628581E-04  0.1821996E+04  0.7818609E-02  0.8694689E-01
       -2   -1    0    0    0  501  0.00000000000E+00  0.00000000000E+00  0.13559197333E+04  0.13559197333E+04  0.25500000920E-02 0. -1.
        2   -1    0    0  501    0  0.00000000000E+00  0.00000000000E+00 -0.61206984162E+03  0.61206984163E+03  0.25500000920E-02 0.  1.
    10030    2    1    2    0    0  0.00000000000E+00  0.00000000000E+00  0.74384989166E+03  0.19679895749E+04  0.18219962419E+04 0.  0.
        2    1    3    3  502    0  0.57926491685E+03  0.67843648115E+03  0.17248496861E+03  0.90861156016E+03  0.25500000920E-02 0. -1.
       -2    1    3    3    0  502 -0.57926491685E+03 -0.67843648115E+03  0.57136492305E+03  0.10593780148E+04  0.25500000920E-02 0.  1.
</event>
<event>
 5   0  0.1835421E-04  0.1414415E+04  0.7818609E-02  0.8943450E-01
        1   -1    0    0  501    0  0.00000000000E+00  0.00000000000E+00  0.85481364239E+03  0.85481364240E+03  0.50400001928E-02 0. -1.
       -1   -1    0    0    0  501  0.00000000000E+00  0.00000000000E+00 -0.58508905521E+03  0.58508905523E+03  0.50400001928E-02 0.  1.
    10030    2    1    2    0    0  0.00000000000E+00  0.00000000000E+00  0.26972458718E+03  0.14399026976E+04  0.14144145169E+04 0.  0.
        2    1    3    3  502    0  0.21370616676E+03 -0.29476115920E+03  0.75207788769E+03  0.83556903715E+03  0.25500000920E-02 0. -1.
       -2    1    3    3    0  502 -0.21370616676E+03  0.29476115920E+03 -0.48235330051E+03  0.60433366049E+03  0.25500000920E-02 0.  1.
</event>
<event>
 5   0  0.1835421E-04  0.1810452E+04  0.7818609E-02  0.8700761E-01
        1   -1    0    0  501    0  0.00000000000E+00  0.00000000000E+00  0.16044296327E+04  0.16044296327E+04  0.50400001928E-02 0.  1.
       -1   -1    0    0    0  501  0.00000000000E+00  0.00000000000E+00 -0.51073212285E+03  0.51073212287E+03  0.50400001928E-02 0. -1.
    10030    2    1    2    0    0  0.00000000000E+00  0.00000000000E+00  0.10936975098E+04  0.21151617556E+04  0.18104516037E+04 0.  0.
        2    1    3    3  502    0  0.11517422077E+03  0.73590161165E+03  0.11478369219E+04  0.13683369039E+04  0.25500000920E-02 0.  1.
       -2    1    3    3    0  502 -0.11517422077E+03 -0.73590161165E+03 -0.54139412080E+02  0.74682485170E+03  0.25500000920E-02 0. -1.
</event>
<event>
 5   0  0.1825253E-04  0.1817900E+04  0.7818609E-02  0.8696838E-01
       -1   -1    0    0    0  501  0.00000000000E+00  0.00000000000E+00  0.72098690356E+03  0.72098690357E+03  0.50400001928E-02 0. -1.
        1   -1    0    0  501    0  0.00000000000E+00  0.00000000000E+00 -0.11459160513E+04  0.11459160513E+04  0.50400001928E-02 0.  1.
    10030    2    1    2    0    0  0.00000000000E+00  0.00000000000E+00 -0.42492914778E+03  0.18669029549E+04  0.18179003995E+04 0.  0.
        4    1    3    3  502    0 -0.69661878663E+03 -0.47751881645E+03 -0.55750773914E+03  0.10119873744E+04  0.12699999809E+01 0. -1.
       -4    1    3    3    0  502  0.69661878663E+03  0.47751881645E+03  0.13257859136E+03  0.85491558047E+03  0.12699999809E+01 0.  1.
</event>
<event>
 5   0  0.1883959E-04  0.1825206E+04  0.7818609E-02  0.8693009E-01
       -1   -1    0    0    0  501  0.00000000000E+00  0.00000000000E+00  0.55866979748E+03  0.55866979750E+03  0.50400001928E-02 0. -1.
        1   -1    0    0  501    0  0.00000000000E+00  0.00000000000E+00 -0.14907624316E+04  0.14907624316E+04  0.50400001928E-02 0.  1.
    10030    2    1    2    0    0  0.00000000000E+00  0.00000000000E+00 -0.93209263411E+03  0.20494322291E+04  0.18252056824E+04 0.  0.
        5    1    3    3  502    0 -0.38943346314E+02  0.52091516586E+03  0.37418217826E+03  0.64257574400E+03  0.46999998093E+01 0. -1.
       -5    1    3    3    0  502  0.38943346314E+02 -0.52091516586E+03 -0.13062748124E+04  0.14068564851E+04  0.46999998093E+01 0.  1.
</event>
<event>
 5   0  0.1883959E-04  0.1785341E+04  0.7818609E-02  0.8714134E-01
        1   -1    0    0  501    0  0.00000000000E+00  0.00000000000E+00  0.52930911907E+03  0.52930911909E+03  0.50400001928E-02 0.  1.
       -1   -1    0    0    0  501  0.00000000000E+00  0.00000000000E+00 -0.15054732251E+04  0.15054732251E+04  0.50400001928E-02 0. -1.
    10030    2    1    2    0    0  0.00000000000E+00  0.00000000000E+00 -0.97616410600E+03  0.20347823442E+04  0.17853410952E+04 0.  0.
        5    1    3    3  502    0  0.62324617508E+03 -0.59006462843E+03 -0.20838314308E+03  0.88320874361E+03  0.46999998093E+01 0.  1.
       -5    1    3    3    0  502 -0.62324617508E+03  0.59006462843E+03 -0.76778096292E+03  0.11515736006E+04  0.46999998093E+01 0. -1.
</event>
<event>
 5   0  0.3531266E-04  0.1927099E+04  0.7818609E-02  0.8641484E-01
        2   -1    0    0  501    0  0.00000000000E+00  0.00000000000E+00  0.17354969254E+04  0.17354969254E+04  0.25500000920E-02 0. -1.
       -2   -1    0    0    0  501  0.00000000000E+00  0.00000000000E+00 -0.53496384137E+03  0.53496384137E+03  0.25500000920E-02 0.  1.
    10030    2    1    2    0    0  0.00000000000E+00  0.00000000000E+00  0.12005330841E+04  0.22704607668E+04  0.19270994805E+04 0.  0.
        3    1    3    3  502    0 -0.38847951270E+03  0.54381644520E+03 -0.21750537610E+03  0.70282377357E+03  0.10100000352E+00 0.  1.
       -3    1    3    3    0  502  0.38847951270E+03 -0.54381644520E+03  0.14180384602E+04  0.15676369932E+04  0.10100000352E+00 0. -1.
</event>
<event>
 5   0  0.3531266E-04  0.1800595E+04  0.7818609E-02  0.8705983E-01
        2   -1    0    0  501    0  0.00000000000E+00  0.00000000000E+00  0.17607732978E+04  0.17607732978E+04  0.25500000920E-02 0.  1.
       -2   -1    0    0    0  501  0.00000000000E+00  0.00000000000E+00 -0.46032939598E+03  0.46032939599E+03  0.25500000920E-02 0. -1.
    10030    2    1    2    0    0  0.00000000000E+00  0.00000000000E+00  0.13004439018E+04  0.22211026938E+04  0.18005951335E+04 0.  0.
        3    1    3    3  502    0 -0.44017986417E+03 -0.15965058233E+03  0.15987550605E+04  0.16659124752E+04  0.10100000352E+00 0.  1.
       -3    1    3    3    0  502  0.44017986417E+03  0.15965058233E+03 -0.29831115868E+03  0.55519021862E+03  0.10100000352E+00 0. -1.
</event>
<event>
 5   0  0.1883959E-04  0.1780197E+04  0.7818609E-02  0.8716902E-01
        1   -1    0    0  501    0  0.00000000000E+00  0.00000000000E+00  0.14163223275E+04  0.14163223275E+04  0.50400001928E-02 0.  1.
       -1   -1    0    0    0  501  0.00000000000E+00  0.00000000000E+00 -0.55938923763E+03  0.55938923765E+03  0.50400001928E-02 0. -1.
    10030    2    1    2    0    0  0.00000000000E+00  0.00000000000E+00  0.85693308988E+03  0.19757115652E+04  0.17801971431E+04 0.  0.
        5    1    3    3  502    0  0.64988900083E+03  0.58686067553E+03  0.60566470005E+03  0.10647126301E+04  0.46999998093E+01 0.  1.
       -5    1    3    3    0  502 -0.64988900083E+03 -0.58686067553E+03  0.25126838982E+03  0.91099893502E+03  0.46999998093E+01 0. -1.
</event>
<event>
 5   0  0.3568870E-04  0.1473293E+04  0.7818609E-02  0.8902409E-01
       -2   -1    0    0    0  501  0.00000000000E+00  0.00000000000E+00  0.75135317828E+03  0.75135317829E+03  0.25500000920E-02 0.  1.
        2   -1    0    0  501    0  0.00000000000E+00  0.00000000000E+00 -0.72222794830E+03  0.72222794831E+03  0.25500000920E-02 0. -1.
    10030    2    1    2    0    0  0.00000000000E+00  0.00000000000E+00  0.29125229978E+02  0.14735811266E+04  0.14732932694E+04 0.  0.
        1    1    3    3  502    0 -0.36318871523E+02 -0.18753377071E+03 -0.69702581863E+03  0.72272606667E+03  0.50400001928E-02 0. -1.
       -1    1    3    3    0  502  0.36318871523E+02  0.18753377071E+03  0.72615104861E+03  0.75085505992E+03  0.50400001928E-02 0.  1.
</event>
<event>
 5   0  0.1835421E-04  0.1866381E+04  0.7818609E-02  0.8671774E-01
        1   -1    0    0  501    0  0.00000000000E+00  0.00000000000E+00  0.26972045428E+04  0.26972045428E+04  0.50400001928E-02 0. -1.
       -1   -1    0    0    0  501  0.00000000000E+00  0.00000000000E+00 -0.32286944862E+03  0.32286944865E+03  0.50400001928E-02 0.  1.
    10030    2    1    2    0    0  0.00000000000E+00  0.00000000000E+00  0.23743350942E+04  0.30200739914E+04  0.18663814654E+04 0.  0.
        2    1    3    3  502    0 -0.94286593510E+02 -0.89552102917E+03  0.15835205790E+04  0.18216435709E+04  0.25500000920E-02 0. -1.
       -2    1    3    3    0  502  0.94286593510E+02  0.89552102917E+03  0.79081451518E+03  0.11984304205E+04  0.25500000920E-02 0.  1.
</event>
<event>
 5   0  0.3531266E-04  0.1822994E+04  0.7818609E-02  0.8694166E-01
        2   -1    0    0  501    0  0.00000000000E+00  0.00000000000E+00  0.90633136716E+03  0.90633136717E+03  0.25500000920E-02 0.  1.
       -2   -1    0    0    0  501  0.00000000000E+00  0.00000000000E+00 -0.91669218422E+03  0.91669218423E+03  0.25500000920E-02 0. -1.
    10030    2    1    2    0    0  0.00000000000E+00  0.00000000000E+00 -0.10360817058E+02  0.18230235514E+04  0.18229941093E+04 0.  0.
        3    1    3    3  502    0 -0.33332097872E+03 -0.68876921117E+03  0.49012645941E+03  0.90869679075E+03  0.10100000352E+00 0.  1.
       -3    1    3    3    0  502  0.33332097872E+03  0.68876921117E+03 -0.50048727647E+03  0.91432676064E+03  0.10100000352E+00 0. -1.
</event>
<event>
 5   0  0.3582186E-04  0.1766832E+04  0.7818609E-02  0.8724139E-01
        2   -1    0    0  501    0  0.00000000000E+00  0.00000000000E+00  0.90872659371E+03  0.90872659371E+03  0.25500000920E-02 0. -1.
       -2   -1    0    0    0  501  0.00000000000E+00  0.00000000000E+00 -0.85881030255E+03  0.85881030256E+03  0.25500000920E-02 0.  1.
    10030    2    1    2    0    0  0.00000000000E+00  0.00000000000E+00  0.49916291156E+02  0.17675368963E+04  0.17668319228E+04 0.  0.
        4    1    3    3  502    0  0.83620283531E+03  0.20680174934E+03 -0.17113027396E+03  0.87823079477E+03  0.12699999809E+01 0. -1.
       -4    1    3    3    0  502 -0.83620283531E+03 -0.20680174934E+03  0.22104656512E+03  0.88930610150E+03  0.12699999809E+01 0.  1.
</event>
<event>
 5   0  0.3575091E-04  0.1795127E+04  0.7818609E-02  0.8708895E-01
       -2   -1    0    0    0  501  0.00000000000E+00  0.00000000000E+00  0.52865979074E+03  0.52865979074E+03  0.25500000920E-02 0.  1.
        2   -1    0    0  501    0  0.00000000000E+00  0.00000000000E+00 -0.15238910294E+04  0.15238910294E+04  0.25500000920E-02 0. -1.
    10030    2    1    2    0    0  0.00000000000E+00  0.00000000000E+00 -0.99523123862E+03  0.20525508201E+04  0.17951266392E+04 0.  0.
        5    1    3    3  502    0 -0.73275918598E+03 -0.42548076977E+03 -0.83608552491E+03  0.11903911143E+04  0.46999998093E+01 0. -1.
       -5    1    3    3    0  502  0.73275918598E+03  0.42548076977E+03 -0.15914571370E+03  0.86215970578E+03  0.46999998093E+01 0.  1.
</event>
<event>
 5   0  0.1837313E-04  0.1754752E+04  0.7818609E-02  0.8730739E-01
       -1   -1    0    0    0  501  0.00000000000E+00  0.00000000000E+00  0.10781020295E+04  0.10781020295E+04  0.50400001928E-02 0. -1.
        1   -1    0    0  501    0  0.00000000000E+00  0.00000000000E+00 -0.71402217643E+03  0.71402217645E+03  0.50400001928E-02 0.  1.
    10030    2    1    2    0    0  0.00000000000E+00  0.00000000000E+00  0.36407985307E+03  0.17921242060E+04  0.17547521278E+04 0.  0.
        1    1    3    3  502    0 -0.35235642333E+03 -0.46194358679E+03  0.85349309150E+03  0.10324714929E+04  0.50400001928E-02 0. -1.
       -1    1    3    3    0  502  0.35235642333E+03  0.46194358679E+03 -0.48941323843E+03  0.75965271303E+03  0.50400001928E-02 0.  1.
</event>
<event>
 5   0  0.1818778E-04  0.1836960E+04  0.7818609E-02  0.8686888E-01
       -1   -1    0    0    0  501  0.00000000000E+00  0.00000000000E+00  0.77777175873E+03  0.77777175874E+03  0.50400001928E-02 0. -1.
        1   -1    0    0  501    0  0.00000000000E+00  0.00000000000E+00 -0.10846440753E+04  0.10846440753E+04  0.50400001928E-02 0.  1.
    10030    2    1    2    0    0  0.00000000000E+00  0.00000000000E+00 -0.30687231657E+03  0.18624158340E+04  0.18369600214E+04 0.  0.
        3    1    3    3  502    0 -0.24816608358E+03 -0.41175895875E+03  0.64001585046E+03  0.80046995209E+03  0.10100000352E+00 0. -1.
       -3    1    3    3    0  502  0.24816608358E+03  0.41175895875E+03 -0.94688816703E+03  0.10619458820E+04  0.10100000352E+00 0.  1.
</event>
<event>
 5   0  0.1825253E-04  0.1783721E+04  0.7818609E-02  0.8715005E-01
       -1   -1    0    0    0  501  0.00000000000E+00  0.00000000000E+00  0.12664729937E+04  0.12664729937E+04  0.50400001928E-02 0.  1.
        1   -1    0    0  501    0  0.00000000000E+00  0.00000000000E+00 -0.62805517568E+03  0.62805517570E+03  0.50400001928E-02 0. -1.
    10030    2    1    2    0    0  0.00000000000E+00  0.00000000000E+00  0.63841781800E+03  0.18945281694E+04  0.17837207389E+04 0.  0.
        4    1    3    3  502    0  0.41673059227E+03 -0.31119642154E+03  0.10887199445E+04  0.12065737979E+04  0.12699999809E+01 0.  1.
       -4    1    3    3    0  502 -0.41673059227E+03  0.31119642154E+03 -0.45030212646E+03  0.68795437153E+03  0.12699999809E+01 0. -1.
</event>
<event>
 5   0  0.1883959E-04  0.1441576E+04  0.7818609E-02  0.8924262E-01
       -1   -1    0    0    0  501  0.00000000000E+00  0.00000000000E+00  0.63280612883E+03  0.63280612885E+03  0.50400001928E-02 0. -1.
        1   -1    0    0  501    0  0.00000000000E+00  0.00000000000E+00 -0.82100248620E+03  0.82100248622E+03  0.50400001928E-02 0.  1.
    10030    2    1    2    0    0  0.00000000000E+00  0.00000000000E+00 -0.18819635737E+03  0.14538086151E+04  0.14415760890E+04 0.  0.
        5    1    3    3  502    0  0.38357310182E+03 -0.23067176108E+03  0.47565198884E+03  0.65314982223E+03  0.46999998093E+01 0. -1.
       -5    1    3    3    0  502 -0.38357310182E+03  0.23067176108E+03 -0.66384834621E+03  0.80065879284E+03  0.46999998093E+01 0.  1.
</event>
<event>
 5   0  0.3531266E-04  0.1844961E+04  0.7818609E-02  0.8682748E-01
        2   -1    0    0  501    0  0.00000000000E+00  0.00000000000E+00  0.17219305712E+04  0.17219305712E+04  0.25500000920E-02 0.  1.
       -2   -1    0    0    0  501  0.00000000000E+00  0.00000000000E+00 -0.49419553318E+03  0.49419553318E+03  0.25500000920E-02 0. -1.
    10030    2    1    2    0    0  0.00000000000E+00  0.00000000000E+00  0.12277350380E+04  0.22161261044E+04  0.18449611343E+04 0.  0.
        3    1    3    3  502    0  0.69908572760E+03 -0.11080697747E+03 -0.96729680206E+02  0.71439182668E+03  0.10100000352E+00 0. -1.
       -3    1    3    3    0  502 -0.69908572760E+03  0.11080697747E+03  0.13244647182E+04  0.15017342777E+04  0.10100000352E+00 0.  1.
</event>
<event>
 5   0  0.1835421E-04  0.1797337E+04  0.7818609E-02  0.8707717E-01
        1   -1    0    0  501    0  0.00000000000E+00  0.00000000000E+00  0.12714413573E+04  0.12714413573E+04  0.50400001928E-02 0.  1.
       -1   -1    0    0    0  501  0.00000000000E+00  0.00000000000E+00 -0.63518828330E+03  0.63518828332E+03  0.50400001928E-02 0. -1.
    10030    2    1    2    0    0  0.00000000000E+00  0.00000000000E+00  0.63625307398E+03  0.19066296406E+04  0.17973365328E+04 0.  0.
        2    1    3    3  502    0  0.67573918052E+02  0.25899050324E+02 -0.63209232226E+03  0.63622142300E+03  0.25500000920E-02 0. -1.
       -2    1    3    3    0  502 -0.67573918052E+02 -0.25899050324E+02  0.12683453962E+04  0.12704082176E+04  0.25500000920E-02 0.  1.
</event>
<event>
 5   0  0.1825253E-04  0.1723217E+04  0.7818609E-02  0.8748233E-01
        1   -1    0    0  501    0  0.00000000000E+00  0.00000000000E+00  0.99704792651E+03  0.99704792652E+03  0.50400001928E-02 0. -1.
       -1   -1    0    0    0  501  0.00000000000E+00  0.00000000000E+00 -0.74456681461E+03  0.74456681463E+03  0.50400001928E-02 0.  1.
    10030    2    1    2    0    0  0.00000000000E+00  0.00000000000E+00  0.25248111189E+03  0.17416147411E+04  0.17232165258E+04 0.  0.
        4    1    3    3  502    0  0.81788846112E+03 -0.21206955060E+03 -0.44238030862E+02  0.84609316591E+03  0.12699999809E+01 0.  1.
       -4    1    3    3    0  502 -0.81788846112E+03  0.21206955060E+03  0.29671914276E+03  0.89552157523E+03  0.12699999809E+01 0. -1.
</event>
<event>
 5   0  0.1818778E-04  0.1812601E+04  0.7818609E-02  0.8699627E-01
        1   -1    0    0  501    0  0.00000000000E+00  0.00000000000E+00  0.15411293528E+04  0.15411293528E+04  0.50400001928E-02 0.  1.
       -1   -1    0    0    0  501  0.00000000000E+00  0.00000000000E+00 -0.53297334551E+03  0.53297334553E+03  0.50400001928E-02 0. -1.
    10030    2    1    2    0    0  0.00000000000E+00  0.00000000000E+00  0.10081560073E+04  0.20741026984E+04  0.18126012988E+04 0.  0.
        3    1    3    3  502    0 -0.56648574641E+03 -0.45308047254E+03  0.11257780222E+04  0.13392401506E+04  0.10100000352E+00 0.  1.
       -3    1    3    3    0  502  0.56648574641E+03  0.45308047254E+03 -0.11762201492E+03  0.73486254775E+03  0.10100000352E+00 0. -1.
</event>
<event>
 5   0  0.1825253E-04  0.1802169E+04  0.7818609E-02  0.8705147E-01
       -1   -1    0    0    0  501  0.00000000000E+00  0.00000000000E+00  0.34412514196E+03  0.34412514200E+03  0.50400001928E-02 0. -1.
        1   -1    0    0  501    0  0.00000000000E+00  0.00000000000E+00 -0.23594701736E+04  0.23594701736E+04  0.50400001928E-02 0.  1.
    10030    2    1    2    0    0  0.00000000000E+00  0.00000000000E+00 -0.20153450316E+04  0.27035953156E+04  0.18021687030E+04 0.  0.
        4    1    3    3  502    0 -0.61719795026E+03  0.48377724528E+03 -0.16734892895E+04  0.18481184344E+04  0.12699999809E+01 0.  1.
       -4    1    3    3    0  502  0.61719795026E+03 -0.48377724528E+03 -0.34185574218E+03  0.85547688116E+03  0.12699999809E+01 0. -1.
</event>
<event>
 5   0  0.3628581E-04  0.1812023E+04  0.7818609E-02  0.8699932E-01
        2   -1    0    0  501    0  0.00000000000E+00  0.00000000000E+00  0.12742037637E+04  0.12742037637E+04  0.25500000920E-02 0.  1.
       -2   -1    0    0    0  501  0.00000000000E+00  0.00000000000E+00 -0.64421156981E+03  0.64421156981E+03  0.25500000920E-02 0. -1.
    10030    2    1    2    0    0  0.00000000000E+00  0.00000000000E+00  0.62999219384E+03  0.19184153335E+04  0.18120229655E+04 0.  0.
        2    1    3    3  502    0  0.84083796164E+03 -0.31055279964E+03  0.45467137449E+03  0.10050759065E+04  0.25500000920E-02 0.  1.
       -2    1    3    3    0  502 -0.84083796164E+03  0.31055279964E+03  0.17532081935E+03  0.91333942694E+03  0.25500000920E-02 0. -1.
</event>
<event>
 5   0  0.3575091E-04  0.1774734E+04  0.7818609E-02  0.8719852E-01
        2   -1    0    0  501    0  0.00000000000E+00  0.00000000000E+00  0.63850937878E+03  0.63850937879E+03  0.25500000920E-02 0.  1.
       -2   -1    0    0    0  501  0.00000000000E+00  0.00000000000E+00 -0.12332168860E+04  0.12332168861E+04  0.25500000920E-02 0. -1.
    10030    2    1    2    0    0  0.00000000000E+00  0.00000000000E+00 -0.59470750726E+03  0.18717262648E+04  0.17747344002E+04 0.  0.
        5    1    3    3  502    0  0.71747535461E+03  0.48673557906E+03 -0.49666907067E+03  0.99919200565E+03  0.46999998093E+01 0. -1.
       -5    1    3    3    0  502 -0.71747535461E+03 -0.48673557906E+03 -0.98038436593E+02  0.87253425919E+03  0.46999998093E+01 0.  1.
</event>
<event>
 5   0  0.3531266E-04  0.1800220E+04  0.7818609E-02  0.8706182E-01
        2   -1    0    0  501    0  0.00000000000E+00  0.00000000000E+00  0.42895800421E+03  0.42895800421E+03  0.25500000920E-02 0.  1.
       -2   -1    0    0    0  501  0.00000000000E+00  0.00000000000E+00 -0.18887585789E+04  0.18887585789E+04  0.25500000920E-02 0. -1.
    10030    2    1    2    0    0  0.00000000000E+00  0.00000000000E+00 -0.14598005747E+04  0.23177165831E+04  0.18002201093E+04 0.  0.
        3    1    3    3  502    0  0.91947973437E+02  0.43338049184E+03 -0.17386708163E+04  0.17942266574E+04  0.10100000352E+00 0. -1.
       -3    1    3    3    0  502 -0.91947973437E+02 -0.43338049184E+03  0.27887024156E+03  0.52348992574E+03  0.10100000352E+00 0.  1.
</event>
<event>
 5   0  0.3575091E-04  0.1832885E+04  0.7818609E-02  0.8689005E-01
       -2   -1    0    0    0  501  0.00000000000E+00  0.00000000000E+00  0.54159929632E+03  0.54159929633E+03  0.25500000920E-02 0. -1.
        2   -1    0    0  501    0  0.00000000000E+00  0.00000000000E+00 -0.15507155208E+04  0.15507155208E+04  0.25500000920E-02 0.  1.
    10030    2    1    2    0    0  0.00000000000E+00  0.00000000000E+00 -0.10091162244E+04  0.20923148171E+04  0.18328845407E+04 0.  0.
        5    1    3    3  502    0  0.45458621499E+03  0.75051834513E+03 -0.80640465671E+03  0.11917369565E+04  0.46999998093E+01 0. -1.
       -5    1    3    3    0  502 -0.45458621499E+03 -0.75051834513E+03 -0.20271156774E+03  0.90057786056E+03  0.46999998093E+01 0.  1.
</event>
<event>
 5   0  0.1825253E-04  0.1809402E+04  0.7818609E-02  0.8701315E-01
        1   -1    0    0  501    0  0.00000000000E+00  0.00000000000E+00  0.18894267053E+04  0.18894267054E+04  0.50400001928E-02 0. -1.
       -1   -1    0    0    0  501  0.00000000000E+00  0.00000000000E+00 -0.43319190296E+03  0.43319190299E+03  0.50400001928E-02 0.  1.
    10030    2    1    2    0    0  0.00000000000E+00  0.00000000000E+00  0.14562348024E+04  0.23226186083E+04  0.18094024981E+04 0.  0.
        4    1    3    3  502    0 -0.14786371717E+03  0.78763651325E+03  0.12670128861E+04  0.14991858531E+04  0.12699999809E+01 0. -1.
       -4    1    3    3    0  502  0.14786371717E+03 -0.78763651325E+03  0.18922191632E+03  0.82343275522E+03  0.12699999809E+01 0.  1.
</event>
<event>
 5   0  0.1818778E-04  0.1833560E+04  0.7818609E-02  0.8688654E-01
        1   -1    0    0  501    0  0.00000000000E+00  0.00000000000E+00  0.97725052966E+03  0.97725052968E+03  0.50400001928E-02 0. -1.
       -1   -1    0    0    0  501  0.00000000000E+00  0.00000000000E+00 -0.86005098903E+03  0.86005098905E+03  0.50400001928E-02 0.  1.
    10030    2    1    2    0    0  0.00000000000E+00  0.00000000000E+00  0.11719954063E+03  0.18373015187E+04  0.18335596904E+04 0.  0.
        3    1    3    3  502    0 -0.71822184453E+03 -0.43558721504E+03  0.42664544100E+03  0.94212800743E+03  0.10100000352E+00 0.  1.
       -3    1    3    3    0  502  0.71822184453E+03  0.43558721504E+03 -0.30944590037E+03  0.89517351129E+03  0.10100000352E+00 0. -1.
</event>
<event>
 5   0  0.1818778E-04  0.1815509E+04  0.7818609E-02  0.8698095E-01
       -1   -1    0    0    0  501  0.00000000000E+00  0.00000000000E+00  0.13279610208E+04  0.13279610208E+04  0.50400001928E-02 0. -1.
        1   -1    0    0  501    0  0.00000000000E+00  0.00000000000E+00 -0.62051397964E+03  0.62051397966E+03  0.50400001928E-02 0.  1.
    10030    2    1    2    0    0  0.00000000000E+00  0.00000000000E+00  0.70744704117E+03  0.19484750005E+04  0.18155091604E+04 0.  0.
        3    1    3    3  502    0  0.73253359980E+03  0.22236490282E+03 -0.16982209456E+03  0.78414997216E+03  0.10100000352E+00 0.  1.
       -3    1    3    3    0  502 -0.73253359980E+03 -0.22236490282E+03  0.87726913572E+03  0.11643250283E+04  0.10100000352E+00 0. -1.
</event>
<event>
 5   0  0.1883959E-04  0.1771090E+04  0.7818609E-02  0.8721827E-01
       -1   -1    0    0    0  501  0.00000000000E+00  0.00000000000E+00  0.71368477807E+03  0.71368477809E+03  0.50400001928E-02 0.  1.
        1   -1    0    0  501    0  0.00000000000E+00  0.00000000000E+00 -0.10987898404E+04  0.10987898404E+04  0.50400001928E-02 0. -1.
    10030    2    1    2    0    0  0.00000000000E+00  0.00000000000E+00 -0.38510506232E+03  0.18124746185E+04  0.17710895894E+04 0.  0.
        5    1    3    3  502    0  0.51367521943E+03  0.43856498300E+03  0.39351252390E+03  0.78171329261E+03  0.46999998093E+01 0.  1.
       -5    1    3    3    0  502 -0.51367521943E+03 -0.43856498300E+03 -0.77861758622E+03  0.10307613259E+04  0.46999998093E+01 0. -1.
</event>
<event>
 5   0  0.3628581E-04  0.1777117E+04  0.7818609E-02  0.8718564E-01
       -2   -1    0    0    0  501  0.00000000000E+00  0.00000000000E+00  0.10048547516E+04  0.10048547516E+04  0.25500000920E-02 0. -1.
        2   -1    0    0  501    0  0.00000000000E+00  0.00000000000E+00 -0.78572140461E+03  0.78572140461E+03  0.25500000920E-02 0.  1.
    10030    2    1    2    0    0  0.00000000000E+00  0.00000000000E+00  0.21913334703E+03  0.17905761563E+04  0.17771166387E+04 0.  0.
        2    1    3    3  502    0 -0.75375106441E+03  0.41072302815E+03 -0.12174078966E+03  0.86698033013E+03  0.25500000920E-02 0.  1.
       -2    1    3    3    0  502  0.75375106441E+03 -0.41072302815E+03  0.34087413669E+03  0.92359582612E+03  0.25500000920E-02 0. -1.
</event>
<event>
 5   0  0.3531266E-04  0.1850139E+04  0.7818609E-02  0.8680082E-01
       -2   -1    0    0    0  501  0.00000000000E+00  0.00000000000E+00  0.50384892727E+03  0.50384892728E+03  0.25500000920E-02 0.  1.
        2   -1    0    0  501    0  0.00000000000E+00  0.00000000000E+00 -0.16984322052E+04  0.16984322052E+04  0.25500000920E-02 0. -1.
    10030    2    1    2    0    0  0.00000000000E+00  0.00000000000E+00 -0.11945832780E+04  0.22022811325E+04  0.18501386377E+04 0.  0.
        3    1    3    3  502    0 -0.36781971792E+03 -0.57393520361E+03  0.14708088459E+03  0.69737060424E+03  0.10100000352E+00 0.  1.
       -3    1    3    3    0  502  0.36781971792E+03  0.57393520361E+03 -0.13416641626E+04  0.15049105283E+04  0.10100000352E+00 0. -1.
</event>
<event>
 5   0  0.3531266E-04  0.1789566E+04  0.7818609E-02  0.8711868E-01
       -2   -1    0    0    0  501  0.00000000000E+00  0.00000000000E+00  0.77320094523E+03  0.77320094524E+03  0.25500000920E-02 0. -1.
        2   -1    0    0  501    0  0.00000000000E+00  0.00000000000E+00 -0.10354826924E+04  0.10354826924E+04  0.25500000920E-02 0.  1.
    10030    2    1    2    0    0  0.00000000000E+00  0.00000000000E+00 -0.26228174714E+03  0.18086836376E+04  0.17895655300E+04 0.  0.
        3    1    3    3  502    0  0.30673842401E+03  0.55529166492E+03 -0.76891225545E+03  0.99682664525E+03  0.10100000352E+00 0.  1.
       -3    1    3    3    0  502 -0.30673842401E+03 -0.55529166492E+03  0.50663050831E+03  0.81185699236E+03  0.10100000352E+00 0. -1.
</event>
<event>
 5   0  0.1835421E-04  0.1677176E+04  0.7818609E-02  0.8774490E-01
       -1   -1    0    0    0  501  0.00000000000E+00  0.00000000000E+00  0.91453115599E+03  0.91453115600E+03  0.50400001928E-02 0.  1.
        1   -1    0    0  501    0  0.00000000000E+00  0.00000000000E+00 -0.76895160902E+03  0.76895160903E+03  0.50400001928E-02 0. -1.
    10030    2    1    2    0    0  0.00000000000E+00  0.00000000000E+00  0.14557954697E+03  0.16834827650E+04  0.16771764414E+04 0.  0.
        2    1    3    3  502    0 -0.64676103482E+03 -0.36600903942E+03  0.46279642466E+03  0.87546729452E+03  0.25500000920E-02 0.  1.
       -2    1    3    3    0  502  0.64676103482E+03  0.36600903942E+03 -0.31721687769E+03  0.80801547051E+03  0.25500000920E-02 0. -1.
</event>
<event>
 5   0  0.3582186E-04  0.1810772E+04  0.7818609E-02  0.8700592E-01
        2   -1    0    0  501    0  0.00000000000E+00  0.00000000000E+00  0.15559523659E+04  0.15559523659E+04  0.25500000920E-02 0.  1.
       -2   -1    0    0    0  501  0.00000000000E+00  0.00000000000E+00 -0.52683111518E+03  0.52683111518E+03  0.25500000920E-02 0. -1.
    10030    2    1    2    0    0  0.00000000000E+00  0.00000000000E+00  0.10291212507E+04  0.20827834811E+04  0.18107723436E+04 0.  0.
        4    1    3    3  502    0 -0.46128911810E+03 -0.57261977420E+03 -0.93034991841E+02  0.74117351469E+03  0.12699999809E+01 0. -1.
       -4    1    3    3    0  502  0.46128911810E+03  0.57261977420E+03  0.11221562425E+04  0.13416099664E+04  0.12699999809E+01 0.  1.
</event>
<event>
 5   0  0.3531266E-04  0.1993614E+04  0.7818609E-02  0.8609612E-01
       -2   -1    0    0    0  501  0.00000000000E+00  0.00000000000E+00  0.48565789909E+03  0.48565789910E+03  0.25500000920E-02 0.  1.
        2   -1    0    0  501    0  0.00000000000E+00  0.00000000000E+00 -0.20459345260E+04  0.20459345260E+04  0.25500000920E-02 0. -1.
    10030    2    1    2    0    0  0.00000000000E+00  0.00000000000E+00 -0.15602766269E+04  0.25315924251E+04  0.19936140686E+04 0.  0.
        3    1    3    3  502    0 -0.27203641535E+03  0.95880165003E+03 -0.80284834592E+03  0.12797929099E+04  0.10100000352E+00 0. -1.
       -3    1    3    3    0  502  0.27203641535E+03 -0.95880165003E+03 -0.75742828102E+03  0.12517995153E+04  0.10100000352E+00 0.  1.
</event>
<event>
 5   0  0.3531266E-04  0.1826487E+04  0.7818609E-02  0.8692339E-01
        2   -1    0    0  501    0  0.00000000000E+00  0.00000000000E+00  0.14328729631E+04  0.14328729631E+04  0.25500000920E-02 0.  1.
       -2   -1    0    0    0  501  0.00000000000E+00  0.00000000000E+00 -0.58205714255E+03  0.58205714256E+03  0.25500000920E-02 0. -1.
    10030    2    1    2    0    0  0.00000000000E+00  0.00000000000E+00  0.85081582058E+03  0.20149301057E+04  0.18264872762E+04 0.  0.
        3    1    3    3  502    0  0.89967919599E+03  0.14795876756E+03  0.36809092052E+03  0.98326262441E+03  0.10100000352E+00 0.  1.
       -3    1    3    3    0  502 -0.89967919599E+03 -0.14795876756E+03  0.48272490006E+03  0.10316674813E+04  0.10100000352E+00 0. -1.
</event>
<event>
 5   0  0.3531266E-04  0.1831614E+04  0.7818609E-02  0.8689666E-01
       -2   -1    0    0    0  501  0.00000000000E+00  0.00000000000E+00  0.67540358779E+03  0.67540358779E+03  0.25500000920E-02 0.  1.
        2   -1    0    0  501    0  0.00000000000E+00  0.00000000000E+00 -0.12417792519E+04  0.12417792519E+04  0.25500000920E-02 0. -1.
    10030    2    1    2    0    0  0.00000000000E+00  0.00000000000E+00 -0.56637566411E+03  0.19171828397E+04  0.18316136732E+04 0.  0.
        3    1    3    3  502    0  0.10995599296E+03 -0.86773586258E+03  0.86893168557E+00  0.87467514703E+03  0.10100000352E+00 0.  1.
       -3    1    3    3    0  502 -0.10995599296E+03  0.86773586258E+03 -0.56724459579E+03  0.10425076927E+04  0.10100000352E+00 0. -1.
</event>
<event>
 5   0  0.3575091E-04  0.1803830E+04  0.7818609E-02  0.8704265E-01
        2   -1    0    0  501    0  0.00000000000E+00  0.00000000000E+00  0.74990909975E+03  0.74990909975E+03  0.25500000920E-02 0.  1.
       -2   -1    0    0    0  501  0.00000000000E+00  0.00000000000E+00 -0.10847329134E+04  0.10847329134E+04  0.25500000920E-02 0. -1.
    10030    2    1    2    0    0  0.00000000000E+00  0.00000000000E+00 -0.33482381366E+03  0.18346420132E+04  0.18038304605E+04 0.  0.
        5    1    3    3  502    0  0.17298179501E+03  0.33164305613E+03  0.66728845220E+03  0.76498744207E+03  0.46999998093E+01 0.  1.
       -5    1    3    3    0  502 -0.17298179501E+03 -0.33164305613E+03 -0.10021122659E+04  0.10696545711E+04  0.46999998093E+01 0. -1.
</event>
<event>
 5   0  0.1818778E-04  0.1816470E+04  0.7818609E-02  0.8697590E-01
       -1   -1    0    0    0  501  0.00000000000E+00  0.00000000000E+00  0.74313948863E+03  0.74313948864E+03  0.50400001928E-02 0.  1.
        1   -1    0    0  501    0  0.00000000000E+00  0.00000000000E+00 -0.11100082134E+04  0.11100082134E+04  0.50400001928E-02 0. -1.
    10030    2    1    2    0    0  0.00000000000E+00  0.00000000000E+00 -0.36686872477E+03  0.18531477020E+04  0.18164701331E+04 0.  0.
        3    1    3    3  502    0  0.35088936320E+01 -0.53620843666E+03  0.56441493234E+03  0.77852169265E+03  0.10100000352E+00 0.  1.
       -3    1    3    3    0  502 -0.35088936320E+01  0.53620843666E+03 -0.93128365711E+03  0.10746260094E+04  0.10100000352E+00 0. -1.
</event>
<event>
 5   0  0.1330125E-04  0.1796919E+04  0.7818609E-02  0.8707940E-01
        3   -1    0    0  501    0  0.00000000000E+00  0.00000000000E+00  0.86542670148E+03  0.86542670738E+03  0.10100000352E+00 0. -1.
       -3   -1    0    0    0  501  0.00000000000E+00  0.00000000000E+00 -0.93275334478E+03  0.93275335024E+03  0.10100000352E+00 0.  1.
    10030    2    1    2    0    0  0.00000000000E+00  0.00000000000E+00 -0.67326643291E+02  0.17981800576E+04  0.17969192087E+04 0.  0.
        5    1    3    3  502    0 -0.35159666553E+03  0.27136272405E+03  0.74787739872E+03  0.86982793513E+03  0.46999998093E+01 0. -1.
       -5    1    3    3    0  502  0.35159666553E+03 -0.27136272405E+03 -0.81520404201E+03  0.92835212249E+03  0.46999998093E+01 0.  1.
</event>
<event>
 5   0  0.1835421E-04  0.1803399E+04  0.7818609E-02  0.8704494E-01
       -1   -1    0    0    0  501  0.00000000000E+00  0.00000000000E+00  0.53911239849E+03  0.53911239851E+03  0.50400001928E-02 0.  1.
        1   -1    0    0  501    0  0.00000000000E+00  0.00000000000E+00 -0.15081495659E+04  0.15081495659E+04  0.50400001928E-02 0. -1.
    10030    2    1    2    0    0  0.00000000000E+00  0.00000000000E+00 -0.96903716742E+03  0.20472619644E+04  0.18033991569E+04 0.  0.
        2    1    3    3  502    0 -0.29202807597E+03  0.41359033389E+03  0.36251733521E+03  0.62270071445E+03  0.25500000920E-02 0.  1.
       -2    1    3    3    0  502  0.29202807597E+03 -0.41359033389E+03 -0.13315545026E+04  0.14245612500E+04  0.25500000920E-02 0. -1.
</event>
<event>
 5   0  0.1825253E-04  0.1844577E+04  0.7818609E-02  0.8682947E-01
        1   -1    0    0  501    0  0.00000000000E+00  0.00000000000E+00  0.82261163959E+03  0.82261163961E+03  0.50400001928E-02 0.  1.
       -1   -1    0    0    0  501  0.00000000000E+00  0.00000000000E+00 -0.10340428061E+04  0.10340428062E+04  0.50400001928E-02 0. -1.
    10030    2    1    2    0    0  0.00000000000E+00  0.00000000000E+00 -0.21143116655E+03  0.18566544458E+04  0.18445765348E+04 0.  0.
        4    1    3    3  502    0 -0.15936575866E+03  0.73100421387E+03 -0.64855141926E+03  0.99014401077E+03  0.12699999809E+01 0. -1.
       -4    1    3    3    0  502  0.15936575866E+03 -0.73100421387E+03  0.43712025271E+03  0.86651043500E+03  0.12699999809E+01 0.  1.
</event>
<event>
 5   0  0.3531266E-04  0.1747702E+04  0.7818609E-02  0.8734616E-01
        2   -1    0    0  501    0  0.00000000000E+00  0.00000000000E+00  0.19758968496E+04  0.19758968496E+04  0.25500000920E-02 0. -1.
       -2   -1    0    0    0  501  0.00000000000E+00  0.00000000000E+00 -0.38646530839E+03  0.38646530840E+03  0.25500000920E-02 0.  1.
    10030    2    1    2    0    0  0.00000000000E+00  0.00000000000E+00  0.15894315412E+04  0.23623621580E+04  0.17477020173E+04 0.  0.
        3    1    3    3  502    0 -0.10743145955E+03  0.55534950725E+03 -0.10562041940E+03  0.57542182518E+03  0.10100000352E+00 0.  1.
       -3    1    3    3    0  502  0.10743145955E+03 -0.55534950725E+03  0.16950519606E+04  0.17869403328E+04  0.10100000352E+00 0. -1.
</event>
<event>
 5   0  0.3531266E-04  0.1799003E+04  0.7818609E-02  0.8706830E-01
        2   -1    0    0  501    0  0.00000000000E+00  0.00000000000E+00  0.14706132846E+04  0.14706132846E+04  0.25500000920E-02 0.  1.
       -2   -1    0    0    0  501  0.00000000000E+00  0.00000000000E+00 -0.55018071237E+03  0.55018071238E+03  0.25500000920E-02 0. -1.
    10030    2    1    2    0    0  0.00000000000E+00  0.00000000000E+00  0.92043257224E+03  0.20207939970E+04  0.17990031290E+04 0.  0.
        3    1    3    3  502    0 -0.40781054305E+03  0.79903774078E+03  0.53415120379E+03  0.10440729232E+04  0.10100000352E+00 0. -1.
       -3    1    3    3    0  502  0.40781054305E+03 -0.79903774078E+03  0.38628136845E+03  0.97672107381E+03  0.10100000352E+00 0.  1.
</event>
<event>
 5   0  0.3568870E-04  0.1769342E+04  0.7818609E-02  0.8722775E-01
        2   -1    0    0  501    0  0.00000000000E+00  0.00000000000E+00  0.11754476742E+04  0.11754476742E+04  0.25500000920E-02 0. -1.
       -2   -1    0    0    0  501  0.00000000000E+00  0.00000000000E+00 -0.66582523601E+03  0.66582523602E+03  0.25500000920E-02 0.  1.
    10030    2    1    2    0    0  0.00000000000E+00  0.00000000000E+00  0.50962243822E+03  0.18412729103E+04  0.17693419400E+04 0.  0.
        1    1    3    3  502    0 -0.31172240671E+03  0.81454806286E+03  0.40910663664E+03  0.96334191528E+03  0.50400001928E-02 0. -1.
       -1    1    3    3    0  502  0.31172240671E+03 -0.81454806286E+03  0.10051580158E+03  0.87793099498E+03  0.50400001928E-02 0.  1.
</event>
<event>
 5   0  0.1837313E-04  0.1788517E+04  0.7818609E-02  0.8712430E-01
       -1   -1    0    0    0  501  0.00000000000E+00  0.00000000000E+00  0.11754680264E+04  0.11754680264E+04  0.50400001928E-02 0.  1.
        1   -1    0    0  501    0  0.00000000000E+00  0.00000000000E+00 -0.68032361283E+03  0.68032361285E+03  0.50400001928E-02 0. -1.
    10030    2    1    2    0    0  0.00000000000E+00  0.00000000000E+00  0.49514441358E+03  0.18557916393E+04  0.17885174358E+04 0.  0.
        1    1    3    3  502    0  0.15340484741E+03 -0.82362559307E+03  0.57207607017E+03  0.10144768084E+04  0.50400001928E-02 0. -1.
       -1    1    3    3    0  502 -0.15340484741E+03  0.82362559307E+03 -0.76931656594E+02  0.84131483084E+03  0.50400001928E-02 0.  1.
</event>
<event>
 5   0  0.3628581E-04  0.1480646E+04  0.7818609E-02  0.8897426E-01
       -2   -1    0    0    0  501  0.00000000000E+00  0.00000000000E+00  0.64669315744E+03  0.64669315744E+03  0.25500000920E-02 0. -1.
        2   -1    0    0  501    0  0.00000000000E+00  0.00000000000E+00 -0.84750853940E+03  0.84750853940E+03  0.25500000920E-02 0.  1.
    10030    2    1    2    0    0  0.00000000000E+00  0.00000000000E+00 -0.20081538196E+03  0.14942016968E+04  0.14806457690E+04 0.  0.
        2    1    3    3  502    0 -0.38857061217E+03  0.43937057089E+03  0.35544061635E+03  0.68583646079E+03  0.25500000920E-02 0. -1.
       -2    1    3    3    0  502  0.38857061217E+03 -0.43937057089E+03 -0.55625599831E+03  0.80836523605E+03  0.25500000920E-02 0.  1.
</event>
<event>
 5   0  0.3531266E-04  0.1777629E+04  0.7818609E-02  0.8718287E-01
       -2   -1    0    0    0  501  0.00000000000E+00  0.00000000000E+00  0.10416188824E+04  0.10416188824E+04  0.25500000920E-02 0. -1.
        2   -1    0    0  501    0  0.00000000000E+00  0.00000000000E+00 -0.75842630536E+03  0.75842630537E+03  0.25500000920E-02 0.  1.
    10030    2    1    2    0    0  0.00000000000E+00  0.00000000000E+00  0.28319257702E+03  0.18000451878E+04  0.17776289383E+04 0.  0.
        3    1    3    3  502    0  0.23415664838E+03 -0.61030688588E+03 -0.46823328549E+03  0.80408099764E+03  0.10100000352E+00 0.  1.
       -3    1    3    3    0  502 -0.23415664838E+03  0.61030688588E+03  0.75142586251E+03  0.99596419011E+03  0.10100000352E+00 0. -1.
</event>
<event>
 5   0  0.1837313E-04  0.1791567E+04  0.7818609E-02  0.8710797E-01
       -1   -1    0    0    0  501  0.00000000000E+00  0.00000000000E+00  0.11472382979E+04  0.11472382980E+04  0.50400001928E-02 0. -1.
        1   -1    0    0  501    0  0.00000000000E+00  0.00000000000E+00 -0.69944344807E+03  0.69944344809E+03  0.50400001928E-02 0.  1.
    10030    2    1    2    0    0  0.00000000000E+00  0.00000000000E+00  0.44779484987E+03  0.18466817460E+04  0.17915672590E+04 0.  0.
        1    1    3    3  502    0  0.18985400961E+03 -0.86305309650E+03  0.72676622647E+02  0.88667191444E+03  0.50400001928E-02 0. -1.
       -1    1    3    3    0  502 -0.18985400961E+03  0.86305309650E+03  0.37511822723E+03  0.96000983160E+03  0.50400001928E-02 0.  1.
</event>
<event>
 5   0  0.3582186E-04  0.1805618E+04  0.7818609E-02  0.8703318E-01
        2   -1    0    0  501    0  0.00000000000E+00  0.00000000000E+00  0.13154385231E+04  0.13154385231E+04  0.25500000920E-02 0. -1.
       -2   -1    0    0    0  501  0.00000000000E+00  0.00000000000E+00 -0.61961378823E+03  0.61961378824E+03  0.25500000920E-02 0.  1.
    10030    2    1    2    0    0  0.00000000000E+00  0.00000000000E+00  0.69582473491E+03  0.19350523114E+04  0.18056177298E+04 0.  0.
        4    1    3    3  502    0 -0.49107029718E+03 -0.55585144724E+03  0.89953462923E+03  0.11658837979E+04  0.12699999809E+01 0. -1.
       -4    1    3    3    0  502  0.49107029718E+03  0.55585144724E+03 -0.20370989431E+03  0.76916851347E+03  0.12699999809E+01 0.  1.
</event>
<event>
 5   0  0.1883959E-04  0.1806338E+04  0.7818609E-02  0.8702936E-01
       -1   -1    0    0    0  501  0.00000000000E+00  0.00000000000E+00  0.52784732777E+03  0.52784732780E+03  0.50400001928E-02 0.  1.
        1   -1    0    0  501    0  0.00000000000E+00  0.00000000000E+00 -0.15453606457E+04  0.15453606457E+04  0.50400001928E-02 0. -1.
    10030    2    1    2    0    0  0.00000000000E+00  0.00000000000E+00 -0.10175133179E+04  0.20732079735E+04  0.18063382710E+04 0.  0.
        5    1    3    3  502    0  0.48951296998E+03  0.62369618553E+03 -0.10051761016E+04  0.12802425414E+04  0.46999998093E+01 0.  1.
       -5    1    3    3    0  502 -0.48951296998E+03 -0.62369618553E+03 -0.12337216350E+02  0.79296543211E+03  0.46999998093E+01 0. -1.
</event>
<event>
 5   0  0.3575091E-04  0.1796627E+04  0.7818609E-02  0.8708095E-01
       -2   -1    0    0    0  501  0.00000000000E+00  0.00000000000E+00  0.10374558554E+04  0.10374558554E+04  0.25500000920E-02 0. -1.
        2   -1    0    0  501    0  0.00000000000E+00  0.00000000000E+00 -0.77783286979E+03  0.77783286980E+03  0.25500000920E-02 0.  1.
    10030    2    1    2    0    0  0.00000000000E+00  0.00000000000E+00  0.25962298560E+03  0.18152887252E+04  0.17966271347E+04 0.  0.
        5    1    3    3  502    0 -0.53415149625E+03  0.12145072497E+03  0.84915955939E+03  0.10105256785E+04  0.46999998093E+01 0. -1.
       -5    1    3    3    0  502  0.53415149625E+03 -0.12145072497E+03 -0.58953657379E+03  0.80476304673E+03  0.46999998093E+01 0.  1.
</event>
<event>
 5   0  0.3582186E-04  0.1738925E+04  0.7818609E-02  0.8739470E-01
        2   -1    0    0  501    0  0.00000000000E+00  0.00000000000E+00  0.12179954590E+04  0.12179954590E+04  0.25500000920E-02 0.  1.
       -2   -1    0    0    0  501  0.00000000000E+00  0.00000000000E+00 -0.62066333730E+03  0.62066333730E+03  0.25500000920E-02 0. -1.
    10030    2    1    2    0    0  0.00000000000E+00  0.00000000000E+00  0.59733212173E+03  0.18386587963E+04  0.17389251006E+04 0.  0.
        4    1    3    3  502    0  0.32232536990E+03  0.53904843730E+03  0.93439562280E+03  0.11258612946E+04  0.12699999809E+01 0.  1.
       -4    1    3    3    0  502 -0.32232536990E+03 -0.53904843730E+03 -0.33706350107E+03  0.71279750174E+03  0.12699999809E+01 0. -1.
</event>
<event>
 5   0  0.3531266E-04  0.1773607E+04  0.7818609E-02  0.8720462E-01
        2   -1    0    0  501    0  0.00000000000E+00  0.00000000000E+00  0.11912954310E+04  0.11912954310E+04  0.25500000920E-02 0.  1.
       -2   -1    0    0    0  501  0.00000000000E+00  0.00000000000E+00 -0.66013921596E+03  0.66013921596E+03  0.25500000920E-02 0. -1.
    10030    2    1    2    0    0  0.00000000000E+00  0.00000000000E+00  0.53115621500E+03  0.18514346469E+04  0.17736074332E+04 0.  0.
        3    1    3    3  502    0 -0.33918830785E+03  0.78221288414E+03  0.52024033490E+03  0.99877711255E+03  0.10100000352E+00 0. -1.
       -3    1    3    3    0  502  0.33918830785E+03 -0.78221288414E+03  0.10915880099E+02  0.85265753438E+03  0.10100000352E+00 0.  1.
</event>
<event>
 5   0  0.3531266E-04  0.1786343E+04  0.7818609E-02  0.8713596E-01
        2   -1    0    0  501    0  0.00000000000E+00  0.00000000000E+00  0.18570588609E+04  0.18570588609E+04  0.25500000920E-02 0. -1.
       -2   -1    0    0    0  501  0.00000000000E+00  0.00000000000E+00 -0.42957978978E+03  0.42957978979E+03  0.25500000920E-02 0.  1.
    10030    2    1    2    0    0  0.00000000000E+00  0.00000000000E+00  0.14274790711E+04  0.22866386507E+04  0.17863425820E+04 0.  0.
        3    1    3    3  502    0  0.88338981289E+03 -0.12931835132E+03  0.68100014472E+03  0.11228811178E+04  0.10100000352E+00 0.  1.
       -3    1    3    3    0  502 -0.88338981289E+03  0.12931835132E+03  0.74647892639E+03  0.11637575328E+04  0.10100000352E+00 0. -1.
</event>
<event>
 5   0  0.3582186E-04  0.1788355E+04  0.7818609E-02  0.8712517E-01
        2   -1    0    0  501    0  0.00000000000E+00  0.00000000000E+00  0.48012527426E+03  0.48012527426E+03  0.25500000920E-02 0.  1.
       -2   -1    0    0    0  501  0.00000000000E+00  0.00000000000E+00 -0.16653013670E+04  0.16653013670E+04  0.25500000920E-02 0. -1.
    10030    2    1    2    0    0  0.00000000000E+00  0.00000000000E+00 -0.11851760928E+04  0.21454266413E+04  0.17883548592E+04 0.  0.
        4    1    3    3  502    0 -0.20753755756E+03 -0.69515525501E+02 -0.16326687876E+04  0.16472744850E+04  0.12699999809E+01 0. -1.
       -4    1    3    3    0  502  0.20753755756E+03  0.69515525501E+02  0.44749269477E+03  0.49815215633E+03  0.12699999809E+01 0.  1.
</event>
<event>
 5   0  0.3531266E-04  0.1696280E+04  0.7818609E-02  0.8763489E-01
       -2   -1    0    0    0  501  0.00000000000E+00  0.00000000000E+00  0.81036122197E+03  0.81036122198E+03  0.25500000920E-02 0.  1.
        2   -1    0    0  501    0  0.00000000000E+00  0.00000000000E+00 -0.88767983486E+03  0.88767983486E+03  0.25500000920E-02 0. -1.
    10030    2    1    2    0    0  0.00000000000E+00  0.00000000000E+00 -0.77318612883E+02  0.16980410568E+04  0.16962798303E+04 0.  0.
        3    1    3    3  502    0  0.72351457475E+02 -0.20048585733E+03  0.78311447551E+03  0.81160187551E+03  0.10100000352E+00 0.  1.
       -3    1    3    3    0  502 -0.72351457475E+02  0.20048585733E+03 -0.86043308839E+03  0.88643918132E+03  0.10100000352E+00 0. -1.
</event>
<event>
 5   0  0.1883959E-04  0.1784542E+04  0.7818609E-02  0.8714563E-01
        1   -1    0    0  501    0  0.00000000000E+00  0.00000000000E+00  0.12897916042E+04  0.12897916042E+04  0.50400001928E-02 0.  1.
       -1   -1    0    0    0  501  0.00000000000E+00  0.00000000000E+00 -0.61726848960E+03  0.61726848963E+03  0.50400001928E-02 0. -1.
    10030    2    1    2    0    0  0.00000000000E+00  0.00000000000E+00  0.67252311459E+03  0.19070600938E+04  0.17845421995E+04 0.  0.
        5    1    3    3  502    0 -0.27030791633E+03  0.76282257889E+03 -0.65247060792E+02  0.81193837540E+03  0.46999998093E+01 0.  1.
       -5    1    3    3    0  502  0.27030791633E+03 -0.76282257889E+03  0.73777017538E+03  0.10951217184E+04  0.46999998093E+01 0. -1.
</event>
<event>
 5   0  0.3568870E-04  0.1793106E+04  0.7818609E-02  0.8709974E-01
        2   -1    0    0  501    0  0.00000000000E+00  0.00000000000E+00  0.19239222991E+04  0.19239222991E+04  0.25500000920E-02 0.  1.
       -2   -1    0    0    0  501  0.00000000000E+00  0.00000000000E+00 -0.41779627528E+03  0.41779627529E+03  0.25500000920E-02 0. -1.
    10030    2    1    2    0    0  0.00000000000E+00  0.00000000000E+00  0.15061260238E+04  0.23417185744E+04  0.17931063220E+04 0.  0.
        1    1    3    3  502    0 -0.74822786168E+03  0.44790780909E+03  0.48118174475E+03  0.99599307725E+03  0.50400001928E-02 0.  1.
       -1    1    3    3    0  502  0.74822786168E+03 -0.44790780909E+03  0.10249442791E+04  0.13457254972E+04  0.50400001928E-02 0. -1.
</event>
<event>
 5   0  0.1837313E-04  0.1777162E+04  0.7818609E-02  0.8718540E-01
       -1   -1    0    0    0  501  0.00000000000E+00  0.00000000000E+00  0.35797890931E+03  0.35797890934E+03  0.50400001928E-02 0. -1.
        1   -1    0    0  501    0  0.00000000000E+00  0.00000000000E+00 -0.22056501319E+04  0.22056501319E+04  0.50400001928E-02 0.  1.
    10030    2    1    2    0    0  0.00000000000E+00  0.00000000000E+00 -0.18476712226E+04  0.25636290413E+04  0.17771620394E+04 0.  0.
        1    1    3    3  502    0  0.75224026274E+03  0.44164893520E+03 -0.11680345499E+04  0.14578147704E+04  0.50400001928E-02 0.  1.
       -1    1    3    3    0  502 -0.75224026274E+03 -0.44164893520E+03 -0.67963667269E+03  0.11058142709E+04  0.50400001928E-02 0. -1.
</event>
<event>
 5   0  0.3582186E-04  0.1967026E+04  0.7818609E-02  0.8622194E-01
        2   -1    0    0  501    0  0.00000000000E+00  0.00000000000E+00  0.18377982214E+04  0.18377982214E+04  0.25500000920E-02 0.  1.
       -2   -1    0    0    0  501  0.00000000000E+00  0.00000000000E+00 -0.52633523539E+03  0.52633523540E+03  0.25500000920E-02 0. -1.
    10030    2    1    2    0    0  0.00000000000E+00  0.00000000000E+00  0.13114629861E+04  0.23641334568E+04  0.19670261406E+04 0.  0.
        4    1    3    3  502    0 -0.18751777408E+03 -0.40422970844E+03  0.17095098477E+04  0.17666324194E+04  0.12699999809E+01 0.  1.
       -4    1    3    3    0  502  0.18751777408E+03  0.40422970844E+03 -0.39804686169E+03  0.59750103747E+03  0.12699999809E+01 0. -1.
</event>
<event>
 5   0  0.3582186E-04  0.1807726E+04  0.7818609E-02  0.8702202E-01
       -2   -1    0    0    0  501  0.00000000000E+00  0.00000000000E+00  0.90520812033E+03  0.90520812033E+03  0.25500000920E-02 0. -1.
        2   -1    0    0  501    0  0.00000000000E+00  0.00000000000E+00 -0.90251980805E+03  0.90251980805E+03  0.25500000920E-02 0.  1.
    10030    2    1    2    0    0  0.00000000000E+00  0.00000000000E+00  0.26883122763E+01  0.18077279284E+04  0.18077259295E+04 0.  0.
        4    1    3    3  502    0 -0.30523291486E+03 -0.69285398485E+01 -0.84939264789E+03  0.90259881463E+03  0.12699999809E+01 0.  1.
       -4    1    3    3    0  502  0.30523291486E+03  0.69285398485E+01  0.85208096017E+03  0.90512911375E+03  0.12699999809E+01 0. -1.
</event>
<event>
 5   0  0.1330125E-04  0.1802930E+04  0.7818609E-02  0.8704743E-01
        3   -1    0    0  501    0  0.00000000000E+00  0.00000000000E+00  0.73693559012E+03  0.73693559704E+03  0.10100000352E+00 0. -1.
       -3   -1    0    0    0  501  0.00000000000E+00  0.00000000000E+00 -0.11027276932E+04  0.11027276979E+04  0.10100000352E+00 0.  1.
    10030    2    1    2    0    0  0.00000000000E+00  0.00000000000E+00 -0.36579210313E+03  0.18396632949E+04  0.18029301639E+04 0.  0.
        4    1    3    3  502    0  0.82905834786E+03 -0.23818314542E+03  0.84295350771E+02  0.86670425981E+03  0.12699999809E+01 0. -1.
       -4    1    3    3    0  502 -0.82905834786E+03  0.23818314542E+03 -0.45008745390E+03  0.97295903510E+03  0.12699999809E+01 0.  1.
</event>
<event>
 5   0  0.3582186E-04  0.1801396E+04  0.7818609E-02  0.8705557E-01
       -2   -1    0    0    0  501  0.00000000000E+00  0.00000000000E+00  0.53174613330E+03  0.53174613330E+03  0.25500000920E-02 0.  1.
        2   -1    0    0  501    0  0.00000000000E+00  0.00000000000E+00 -0.15256469364E+04  0.15256469364E+04  0.25500000920E-02 0. -1.
    10030    2    1    2    0    0  0.00000000000E+00  0.00000000000E+00 -0.99390080306E+03  0.20573930697E+04  0.18013959689E+04 0.  0.
        4    1    3    3  502    0 -0.44732399906E+03 -0.35222311338E+03  0.30015377437E+03  0.64362549895E+03  0.12699999809E+01 0.  1.
       -4    1    3    3    0  502  0.44732399906E+03  0.35222311338E+03 -0.12940545774E+04  0.14137675707E+04  0.12699999809E+01 0. -1.
</event>
<event>
 5   0  0.3568870E-04  0.1805882E+04  0.7818609E-02  0.8703178E-01
       -2   -1    0    0    0  501  0.00000000000E+00  0.00000000000E+00  0.10500818428E+04  0.10500818428E+04  0.25500000920E-02 0.  1.
        2   -1    0    0  501    0  0.00000000000E+00  0.00000000000E+00 -0.77641766653E+03  0.77641766654E+03  0.25500000920E-02 0. -1.
    10030    2    1    2    0    0  0.00000000000E+00  0.00000000000E+00  0.27366417628E+03  0.18264995093E+04  0.18058816064E+04 0.  0.
        1    1    3    3  502    0 -0.89246741095E+03  0.81581001571E+02  0.25353209738E+02  0.89654688929E+03  0.50400001928E-02 0. -1.
       -1    1    3    3    0  502  0.89246741095E+03 -0.81581001571E+02  0.24831096654E+03  0.92995262006E+03  0.50400001928E-02 0.  1.
</event>
<event>
 5   0  0.1825253E-04  0.1737709E+04  0.7818609E-02  0.8740145E-01
        1   -1    0    0  501    0  0.00000000000E+00  0.00000000000E+00  0.11089891937E+04  0.11089891937E+04  0.50400001928E-02 0. -1.
       -1   -1    0    0    0  501  0.00000000000E+00  0.00000000000E+00 -0.68071698953E+03  0.68071698955E+03  0.50400001928E-02 0.  1.
    10030    2    1    2    0    0  0.00000000000E+00  0.00000000000E+00  0.42827220418E+03  0.17897061833E+04  0.17377085894E+04 0.  0.
        4    1    3    3  502    0 -0.35250264787E+03 -0.36413203567E+03 -0.51271230404E+03  0.72092008972E+03  0.12699999809E+01 0.  1.
       -4    1    3    3    0  502  0.35250264787E+03  0.36413203567E+03  0.94098450822E+03  0.10687860936E+04  0.12699999809E+01 0. -1.
</event>
<event>
 5   0  0.1330125E-04  0.1818695E+04  0.7818609E-02  0.8696420E-01
       -3   -1    0    0    0  501  0.00000000000E+00  0.00000000000E+00  0.11139486363E+04  0.11139486409E+04  0.10100000352E+00 0. -1.
        3   -1    0    0  501    0  0.00000000000E+00  0.00000000000E+00 -0.74232610335E+03  0.74232611022E+03  0.10100000352E+00 0.  1.
    10030    2    1    2    0    0  0.00000000000E+00  0.00000000000E+00  0.37162253294E+03  0.18562747511E+04  0.18186953138E+04 0.  0.
        4    1    3    3  502    0  0.36018887615E+03 -0.59156538159E+03  0.78724582482E+03  0.10485433843E+04  0.12699999809E+01 0. -1.
       -4    1    3    3    0  502 -0.36018887615E+03  0.59156538159E+03 -0.41562329189E+03  0.80773136677E+03  0.12699999809E+01 0.  1.
</event>
<event>
 5   0  0.1818778E-04  0.1796319E+04  0.7818609E-02  0.8708260E-01
        1   -1    0    0  501    0  0.00000000000E+00  0.00000000000E+00  0.14826994676E+04  0.14826994676E+04  0.50400001928E-02 0. -1.
       -1   -1    0    0    0  501  0.00000000000E+00  0.00000000000E+00 -0.54406865058E+03  0.54406865061E+03  0.50400001928E-02 0.  1.
    10030    2    1    2    0    0  0.00000000000E+00  0.00000000000E+00  0.93863081700E+03  0.20267681182E+04  0.17963187897E+04 0.  0.
        3    1    3    3  502    0 -0.47921158385E+03  0.46227754984E+03 -0.21079723879E+03  0.69841231466E+03  0.10100000352E+00 0.  1.
       -3    1    3    3    0  502  0.47921158385E+03 -0.46227754984E+03  0.11494280558E+04  0.13283558035E+04  0.10100000352E+00 0. -1.
</event>
<event>
 5   0  0.3582186E-04  0.1765428E+04  0.7818609E-02  0.8724903E-01
        2   -1    0    0  501    0  0.00000000000E+00  0.00000000000E+00  0.85298201624E+03  0.85298201624E+03  0.25500000920E-02 0. -1.
       -2   -1    0    0    0  501  0.00000000000E+00  0.00000000000E+00 -0.91348275401E+03  0.91348275402E+03  0.25500000920E-02 0.  1.
    10030    2    1    2    0    0  0.00000000000E+00  0.00000000000E+00 -0.60500737774E+02  0.17664647703E+04  0.17654284028E+04 0.  0.
        4    1    3    3  502    0  0.64444981707E+03 -0.19654990231E+03 -0.60087921361E+03  0.90277620320E+03  0.12699999809E+01 0.  1.
       -4    1    3    3    0  502 -0.64444981707E+03  0.19654990231E+03  0.54037847583E+03  0.86368856706E+03  0.12699999809E+01 0. -1.
</event>
<event>
 5   0  0.3568870E-04  0.1805900E+04  0.7818609E-02  0.8703168E-01
        2   -1    0    0  501    0  0.00000000000E+00  0.00000000000E+00  0.12315284126E+04  0.12315284126E+04  0.25500000920E-02 0.  1.
       -2   -1    0    0    0  501  0.00000000000E+00  0.00000000000E+00 -0.66203834605E+03  0.66203834606E+03  0.25500000920E-02 0. -1.
    10030    2    1    2    0    0  0.00000000000E+00  0.00000000000E+00  0.56949006658E+03  0.18935667587E+04  0.18059003665E+04 0.  0.
        1    1    3    3  502    0 -0.30043339914E+03 -0.11493383185E+03 -0.59992390857E+03  0.68071925867E+03  0.50400001928E-02 0. -1.
       -1    1    3    3    0  502  0.30043339914E+03  0.11493383185E+03  0.11694139752E+04  0.12128475000E+04  0.50400001928E-02 0.  1.
</event>
<event>
 5   0  0.3628581E-04  0.2018617E+04  0.7818609E-02  0.8597966E-01
       -2   -1    0    0    0  501  0.00000000000E+00  0.00000000000E+00  0.64572312806E+03  0.64572312806E+03  0.25500000920E-02 0. -1.
        2   -1    0    0  501    0  0.00000000000E+00  0.00000000000E+00 -0.15776164086E+04  0.15776164086E+04  0.25500000920E-02 0.  1.
    10030    2    1    2    0    0  0.00000000000E+00  0.00000000000E+00 -0.93189328058E+03  0.22233395367E+04  0.20186167564E+04 0.  0.
        2    1    3    3  502    0 -0.85539442796E+02 -0.43600819113E+03  0.53220931726E+03  0.69330144698E+03  0.25500000920E-02 0. -1.
       -2    1    3    3    0  502  0.85539442796E+02  0.43600819113E+03 -0.14641025978E+04  0.15300380897E+04  0.25500000920E-02 0.  1.
</event>
<event>
 5   0  0.3575091E-04  0.1809299E+04  0.7818609E-02  0.8701370E-01
       -2   -1    0    0    0  501  0.00000000000E+00  0.00000000000E+00  0.87783732406E+03  0.87783732406E+03  0.25500000920E-02 0.  1.
        2   -1    0    0  501    0  0.00000000000E+00  0.00000000000E+00 -0.93228011283E+03  0.93228011283E+03  0.25500000920E-02 0. -1.
    10030    2    1    2    0    0  0.00000000000E+00  0.00000000000E+00 -0.54442788767E+02  0.18101174369E+04  0.18092985155E+04 0.  0.
        5    1    3    3  502    0 -0.49420680366E+03  0.44741388359E+03  0.58456879027E+03  0.88665794338E+03  0.46999998093E+01 0.  1.
       -5    1    3    3    0  502  0.49420680366E+03 -0.44741388359E+03 -0.63901157904E+03  0.92345949351E+03  0.46999998093E+01 0. -1.
</event>
<event>
 5   0  0.3628581E-04  0.1700018E+04  0.7818609E-02  0.8761354E-01
        2   -1    0    0  501    0  0.00000000000E+00  0.00000000000E+00  0.11496168528E+04  0.11496168528E+04  0.25500000920E-02 0. -1.
       -2   -1    0    0    0  501  0.00000000000E+00  0.00000000000E+00 -0.62848323566E+03  0.62848323566E+03  0.25500000920E-02 0.  1.
    10030    2    1    2    0    0  0.00000000000E+00  0.00000000000E+00  0.52113361713E+03  0.17781000885E+04  0.17000175522E+04 0.  0.
        2    1    3    3  502    0 -0.53717574975E+03 -0.45349705472E+03 -0.23918391092E+03  0.74258084275E+03  0.25500000920E-02 0.  1.
       -2    1    3    3    0  502  0.53717574975E+03  0.45349705472E+03  0.76031752805E+03  0.10355192457E+04  0.25500000920E-02 0. -1.
</event>
<event>
 5   0  0.1818778E-04  0.1860326E+04  0.7818609E-02  0.8674861E-01
       -1   -1    0    0    0  501  0.00000000000E+00  0.00000000000E+00  0.11151557601E+04  0.11151557602E+04  0.50400001928E-02 0.  1.
        1   -1    0    0  501    0  0.00000000000E+00  0.00000000000E+00 -0.77585877557E+03  0.77585877558E+03  0.50400001928E-02 0. -1.
    10030    2    1    2    0    0  0.00000000000E+00  0.00000000000E+00  0.33929698457E+03  0.18910145357E+04  0.18603261893E+04 0.  0.
        3    1    3    3  502    0 -0.41248417433E+03  0.82779738288E+03  0.68960597199E+02  0.92744125170E+03  0.10100000352E+00 0. -1.
       -3    1    3    3    0  502  0.41248417433E+03 -0.82779738288E+03  0.27033638738E+03  0.96357328404E+03  0.10100000352E+00 0.  1.
</event>
<event>
 5   0  0.3568870E-04  0.1791770E+04  0.7818609E-02  0.8710688E-01
        2   -1    0    0  501    0  0.00000000000E+00  0.00000000000E+00  0.88503192543E+03  0.88503192544E+03  0.25500000920E-02 0.  1.
       -2   -1    0    0    0  501  0.00000000000E+00  0.00000000000E+00 -0.90687130526E+03  0.90687130527E+03  0.25500000920E-02 0. -1.
    10030    2    1    2    0    0  0.00000000000E+00  0.00000000000E+00 -0.21839379829E+02  0.17919032307E+04  0.17917701386E+04 0.  0.
        1    1    3    3  502    0  0.69549350949E+03 -0.39585510342E+03 -0.41368720301E+03  0.90086047011E+03  0.50400001928E-02 0. -1.
       -1    1    3    3    0  502 -0.69549350949E+03  0.39585510342E+03  0.39184782318E+03  0.89104276059E+03  0.50400001928E-02 0.  1.
</event>
<event>
 5   0  0.1835421E-04  0.1803170E+04  0.7818609E-02  0.8704616E-01
        1   -1    0    0  501    0  0.00000000000E+00  0.00000000000E+00  0.11626623479E+04  0.11626623480E+04  0.50400001928E-02 0. -1.
       -1   -1    0    0    0  501  0.00000000000E+00  0.00000000000E+00 -0.69913267636E+03  0.69913267637E+03  0.50400001928E-02 0.  1.
    10030    2    1    2    0    0  0.00000000000E+00  0.00000000000E+00  0.46352967158E+03  0.18617950243E+04  0.18031696970E+04 0.  0.
        2    1    3    3  502    0 -0.68231270378E+03 -0.58475833884E+03  0.15615631243E+03  0.91207331640E+03  0.25500000920E-02 0. -1.
       -2    1    3    3    0  502  0.68231270378E+03  0.58475833884E+03  0.30737335915E+03  0.94972170792E+03  0.25500000920E-02 0.  1.
</event>
<event>
 5   0  0.1825253E-04  0.1806768E+04  0.7818609E-02  0.8702708E-01
       -1   -1    0    0    0  501  0.00000000000E+00  0.00000000000E+00  0.76481792850E+03  0.76481792851E+03  0.50400001928E-02 0.  1.
        1   -1    0    0  501    0  0.00000000000E+00  0.00000000000E+00 -0.10670552722E+04  0.10670552722E+04  0.50400001928E-02 0. -1.
    10030    2    1    2    0    0  0.00000000000E+00  0.00000000000E+00 -0.30223734371E+03  0.18318732007E+04  0.18067683890E+04 0.  0.
        4    1    3    3  502    0 -0.23306649101E+03  0.84645328572E+03  0.64672448588E+02  0.88033362577E+03  0.12699999809E+01 0.  1.
       -4    1    3    3    0  502  0.23306649101E+03 -0.84645328572E+03 -0.36690979230E+03  0.95153957497E+03  0.12699999809E+01 0. -1.
</event>
<event>
 5   0  0.3531266E-04  0.1786211E+04  0.7818609E-02  0.8713667E-01
        2   -1    0    0  501    0  0.00000000000E+00  0.00000000000E+00  0.15888946819E+04  0.15888946819E+04  0.25500000920E-02 0.  1.
       -2   -1    0    0    0  501  0.00000000000E+00  0.00000000000E+00 -0.50200777959E+03  0.50200777960E+03  0.25500000920E-02 0. -1.
    10030    2    1    2    0    0  0.00000000000E+00  0.00000000000E+00  0.10868869023E+04  0.20909024615E+04  0.17862110640E+04 0.  0.
        3    1    3    3  502    0 -0.22612796679E+03  0.20189807529E+03  0.15268285172E+04  0.15566316268E+04  0.10100000352E+00 0.  1.
       -3    1    3    3    0  502  0.22612796679E+03 -0.20189807529E+03 -0.43994161490E+03  0.53427083478E+03  0.10100000352E+00 0. -1.
</event>
<event>
 5   0  0.3575091E-04  0.1784960E+04  0.7818609E-02  0.8714339E-01
        2   -1    0    0  501    0  0.00000000000E+00  0.00000000000E+00  0.53854523272E+03  0.53854523272E+03  0.25500000920E-02 0.  1.
       -2   -1    0    0    0  501  0.00000000000E+00  0.00000000000E+00 -0.14790220363E+04  0.14790220363E+04  0.25500000920E-02 0. -1.
    10030    2    1    2    0    0  0.00000000000E+00  0.00000000000E+00 -0.94047680356E+03  0.20175672690E+04  0.17849596822E+04 0.  0.
        5    1    3    3  502    0 -0.10364912013E+03 -0.87585245813E+03 -0.31592859172E+03  0.93685304802E+03  0.46999998093E+01 0.  1.
       -5    1    3    3    0  502  0.10364912013E+03  0.87585245813E+03 -0.62454821184E+03  0.10807142210E+04  0.46999998093E+01 0. -1.
</event>
<event>
 5   0  0.1330125E-04  0.2075473E+04  0.7818609E-02  0.8572125E-01
       -3   -1    0    0    0  501  0.00000000000E+00  0.00000000000E+00  0.17988003920E+04  0.17988003948E+04  0.10100000352E+00 0.  1.
        3   -1    0    0  501    0  0.00000000000E+00  0.00000000000E+00 -0.59867523567E+03  0.59867524419E+03  0.10100000352E+00 0. -1.
    10030    2    1    2    0    0  0.00000000000E+00  0.00000000000E+00  0.12001251563E+04  0.23974756390E+04  0.20754732108E+04 0.  0.
        4    1    3    3  502    0 -0.53346859859E+03 -0.17809240217E+03  0.16074867718E+04  0.17030328781E+04  0.12699999809E+01 0.  1.
       -4    1    3    3    0  502  0.53346859859E+03  0.17809240217E+03 -0.40736161556E+03  0.69444276087E+03  0.12699999809E+01 0. -1.
</event>
<event>
 5   0  0.3575091E-04  0.1791889E+04  0.7818609E-02  0.8710625E-01
       -2   -1    0    0    0  501  0.00000000000E+00  0.00000000000E+00  0.56712000812E+03  0.56712000813E+03  0.25500000920E-02 0. -1.
        2   -1    0    0  501    0  0.00000000000E+00  0.00000000000E+00 -0.14154264721E+04  0.14154264721E+04  0.25500000920E-02 0.  1.
    10030    2    1    2    0    0  0.00000000000E+00  0.00000000000E+00 -0.84830646394E+03  0.19825464802E+04  0.17918891398E+04 0.  0.
        5    1    3    3  502    0 -0.57751330321E+03 -0.40262138947E+03 -0.10372516796E+04  0.12536102805E+04  0.46999998093E+01 0.  1.
       -5    1    3    3    0  502  0.57751330321E+03  0.40262138947E+03  0.18894521566E+03  0.72893619965E+03  0.46999998093E+01 0. -1.
</event>
<event>
 5   0  0.3568870E-04  0.1803175E+04  0.7818609E-02  0.8704613E-01
        2   -1    0    0  501    0  0.00000000000E+00  0.00000000000E+00  0.16944862802E+04  0.16944862802E+04  0.25500000920E-02 0.  1.
       -2   -1    0    0    0  501  0.00000000000E+00  0.00000000000E+00 -0.47970892643E+03  0.47970892643E+03  0.25500000920E-02 0. -1.
    10030    2    1    2    0    0  0.00000000000E+00  0.00000000000E+00  0.12147773538E+04  0.21741952067E+04  0.18031751932E+04 0.  0.
        1    1    3    3  502    0 -0.46763522283E+02  0.90015789622E+03  0.58360343876E+03  0.10738081947E+04  0.50400001928E-02 0.  1.
       -1    1    3    3    0  502  0.46763522283E+02 -0.90015789622E+03  0.63117391505E+03  0.11003870120E+04  0.50400001928E-02 0. -1.
</event>
<event>
 5   0  0.1825253E-04  0.1805911E+04  0.7818609E-02  0.8703162E-01
       -1   -1    0    0    0  501  0.00000000000E+00  0.00000000000E+00  0.39716144274E+03  0.39716144277E+03  0.50400001928E-02 0.  1.
        1   -1    0    0  501    0  0.00000000000E+00  0.00000000000E+00 -0.20528904272E+04  0.20528904272E+04  0.50400001928E-02 0. -1.
    10030    2    1    2    0    0  0.00000000000E+00  0.00000000000E+00 -0.16557289844E+04  0.24500518699E+04  0.18059113199E+04 0.  0.
        4    1    3    3  502    0 -0.35998354758E+03  0.77903045741E+03 -0.44690250533E+03  0.96757432287E+03  0.12699999809E+01 0.  1.
       -4    1    3    3    0  502  0.35998354758E+03 -0.77903045741E+03 -0.12088264791E+04  0.14824775471E+04  0.12699999809E+01 0. -1.
</event>
<event>
 5   0  0.1883959E-04  0.1348977E+04  0.7818609E-02  0.8991603E-01
       -1   -1    0    0    0  501  0.00000000000E+00  0.00000000000E+00  0.51415484608E+03  0.51415484610E+03  0.50400001928E-02 0.  1.
        1   -1    0    0  501    0  0.00000000000E+00  0.00000000000E+00 -0.88481984266E+03  0.88481984268E+03  0.50400001928E-02 0. -1.
    10030    2    1    2    0    0  0.00000000000E+00  0.00000000000E+00 -0.37066499659E+03  0.13989746888E+04  0.13489765158E+04 0.  0.
        5    1    3    3  502    0  0.10707776281E+03  0.65141384416E+03 -0.41982384543E+02  0.66150605005E+03  0.46999998093E+01 0. -1.
       -5    1    3    3    0  502 -0.10707776281E+03 -0.65141384416E+03 -0.32868261205E+03  0.73746863873E+03  0.46999998093E+01 0.  1.
</event>
<event>
 5   0  0.3575091E-04  0.1742371E+04  0.7818609E-02  0.8737561E-01
       -2   -1    0    0    0  501  0.00000000000E+00  0.00000000000E+00  0.85101190169E+03  0.85101190169E+03  0.25500000920E-02 0. -1.
        2   -1    0    0  501    0  0.00000000000E+00  0.00000000000E+00 -0.89183707826E+03  0.89183707827E+03  0.25500000920E-02 0.  1.
    10030    2    1    2    0    0  0.00000000000E+00  0.00000000000E+00 -0.40825176575E+02  0.17428489800E+04  0.17423707619E+04 0.  0.
        5    1    3    3  502    0 -0.30891203988E+03 -0.47571915900E+03 -0.68181000225E+03  0.88691732184E+03  0.46999998093E+01 0.  1.
       -5    1    3    3    0  502  0.30891203988E+03  0.47571915900E+03  0.64098482568E+03  0.85593165811E+03  0.46999998093E+01 0. -1.
</event>
<event>
 5   0  0.3628581E-04  0.1807070E+04  0.7818609E-02  0.8702549E-01
        2   -1    0    0  501    0  0.00000000000E+00  0.00000000000E+00  0.79270216488E+03  0.79270216488E+03  0.25500000920E-02 0.  1.
       -2   -1    0    0    0  501  0.00000000000E+00  0.00000000000E+00 -0.10298639409E+04  0.10298639409E+04  0.25500000920E-02 0. -1.
    10030    2    1    2    0    0  0.00000000000E+00  0.00000000000E+00 -0.23716177602E+03  0.18225661058E+04  0.18070698664E+04 0.  0.
        2    1    3    3  502    0 -0.44071866861E+02 -0.34150240891E+03  0.72393223788E+03  0.80165086528E+03  0.25500000920E-02 0.  1.
       -2    1    3    3    0  502  0.44071866861E+02  0.34150240891E+03 -0.96109401391E+03  0.10209152405E+04  0.25500000920E-02 0. -1.
</event>
<event>
 5   0  0.3531266E-04  0.1808396E+04  0.7818609E-02  0.8701847E-01
       -2   -1    0    0    0  501  0.00000000000E+00  0.00000000000E+00  0.15642117961E+04  0.15642117961E+04  0.25500000920E-02 0. -1.
        2   -1    0    0  501    0  0.00000000000E+00  0.00000000000E+00 -0.52267496745E+03  0.52267496745E+03  0.25500000920E-02 0.  1.
    10030    2    1    2    0    0  0.00000000000E+00  0.00000000000E+00  0.10415368287E+04  0.20868867636E+04  0.18083963610E+04 0.  0.
        3    1    3    3  502    0 -0.17438287729E+03  0.85026738824E+03  0.81318882139E+03  0.11893864338E+04  0.10100000352E+00 0. -1.
       -3    1    3    3    0  502  0.17438287729E+03 -0.85026738824E+03  0.22834800730E+03  0.89750032982E+03  0.10100000352E+00 0.  1.
</event>
<event>
 5   0  0.1837313E-04  0.1966148E+04  0.7818609E-02  0.8622613E-01
        1   -1    0    0  501    0  0.00000000000E+00  0.00000000000E+00  0.12745494062E+04  0.12745494062E+04  0.50400001928E-02 0.  1.
       -1   -1    0    0    0  501  0.00000000000E+00  0.00000000000E+00 -0.75825543148E+03  0.75825543150E+03  0.50400001928E-02 0. -1.
    10030    2    1    2    0    0  0.00000000000E+00  0.00000000000E+00  0.51629397469E+03  0.20328048377E+04  0.19661475122E+04 0.  0.
        1    1    3    3  502    0  0.76222729695E+03  0.27062112499E+03  0.83584574984E+03  0.11631269763E+04  0.50400001928E-02 0.  1.
       -1    1    3    3    0  502 -0.76222729695E+03 -0.27062112499E+03 -0.31955177516E+03  0.86967786135E+03  0.50400001928E-02 0. -1.
</event>
<event>
 5   0  0.3531266E-04  0.1757537E+04  0.7818609E-02  0.8729213E-01
        2   -1    0    0  501    0  0.00000000000E+00  0.00000000000E+00  0.10208348775E+04  0.10208348775E+04  0.25500000920E-02 0. -1.
       -2   -1    0    0    0  501  0.00000000000E+00  0.00000000000E+00 -0.75647264700E+03  0.75647264700E+03  0.25500000920E-02 0.  1.
    10030    2    1    2    0    0  0.00000000000E+00  0.00000000000E+00  0.26436223051E+03  0.17773075245E+04  0.17575365281E+04 0.  0.
        3    1    3    3  502    0 -0.65771005975E+03  0.40506262605E+03 -0.29154970164E+03  0.82562672707E+03  0.10100000352E+00 0. -1.
       -3    1    3    3    0  502  0.65771005975E+03 -0.40506262605E+03  0.55591193215E+03  0.95168079744E+03  0.10100000352E+00 0.  1.
</event>
<event>
 5   0  0.3575091E-04  0.1770393E+04  0.7818609E-02  0.8722205E-01
       -2   -1    0    0    0  501  0.00000000000E+00  0.00000000000E+00  0.99334750225E+03  0.99334750226E+03  0.25500000920E-02 0.  1.
        2   -1    0    0  501    0  0.00000000000E+00  0.00000000000E+00 -0.78882006463E+03  0.78882006464E+03  0.25500000920E-02 0. -1.
    10030    2    1    2    0    0  0.00000000000E+00  0.00000000000E+00  0.20452743762E+03  0.17821675669E+04  0.17703925451E+04 0.  0.
        5    1    3    3  502    0  0.55701249713E+03  0.47027950800E+03 -0.40319604052E+03  0.83307555161E+03  0.46999998093E+01 0. -1.
       -5    1    3    3    0  502 -0.55701249713E+03 -0.47027950800E+03  0.60772347814E+03  0.94909201528E+03  0.46999998093E+01 0.  1.
</event>
<event>
 5   0  0.1837313E-04  0.1789029E+04  0.7818609E-02  0.8712156E-01
       -1   -1    0    0    0  501  0.00000000000E+00  0.00000000000E+00  0.52083439747E+03  0.52083439750E+03  0.50400001928E-02 0. -1.
        1   -1    0    0  501    0  0.00000000000E+00  0.00000000000E+00 -0.15362968866E+04  0.15362968867E+04  0.50400001928E-02 0.  1.
    10030    2    1    2    0    0  0.00000000000E+00  0.00000000000E+00 -0.10154624892E+04  0.20571312842E+04  0.17890290812E+04 0.  0.
        1    1    3    3  502    0 -0.55957698943E+02  0.20955160075E+00  0.51881984535E+03  0.52182884162E+03  0.50400001928E-02 0. -1.
       -1    1    3    3    0  502  0.55957698943E+02 -0.20955160075E+00 -0.15342823345E+04  0.15353024425E+04  0.50400001928E-02 0.  1.
</event>
<event>
 5   0  0.1835421E-04  0.1797746E+04  0.7818609E-02  0.8707499E-01
        1   -1    0    0  501    0  0.00000000000E+00  0.00000000000E+00  0.88179849091E+03  0.88179849092E+03  0.50400001928E-02 0. -1.
       -1   -1    0    0    0  501  0.00000000000E+00  0.00000000000E+00 -0.91627828163E+03  0.91627828165E+03  0.50400001928E-02 0.  1.
    10030    2    1    2    0    0  0.00000000000E+00  0.00000000000E+00 -0.34479790727E+02  0.17980767726E+04  0.17977461512E+04 0.  0.
        2    1    3    3  502    0  0.63524720090E+03 -0.45281540746E+03  0.42937554681E+03  0.89047412072E+03  0.25500000920E-02 0. -1.
       -2    1    3    3    0  502 -0.63524720090E+03  0.45281540746E+03 -0.46385533753E+03  0.90760265185E+03  0.25500000920E-02 0.  1.
</event>
<event>
 5   0  0.3582186E-04  0.1730671E+04  0.7818609E-02  0.8744062E-01
        2   -1    0    0  501    0  0.00000000000E+00  0.00000000000E+00  0.89039618391E+03  0.89039618391E+03  0.25500000920E-02 0.  1.
       -2   -1    0    0    0  501  0.00000000000E+00  0.00000000000E+00 -0.84098055802E+03  0.84098055802E+03  0.25500000920E-02 0. -1.
    10030    2    1    2    0    0  0.00000000000E+00  0.00000000000E+00  0.49415625890E+02  0.17313767419E+04  0.17306714068E+04 0.  0.
        4    1    3    3  502    0 -0.68131463571E+03 -0.47579742539E+03 -0.21670245606E+03  0.85879822438E+03  0.12699999809E+01 0. -1.
       -4    1    3    3    0  502  0.68131463571E+03  0.47579742539E+03  0.26611808195E+03  0.87257851755E+03  0.12699999809E+01 0.  1.
</event>
<event>
 5   0  0.3582186E-04  0.1722331E+04  0.7818609E-02  0.8748729E-01
        2   -1    0    0  501    0  0.00000000000E+00  0.00000000000E+00  0.20316772338E+04  0.20316772338E+04  0.25500000920E-02 0.  1.
       -2   -1    0    0    0  501  0.00000000000E+00  0.00000000000E+00 -0.36502172191E+03  0.36502172192E+03  0.25500000920E-02 0. -1.
    10030    2    1    2    0    0  0.00000000000E+00  0.00000000000E+00  0.16666555119E+04  0.23966989558E+04  0.17223313529E+04 0.  0.
        4    1    3    3  502    0  0.80755695710E+03 -0.29452710635E+03  0.90577164873E+03  0.12487266906E+04  0.12699999809E+01 0.  1.
       -4    1    3    3    0  502 -0.80755695710E+03  0.29452710635E+03  0.76088386320E+03  0.11479722651E+04  0.12699999809E+01 0. -1.
</event>
<event>
 5   0  0.3628581E-04  0.1830404E+04  0.7818609E-02  0.8690296E-01
        2   -1    0    0  501    0  0.00000000000E+00  0.00000000000E+00  0.25829639411E+04  0.25829639411E+04  0.25500000920E-02 0. -1.
       -2   -1    0    0    0  501  0.00000000000E+00  0.00000000000E+00 -0.32427656869E+03  0.32427656870E+03  0.25500000920E-02 0.  1.
    10030    2    1    2    0    0  0.00000000000E+00  0.00000000000E+00  0.22586873724E+04  0.29072405098E+04  0.18304039815E+04 0.  0.
        2    1    3    3  502    0  0.43813393919E+02  0.91413322235E+03  0.11388100634E+04  0.14609748534E+04  0.25500000920E-02 0. -1.
       -2    1    3    3    0  502 -0.43813393919E+02 -0.91413322235E+03  0.11198773090E+04  0.14462656564E+04  0.25500000920E-02 0.  1.
</event>
<event>
 5   0  0.3568870E-04  0.1795043E+04  0.7818609E-02  0.8708940E-01
       -2   -1    0    0    0  501  0.00000000000E+00  0.00000000000E+00  0.52788413215E+03  0.52788413216E+03  0.25500000920E-02 0. -1.
        2   -1    0    0  501    0  0.00000000000E+00  0.00000000000E+00 -0.15259878805E+04  0.15259878805E+04  0.25500000920E-02 0.  1.
    10030    2    1    2    0    0  0.00000000000E+00  0.00000000000E+00 -0.99810374834E+03  0.20538720127E+04  0.17950429387E+04 0.  0.
        1    1    3    3  502    0 -0.98755652252E+01  0.54080142971E+03  0.32044859563E+03  0.62868992009E+03  0.50400001928E-02 0. -1.
       -1    1    3    3    0  502  0.98755652252E+01 -0.54080142971E+03 -0.13185523440E+04  0.14251820926E+04  0.50400001928E-02 0.  1.
</event>
<event>
 5   0  0.3582186E-04  0.1692996E+04  0.7818609E-02  0.8765369E-01
       -2   -1    0    0    0  501  0.00000000000E+00  0.00000000000E+00  0.40686873000E+03  0.40686873000E+03  0.25500000920E-02 0. -1.
        2   -1    0    0  501    0  0.00000000000E+00  0.00000000000E+00 -0.17611551013E+04  0.17611551013E+04  0.25500000920E-02 0.  1.
    10030    2    1    2    0    0  0.00000000000E+00  0.00000000000E+00 -0.13542863713E+04  0.21680238313E+04  0.16929960891E+04 0.  0.
        4    1    3    3  502    0  0.97331956051E+02 -0.50572090040E+03  0.18316744273E+03  0.54660686397E+03  0.12699999809E+01 0.  1.
       -4    1    3    3    0  502 -0.97331956051E+02  0.50572090040E+03 -0.15374538140E+04  0.16214169673E+04  0.12699999809E+01 0. -1.
</event>
<event>
 5   0  0.3531266E-04  0.1792608E+04  0.7818609E-02  0.8710240E-01
       -2   -1    0    0    0  501  0.00000000000E+00  0.00000000000E+00  0.63557075957E+03  0.63557075957E+03  0.25500000920E-02 0.  1.
        2   -1    0    0  501    0  0.00000000000E+00  0.00000000000E+00 -0.12639996072E+04  0.12639996072E+04  0.25500000920E-02 0. -1.
    10030    2    1    2    0    0  0.00000000000E+00  0.00000000000E+00 -0.62842884759E+03  0.18995703667E+04  0.17926083682E+04 0.  0.
        3    1    3    3  502    0 -0.87152453308E+03 -0.17602381752E+03 -0.19422466046E+03  0.91008935003E+03  0.10100000352E+00 0. -1.
       -3    1    3    3    0  502  0.87152453308E+03  0.17602381752E+03 -0.43420418713E+03  0.98948101671E+03  0.10100000352E+00 0.  1.
</event>
<event>
 5   0  0.1837313E-04  0.1804328E+04  0.7818609E-02  0.8704001E-01
       -1   -1    0    0    0  501  0.00000000000E+00  0.00000000000E+00  0.97083089947E+03  0.97083089949E+03  0.50400001928E-02 0.  1.
        1   -1    0    0  501    0  0.00000000000E+00  0.00000000000E+00 -0.83835374000E+03  0.83835374002E+03  0.50400001928E-02 0. -1.
    10030    2    1    2    0    0  0.00000000000E+00  0.00000000000E+00  0.13247715947E+03  0.18091846395E+04  0.18043278145E+04 0.  0.
        1    1    3    3  502    0 -0.74819448915E+02 -0.72032782175E+03  0.60567332491E+03  0.94409231395E+03  0.50400001928E-02 0.  1.
       -1    1    3    3    0  502  0.74819448915E+02  0.72032782175E+03 -0.47319616544E+03  0.86509232556E+03  0.50400001928E-02 0. -1.
</event>
<event>
 5   0  0.1837313E-04  0.1805002E+04  0.7818609E-02  0.8703644E-01
        1   -1    0    0  501    0  0.00000000000E+00  0.00000000000E+00  0.62852044127E+03  0.62852044129E+03  0.50400001928E-02 0.  1.
       -1   -1    0    0    0  501  0.00000000000E+00  0.00000000000E+00 -0.12959140322E+04  0.12959140322E+04  0.50400001928E-02 0. -1.
    10030    2    1    2    0    0  0.00000000000E+00  0.00000000000E+00 -0.66739359096E+03  0.19244344735E+04  0.18050024481E+04 0.  0.
        1    1    3    3  502    0  0.34905218146E+03 -0.75370205782E+03  0.42653053995E+02  0.83169916460E+03  0.50400001928E-02 0.  1.
       -1    1    3    3    0  502 -0.34905218146E+03  0.75370205782E+03 -0.71004664496E+03  0.10927353089E+04  0.50400001928E-02 0. -1.
</event>
<event>
 5   0  0.1825253E-04  0.1788260E+04  0.7818609E-02  0.8712568E-01
       -1   -1    0    0    0  501  0.00000000000E+00  0.00000000000E+00  0.73901216136E+03  0.73901216138E+03  0.50400001928E-02 0.  1.
        1   -1    0    0  501    0  0.00000000000E+00  0.00000000000E+00 -0.10818067321E+04  0.10818067321E+04  0.50400001928E-02 0. -1.
    10030    2    1    2    0    0  0.00000000000E+00  0.00000000000E+00 -0.34279457073E+03  0.18208188935E+04  0.17882598595E+04 0.  0.
        4    1    3    3  502    0 -0.28504498072E+03 -0.84245332476E+03 -0.77586902748E+02  0.89274833285E+03  0.12699999809E+01 0.  1.
       -4    1    3    3    0  502  0.28504498072E+03  0.84245332476E+03 -0.26520766798E+03  0.92807056062E+03  0.12699999809E+01 0. -1.
</event>
<event>
 5   0  0.1837313E-04  0.1830577E+04  0.7818609E-02  0.8690206E-01
       -1   -1    0    0    0  501  0.00000000000E+00  0.00000000000E+00  0.12452324585E+04  0.12452324585E+04  0.50400001928E-02 0. -1.
        1   -1    0    0  501    0  0.00000000000E+00  0.00000000000E+00 -0.67276815345E+03  0.67276815347E+03  0.50400001928E-02 0.  1.
    10030    2    1    2    0    0  0.00000000000E+00  0.00000000000E+00  0.57246430501E+03  0.19180006119E+04  0.18305766761E+04 0.  0.
        1    1    3    3  502    0 -0.18872227167E+03  0.59608687442E+03 -0.41413489115E+03  0.74996224290E+03  0.50400001928E-02 0.  1.
       -1    1    3    3    0  502  0.18872227167E+03 -0.59608687442E+03  0.98659919616E+03  0.11680383691E+04  0.50400001928E-02 0. -1.
</event>
<event>
 5   0  0.3568870E-04  0.1808361E+04  0.7818609E-02  0.8701866E-01
        2   -1    0    0  501    0  0.00000000000E+00  0.00000000000E+00  0.46397014117E+03  0.46397014118E+03  0.25500000920E-02 0. -1.
       -2   -1    0    0    0  501  0.00000000000E+00  0.00000000000E+00 -0.17620590353E+04  0.17620590353E+04  0.25500000920E-02 0.  1.
    10030    2    1    2    0    0  0.00000000000E+00  0.00000000000E+00 -0.12980888941E+04  0.22260291765E+04  0.18083614455E+04 0.  0.
        1    1    3    3  502    0  0.14566934251E+03  0.18965759748E+03 -0.17224239731E+04  0.17389462052E+04  0.50400001928E-02 0.  1.
       -1    1    3    3    0  502 -0.14566934251E+03 -0.18965759748E+03  0.42433507895E+03  0.48708297125E+03  0.50400001928E-02 0. -1.
</event>
<event>
 5   0  0.3582186E-04  0.1798839E+04  0.7818609E-02  0.8706917E-01
        2   -1    0    0  501    0  0.00000000000E+00  0.00000000000E+00  0.14171116660E+04  0.14171116660E+04  0.25500000920E-02 0.  1.
       -2   -1    0    0    0  501  0.00000000000E+00  0.00000000000E+00 -0.57084832460E+03  0.57084832461E+03  0.25500000920E-02 0. -1.
    10030    2    1    2    0    0  0.00000000000E+00  0.00000000000E+00  0.84626334139E+03  0.19879599906E+04  0.17988394262E+04 0.  0.
        4    1    3    3  502    0 -0.48379062186E+02 -0.45923738539E+03 -0.42983959174E+03  0.63087494587E+03  0.12699999809E+01 0. -1.
       -4    1    3    3    0  502  0.48379062186E+02  0.45923738539E+03  0.12761029331E+04  0.13570850447E+04  0.12699999809E+01 0.  1.
</event>
<event>
 5   0  0.3628581E-04  0.1793856E+04  0.7818609E-02  0.8709574E-01
        2   -1    0    0  501    0  0.00000000000E+00  0.00000000000E+00  0.65912440767E+03  0.65912440768E+03  0.25500000920E-02 0.  1.
       -2   -1    0    0    0  501  0.00000000000E+00  0.00000000000E+00 -0.12205274718E+04  0.12205274718E+04  0.25500000920E-02 0. -1.
    10030    2    1    2    0    0  0.00000000000E+00  0.00000000000E+00 -0.56140306416E+03  0.18796518795E+04  0.17938555649E+04 0.  0.
        2    1    3    3  502    0  0.51596284725E+03  0.49953220830E+03 -0.84373657414E+03  0.11079898436E+04  0.25500000920E-02 0. -1.
       -2    1    3    3    0  502 -0.51596284725E+03 -0.49953220830E+03  0.28233350998E+03  0.77166203596E+03  0.25500000920E-02 0.  1.
</event>
<event>
 5   0  0.1883959E-04  0.1818561E+04  0.7818609E-02  0.8696491E-01
        1   -1    0    0  501    0  0.00000000000E+00  0.00000000000E+00  0.11563978104E+04  0.11563978104E+04  0.50400001928E-02 0.  1.
       -1   -1    0    0    0  501  0.00000000000E+00  0.00000000000E+00 -0.71497137278E+03  0.71497137280E+03  0.50400001928E-02 0. -1.
    10030    2    1    2    0    0  0.00000000000E+00  0.00000000000E+00  0.44142643760E+03  0.18713691832E+04  0.18185613325E+04 0.  0.
        5    1    3    3  502    0 -0.21916330007E+03  0.85332810358E+03  0.45211606869E+03  0.99026886956E+03  0.46999998093E+01 0.  1.
       -5    1    3    3    0  502  0.21916330007E+03 -0.85332810358E+03 -0.10689631092E+02  0.88110031362E+03  0.46999998093E+01 0. -1.
</event>
<event>
 5   0  0.1818778E-04  0.1803296E+04  0.7818609E-02  0.8704548E-01
        1   -1    0    0  501    0  0.00000000000E+00  0.00000000000E+00  0.97271948394E+03  0.97271948395E+03  0.50400001928E-02 0.  1.
       -1   -1    0    0    0  501  0.00000000000E+00  0.00000000000E+00 -0.83576965395E+03  0.83576965397E+03  0.50400001928E-02 0. -1.
    10030    2    1    2    0    0  0.00000000000E+00  0.00000000000E+00  0.13694982998E+03  0.18084891379E+04  0.18032963445E+04 0.  0.
        3    1    3    3  502    0 -0.52974382152E+03 -0.69454940658E+03  0.29259555901E+03  0.92121635134E+03  0.10100000352E+00 0.  1.
       -3    1    3    3    0  502  0.52974382152E+03  0.69454940658E+03 -0.15564572903E+03  0.88727278657E+03  0.10100000352E+00 0. -1.
</event>
<event>
 5   0  0.3568870E-04  0.1772168E+04  0.7818609E-02  0.8721242E-01
        2   -1    0    0  501    0  0.00000000000E+00  0.00000000000E+00  0.71144248815E+03  0.71144248815E+03  0.25500000920E-02 0. -1.
       -2   -1    0    0    0  501  0.00000000000E+00  0.00000000000E+00 -0.11035962932E+04  0.11035962932E+04  0.25500000920E-02 0.  1.
    10030    2    1    2    0    0  0.00000000000E+00  0.00000000000E+00 -0.39215380508E+03  0.18150387814E+04  0.17721684940E+04 0.  0.
        1    1    3    3  502    0 -0.46214721148E+03 -0.75595868357E+03 -0.18626836171E+03  0.90540017613E+03  0.50400001928E-02 0. -1.
       -1    1    3    3    0  502  0.46214721148E+03  0.75595868357E+03 -0.20588544336E+03  0.90963860525E+03  0.50400001928E-02 0.  1.
</event>
<event>
 5   0  0.1825253E-04  0.1785297E+04  0.7818609E-02  0.8714157E-01
       -1   -1    0    0    0  501  0.00000000000E+00  0.00000000000E+00  0.74411966731E+03  0.74411966733E+03  0.50400001928E-02 0.  1.
        1   -1    0    0  501    0  0.00000000000E+00  0.00000000000E+00 -0.10708245790E+04  0.10708245790E+04  0.50400001928E-02 0. -1.
    10030    2    1    2    0    0  0.00000000000E+00  0.00000000000E+00 -0.32670491169E+03  0.18149442463E+04  0.17852973192E+04 0.  0.
        4    1    3    3  502    0  0.10414234475E+03 -0.21502735796E+03  0.71101017783E+03  0.75007964812E+03  0.12699999809E+01 0.  1.
       -4    1    3    3    0  502 -0.10414234475E+03  0.21502735796E+03 -0.10377150895E+04  0.10648645982E+04  0.12699999809E+01 0. -1.
</event>
<event>
 5   0  0.1818778E-04  0.1491284E+04  0.7818609E-02  0.8890270E-01
       -1   -1    0    0    0  501  0.00000000000E+00  0.00000000000E+00  0.11288500720E+04  0.11288500720E+04  0.50400001928E-02 0. -1.
        1   -1    0    0  501    0  0.00000000000E+00  0.00000000000E+00 -0.49252037738E+03  0.49252037741E+03  0.50400001928E-02 0.  1.
    10030    2    1    2    0    0  0.00000000000E+00  0.00000000000E+00  0.63632969458E+03  0.16213704494E+04  0.14912835592E+04 0.  0.
        3    1    3    3  502    0  0.66250057580E+03  0.25696638828E+03  0.72530123376E+02  0.71428241378E+03  0.10100000352E+00 0.  1.
       -3    1    3    3    0  502 -0.66250057580E+03 -0.25696638828E+03  0.56379957120E+03  0.90708803560E+03  0.10100000352E+00 0. -1.
</event>
<event>
 5   0  0.1837313E-04  0.1395037E+04  0.7818609E-02  0.8957419E-01
       -1   -1    0    0    0  501  0.00000000000E+00  0.00000000000E+00  0.10603661518E+04  0.10603661518E+04  0.50400001928E-02 0. -1.
        1   -1    0    0  501    0  0.00000000000E+00  0.00000000000E+00 -0.45883394278E+03  0.45883394281E+03  0.50400001928E-02 0.  1.
    10030    2    1    2    0    0  0.00000000000E+00  0.00000000000E+00  0.60153220904E+03  0.15192000946E+04  0.13950368916E+04 0.  0.
        1    1    3    3  502    0  0.39433203398E+03  0.17931847265E+03 -0.29459035515E+03  0.52386672449E+03  0.50400001928E-02 0.  1.
       -1    1    3    3    0  502 -0.39433203398E+03 -0.17931847265E+03  0.89612256419E+03  0.99533337015E+03  0.50400001928E-02 0. -1.
</event>
<event>
 5   0  0.1883959E-04  0.2022172E+04  0.7818609E-02  0.8596324E-01
       -1   -1    0    0    0  501  0.00000000000E+00  0.00000000000E+00  0.12208962974E+04  0.12208962974E+04  0.50400001928E-02 0.  1.
        1   -1    0    0  501    0  0.00000000000E+00  0.00000000000E+00 -0.83733165199E+03  0.83733165201E+03  0.50400001928E-02 0. -1.
    10030    2    1    2    0    0  0.00000000000E+00  0.00000000000E+00  0.38356464544E+03  0.20582279494E+04  0.20221722119E+04 0.  0.
        5    1    3    3  502    0 -0.18931506763E+03  0.10132791823E+03  0.11974096267E+04  0.12165193981E+04  0.46999998093E+01 0.  1.
       -5    1    3    3    0  502  0.18931506763E+03 -0.10132791823E+03 -0.81384498128E+03  0.84170855134E+03  0.46999998093E+01 0. -1.
</event>
<event>
 5   0  0.1818778E-04  0.1819103E+04  0.7818609E-02  0.8696206E-01
        1   -1    0    0  501    0  0.00000000000E+00  0.00000000000E+00  0.70638353338E+03  0.70638353339E+03  0.50400001928E-02 0.  1.
       -1   -1    0    0    0  501  0.00000000000E+00  0.00000000000E+00 -0.11711543102E+04  0.11711543102E+04  0.50400001928E-02 0. -1.
    10030    2    1    2    0    0  0.00000000000E+00  0.00000000000E+00 -0.46477077680E+03  0.18775378436E+04  0.18191032074E+04 0.  0.
        3    1    3    3  502    0 -0.11209605182E+03  0.65182380454E+03 -0.87681718582E+03  0.10982933053E+04  0.10100000352E+00 0. -1.
       -3    1    3    3    0  502  0.11209605182E+03 -0.65182380454E+03  0.41204640902E+03  0.77924453824E+03  0.10100000352E+00 0.  1.
</event>
<event>
 5   0  0.3582186E-04  0.1757766E+04  0.7818609E-02  0.8729087E-01
       -2   -1    0    0    0  501  0.00000000000E+00  0.00000000000E+00  0.36349628778E+03  0.36349628778E+03  0.25500000920E-02 0. -1.
        2   -1    0    0  501    0  0.00000000000E+00  0.00000000000E+00 -0.21250169182E+04  0.21250169182E+04  0.25500000920E-02 0.  1.
    10030    2    1    2    0    0  0.00000000000E+00  0.00000000000E+00 -0.17615206304E+04  0.24885132060E+04  0.17577664933E+04 0.  0.
        4    1    3    3  502    0  0.45908113417E+03 -0.69411243727E+03 -0.48061687993E+03  0.96101080197E+03  0.12699999809E+01 0. -1.
       -4    1    3    3    0  502 -0.45908113417E+03  0.69411243727E+03 -0.12809037505E+04  0.15275024040E+04  0.12699999809E+01 0.  1.
</event>
<event>
 5   0  0.3568870E-04  0.1794207E+04  0.7818609E-02  0.8709386E-01
       -2   -1    0    0    0  501  0.00000000000E+00  0.00000000000E+00  0.97459067841E+03  0.97459067841E+03  0.25500000920E-02 0. -1.
        2   -1    0    0  501    0  0.00000000000E+00  0.00000000000E+00 -0.82577686226E+03  0.82577686227E+03  0.25500000920E-02 0.  1.
    10030    2    1    2    0    0  0.00000000000E+00  0.00000000000E+00  0.14881381615E+03  0.18003675407E+04  0.17942067132E+04 0.  0.
        1    1    3    3  502    0 -0.10862423684E+03 -0.88593912922E+03 -0.15941514542E+02  0.89271579880E+03  0.50400001928E-02 0. -1.
       -1    1    3    3    0  502  0.10862423684E+03  0.88593912922E+03  0.16475533069E+03  0.90765174188E+03  0.50400001928E-02 0.  1.
</event>
<event>
 5   0  0.1825253E-04  0.2054944E+04  0.7818609E-02  0.8581355E-01
        1   -1    0    0  501    0  0.00000000000E+00  0.00000000000E+00  0.16421319728E+04  0.16421319728E+04  0.50400001928E-02 0. -1.
       -1   -1    0    0    0  501  0.00000000000E+00  0.00000000000E+00 -0.64288323569E+03  0.64288323571E+03  0.50400001928E-02 0.  1.
    10030    2    1    2    0    0  0.00000000000E+00  0.00000000000E+00  0.99924873715E+03  0.22850152086E+04  0.20549443945E+04 0.  0.
        4    1    3    3  502    0  0.15958630403E+03 -0.16262769440E+03 -0.61443596374E+03  0.65532337198E+03  0.12699999809E+01 0.  1.
       -4    1    3    3    0  502 -0.15958630403E+03  0.16262769440E+03  0.16136847009E+04  0.16296918366E+04  0.12699999809E+01 0. -1.
</event>
<event>
 5   0  0.3575091E-04  0.1802377E+04  0.7818609E-02  0.8705037E-01
       -2   -1    0    0    0  501  0.00000000000E+00  0.00000000000E+00  0.33596900955E+03  0.33596900956E+03  0.25500000920E-02 0. -1.
        2   -1    0    0  501    0  0.00000000000E+00  0.00000000000E+00 -0.24173078689E+04  0.24173078689E+04  0.25500000920E-02 0.  1.
    10030    2    1    2    0    0  0.00000000000E+00  0.00000000000E+00 -0.20813388594E+04  0.27532768785E+04  0.18023767980E+04 0.  0.
        5    1    3    3  502    0  0.37272371957E+03  0.17580541120E+03  0.18357793789E+03  0.45116899607E+03  0.46999998093E+01 0. -1.
       -5    1    3    3    0  502 -0.37272371957E+03 -0.17580541120E+03 -0.22649167973E+04  0.23021078824E+04  0.46999998093E+01 0.  1.
</event>
<event>
 5   0  0.1825253E-04  0.1805460E+04  0.7818609E-02  0.8703401E-01
       -1   -1    0    0    0  501  0.00000000000E+00  0.00000000000E+00  0.22182374354E+04  0.22182374354E+04  0.50400001928E-02 0. -1.
        1   -1    0    0  501    0  0.00000000000E+00  0.00000000000E+00 -0.36737325559E+03  0.36737325563E+03  0.50400001928E-02 0.  1.
    10030    2    1    2    0    0  0.00000000000E+00  0.00000000000E+00  0.18508641798E+04  0.25856106910E+04  0.18054596183E+04 0.  0.
        4    1    3    3  502    0 -0.80949782192E+03  0.91103988764E+01  0.35339597278E+03  0.88332329842E+03  0.12699999809E+01 0.  1.
       -4    1    3    3    0  502  0.80949782192E+03 -0.91103988764E+01  0.14974682070E+04  0.17022873926E+04  0.12699999809E+01 0. -1.
</event>
<event>
 5   0  0.1837313E-04  0.1855562E+04  0.7818609E-02  0.8677298E-01
        1   -1    0    0  501    0  0.00000000000E+00  0.00000000000E+00  0.10601998030E+04  0.10601998030E+04  0.50400001928E-02 0. -1.
       -1   -1    0    0    0  501  0.00000000000E+00  0.00000000000E+00 -0.81190161100E+03  0.81190161102E+03  0.50400001928E-02 0.  1.
    10030    2    1    2    0    0  0.00000000000E+00  0.00000000000E+00  0.24829819196E+03  0.18721014140E+04  0.18555623709E+04 0.  0.
        1    1    3    3  502    0  0.28868496061E+03  0.16615008907E+03 -0.74949814440E+03  0.82017822884E+03  0.50400001928E-02 0.  1.
       -1    1    3    3    0  502 -0.28868496061E+03 -0.16615008907E+03  0.99779633636E+03  0.10519231852E+04  0.50400001928E-02 0. -1.
</event>
<event>
 5   0  0.1837313E-04  0.1795193E+04  0.7818609E-02  0.8708860E-01
        1   -1    0    0  501    0  0.00000000000E+00  0.00000000000E+00  0.11940899815E+04  0.11940899815E+04  0.50400001928E-02 0.  1.
       -1   -1    0    0    0  501  0.00000000000E+00  0.00000000000E+00 -0.67472275519E+03  0.67472275521E+03  0.50400001928E-02 0. -1.
    10030    2    1    2    0    0  0.00000000000E+00  0.00000000000E+00  0.51936722634E+03  0.18688127367E+04  0.17951932289E+04 0.  0.
        1    1    3    3  502    0 -0.55480387185E+03  0.69887435863E+03  0.36086508929E+03  0.96252600903E+03  0.50400001928E-02 0. -1.
       -1    1    3    3    0  502  0.55480387185E+03 -0.69887435863E+03  0.15850213705E+03  0.90628672772E+03  0.50400001928E-02 0.  1.
</event>
<event>
 5   0  0.1818778E-04  0.1695866E+04  0.7818609E-02  0.8763726E-01
       -1   -1    0    0    0  501  0.00000000000E+00  0.00000000000E+00  0.67014489286E+03  0.67014489288E+03  0.50400001928E-02 0. -1.
        1   -1    0    0  501    0  0.00000000000E+00  0.00000000000E+00 -0.10728879689E+04  0.10728879689E+04  0.50400001928E-02 0.  1.
    10030    2    1    2    0    0  0.00000000000E+00  0.00000000000E+00 -0.40274307600E+03  0.17430328618E+04  0.16958660242E+04 0.  0.
        3    1    3    3  502    0 -0.19073777973E+03  0.17414166692E+03  0.62873235851E+03  0.67971362324E+03  0.10100000352E+00 0. -1.
       -3    1    3    3    0  502  0.19073777973E+03 -0.17414166692E+03 -0.10314754345E+04  0.10633192385E+04  0.10100000352E+00 0.  1.
</event>
<event>
 5   0  0.3575091E-04  0.1790242E+04  0.7818609E-02  0.8711506E-01
       -2   -1    0    0    0  501  0.00000000000E+00  0.00000000000E+00  0.45637305058E+03  0.45637305058E+03  0.25500000920E-02 0.  1.
        2   -1    0    0  501    0  0.00000000000E+00  0.00000000000E+00 -0.17556726815E+04  0.17556726815E+04  0.25500000920E-02 0. -1.
    10030    2    1    2    0    0  0.00000000000E+00  0.00000000000E+00 -0.12992996309E+04  0.22120457321E+04  0.17902421037E+04 0.  0.
        5    1    3    3  502    0 -0.54992050306E+02  0.47442758325E+03  0.28576194204E+03  0.55658569408E+03  0.46999998093E+01 0.  1.
       -5    1    3    3    0  502  0.54992050306E+02 -0.47442758325E+03 -0.15850615730E+04  0.16554600380E+04  0.46999998093E+01 0. -1.
</event>
<event>
 5   0  0.3568870E-04  0.1792533E+04  0.7818609E-02  0.8710281E-01
        2   -1    0    0  501    0  0.00000000000E+00  0.00000000000E+00  0.14412679009E+04  0.14412679009E+04  0.25500000920E-02 0. -1.
       -2   -1    0    0    0  501  0.00000000000E+00  0.00000000000E+00 -0.55735178282E+03  0.55735178283E+03  0.25500000920E-02 0.  1.
    10030    2    1    2    0    0  0.00000000000E+00  0.00000000000E+00  0.88391611804E+03  0.19986196837E+04  0.17925325482E+04 0.  0.
        1    1    3    3  502    0  0.67476323872E+03 -0.75704120561E+02 -0.21032948332E+03  0.71082700693E+03  0.50400001928E-02 0.  1.
       -1    1    3    3    0  502 -0.67476323872E+03  0.75704120561E+02  0.10942456014E+04  0.12877926768E+04  0.50400001928E-02 0. -1.
</event>
<event>
 5   0  0.1825253E-04  0.1756369E+04  0.7818609E-02  0.8729852E-01
        1   -1    0    0  501    0  0.00000000000E+00  0.00000000000E+00  0.16098559483E+04  0.16098559483E+04  0.50400001928E-02 0. -1.
       -1   -1    0    0    0  501  0.00000000000E+00  0.00000000000E+00 -0.47905396743E+03  0.47905396746E+03  0.50400001928E-02 0.  1.
    10030    2    1    2    0    0  0.00000000000E+00  0.00000000000E+00  0.11308019809E+04  0.20889099158E+04  0.17563688440E+04 0.  0.
        4    1    3    3  502    0  0.54708867478E+03 -0.31928568840E+03  0.12888027338E+04  0.14360583096E+04  0.12699999809E+01 0.  1.
       -4    1    3    3    0  502 -0.54708867478E+03  0.31928568840E+03 -0.15800075294E+03  0.65285160620E+03  0.12699999809E+01 0. -1.
</event>
<event>
 5   0  0.1818778E-04  0.1765331E+04  0.7818609E-02  0.8724956E-01
       -1   -1    0    0    0  501  0.00000000000E+00  0.00000000000E+00  0.74413903209E+03  0.74413903210E+03  0.50400001928E-02 0.  1.
        1   -1    0    0  501    0  0.00000000000E+00  0.00000000000E+00 -0.10469797133E+04  0.10469797133E+04  0.50400001928E-02 0. -1.
    10030    2    1    2    0    0  0.00000000000E+00  0.00000000000E+00 -0.30284068119E+03  0.17911187454E+04  0.17653310970E+04 0.  0.
        3    1    3    3  502    0  0.33067042023E+03 -0.81544669002E+03 -0.22173075369E+03  0.90744739154E+03  0.10100000352E+00 0. -1.
       -3    1    3    3    0  502 -0.33067042023E+03  0.81544669002E+03 -0.81109927496E+02  0.88367135385E+03  0.10100000352E+00 0.  1.
</event>
<event>
 5   0  0.3575091E-04  0.1851947E+04  0.7818609E-02  0.8679152E-01
       -2   -1    0    0    0  501  0.00000000000E+00  0.00000000000E+00  0.59530861480E+03  0.59530861480E+03  0.25500000920E-02 0.  1.
        2   -1    0    0  501    0  0.00000000000E+00  0.00000000000E+00 -0.14403064778E+04  0.14403064778E+04  0.25500000920E-02 0. -1.
    10030    2    1    2    0    0  0.00000000000E+00  0.00000000000E+00 -0.84499786305E+03  0.20356150926E+04  0.18519469260E+04 0.  0.
        5    1    3    3  502    0 -0.55551551785E+03 -0.44490095277E+03  0.22859028374E+03  0.74753592300E+03  0.46999998093E+01 0.  1.
       -5    1    3    3    0  502  0.55551551785E+03  0.44490095277E+03 -0.10735881468E+04  0.12880791697E+04  0.46999998093E+01 0. -1.
</event>
<event>
 5   0  0.1818778E-04  0.1805439E+04  0.7818609E-02  0.8703412E-01
       -1   -1    0    0    0  501  0.00000000000E+00  0.00000000000E+00  0.13375167516E+04  0.13375167517E+04  0.50400001928E-02 0. -1.
        1   -1    0    0  501    0  0.00000000000E+00  0.00000000000E+00 -0.60926526836E+03  0.60926526838E+03  0.50400001928E-02 0.  1.
    10030    2    1    2    0    0  0.00000000000E+00  0.00000000000E+00  0.72825148329E+03  0.19467820200E+04  0.18054390077E+04 0.  0.
        3    1    3    3  502    0  0.75619726400E+03 -0.41610862479E+03  0.78997120691E+02  0.86673020311E+03  0.10100000352E+00 0.  1.
       -3    1    3    3    0  502 -0.75619726400E+03  0.41610862479E+03  0.64925436260E+03  0.10800518169E+04  0.10100000352E+00 0. -1.
</event>
<event>
 5   0  0.1837313E-04  0.1961139E+04  0.7818609E-02  0.8625008E-01
       -1   -1    0    0    0  501  0.00000000000E+00  0.00000000000E+00  0.46113297697E+03  0.46113297700E+03  0.50400001928E-02 0.  1.
        1   -1    0    0  501    0  0.00000000000E+00  0.00000000000E+00 -0.20851180759E+04  0.20851180760E+04  0.50400001928E-02 0. -1.
    10030    2    1    2    0    0  0.00000000000E+00  0.00000000000E+00 -0.16239850990E+04  0.25462510530E+04  0.19611391646E+04 0.  0.
        1    1    3    3  502    0 -0.99378451850E+02 -0.58400133674E+03 -0.18265232347E+04  0.19201876900E+04  0.50400001928E-02 0. -1.
       -1    1    3    3    0  502  0.99378451850E+02  0.58400133674E+03  0.20253813568E+03  0.62606336296E+03  0.50400001928E-02 0.  1.
</event>
<event>
 5   0  0.3582186E-04  0.1728655E+04  0.7818609E-02  0.8745188E-01
       -2   -1    0    0    0  501  0.00000000000E+00  0.00000000000E+00  0.26026156147E+04  0.26026156147E+04  0.25500000920E-02 0. -1.
        2   -1    0    0  501    0  0.00000000000E+00  0.00000000000E+00 -0.28704291790E+03  0.28704291791E+03  0.25500000920E-02 0.  1.
    10030    2    1    2    0    0  0.00000000000E+00  0.00000000000E+00  0.23155726968E+04  0.28896585326E+04  0.17286554084E+04 0.  0.
        4    1    3    3  502    0  0.28248925296E+03 -0.14864730605E+03 -0.18489621944E+03  0.36889622456E+03  0.12699999809E+01 0.  1.
       -4    1    3    3    0  502 -0.28248925296E+03  0.14864730605E+03  0.25004689163E+04  0.25207623081E+04  0.12699999809E+01 0. -1.
</event>
<event>
 5   0  0.3628581E-04  0.1810103E+04  0.7818609E-02  0.8700945E-01
       -2   -1    0    0    0  501  0.00000000000E+00  0.00000000000E+00  0.11691359125E+04  0.11691359125E+04  0.25500000920E-02 0.  1.
        2   -1    0    0  501    0  0.00000000000E+00  0.00000000000E+00 -0.70061810781E+03  0.70061810782E+03  0.25500000920E-02 0. -1.
    10030    2    1    2    0    0  0.00000000000E+00  0.00000000000E+00  0.46851780466E+03  0.18697540203E+04  0.18101025283E+04 0.  0.
        2    1    3    3  502    0  0.47501527736E+03  0.31104325224E+03 -0.49375832860E+03  0.75245246067E+03  0.25500000920E-02 0. -1.
       -2    1    3    3    0  502 -0.47501527736E+03 -0.31104325224E+03  0.96227613326E+03  0.11173015596E+04  0.25500000920E-02 0.  1.
</event>
<event>
 5   0  0.1835421E-04  0.1793965E+04  0.7818609E-02  0.8709515E-01
       -1   -1    0    0    0  501  0.00000000000E+00  0.00000000000E+00  0.18253429437E+04  0.18253429437E+04  0.50400001928E-02 0. -1.
        1   -1    0    0  501    0  0.00000000000E+00  0.00000000000E+00 -0.44078166934E+03  0.44078166937E+03  0.50400001928E-02 0.  1.
    10030    2    1    2    0    0  0.00000000000E+00  0.00000000000E+00  0.13845612743E+04  0.22661246131E+04  0.17939651166E+04 0.  0.
        2    1    3    3  502    0  0.35662256196E+03 -0.69480515661E+03  0.13497922985E+03  0.79256119628E+03  0.25500000920E-02 0.  1.
       -2    1    3    3    0  502 -0.35662256196E+03  0.69480515661E+03  0.12495820445E+04  0.14735634168E+04  0.25500000920E-02 0. -1.
</event>
<event>
 5   0  0.3628581E-04  0.1788775E+04  0.7818609E-02  0.8712292E-01
        2   -1    0    0  501    0  0.00000000000E+00  0.00000000000E+00  0.52082423251E+03  0.52082423251E+03  0.25500000920E-02 0. -1.
       -2   -1    0    0    0  501  0.00000000000E+00  0.00000000000E+00 -0.15358901320E+04  0.15358901320E+04  0.25500000920E-02 0.  1.
    10030    2    1    2    0    0  0.00000000000E+00  0.00000000000E+00 -0.10150658995E+04  0.20567143646E+04  0.17887747754E+04 0.  0.
        2    1    3    3  502    0 -0.51200656529E+02  0.83279001252E+03 -0.87791525009E+03  0.12111547789E+04  0.25500000920E-02 0.  1.
       -2    1    3    3    0  502  0.51200656529E+02 -0.83279001252E+03 -0.13715064944E+03  0.84555958562E+03  0.25500000920E-02 0. -1.
</event>
<event>
 5   0  0.1835421E-04  0.1839356E+04  0.7818609E-02  0.8685646E-01
       -1   -1    0    0    0  501  0.00000000000E+00  0.00000000000E+00  0.58096963234E+03  0.58096963236E+03  0.50400001928E-02 0. -1.
        1   -1    0    0  501    0  0.00000000000E+00  0.00000000000E+00 -0.14558553499E+04  0.14558553499E+04  0.50400001928E-02 0.  1.
    10030    2    1    2    0    0  0.00000000000E+00  0.00000000000E+00 -0.87488571755E+03  0.20368249823E+04  0.18393561345E+04 0.  0.
        2    1    3    3  502    0 -0.85208510944E+03 -0.12727125956E+03 -0.79379999554E+03  0.11714800212E+04  0.25500000920E-02 0. -1.
       -2    1    3    3    0  502  0.85208510944E+03  0.12727125956E+03 -0.81085722008E+02  0.86534496102E+03  0.25500000920E-02 0.  1.
</event>
<event>
 5   0  0.1330125E-04  0.1778948E+04  0.7818609E-02  0.8717575E-01
       -3   -1    0    0    0  501  0.00000000000E+00  0.00000000000E+00  0.64686535421E+03  0.64686536210E+03  0.10100000352E+00 0.  1.
        3   -1    0    0  501    0  0.00000000000E+00  0.00000000000E+00 -0.12230737539E+04  0.12230737581E+04  0.10100000352E+00 0. -1.
    10030    2    1    2    0    0  0.00000000000E+00  0.00000000000E+00 -0.57620839972E+03  0.18699391202E+04  0.17789480581E+04 0.  0.
        2    1    3    3  502    0  0.44113930375E+03  0.57828219595E+02 -0.10977044800E+04  0.11844421107E+04  0.25500000920E-02 0. -1.
       -2    1    3    3    0  502 -0.44113930375E+03 -0.57828219595E+02  0.52149608025E+03  0.68549700948E+03  0.25500000920E-02 0.  1.
</event>
<event>
 5   0  0.1837313E-04  0.1828981E+04  0.7818609E-02  0.8691038E-01
       -1   -1    0    0    0  501  0.00000000000E+00  0.00000000000E+00  0.10936206656E+04  0.10936206656E+04  0.50400001928E-02 0.  1.
        1   -1    0    0  501    0  0.00000000000E+00  0.00000000000E+00 -0.76470111141E+03  0.76470111143E+03  0.50400001928E-02 0. -1.
    10030    2    1    2    0    0  0.00000000000E+00  0.00000000000E+00  0.32891955423E+03  0.18583217771E+04  0.18289810699E+04 0.  0.
        1    1    3    3  502    0  0.54556970536E+03  0.69472927557E+03 -0.75975093824E+02  0.88660435633E+03  0.50400001928E-02 0. -1.
       -1    1    3    3    0  502 -0.54556970536E+03 -0.69472927557E+03  0.40489464805E+03  0.97171742075E+03  0.50400001928E-02 0.  1.
</event>
<event>
 5   0  0.3628581E-04  0.1751418E+04  0.7818609E-02  0.8732570E-01
        2   -1    0    0  501    0  0.00000000000E+00  0.00000000000E+00  0.18926435213E+04  0.18926435213E+04  0.25500000920E-02 0. -1.
       -2   -1    0    0    0  501  0.00000000000E+00  0.00000000000E+00 -0.40518277493E+03  0.40518277493E+03  0.25500000920E-02 0.  1.
    10030    2    1    2    0    0  0.00000000000E+00  0.00000000000E+00  0.14874607464E+04  0.22978262963E+04  0.17514183440E+04 0.  0.
        2    1    3    3  502    0  0.86719352427E+03 -0.85444901711E+02  0.85766219940E+03  0.12226650760E+04  0.25500000920E-02 0.  1.
       -2    1    3    3    0  502 -0.86719352427E+03  0.85444901711E+02  0.62979854699E+03  0.10751612203E+04  0.25500000920E-02 0. -1.
</event>
<event>
 5   0  0.3582186E-04  0.1757549E+04  0.7818609E-02  0.8729206E-01
        2   -1    0    0  501    0  0.00000000000E+00  0.00000000000E+00  0.50926262894E+03  0.50926262895E+03  0.25500000920E-02 0. -1.
       -2   -1    0    0    0  501  0.00000000000E+00  0.00000000000E+00 -0.15163983237E+04  0.15163983237E+04  0.25500000920E-02 0.  1.
    10030    2    1    2    0    0  0.00000000000E+00  0.00000000000E+00 -0.10071356948E+04  0.20256609527E+04  0.17575494268E+04 0.  0.
        4    1    3    3  502    0  0.47405883478E+03  0.67011918615E+03 -0.14193221174E+03  0.83302933208E+03  0.12699999809E+01 0. -1.
       -4    1    3    3    0  502 -0.47405883478E+03 -0.67011918615E+03 -0.86520348305E+03  0.11926316206E+04  0.12699999809E+01 0.  1.
</event>
<event>
 5   0  0.3568870E-04  0.1719712E+04  0.7818609E-02  0.8750201E-01
        2   -1    0    0  501    0  0.00000000000E+00  0.00000000000E+00  0.19112331117E+04  0.19112331117E+04  0.25500000920E-02 0. -1.
       -2   -1    0    0    0  501  0.00000000000E+00  0.00000000000E+00 -0.38684551179E+03  0.38684551180E+03  0.25500000920E-02 0.  1.
    10030    2    1    2    0    0  0.00000000000E+00  0.00000000000E+00  0.15243875999E+04  0.22980786235E+04  0.17197115470E+04 0.  0.
        1    1    3    3  502    0  0.84303921496E+03  0.16000012536E+03  0.83583432595E+03  0.11978873814E+04  0.50400001928E-02 0.  1.
       -1    1    3    3    0  502 -0.84303921496E+03 -0.16000012536E+03  0.68855327397E+03  0.11001912421E+04  0.50400001928E-02 0. -1.
</event>
<event>
 5   0  0.3568870E-04  0.1868898E+04  0.7818609E-02  0.8670495E-01
       -2   -1    0    0    0  501  0.00000000000E+00  0.00000000000E+00  0.15370060270E+04  0.15370060270E+04  0.25500000920E-02 0.  1.
        2   -1    0    0  501    0  0.00000000000E+00  0.00000000000E+00 -0.56811393562E+03  0.56811393562E+03  0.25500000920E-02 0. -1.
    10030    2    1    2    0    0  0.00000000000E+00  0.00000000000E+00  0.96889209138E+03  0.21051199626E+04  0.18688975821E+04 0.  0.
        1    1    3    3  502    0 -0.55685134431E+03  0.26149732899E+03  0.12767203839E+04  0.14172082456E+04  0.50400001928E-02 0.  1.
       -1    1    3    3    0  502  0.55685134431E+03 -0.26149732899E+03 -0.30782829251E+03  0.68791171702E+03  0.50400001928E-02 0. -1.
</event>
<event>
 5   0  0.1835421E-04  0.1792857E+04  0.7818609E-02  0.8710107E-01
       -1   -1    0    0    0  501  0.00000000000E+00  0.00000000000E+00  0.89011209822E+03  0.89011209823E+03  0.50400001928E-02 0. -1.
        1   -1    0    0  501    0  0.00000000000E+00  0.00000000000E+00 -0.90279022668E+03  0.90279022669E+03  0.50400001928E-02 0.  1.
    10030    2    1    2    0    0  0.00000000000E+00  0.00000000000E+00 -0.12678128461E+02  0.17929023249E+04  0.17928574990E+04 0.  0.
        2    1    3    3  502    0 -0.71798541314E+03 -0.75872503500E+02  0.52501668335E+03  0.89269379301E+03  0.25500000920E-02 0. -1.
       -2    1    3    3    0  502  0.71798541314E+03  0.75872503500E+02 -0.53769481181E+03  0.90020853191E+03  0.25500000920E-02 0.  1.
</event>
<event>
 5   0  0.3575091E-04  0.1810576E+04  0.7818609E-02  0.8700696E-01
       -2   -1    0    0    0  501  0.00000000000E+00  0.00000000000E+00  0.82049459400E+03  0.82049459400E+03  0.25500000920E-02 0. -1.
        2   -1    0    0  501    0  0.00000000000E+00  0.00000000000E+00 -0.99884387240E+03  0.99884387240E+03  0.25500000920E-02 0.  1.
    10030    2    1    2    0    0  0.00000000000E+00  0.00000000000E+00 -0.17834927840E+03  0.18193384664E+04  0.18105755964E+04 0.  0.
        5    1    3    3  502    0 -0.73245634067E+03 -0.48209890593E+03 -0.31523515331E+03  0.93182988682E+03  0.46999998093E+01 0. -1.
       -5    1    3    3    0  502  0.73245634067E+03  0.48209890593E+03  0.13688587491E+03  0.88750857958E+03  0.46999998093E+01 0.  1.
</event>
<event>
 5   0  0.3568870E-04  0.1721842E+04  0.7818609E-02  0.8749004E-01
        2   -1    0    0  501    0  0.00000000000E+00  0.00000000000E+00  0.18319872887E+04  0.18319872887E+04  0.25500000920E-02 0.  1.
       -2   -1    0    0    0  501  0.00000000000E+00  0.00000000000E+00 -0.40457964438E+03  0.40457964439E+03  0.25500000920E-02 0. -1.
    10030    2    1    2    0    0  0.00000000000E+00  0.00000000000E+00  0.14274076443E+04  0.22365669331E+04  0.17218417648E+04 0.  0.
        1    1    3    3  502    0  0.83029294989E+02  0.37273256796E+03 -0.28855289374E+03  0.47862950552E+03  0.50400001928E-02 0. -1.
       -1    1    3    3    0  502 -0.83029294989E+02 -0.37273256796E+03  0.17159605381E+04  0.17579374276E+04  0.50400001928E-02 0.  1.
</event>
<event>
 5   0  0.3575091E-04  0.1798672E+04  0.7818609E-02  0.8707006E-01
       -2   -1    0    0    0  501  0.00000000000E+00  0.00000000000E+00  0.69970259944E+03  0.69970259944E+03  0.25500000920E-02 0.  1.
        2   -1    0    0  501    0  0.00000000000E+00  0.00000000000E+00 -0.11559276996E+04  0.11559276996E+04  0.25500000920E-02 0. -1.
    10030    2    1    2    0    0  0.00000000000E+00  0.00000000000E+00 -0.45622510019E+03  0.18556302991E+04  0.17986724173E+04 0.  0.
        5    1    3    3  502    0 -0.87892423912E+03  0.15248198903E+02 -0.42397494219E+03  0.97596985982E+03  0.46999998093E+01 0. -1.
       -5    1    3    3    0  502  0.87892423912E+03 -0.15248198903E+02 -0.32250157997E+02  0.87966043925E+03  0.46999998093E+01 0.  1.
</event>
<event>
 5   0  0.3582186E-04  0.1810570E+04  0.7818609E-02  0.8700698E-01
        2   -1    0    0  501    0  0.00000000000E+00  0.00000000000E+00  0.13104447303E+04  0.13104447303E+04  0.25500000920E-02 0.  1.
       -2   -1    0    0    0  501  0.00000000000E+00  0.00000000000E+00 -0.62539164910E+03  0.62539164910E+03  0.25500000920E-02 0. -1.
    10030    2    1    2    0    0  0.00000000000E+00  0.00000000000E+00  0.68505308120E+03  0.19358363794E+04  0.18105702869E+04 0.  0.
        4    1    3    3  502    0 -0.30889955958E+03 -0.22540691820E+03  0.12198536557E+04  0.12783863934E+04  0.12699999809E+01 0.  1.
       -4    1    3    3    0  502  0.30889955958E+03  0.22540691820E+03 -0.53480057450E+03  0.65744998598E+03  0.12699999809E+01 0. -1.
</event>
<event>
 5   0  0.1837313E-04  0.1411816E+04  0.7818609E-02  0.8945310E-01
       -1   -1    0    0    0  501  0.00000000000E+00  0.00000000000E+00  0.53592645041E+03  0.53592645044E+03  0.50400001928E-02 0.  1.
        1   -1    0    0  501    0  0.00000000000E+00  0.00000000000E+00 -0.92980328062E+03  0.92980328064E+03  0.50400001928E-02 0. -1.
    10030    2    1    2    0    0  0.00000000000E+00  0.00000000000E+00 -0.39387683021E+03  0.14657297311E+04  0.14118160954E+04 0.  0.
        1    1    3    3  502    0 -0.31505056080E+03 -0.43118172036E+03  0.28235309012E+03  0.60406771090E+03  0.50400001928E-02 0.  1.
       -1    1    3    3    0  502  0.31505056080E+03  0.43118172036E+03 -0.67622992033E+03  0.86166202017E+03  0.50400001928E-02 0. -1.
</event>
<event>
 5   0  0.3531266E-04  0.1828953E+04  0.7818609E-02  0.8691052E-01
        2   -1    0    0  501    0  0.00000000000E+00  0.00000000000E+00  0.33163727039E+04  0.33163727039E+04  0.25500000920E-02 0.  1.
       -2   -1    0    0    0  501  0.00000000000E+00  0.00000000000E+00 -0.25216334235E+03  0.25216334236E+03  0.25500000920E-02 0. -1.
    10030    2    1    2    0    0  0.00000000000E+00  0.00000000000E+00  0.30642093615E+04  0.35685360462E+04  0.18289533898E+04 0.  0.
        3    1    3    3  502    0  0.69093431604E+03  0.36869380154E+03  0.61084162275E+03  0.99320332594E+03  0.10100000352E+00 0. -1.
       -3    1    3    3    0  502 -0.69093431604E+03 -0.36869380154E+03  0.24533677388E+04  0.25753327203E+04  0.10100000352E+00 0.  1.
</event>
<event>
 5   0  0.3568870E-04  0.1714699E+04  0.7818609E-02  0.8753025E-01
       -2   -1    0    0    0  501  0.00000000000E+00  0.00000000000E+00  0.14597790883E+04  0.14597790883E+04  0.25500000920E-02 0.  1.
        2   -1    0    0  501    0  0.00000000000E+00  0.00000000000E+00 -0.50353400154E+03  0.50353400154E+03  0.25500000920E-02 0. -1.
    10030    2    1    2    0    0  0.00000000000E+00  0.00000000000E+00  0.95624508680E+03  0.19633130899E+04  0.17146992806E+04 0.  0.
        1    1    3    3  502    0 -0.31888015800E+02 -0.69871680847E+03 -0.89573465409E+02  0.70515631580E+03  0.50400001928E-02 0. -1.
       -1    1    3    3    0  502  0.31888015800E+02  0.69871680847E+03  0.10458185522E+04  0.12581567741E+04  0.50400001928E-02 0.  1.
</event>
<event>
 5   0  0.1825253E-04  0.1791475E+04  0.7818609E-02  0.8710846E-01
        1   -1    0    0  501    0  0.00000000000E+00  0.00000000000E+00  0.13276266296E+04  0.13276266296E+04  0.50400001928E-02 0.  1.
       -1   -1    0    0    0  501  0.00000000000E+00  0.00000000000E+00 -0.60434601206E+03  0.60434601208E+03  0.50400001928E-02 0. -1.
    10030    2    1    2    0    0  0.00000000000E+00  0.00000000000E+00  0.72328061756E+03  0.19319726417E+04  0.17914752124E+04 0.  0.
        4    1    3    3  502    0 -0.24272254580E+03 -0.78685386627E+03  0.74183847583E+03  0.11083226869E+04  0.12699999809E+01 0.  1.
       -4    1    3    3    0  502  0.24272254580E+03  0.78685386627E+03 -0.18557858267E+02  0.82364995484E+03  0.12699999809E+01 0. -1.
</event>
<event>
 5   0  0.3531266E-04  0.1899160E+04  0.7818609E-02  0.8655274E-01
       -2   -1    0    0    0  501  0.00000000000E+00  0.00000000000E+00  0.55443356090E+03  0.55443356091E+03  0.25500000920E-02 0.  1.
        2   -1    0    0  501    0  0.00000000000E+00  0.00000000000E+00 -0.16263489540E+04  0.16263489540E+04  0.25500000920E-02 0. -1.
    10030    2    1    2    0    0  0.00000000000E+00  0.00000000000E+00 -0.10719153931E+04  0.21807825149E+04  0.18991602796E+04 0.  0.
        3    1    3    3  502    0  0.26643227975E+03 -0.41196623355E+03 -0.14695376092E+04  0.15492718071E+04  0.10100000352E+00 0. -1.
       -3    1    3    3    0  502 -0.26643227975E+03  0.41196623355E+03  0.39762221602E+03  0.63151070787E+03  0.10100000352E+00 0.  1.
</event>
<event>
 5   0  0.3568870E-04  0.1742690E+04  0.7818609E-02  0.8737385E-01
        2   -1    0    0  501    0  0.00000000000E+00  0.00000000000E+00  0.12416687691E+04  0.12416687691E+04  0.25500000920E-02 0. -1.
       -2   -1    0    0    0  501  0.00000000000E+00  0.00000000000E+00 -0.61146879659E+03  0.61146879659E+03  0.25500000920E-02 0.  1.
    10030    2    1    2    0    0  0.00000000000E+00  0.00000000000E+00  0.63019997256E+03  0.18531375657E+04  0.17426895398E+04 0.  0.
        1    1    3    3  502    0  0.32752863564E+02  0.26227399711E+03  0.11980119211E+04  0.12268223028E+04  0.50400001928E-02 0. -1.
       -1    1    3    3    0  502 -0.32752863564E+02 -0.26227399711E+03 -0.56781194853E+03  0.62631526291E+03  0.50400001928E-02 0.  1.
</event>
<event>
 5   0  0.1835421E-04  0.1801700E+04  0.7818609E-02  0.8705396E-01
       -1   -1    0    0    0  501  0.00000000000E+00  0.00000000000E+00  0.69612905529E+03  0.69612905531E+03  0.50400001928E-02 0. -1.
        1   -1    0    0  501    0  0.00000000000E+00  0.00000000000E+00 -0.11657767019E+04  0.11657767019E+04  0.50400001928E-02 0.  1.
    10030    2    1    2    0    0  0.00000000000E+00  0.00000000000E+00 -0.46964764662E+03  0.18619057572E+04  0.18017003460E+04 0.  0.
        2    1    3    3  502    0 -0.35200835894E+03 -0.43646427760E+03 -0.96345170751E+03  0.11147421868E+04  0.25500000920E-02 0.  1.
       -2    1    3    3    0  502  0.35200835894E+03  0.43646427760E+03  0.49380406089E+03  0.74716357040E+03  0.25500000920E-02 0. -1.
</event>
<event>
 5   0  0.3575091E-04  0.1853731E+04  0.7818609E-02  0.8678236E-01
       -2   -1    0    0    0  501  0.00000000000E+00  0.00000000000E+00  0.11073166098E+04  0.11073166098E+04  0.25500000920E-02 0.  1.
        2   -1    0    0  501    0  0.00000000000E+00  0.00000000000E+00 -0.77582143562E+03  0.77582143563E+03  0.25500000920E-02 0. -1.
    10030    2    1    2    0    0  0.00000000000E+00  0.00000000000E+00  0.33149517417E+03  0.18831380454E+04  0.18537313310E+04 0.  0.
        5    1    3    3  502    0  0.82917972914E+02  0.87350292358E+03 -0.13761165366E+03  0.88816766714E+03  0.46999998093E+01 0. -1.
       -5    1    3    3    0  502 -0.82917972914E+02 -0.87350292358E+03  0.46910682783E+03  0.99497037828E+03  0.46999998093E+01 0.  1.
</event>
<event>
 5   0  0.1837313E-04  0.1792290E+04  0.7818609E-02  0.8710410E-01
        1   -1    0    0  501    0  0.00000000000E+00  0.00000000000E+00  0.11329295959E+04  0.11329295959E+04  0.50400001928E-02 0.  1.
       -1   -1    0    0    0  501  0.00000000000E+00  0.00000000000E+00 -0.70884922363E+03  0.70884922365E+03  0.50400001928E-02 0. -1.
    10030    2    1    2    0    0  0.00000000000E+00  0.00000000000E+00  0.42408037227E+03  0.18417788196E+04  0.17922904502E+04 0.  0.
        1    1    3    3  502    0 -0.33383901568E+03 -0.80500614499E+03  0.42659431551E+03  0.97029175608E+03  0.50400001928E-02 0. -1.
       -1    1    3    3    0  502  0.33383901568E+03  0.80500614499E+03 -0.25139432393E+01  0.87148706348E+03  0.50400001928E-02 0.  1.
</event>
<event>
 5   0  0.3568870E-04  0.1825816E+04  0.7818609E-02  0.8692690E-01
       -2   -1    0    0    0  501  0.00000000000E+00  0.00000000000E+00  0.47193310838E+03  0.47193310838E+03  0.25500000920E-02 0.  1.
        2   -1    0    0  501    0  0.00000000000E+00  0.00000000000E+00 -0.17659308053E+04  0.17659308053E+04  0.25500000920E-02 0. -1.
    10030    2    1    2    0    0  0.00000000000E+00  0.00000000000E+00 -0.12939976969E+04  0.22378639137E+04  0.18258162165E+04 0.  0.
        1    1    3    3  502    0 -0.19018645547E+03  0.66192913881E+03 -0.13814658813E+04  0.15436220567E+04  0.50400001928E-02 0. -1.
       -1    1    3    3    0  502  0.19018645547E+03 -0.66192913881E+03  0.87468184416E+02  0.69424185697E+03  0.50400001928E-02 0.  1.
</event>
<event>
 5   0  0.3628581E-04  0.1743173E+04  0.7818609E-02  0.8737117E-01
        2   -1    0    0  501    0  0.00000000000E+00  0.00000000000E+00  0.12232739366E+04  0.12232739366E+04  0.25500000920E-02 0. -1.
       -2   -1    0    0    0  501  0.00000000000E+00  0.00000000000E+00 -0.62100807713E+03  0.62100807714E+03  0.25500000920E-02 0.  1.
    10030    2    1    2    0    0  0.00000000000E+00  0.00000000000E+00  0.60226585942E+03  0.18442820137E+04  0.17431729635E+04 0.  0.
        2    1    3    3  502    0 -0.76534598199E+03 -0.41677921971E+03  0.31622959720E+03  0.92707095105E+03  0.25500000920E-02 0. -1.
       -2    1    3    3    0  502  0.76534598199E+03  0.41677921971E+03  0.28603626223E+03  0.91721106265E+03  0.25500000920E-02 0.  1.
</event>
<event>
 5   0  0.1883959E-04  0.1741488E+04  0.7818609E-02  0.8738050E-01
       -1   -1    0    0    0  501  0.00000000000E+00  0.00000000000E+00  0.61054432174E+03  0.61054432176E+03  0.50400001928E-02 0.  1.
        1   -1    0    0  501    0  0.00000000000E+00  0.00000000000E+00 -0.12418348887E+04  0.12418348887E+04  0.50400001928E-02 0. -1.
    10030    2    1    2    0    0  0.00000000000E+00  0.00000000000E+00 -0.63129056695E+03  0.18523792105E+04  0.17414881451E+04 0.  0.
        5    1    3    3  502    0 -0.52432006492E+03  0.68684224867E+03 -0.42975816626E+03  0.96507925918E+03  0.46999998093E+01 0. -1.
       -5    1    3    3    0  502  0.52432006492E+03 -0.68684224867E+03 -0.20153240069E+03  0.88729995129E+03  0.46999998093E+01 0.  1.
</event>
<event>
 5   0  0.1818778E-04  0.1789508E+04  0.7818609E-02  0.8711899E-01
       -1   -1    0    0    0  501  0.00000000000E+00  0.00000000000E+00  0.50073350325E+03  0.50073350328E+03  0.50400001928E-02 0. -1.
        1   -1    0    0  501    0  0.00000000000E+00  0.00000000000E+00 -0.15988246333E+04  0.15988246333E+04  0.50400001928E-02 0.  1.
    10030    2    1    2    0    0  0.00000000000E+00  0.00000000000E+00 -0.10980911300E+04  0.20995581366E+04  0.17895083791E+04 0.  0.
        3    1    3    3  502    0 -0.42113846099E+03  0.20530457678E+03 -0.14434031397E+04  0.15175375469E+04  0.10100000352E+00 0.  1.
       -3    1    3    3    0  502  0.42113846099E+03 -0.20530457678E+03  0.34531200963E+03  0.58202058964E+03  0.10100000352E+00 0. -1.
</event>
<event>
 5   0  0.3531266E-04  0.1781541E+04  0.7818609E-02  0.8716178E-01
       -2   -1    0    0    0  501  0.00000000000E+00  0.00000000000E+00  0.29591019384E+03  0.29591019385E+03  0.25500000920E-02 0.  1.
        2   -1    0    0  501    0  0.00000000000E+00  0.00000000000E+00 -0.26814617365E+04  0.26814617365E+04  0.25500000920E-02 0. -1.
    10030    2    1    2    0    0  0.00000000000E+00  0.00000000000E+00 -0.23855515426E+04  0.29773719303E+04  0.17815407514E+04 0.  0.
        3    1    3    3  502    0 -0.74585473874E+03 -0.48615704632E+03 -0.12407459313E+04  0.15271209648E+04  0.10100000352E+00 0.  1.
       -3    1    3    3    0  502  0.74585473874E+03  0.48615704632E+03 -0.11448056114E+04  0.14502509655E+04  0.10100000352E+00 0. -1.
</event>
<event>
 5   0  0.3575091E-04  0.1796961E+04  0.7818609E-02  0.8707917E-01
       -2   -1    0    0    0  501  0.00000000000E+00  0.00000000000E+00  0.72442206943E+03  0.72442206944E+03  0.25500000920E-02 0. -1.
        2   -1    0    0  501    0  0.00000000000E+00  0.00000000000E+00 -0.11143608021E+04  0.11143608021E+04  0.25500000920E-02 0.  1.
    10030    2    1    2    0    0  0.00000000000E+00  0.00000000000E+00 -0.38993873271E+03  0.18387828716E+04  0.17969613890E+04 0.  0.
        5    1    3    3  502    0 -0.21373000332E+03  0.87215738483E+03 -0.22577737787E+03  0.92592469057E+03  0.46999998093E+01 0. -1.
       -5    1    3    3    0  502  0.21373000332E+03 -0.87215738483E+03 -0.16416135484E+03  0.91285818102E+03  0.46999998093E+01 0.  1.
</event>
<event>
 5   0  0.1883959E-04  0.1761600E+04  0.7818609E-02  0.8726991E-01
       -1   -1    0    0    0  501  0.00000000000E+00  0.00000000000E+00  0.25857567539E+03  0.25857567544E+03  0.50400001928E-02 0.  1.
        1   -1    0    0  501    0  0.00000000000E+00  0.00000000000E+00 -0.30003139887E+04  0.30003139887E+04  0.50400001928E-02 0. -1.
    10030    2    1    2    0    0  0.00000000000E+00  0.00000000000E+00 -0.27417383133E+04  0.32588896641E+04  0.17615995187E+04 0.  0.
        5    1    3    3  502    0  0.43212819697E+03 -0.56549277494E+03 -0.41090311684E+03  0.82181525817E+03  0.46999998093E+01 0.  1.
       -5    1    3    3    0  502 -0.43212819697E+03  0.56549277494E+03 -0.23308351964E+04  0.24370744059E+04  0.46999998093E+01 0. -1.
</event>
<event>
 5   0  0.3568870E-04  0.1810686E+04  0.7818609E-02  0.8700637E-01
        2   -1    0    0  501    0  0.00000000000E+00  0.00000000000E+00  0.13359509048E+04  0.13359509048E+04  0.25500000920E-02 0.  1.
       -2   -1    0    0    0  501  0.00000000000E+00  0.00000000000E+00 -0.61352987472E+03  0.61352987473E+03  0.25500000920E-02 0. -1.
    10030    2    1    2    0    0  0.00000000000E+00  0.00000000000E+00  0.72242103009E+03  0.19494807795E+04  0.18106858273E+04 0.  0.
        1    1    3    3  502    0 -0.55521991105E+03 -0.34216251753E+03  0.10372779922E+04  0.12252713867E+04  0.50400001928E-02 0.  1.
       -1    1    3    3    0  502  0.55521991105E+03  0.34216251753E+03 -0.31485696210E+03  0.72420939281E+03  0.50400001928E-02 0. -1.
</event>
<event>
 5   0  0.1825253E-04  0.1775510E+04  0.7818609E-02  0.8719432E-01
       -1   -1    0    0    0  501  0.00000000000E+00  0.00000000000E+00  0.40899028753E+03  0.40899028756E+03  0.50400001928E-02 0.  1.
        1   -1    0    0  501    0  0.00000000000E+00  0.00000000000E+00 -0.19269629394E+04  0.19269629394E+04  0.50400001928E-02 0. -1.
    10030    2    1    2    0    0  0.00000000000E+00  0.00000000000E+00 -0.15179726518E+04  0.23359532270E+04  0.17755102103E+04 0.  0.
        4    1    3    3  502    0  0.30128480119E+03 -0.47323987279E+03 -0.16641882425E+04  0.17562040394E+04  0.12699999809E+01 0. -1.
       -4    1    3    3    0  502 -0.30128480119E+03  0.47323987279E+03  0.14621559064E+03  0.57974918756E+03  0.12699999809E+01 0.  1.
</event>
<event>
 5   0  0.3531266E-04  0.1983633E+04  0.7818609E-02  0.8614311E-01
        2   -1    0    0  501    0  0.00000000000E+00  0.00000000000E+00  0.75124469625E+03  0.75124469626E+03  0.25500000920E-02 0.  1.
       -2   -1    0    0    0  501  0.00000000000E+00  0.00000000000E+00 -0.13094269917E+04  0.13094269917E+04  0.25500000920E-02 0. -1.
    10030    2    1    2    0    0  0.00000000000E+00  0.00000000000E+00 -0.55818229548E+03  0.20606716880E+04  0.19836331139E+04 0.  0.
        3    1    3    3  502    0 -0.70728957136E+03  0.29862964919E+03  0.37319753257E+03  0.85364782765E+03  0.10100000352E+00 0.  1.
       -3    1    3    3    0  502  0.70728957136E+03 -0.29862964919E+03 -0.93137982805E+03  0.12070238603E+04  0.10100000352E+00 0. -1.
</event>
<event>
 5   0  0.3582186E-04  0.1801528E+04  0.7818609E-02  0.8705487E-01
        2   -1    0    0  501    0  0.00000000000E+00  0.00000000000E+00  0.12796604634E+04  0.12796604634E+04  0.25500000920E-02 0.  1.
       -2   -1    0    0    0  501  0.00000000000E+00  0.00000000000E+00 -0.63405566359E+03  0.63405566359E+03  0.25500000920E-02 0. -1.
    10030    2    1    2    0    0  0.00000000000E+00  0.00000000000E+00  0.64560479980E+03  0.19137161270E+04  0.18015282005E+04 0.  0.
        4    1    3    3  502    0  0.66129417309E+03  0.53593693488E+03  0.63583263075E+03  0.10624608834E+04  0.12699999809E+01 0.  1.
       -4    1    3    3    0  502 -0.66129417309E+03 -0.53593693488E+03  0.97721690513E+01  0.85125524358E+03  0.12699999809E+01 0. -1.
</event>
<event>
 5   0  0.3628581E-04  0.1825354E+04  0.7818609E-02  0.8692931E-01
       -2   -1    0    0    0  501  0.00000000000E+00  0.00000000000E+00  0.52864805647E+03  0.52864805648E+03  0.25500000920E-02 0. -1.
        2   -1    0    0  501    0  0.00000000000E+00  0.00000000000E+00 -0.15756786832E+04  0.15756786832E+04  0.25500000920E-02 0.  1.
    10030    2    1    2    0    0  0.00000000000E+00  0.00000000000E+00 -0.10470306268E+04  0.21043267397E+04  0.18253541832E+04 0.  0.
        2    1    3    3  502    0  0.62265746061E+03  0.65970632992E+03 -0.63917096115E+03  0.11097090937E+04  0.25500000920E-02 0. -1.
       -2    1    3    3    0  502 -0.62265746061E+03 -0.65970632992E+03 -0.40785966563E+03  0.99461764606E+03  0.25500000920E-02 0.  1.
</event>
<event>
 5   0  0.3628581E-04  0.1740669E+04  0.7818609E-02  0.8738503E-01
       -2   -1    0    0    0  501  0.00000000000E+00  0.00000000000E+00  0.62131443674E+03  0.62131443675E+03  0.25500000920E-02 0. -1.
        2   -1    0    0  501    0  0.00000000000E+00  0.00000000000E+00 -0.12191603207E+04  0.12191603207E+04  0.25500000920E-02 0.  1.
    10030    2    1    2    0    0  0.00000000000E+00  0.00000000000E+00 -0.59784588394E+03  0.18404747574E+04  0.17406687312E+04 0.  0.
        2    1    3    3  502    0  0.70678019134E+03  0.21997748676E+03 -0.78294067588E+03  0.10774620344E+04  0.25500000920E-02 0.  1.
       -2    1    3    3    0  502 -0.70678019134E+03 -0.21997748676E+03  0.18509479194E+03  0.76301272307E+03  0.25500000920E-02 0. -1.
</event>
<event>
 5   0  0.3568870E-04  0.1809215E+04  0.7818609E-02  0.8701414E-01
        2   -1    0    0  501    0  0.00000000000E+00  0.00000000000E+00  0.72604951267E+03  0.72604951267E+03  0.25500000920E-02 0. -1.
       -2   -1    0    0    0  501  0.00000000000E+00  0.00000000000E+00 -0.11270784240E+04  0.11270784240E+04  0.25500000920E-02 0.  1.
    10030    2    1    2    0    0  0.00000000000E+00  0.00000000000E+00 -0.40102891133E+03  0.18531279367E+04  0.18092150126E+04 0.  0.
        1    1    3    3  502    0  0.14914543458E+03  0.89204505053E+03 -0.21900838112E+03  0.93056617382E+03  0.50400001928E-02 0.  1.
       -1    1    3    3    0  502 -0.14914543458E+03 -0.89204505053E+03 -0.18202053021E+03  0.92256176285E+03  0.50400001928E-02 0. -1.
</event>
<event>
 5   0  0.1883959E-04  0.1751335E+04  0.7818609E-02  0.8732616E-01
        1   -1    0    0  501    0  0.00000000000E+00  0.00000000000E+00  0.96870044735E+03  0.96870044737E+03  0.50400001928E-02 0.  1.
       -1   -1    0    0    0  501  0.00000000000E+00  0.00000000000E+00 -0.79156947692E+03  0.79156947693E+03  0.50400001928E-02 0. -1.
    10030    2    1    2    0    0  0.00000000000E+00  0.00000000000E+00  0.17713097044E+03  0.17602699243E+04  0.17513351552E+04 0.  0.
        5    1    3    3  502    0  0.57518233957E+03  0.36955060658E+03 -0.46137234015E+03  0.82479627838E+03  0.46999998093E+01 0. -1.
       -5    1    3    3    0  502 -0.57518233957E+03 -0.36955060658E+03  0.63850331059E+03  0.93547364592E+03  0.46999998093E+01 0.  1.
</event>
<event>
 5   0  0.1837313E-04  0.1824956E+04  0.7818609E-02  0.8693140E-01
       -1   -1    0    0    0  501  0.00000000000E+00  0.00000000000E+00  0.64189997391E+03  0.64189997393E+03  0.50400001928E-02 0.  1.
        1   -1    0    0  501    0  0.00000000000E+00  0.00000000000E+00 -0.12971118163E+04  0.12971118163E+04  0.50400001928E-02 0. -1.
    10030    2    1    2    0    0  0.00000000000E+00  0.00000000000E+00 -0.65521184241E+03  0.19390117903E+04  0.18249559349E+04 0.  0.
        1    1    3    3  502    0  0.60231913727E+03  0.64100638345E+03 -0.69660597193E+02  0.88234354169E+03  0.50400001928E-02 0.  1.
       -1    1    3    3    0  502 -0.60231913727E+03 -0.64100638345E+03 -0.58555124522E+03  0.10566682486E+04  0.50400001928E-02 0. -1.
</event>
<event>
 5   0  0.3568870E-04  0.1813309E+04  0.7818609E-02  0.8699254E-01
       -2   -1    0    0    0  501  0.00000000000E+00  0.00000000000E+00  0.57898695946E+03  0.57898695947E+03  0.25500000920E-02 0. -1.
        2   -1    0    0  501    0  0.00000000000E+00  0.00000000000E+00 -0.14197592894E+04  0.14197592894E+04  0.25500000920E-02 0.  1.
    10030    2    1    2    0    0  0.00000000000E+00  0.00000000000E+00 -0.84077232993E+03  0.19987462489E+04  0.18133087042E+04 0.  0.
        1    1    3    3  502    0 -0.41250129420E+03 -0.80733450287E+03 -0.41078969406E+03  0.99533637029E+03  0.50400001928E-02 0.  1.
       -1    1    3    3    0  502  0.41250129420E+03  0.80733450287E+03 -0.42998263587E+03  0.10034098786E+04  0.50400001928E-02 0. -1.
</event>
<event>
 5   0  0.1835421E-04  0.1692106E+04  0.7818609E-02  0.8765880E-01
       -1   -1    0    0    0  501  0.00000000000E+00  0.00000000000E+00  0.27571696276E+03  0.27571696281E+03  0.50400001928E-02 0.  1.
        1   -1    0    0  501    0  0.00000000000E+00  0.00000000000E+00 -0.25961606444E+04  0.25961606444E+04  0.50400001928E-02 0. -1.
    10030    2    1    2    0    0  0.00000000000E+00  0.00000000000E+00 -0.23204436816E+04  0.28718776072E+04  0.16921058215E+04 0.  0.
        2    1    3    3  502    0 -0.62000225911E+03  0.46694218783E+03 -0.17316782572E+04  0.18976689370E+04  0.25500000920E-02 0. -1.
       -2    1    3    3    0  502  0.62000225911E+03 -0.46694218783E+03 -0.58876542445E+03  0.97420867021E+03  0.25500000920E-02 0.  1.
</event>
<event>
 5   0  0.1818778E-04  0.1741796E+04  0.7818609E-02  0.8737879E-01
       -1   -1    0    0    0  501  0.00000000000E+00  0.00000000000E+00  0.57228538271E+03  0.57228538273E+03  0.50400001928E-02 0.  1.
        1   -1    0    0  501    0  0.00000000000E+00  0.00000000000E+00 -0.13253230987E+04  0.13253230987E+04  0.50400001928E-02 0. -1.
    10030    2    1    2    0    0  0.00000000000E+00  0.00000000000E+00 -0.75303771603E+03  0.18976084815E+04  0.17417956675E+04 0.  0.
        3    1    3    3  502    0 -0.19455103240E+03 -0.82596479702E+03 -0.58999393327E+03  0.10335186508E+04  0.10100000352E+00 0. -1.
       -3    1    3    3    0  502  0.19455103240E+03  0.82596479702E+03 -0.16304378276E+03  0.86408983064E+03  0.10100000352E+00 0.  1.
</event>
<event>
 5   0  0.1825253E-04  0.1766593E+04  0.7818609E-02  0.8724270E-01
        1   -1    0    0  501    0  0.00000000000E+00  0.00000000000E+00  0.87623891647E+03  0.87623891648E+03  0.50400001928E-02 0. -1.
       -1   -1    0    0    0  501  0.00000000000E+00  0.00000000000E+00 -0.89041059828E+03  0.89041059830E+03  0.50400001928E-02 0.  1.
    10030    2    1    2    0    0  0.00000000000E+00  0.00000000000E+00 -0.14171681817E+02  0.17666495148E+04  0.17665926728E+04 0.  0.
        4    1    3    3  502    0  0.13542831935E+03 -0.14526010213E+03 -0.86779319471E+03  0.89022916636E+03  0.12699999809E+01 0.  1.
       -4    1    3    3    0  502 -0.13542831935E+03  0.14526010213E+03  0.85362151289E+03  0.87642034842E+03  0.12699999809E+01 0. -1.
</event>
<event>
 5   0  0.3568870E-04  0.1805607E+04  0.7818609E-02  0.8703323E-01
       -2   -1    0    0    0  501  0.00000000000E+00  0.00000000000E+00  0.47318859324E+03  0.47318859325E+03  0.25500000920E-02 0. -1.
        2   -1    0    0  501    0  0.00000000000E+00  0.00000000000E+00 -0.17224728549E+04  0.17224728549E+04  0.25500000920E-02 0.  1.
    10030    2    1    2    0    0  0.00000000000E+00  0.00000000000E+00 -0.12492842616E+04  0.21956614481E+04  0.18056073849E+04 0.  0.
        1    1    3    3  502    0 -0.76686130847E+03  0.23298421286E+03 -0.11930181855E+03  0.81030292719E+03  0.50400001928E-02 0. -1.
       -1    1    3    3    0  502  0.76686130847E+03 -0.23298421286E+03 -0.11299824431E+04  0.13853585210E+04  0.50400001928E-02 0.  1.
</event>
<event>
 5   0  0.1835421E-04  0.1740595E+04  0.7818609E-02  0.8738544E-01
       -1   -1    0    0    0  501  0.00000000000E+00  0.00000000000E+00  0.85689204570E+03  0.85689204572E+03  0.50400001928E-02 0.  1.
        1   -1    0    0  501    0  0.00000000000E+00  0.00000000000E+00 -0.88391234563E+03  0.88391234564E+03  0.50400001928E-02 0. -1.
    10030    2    1    2    0    0  0.00000000000E+00  0.00000000000E+00 -0.27020299924E+02  0.17408043914E+04  0.17405946778E+04 0.  0.
        2    1    3    3  502    0 -0.29366861191E+03  0.15811896946E+03  0.79043656006E+03  0.85792354998E+03  0.25500000920E-02 0.  1.
       -2    1    3    3    0  502  0.29366861191E+03 -0.15811896946E+03 -0.81745685999E+03  0.88288084138E+03  0.25500000920E-02 0. -1.
</event>
<event>
 5   0  0.1818778E-04  0.1812860E+04  0.7818609E-02  0.8699490E-01
       -1   -1    0    0    0  501  0.00000000000E+00  0.00000000000E+00  0.98123571599E+03  0.98123571600E+03  0.50400001928E-02 0.  1.
        1   -1    0    0  501    0  0.00000000000E+00  0.00000000000E+00 -0.83732759549E+03  0.83732759550E+03  0.50400001928E-02 0. -1.
    10030    2    1    2    0    0  0.00000000000E+00  0.00000000000E+00  0.14390812050E+03  0.18185633115E+04  0.18128604389E+04 0.  0.
        3    1    3    3  502    0  0.44391664767E+03  0.66152517476E+03 -0.36176955096E+03  0.87495986486E+03  0.10100000352E+00 0. -1.
       -3    1    3    3    0  502 -0.44391664767E+03 -0.66152517476E+03  0.50567767146E+03  0.94360344665E+03  0.10100000352E+00 0.  1.
</event>
<event>
 5   0  0.1883959E-04  0.1762514E+04  0.7818609E-02  0.8726492E-01
       -1   -1    0    0    0  501  0.00000000000E+00  0.00000000000E+00  0.54247105809E+03  0.54247105811E+03  0.50400001928E-02 0.  1.
        1   -1    0    0  501    0  0.00000000000E+00  0.00000000000E+00 -0.14316220797E+04  0.14316220798E+04  0.50400001928E-02 0. -1.
    10030    2    1    2    0    0  0.00000000000E+00  0.00000000000E+00 -0.88915102166E+03  0.19740931379E+04  0.17625135964E+04 0.  0.
        5    1    3    3  502    0  0.40487856930E+03 -0.12475961913E+03  0.42090768265E+03  0.59722440150E+03  0.46999998093E+01 0.  1.
       -5    1    3    3    0  502 -0.40487856930E+03  0.12475961913E+03 -0.13100587043E+04  0.13768687364E+04  0.46999998093E+01 0. -1.
</event>
<event>
 5   0  0.3568870E-04  0.1771310E+04  0.7818609E-02  0.8721707E-01
        2   -1    0    0  501    0  0.00000000000E+00  0.00000000000E+00  0.88984793346E+03  0.88984793346E+03  0.25500000920E-02 0.  1.
       -2   -1    0    0    0  501  0.00000000000E+00  0.00000000000E+00 -0.88148210575E+03  0.88148210575E+03  0.25500000920E-02 0. -1.
    10030    2    1    2    0    0  0.00000000000E+00  0.00000000000E+00  0.83658277110E+01  0.17713300392E+04  0.17713102836E+04 0.  0.
        1    1    3    3  502    0 -0.79120988340E+03  0.36655307680E+01  0.40213020541E+03  0.88754448780E+03  0.50400001928E-02 0.  1.
       -1    1    3    3    0  502  0.79120988340E+03 -0.36655307680E+01 -0.39376437769E+03  0.88378555140E+03  0.50400001928E-02 0. -1.
</event>
<event>
 5   0  0.1330125E-04  0.1800335E+04  0.7818609E-02  0.8706121E-01
       -3   -1    0    0    0  501  0.00000000000E+00  0.00000000000E+00  0.58702225657E+03  0.58702226526E+03  0.10100000352E+00 0. -1.
        3   -1    0    0  501    0  0.00000000000E+00  0.00000000000E+00 -0.13803590579E+04  0.13803590615E+04  0.10100000352E+00 0.  1.
    10030    2    1    2    0    0  0.00000000000E+00  0.00000000000E+00 -0.79333680129E+03  0.19673813268E+04  0.18003349702E+04 0.  0.
        3    1    3    3  502    0  0.71248138923E+03  0.53699379151E+03 -0.52738970654E+03  0.10364033842E+04  0.10100000352E+00 0.  1.
       -3    1    3    3    0  502 -0.71248138923E+03 -0.53699379151E+03 -0.26594709475E+03  0.93097794256E+03  0.10100000352E+00 0. -1.
</event>
<event>
 5   0  0.1883959E-04  0.1787617E+04  0.7818609E-02  0.8712913E-01
       -1   -1    0    0    0  501  0.00000000000E+00  0.00000000000E+00  0.73164772922E+03  0.73164772924E+03  0.50400001928E-02 0.  1.
        1   -1    0    0  501    0  0.00000000000E+00  0.00000000000E+00 -0.10919100794E+04  0.10919100794E+04  0.50400001928E-02 0. -1.
    10030    2    1    2    0    0  0.00000000000E+00  0.00000000000E+00 -0.36026235020E+03  0.18235578087E+04  0.17876168831E+04 0.  0.
        5    1    3    3  502    0 -0.32874189493E+03  0.23683911929E+03 -0.99283421033E+03  0.10723366361E+04  0.46999998093E+01 0. -1.
       -5    1    3    3    0  502  0.32874189493E+03 -0.23683911929E+03  0.63257186013E+03  0.75122117258E+03  0.46999998093E+01 0.  1.
</event>
<event>
 5   0  0.3628581E-04  0.1847610E+04  0.7818609E-02  0.8681383E-01
       -2   -1    0    0    0  501  0.00000000000E+00  0.00000000000E+00  0.51297903215E+03  0.51297903216E+03  0.25500000920E-02 0. -1.
        2   -1    0    0  501    0  0.00000000000E+00  0.00000000000E+00 -0.16636471087E+04  0.16636471087E+04  0.25500000920E-02 0.  1.
    10030    2    1    2    0    0  0.00000000000E+00  0.00000000000E+00 -0.11506680765E+04  0.21766261409E+04  0.18476104391E+04 0.  0.
        2    1    3    3  502    0 -0.48278422327E+03  0.50609407845E+02 -0.15012856769E+04  0.15778151356E+04  0.25500000920E-02 0.  1.
       -2    1    3    3    0  502  0.48278422327E+03 -0.50609407845E+02  0.35061760033E+03  0.59881100530E+03  0.25500000920E-02 0. -1.
</event>
<event>
 5   0  0.1835421E-04  0.1948663E+04  0.7818609E-02  0.8631006E-01
        1   -1    0    0  501    0  0.00000000000E+00  0.00000000000E+00  0.11322847018E+04  0.11322847018E+04  0.50400001928E-02 0.  1.
       -1   -1    0    0    0  501  0.00000000000E+00  0.00000000000E+00 -0.83841256799E+03  0.83841256801E+03  0.50400001928E-02 0. -1.
    10030    2    1    2    0    0  0.00000000000E+00  0.00000000000E+00  0.29387213377E+03  0.19706972698E+04  0.19486628488E+04 0.  0.
        2    1    3    3  502    0 -0.93059427529E+03 -0.12771674116E+03  0.40871521115E+03  0.10243853743E+04  0.25500000920E-02 0.  1.
       -2    1    3    3    0  502  0.93059427529E+03  0.12771674116E+03 -0.11484307738E+03  0.94631189552E+03  0.25500000920E-02 0. -1.
</event>
<event>
 5   0  0.3575091E-04  0.1767522E+04  0.7818609E-02  0.8723764E-01
       -2   -1    0    0    0  501  0.00000000000E+00  0.00000000000E+00  0.92100834633E+03  0.92100834633E+03  0.25500000920E-02 0. -1.
        2   -1    0    0  501    0  0.00000000000E+00  0.00000000000E+00 -0.84802033176E+03  0.84802033176E+03  0.25500000920E-02 0.  1.
    10030    2    1    2    0    0  0.00000000000E+00  0.00000000000E+00  0.72988014567E+02  0.17690286781E+04  0.17675223375E+04 0.  0.
        5    1    3    3  502    0 -0.69430338666E+03  0.87892049551E+02 -0.50362274910E+03  0.86222976550E+03  0.46999998093E+01 0.  1.
       -5    1    3    3    0  502  0.69430338666E+03 -0.87892049551E+02  0.57661076367E+03  0.90679891259E+03  0.46999998093E+01 0. -1.
</event>
<event>
 5   0  0.3582186E-04  0.1809000E+04  0.7818609E-02  0.8701528E-01
        2   -1    0    0  501    0  0.00000000000E+00  0.00000000000E+00  0.18779002458E+04  0.18779002459E+04  0.25500000920E-02 0. -1.
       -2   -1    0    0    0  501  0.00000000000E+00  0.00000000000E+00 -0.43565713225E+03  0.43565713225E+03  0.25500000920E-02 0.  1.
    10030    2    1    2    0    0  0.00000000000E+00  0.00000000000E+00  0.14422431136E+04  0.23135573781E+04  0.18090004265E+04 0.  0.
        4    1    3    3  502    0  0.43251635391E+03  0.78999864933E+03  0.82774624356E+03  0.12232472027E+04  0.12699999809E+01 0. -1.
       -4    1    3    3    0  502 -0.43251635391E+03 -0.78999864933E+03  0.61449687004E+03  0.10903101754E+04  0.12699999809E+01 0.  1.
</event>
<event>
 5   0  0.3582186E-04  0.1566953E+04  0.7818609E-02  0.8841111E-01
       -2   -1    0    0    0  501  0.00000000000E+00  0.00000000000E+00  0.33827433827E+03  0.33827433828E+03  0.25500000920E-02 0.  1.
        2   -1    0    0  501    0  0.00000000000E+00  0.00000000000E+00 -0.18146083684E+04  0.18146083684E+04  0.25500000920E-02 0. -1.
    10030    2    1    2    0    0  0.00000000000E+00  0.00000000000E+00 -0.14763340302E+04  0.21528827067E+04  0.15669530243E+04 0.  0.
        4    1    3    3  502    0  0.40838083471E+03  0.32220946846E+03 -0.15431066810E+04  0.16284267529E+04  0.12699999809E+01 0. -1.
       -4    1    3    3    0  502 -0.40838083471E+03 -0.32220946846E+03  0.66772650807E+02  0.52445595384E+03  0.12699999809E+01 0.  1.
</event>
<event>
 5   0  0.1883959E-04  0.1785566E+04  0.7818609E-02  0.8714013E-01
        1   -1    0    0  501    0  0.00000000000E+00  0.00000000000E+00  0.12972875302E+04  0.12972875302E+04  0.50400001928E-02 0. -1.
       -1   -1    0    0    0  501  0.00000000000E+00  0.00000000000E+00 -0.61440587151E+03  0.61440587153E+03  0.50400001928E-02 0.  1.
    10030    2    1    2    0    0  0.00000000000E+00  0.00000000000E+00  0.68288165864E+03  0.19116934017E+04  0.17855655413E+04 0.  0.
        5    1    3    3  502    0 -0.49105057632E+02  0.52744355418E+03  0.11108344604E+04  0.12306840772E+04  0.46999998093E+01 0. -1.
       -5    1    3    3    0  502  0.49105057632E+02 -0.52744355418E+03 -0.42795280174E+03  0.68100932449E+03  0.46999998093E+01 0.  1.
</event>
<event>
 5   0  0.1883959E-04  0.1821185E+04  0.7818609E-02  0.8695114E-01
       -1   -1    0    0    0  501  0.00000000000E+00  0.00000000000E+00  0.11764032099E+04  0.11764032099E+04  0.50400001928E-02 0.  1.
        1   -1    0    0  501    0  0.00000000000E+00  0.00000000000E+00 -0.70484264562E+03  0.70484264564E+03  0.50400001928E-02 0. -1.
    10030    2    1    2    0    0  0.00000000000E+00  0.00000000000E+00  0.47156056430E+03  0.18812458556E+04  0.18211854939E+04 0.  0.
        5    1    3    3  502    0  0.52341555759E+03  0.37813428999E+03 -0.42742718892E+03  0.77438070677E+03  0.46999998093E+01 0. -1.
       -5    1    3    3    0  502 -0.52341555759E+03 -0.37813428999E+03  0.89898775323E+03  0.11068651488E+04  0.46999998093E+01 0.  1.
</event>
<event>
 5   0  0.1883959E-04  0.1660394E+04  0.7818609E-02  0.8784281E-01
        1   -1    0    0  501    0  0.00000000000E+00  0.00000000000E+00  0.11997172966E+04  0.11997172966E+04  0.50400001928E-02 0.  1.
       -1   -1    0    0    0  501  0.00000000000E+00  0.00000000000E+00 -0.57449119794E+03  0.57449119796E+03  0.50400001928E-02 0. -1.
    10030    2    1    2    0    0  0.00000000000E+00  0.00000000000E+00  0.62522609869E+03  0.17742084946E+04  0.16603939616E+04 0.  0.
        5    1    3    3  502    0 -0.46011528092E+03  0.27921213303E+03 -0.36280605823E+03  0.64908844764E+03  0.46999998093E+01 0. -1.
       -5    1    3    3    0  502  0.46011528092E+03 -0.27921213303E+03  0.98803215692E+03  0.11251200470E+04  0.46999998093E+01 0.  1.
</event>
<event>
 5   0  0.3582186E-04  0.1817066E+04  0.7818609E-02  0.8697276E-01
        2   -1    0    0  501    0  0.00000000000E+00  0.00000000000E+00  0.19871673187E+04  0.19871673187E+04  0.25500000920E-02 0. -1.
       -2   -1    0    0    0  501  0.00000000000E+00  0.00000000000E+00 -0.41538141896E+03  0.41538141897E+03  0.25500000920E-02 0.  1.
    10030    2    1    2    0    0  0.00000000000E+00  0.00000000000E+00  0.15717858997E+04  0.24025487376E+04  0.18170661854E+04 0.  0.
        4    1    3    3  502    0  0.62746755135E+03  0.28949265332E+03  0.15657849107E+04  0.17114921921E+04  0.12699999809E+01 0. -1.
       -4    1    3    3    0  502 -0.62746755135E+03 -0.28949265332E+03  0.60009890281E+01  0.69105654551E+03  0.12699999809E+01 0.  1.
</event>
<event>
 5   0  0.3575091E-04  0.1796548E+04  0.7818609E-02  0.8708137E-01
       -2   -1    0    0    0  501  0.00000000000E+00  0.00000000000E+00  0.68783010701E+03  0.68783010701E+03  0.25500000920E-02 0.  1.
        2   -1    0    0  501    0  0.00000000000E+00  0.00000000000E+00 -0.11731043764E+04  0.11731043764E+04  0.25500000920E-02 0. -1.
    10030    2    1    2    0    0  0.00000000000E+00  0.00000000000E+00 -0.48527426942E+03  0.18609344834E+04  0.17965483670E+04 0.  0.
        5    1    3    3  502    0  0.25024330109E+03  0.54138401753E+02  0.64922050856E+03  0.69789829848E+03  0.46999998093E+01 0.  1.
       -5    1    3    3    0  502 -0.25024330109E+03 -0.54138401753E+02 -0.11344947780E+04  0.11630361850E+04  0.46999998093E+01 0. -1.
</event>
<event>
 5   0  0.1818778E-04  0.1763543E+04  0.7818609E-02  0.8725931E-01
        1   -1    0    0  501    0  0.00000000000E+00  0.00000000000E+00  0.18500190918E+04  0.18500190918E+04  0.50400001928E-02 0.  1.
       -1   -1    0    0    0  501  0.00000000000E+00  0.00000000000E+00 -0.42027710353E+03  0.42027710356E+03  0.50400001928E-02 0. -1.
    10030    2    1    2    0    0  0.00000000000E+00  0.00000000000E+00  0.14297419883E+04  0.22702961954E+04  0.17635426453E+04 0.  0.
        3    1    3    3  502    0  0.60647786561E+03  0.54705557772E+03  0.28706111899E+03  0.86573050242E+03  0.10100000352E+00 0. -1.
       -3    1    3    3    0  502 -0.60647786561E+03 -0.54705557772E+03  0.11426808693E+04  0.14045656929E+04  0.10100000352E+00 0.  1.
</event>
<event>
 5   0  0.3582186E-04  0.1916679E+04  0.7818609E-02  0.8646599E-01
       -2   -1    0    0    0  501  0.00000000000E+00  0.00000000000E+00  0.75270890090E+03  0.75270890090E+03  0.25500000920E-02 0. -1.
        2   -1    0    0  501    0  0.00000000000E+00  0.00000000000E+00 -0.12201454199E+04  0.12201454199E+04  0.25500000920E-02 0.  1.
    10030    2    1    2    0    0  0.00000000000E+00  0.00000000000E+00 -0.46743651899E+03  0.19728543208E+04  0.19166787085E+04 0.  0.
        4    1    3    3  502    0 -0.42337431424E+03 -0.38090989104E+03  0.55963420041E+03  0.79845488678E+03  0.12699999809E+01 0. -1.
       -4    1    3    3    0  502  0.42337431424E+03  0.38090989104E+03 -0.10270707194E+04  0.11743994340E+04  0.12699999809E+01 0.  1.
</event>
<event>
 5   0  0.3568870E-04  0.1802415E+04  0.7818609E-02  0.8705016E-01
        2   -1    0    0  501    0  0.00000000000E+00  0.00000000000E+00  0.69585566222E+03  0.69585566223E+03  0.25500000920E-02 0. -1.
       -2   -1    0    0    0  501  0.00000000000E+00  0.00000000000E+00 -0.11671597794E+04  0.11671597794E+04  0.25500000920E-02 0.  1.
    10030    2    1    2    0    0  0.00000000000E+00  0.00000000000E+00 -0.47130411716E+03  0.18630154416E+04  0.18024147594E+04 0.  0.
        1    1    3    3  502    0  0.86224526672E+03  0.21625232460E+03 -0.38876344107E+03  0.97024171267E+03  0.50400001928E-02 0.  1.
       -1    1    3    3    0  502 -0.86224526672E+03 -0.21625232460E+03 -0.82540676096E+02  0.89277372895E+03  0.50400001928E-02 0. -1.
</event>
<event>
 5   0  0.1837313E-04  0.1868541E+04  0.7818609E-02  0.8670676E-01
        1   -1    0    0  501    0  0.00000000000E+00  0.00000000000E+00  0.13923921113E+04  0.13923921113E+04  0.50400001928E-02 0.  1.
       -1   -1    0    0    0  501  0.00000000000E+00  0.00000000000E+00 -0.62687901401E+03  0.62687901404E+03  0.50400001928E-02 0. -1.
    10030    2    1    2    0    0  0.00000000000E+00  0.00000000000E+00  0.76551309731E+03  0.20192711254E+04  0.18685410286E+04 0.  0.
        1    1    3    3  502    0  0.39750696878E+03  0.29708172156E+02  0.12958833179E+04  0.13558052734E+04  0.50400001928E-02 0.  1.
       -1    1    3    3    0  502 -0.39750696878E+03 -0.29708172156E+02 -0.53037022064E+03  0.66346585193E+03  0.50400001928E-02 0. -1.
</event>
<event>
 5   0  0.3531266E-04  0.1813381E+04  0.7818609E-02  0.8699216E-01
        2   -1    0    0  501    0  0.00000000000E+00  0.00000000000E+00  0.21448912126E+04  0.21448912126E+04  0.25500000920E-02 0. -1.
       -2   -1    0    0    0  501  0.00000000000E+00  0.00000000000E+00 -0.38327700316E+03  0.38327700317E+03  0.25500000920E-02 0.  1.
    10030    2    1    2    0    0  0.00000000000E+00  0.00000000000E+00  0.17616142094E+04  0.25281682158E+04  0.18133807941E+04 0.  0.
        3    1    3    3  502    0  0.37801935747E+03  0.67221062583E+03  0.15455250576E+04  0.17272560534E+04  0.10100000352E+00 0.  1.
       -3    1    3    3    0  502 -0.37801935747E+03 -0.67221062583E+03  0.21608915183E+03  0.80091216237E+03  0.10100000352E+00 0. -1.
</event>
<event>
 5   0  0.1818778E-04  0.1805385E+04  0.7818609E-02  0.8703441E-01
       -1   -1    0    0    0  501  0.00000000000E+00  0.00000000000E+00  0.55591813961E+03  0.55591813963E+03  0.50400001928E-02 0.  1.
        1   -1    0    0  501    0  0.00000000000E+00  0.00000000000E+00 -0.14657807636E+04  0.14657807636E+04  0.50400001928E-02 0. -1.
    10030    2    1    2    0    0  0.00000000000E+00  0.00000000000E+00 -0.90986262401E+03  0.20216989033E+04  0.18053854051E+04 0.  0.
        3    1    3    3  502    0  0.61944842658E+03 -0.39011112987E+03  0.13650849959E+03  0.74467283253E+03  0.10100000352E+00 0.  1.
       -3    1    3    3    0  502 -0.61944842658E+03  0.39011112987E+03 -0.10463711236E+04  0.12770260707E+04  0.10100000352E+00 0. -1.
</event>
<event>
 5   0  0.1883959E-04  0.1717194E+04  0.7818609E-02  0.8751618E-01
        1   -1    0    0  501    0  0.00000000000E+00  0.00000000000E+00  0.10739074671E+04  0.10739074671E+04  0.50400001928E-02 0.  1.
       -1   -1    0    0    0  501  0.00000000000E+00  0.00000000000E+00 -0.68645502730E+03  0.68645502732E+03  0.50400001928E-02 0. -1.
    10030    2    1    2    0    0  0.00000000000E+00  0.00000000000E+00  0.38745243980E+03  0.17603624944E+04  0.17171944324E+04 0.  0.
        5    1    3    3  502    0  0.44824447292E+03 -0.45711515259E+03  0.78020029265E+03  0.10092630762E+04  0.46999998093E+01 0.  1.
       -5    1    3    3    0  502 -0.44824447292E+03  0.45711515259E+03 -0.39274785285E+03  0.75109941828E+03  0.46999998093E+01 0. -1.
</event>
<event>
 5   0  0.1837313E-04  0.1820435E+04  0.7818609E-02  0.8695507E-01
        1   -1    0    0  501    0  0.00000000000E+00  0.00000000000E+00  0.95975560866E+03  0.95975560867E+03  0.50400001928E-02 0.  1.
       -1   -1    0    0    0  501  0.00000000000E+00  0.00000000000E+00 -0.86323611658E+03  0.86323611659E+03  0.50400001928E-02 0. -1.
    10030    2    1    2    0    0  0.00000000000E+00  0.00000000000E+00  0.96519492081E+02  0.18229917253E+04  0.18204347882E+04 0.  0.
        1    1    3    3  502    0  0.76260178928E+02 -0.55314425470E+03  0.76809588196E+03  0.94960805879E+03  0.50400001928E-02 0.  1.
       -1    1    3    3    0  502 -0.76260178928E+02  0.55314425470E+03 -0.67157638988E+03  0.87338366648E+03  0.50400001928E-02 0. -1.
</event>
<event>
 5   0  0.1837313E-04  0.1784697E+04  0.7818609E-02  0.8714480E-01
       -1   -1    0    0    0  501  0.00000000000E+00  0.00000000000E+00  0.97514144158E+03  0.97514144159E+03  0.50400001928E-02 0. -1.
        1   -1    0    0  501    0  0.00000000000E+00  0.00000000000E+00 -0.81658522311E+03  0.81658522313E+03  0.50400001928E-02 0.  1.
    10030    2    1    2    0    0  0.00000000000E+00  0.00000000000E+00  0.15855621847E+03  0.17917266647E+04  0.17846972759E+04 0.  0.
        1    1    3    3  502    0  0.94265968630E+02  0.81307879052E+03 -0.27751286217E+03  0.86428963961E+03  0.50400001928E-02 0.  1.
       -1    1    3    3    0  502 -0.94265968630E+02 -0.81307879052E+03  0.43606908064E+03  0.92743702511E+03  0.50400001928E-02 0. -1.
</event>
<event>
 5   0  0.3531266E-04  0.1474526E+04  0.7818609E-02  0.8901572E-01
       -2   -1    0    0    0  501  0.00000000000E+00  0.00000000000E+00  0.93900474063E+03  0.93900474063E+03  0.25500000920E-02 0.  1.
        2   -1    0    0  501    0  0.00000000000E+00  0.00000000000E+00 -0.57886450428E+03  0.57886450429E+03  0.25500000920E-02 0. -1.
    10030    2    1    2    0    0  0.00000000000E+00  0.00000000000E+00  0.36014023635E+03  0.15178692449E+04  0.14745257050E+04 0.  0.
        3    1    3    3  502    0  0.67519840115E+02  0.53474490862E+03 -0.33775282185E+03  0.63607234257E+03  0.10100000352E+00 0. -1.
       -3    1    3    3    0  502 -0.67519840115E+02 -0.53474490862E+03  0.69789305820E+03  0.88179690235E+03  0.10100000352E+00 0.  1.
</event>
<event>
 5   0  0.1837313E-04  0.1798428E+04  0.7818609E-02  0.8707136E-01
        1   -1    0    0  501    0  0.00000000000E+00  0.00000000000E+00  0.76199254677E+03  0.76199254678E+03  0.50400001928E-02 0.  1.
       -1   -1    0    0    0  501  0.00000000000E+00  0.00000000000E+00 -0.10611469240E+04  0.10611469241E+04  0.50400001928E-02 0. -1.
    10030    2    1    2    0    0  0.00000000000E+00  0.00000000000E+00 -0.29915437728E+03  0.18231394708E+04  0.17984282551E+04 0.  0.
        1    1    3    3  502    0  0.81955918198E+03  0.25882946917E+03  0.11847254176E+03  0.86758612832E+03  0.50400001928E-02 0.  1.
       -1    1    3    3    0  502 -0.81955918198E+03 -0.25882946917E+03 -0.41762691904E+03  0.95555334252E+03  0.50400001928E-02 0. -1.
</event>
<event>
 5   0  0.1835421E-04  0.1774935E+04  0.7818609E-02  0.8719744E-01
        1   -1    0    0  501    0  0.00000000000E+00  0.00000000000E+00  0.40663085152E+03  0.40663085155E+03  0.50400001928E-02 0.  1.
       -1   -1    0    0    0  501  0.00000000000E+00  0.00000000000E+00 -0.19368875301E+04  0.19368875301E+04  0.50400001928E-02 0. -1.
    10030    2    1    2    0    0  0.00000000000E+00  0.00000000000E+00 -0.15302566785E+04  0.23435183816E+04  0.17749346193E+04 0.  0.
        2    1    3    3  502    0  0.16525907675E+03 -0.67802433158E+03 -0.14889962141E+04  0.16444261255E+04  0.25500000920E-02 0. -1.
       -2    1    3    3    0  502 -0.16525907675E+03  0.67802433158E+03 -0.41260464486E+02  0.69909225614E+03  0.25500000920E-02 0.  1.
</event>
<event>
 5   0  0.1883959E-04  0.1785877E+04  0.7818609E-02  0.8713846E-01
       -1   -1    0    0    0  501  0.00000000000E+00  0.00000000000E+00  0.67324972587E+03  0.67324972588E+03  0.50400001928E-02 0.  1.
        1   -1    0    0  501    0  0.00000000000E+00  0.00000000000E+00 -0.11843143752E+04  0.11843143752E+04  0.50400001928E-02 0. -1.
    10030    2    1    2    0    0  0.00000000000E+00  0.00000000000E+00 -0.51106464929E+03  0.18575641011E+04  0.17858771833E+04 0.  0.
        5    1    3    3  502    0  0.41298171496E+03 -0.15422269589E+03 -0.10632195367E+04  0.11509980061E+04  0.46999998093E+01 0. -1.
       -5    1    3    3    0  502 -0.41298171496E+03  0.15422269589E+03  0.55215488742E+03  0.70656609494E+03  0.46999998093E+01 0.  1.
</event>
<event>
 5   0  0.3582186E-04  0.1729369E+04  0.7818609E-02  0.8744789E-01
        2   -1    0    0  501    0  0.00000000000E+00  0.00000000000E+00  0.15038781468E+04  0.15038781468E+04  0.25500000920E-02 0.  1.
       -2   -1    0    0    0  501  0.00000000000E+00  0.00000000000E+00 -0.49716774924E+03  0.49716774924E+03  0.25500000920E-02 0. -1.
    10030    2    1    2    0    0  0.00000000000E+00  0.00000000000E+00  0.10067103976E+04  0.20010458961E+04  0.17293694960E+04 0.  0.
        4    1    3    3  502    0 -0.52613645283E+03  0.15777481525E+03 -0.26936089149E+03  0.61177558147E+03  0.12699999809E+01 0. -1.
       -4    1    3    3    0  502  0.52613645283E+03 -0.15777481525E+03  0.12760712891E+04  0.13892703146E+04  0.12699999809E+01 0.  1.
</event>
<event>
 5   0  0.3531266E-04  0.1814660E+04  0.7818609E-02  0.8698542E-01
       -2   -1    0    0    0  501  0.00000000000E+00  0.00000000000E+00  0.10552548905E+04  0.10552548905E+04  0.25500000920E-02 0. -1.
        2   -1    0    0  501    0  0.00000000000E+00  0.00000000000E+00 -0.78014070058E+03  0.78014070058E+03  0.25500000920E-02 0.  1.
    10030    2    1    2    0    0  0.00000000000E+00  0.00000000000E+00  0.27511418991E+03  0.18353955911E+04  0.18146595158E+04 0.  0.
        3    1    3    3  502    0  0.41064847727E+03  0.65536454870E+03 -0.34232468163E+03  0.84576655256E+03  0.10100000352E+00 0.  1.
       -3    1    3    3    0  502 -0.41064847727E+03 -0.65536454870E+03  0.61743887154E+03  0.98962903851E+03  0.10100000352E+00 0. -1.
</event>
<event>
 5   0  0.1825253E-04  0.1804739E+04  0.7818609E-02  0.8703783E-01
        1   -1    0    0  501    0  0.00000000000E+00  0.00000000000E+00  0.70220906606E+03  0.70220906608E+03  0.50400001928E-02 0.  1.
       -1   -1    0    0    0  501  0.00000000000E+00  0.00000000000E+00 -0.11595848678E+04  0.11595848678E+04  0.50400001928E-02 0. -1.
    10030    2    1    2    0    0  0.00000000000E+00  0.00000000000E+00 -0.45737580171E+03  0.18617939339E+04  0.18047393242E+04 0.  0.
        4    1    3    3  502    0  0.87298903099E+03 -0.16543811113E+03 -0.39111311279E+03  0.97079899914E+03  0.12699999809E+01 0.  1.
       -4    1    3    3    0  502 -0.87298903099E+03  0.16543811113E+03 -0.66262688920E+02  0.89099493471E+03  0.12699999809E+01 0. -1.
</event>
<event>
 5   0  0.1835421E-04  0.1805140E+04  0.7818609E-02  0.8703571E-01
        1   -1    0    0  501    0  0.00000000000E+00  0.00000000000E+00  0.13861353758E+04  0.13861353758E+04  0.50400001928E-02 0. -1.
       -1   -1    0    0    0  501  0.00000000000E+00  0.00000000000E+00 -0.58770088507E+03  0.58770088509E+03  0.50400001928E-02 0.  1.
    10030    2    1    2    0    0  0.00000000000E+00  0.00000000000E+00  0.79843449076E+03  0.19738362609E+04  0.18051404236E+04 0.  0.
        2    1    3    3  502    0 -0.53535364897E+03  0.69833167429E+03  0.61889609625E+03  0.10757801982E+04  0.25500000920E-02 0. -1.
       -2    1    3    3    0  502  0.53535364897E+03 -0.69833167429E+03  0.17953839451E+03  0.89805606277E+03  0.25500000920E-02 0.  1.
</event>
<event>
 5   0  0.1825253E-04  0.1800084E+04  0.7818609E-02  0.8706255E-01
       -1   -1    0    0    0  501  0.00000000000E+00  0.00000000000E+00  0.71986173951E+03  0.71986173952E+03  0.50400001928E-02 0. -1.
        1   -1    0    0  501    0  0.00000000000E+00  0.00000000000E+00 -0.11253215911E+04  0.11253215911E+04  0.50400001928E-02 0.  1.
    10030    2    1    2    0    0  0.00000000000E+00  0.00000000000E+00 -0.40545985155E+03  0.18451833306E+04  0.18000843959E+04 0.  0.
        4    1    3    3  502    0  0.49873661897E+02  0.52405926992E+03  0.54559363285E+03  0.75815534401E+03  0.12699999809E+01 0. -1.
       -4    1    3    3    0  502 -0.49873661897E+02 -0.52405926992E+03 -0.95105348440E+03  0.10870279866E+04  0.12699999809E+01 0.  1.
</event>
<event>
 5   0  0.1837313E-04  0.1804043E+04  0.7818609E-02  0.8704153E-01
        1   -1    0    0  501    0  0.00000000000E+00  0.00000000000E+00  0.17537163359E+04  0.17537163359E+04  0.50400001928E-02 0. -1.
       -1   -1    0    0    0  501  0.00000000000E+00  0.00000000000E+00 -0.46395332438E+03  0.46395332440E+03  0.50400001928E-02 0.  1.
    10030    2    1    2    0    0  0.00000000000E+00  0.00000000000E+00  0.12897630115E+04  0.22176696603E+04  0.18040427091E+04 0.  0.
        1    1    3    3  502    0  0.64680875405E+03 -0.25718277059E+03  0.13501249233E+04  0.15189936966E+04  0.50400001928E-02 0. -1.
       -1    1    3    3    0  502 -0.64680875405E+03  0.25718277059E+03 -0.60361911799E+02  0.69867596368E+03  0.50400001928E-02 0.  1.
</event>
<event>
 5   0  0.1330125E-04  0.1786625E+04  0.7818609E-02  0.8713444E-01
        3   -1    0    0  501    0  0.00000000000E+00  0.00000000000E+00  0.13178764569E+04  0.13178764608E+04  0.10100000352E+00 0. -1.
       -3   -1    0    0    0  501  0.00000000000E+00  0.00000000000E+00 -0.60552522580E+03  0.60552523422E+03  0.10100000352E+00 0.  1.
    10030    2    1    2    0    0  0.00000000000E+00  0.00000000000E+00  0.71235123108E+03  0.19234016950E+04  0.17866252556E+04 0.  0.
        4    1    3    3  502    0 -0.15711253932E+03 -0.44029849088E+02  0.13016973538E+04  0.13118843666E+04  0.12699999809E+01 0. -1.
       -4    1    3    3    0  502  0.15711253932E+03  0.44029849088E+02 -0.58934612271E+03  0.61151732835E+03  0.12699999809E+01 0.  1.
</event>
<event>
 5   0  0.1825253E-04  0.1821997E+04  0.7818609E-02  0.8694688E-01
        1   -1    0    0  501    0  0.00000000000E+00  0.00000000000E+00  0.89448415594E+03  0.89448415595E+03  0.50400001928E-02 0.  1.
       -1   -1    0    0    0  501  0.00000000000E+00  0.00000000000E+00 -0.92781777724E+03  0.92781777726E+03  0.50400001928E-02 0. -1.
    10030    2    1    2    0    0  0.00000000000E+00  0.00000000000E+00 -0.33333621305E+02  0.18223019332E+04  0.18219970377E+04 0.  0.
        4    1    3    3  502    0 -0.89212090318E+03  0.13844676096E+03 -0.13862768110E+03  0.91338187982E+03  0.12699999809E+01 0. -1.
       -4    1    3    3    0  502  0.89212090318E+03 -0.13844676096E+03  0.10529405979E+03  0.90892005339E+03  0.12699999809E+01 0.  1.
</event>
<event>
 5   0  0.3582186E-04  0.1816552E+04  0.7818609E-02  0.8697546E-01
        2   -1    0    0  501    0  0.00000000000E+00  0.00000000000E+00  0.32202088387E+03  0.32202088388E+03  0.25500000920E-02 0. -1.
       -2   -1    0    0    0  501  0.00000000000E+00  0.00000000000E+00 -0.25618388735E+04  0.25618388735E+04  0.25500000920E-02 0.  1.
    10030    2    1    2    0    0  0.00000000000E+00  0.00000000000E+00 -0.22398179896E+04  0.28838597574E+04  0.18165523591E+04 0.  0.
        4    1    3    3  502    0  0.34970218169E+03 -0.15073281657E+03  0.18916846999E+03  0.42520385794E+03  0.12699999809E+01 0. -1.
       -4    1    3    3    0  502 -0.34970218169E+03  0.15073281657E+03 -0.24289864596E+04  0.24586558994E+04  0.12699999809E+01 0.  1.
</event>
<event>
 5   0  0.1330125E-04  0.1872536E+04  0.7818609E-02  0.8668649E-01
        3   -1    0    0  501    0  0.00000000000E+00  0.00000000000E+00  0.61186293507E+03  0.61186294340E+03  0.10100000352E+00 0.  1.
       -3   -1    0    0    0  501  0.00000000000E+00  0.00000000000E+00 -0.14326694811E+04  0.14326694847E+04  0.10100000352E+00 0. -1.
    10030    2    1    2    0    0  0.00000000000E+00  0.00000000000E+00 -0.82080654603E+03  0.20445324281E+04  0.18725355707E+04 0.  0.
        5    1    3    3  502    0  0.47662444784E+03 -0.15915594251E+03 -0.12729485496E+04  0.13685472510E+04  0.46999998093E+01 0. -1.
       -5    1    3    3    0  502 -0.47662444784E+03  0.15915594251E+03  0.45214200352E+03  0.67598517710E+03  0.46999998093E+01 0.  1.
</event>
<event>
 5   0  0.3582186E-04  0.1768961E+04  0.7818609E-02  0.8722982E-01
        2   -1    0    0  501    0  0.00000000000E+00  0.00000000000E+00  0.21256933748E+04  0.21256933748E+04  0.25500000920E-02 0. -1.
       -2   -1    0    0    0  501  0.00000000000E+00  0.00000000000E+00 -0.36802362337E+03  0.36802362338E+03  0.25500000920E-02 0.  1.
    10030    2    1    2    0    0  0.00000000000E+00  0.00000000000E+00  0.17576697514E+04  0.24937169981E+04  0.17689605739E+04 0.  0.
        4    1    3    3  502    0  0.33510902662E+03 -0.75657353493E+03  0.43842322754E+03  0.93643905986E+03  0.12699999809E+01 0.  1.
       -4    1    3    3    0  502 -0.33510902662E+03  0.75657353493E+03  0.13192465239E+04  0.15572779383E+04  0.12699999809E+01 0. -1.
</event>
<event>
 5   0  0.1837313E-04  0.1802077E+04  0.7818609E-02  0.8705195E-01
       -1   -1    0    0    0  501  0.00000000000E+00  0.00000000000E+00  0.35329716597E+03  0.35329716601E+03  0.50400001928E-02 0. -1.
        1   -1    0    0  501    0  0.00000000000E+00  0.00000000000E+00 -0.22979827622E+04  0.22979827622E+04  0.50400001928E-02 0.  1.
    10030    2    1    2    0    0  0.00000000000E+00  0.00000000000E+00 -0.19446855962E+04  0.26512799282E+04  0.18020774649E+04 0.  0.
        1    1    3    3  502    0  0.49159705247E+03  0.66606481780E+03 -0.14957403938E+04  0.17095465273E+04  0.50400001928E-02 0.  1.
       -1    1    3    3    0  502 -0.49159705247E+03 -0.66606481780E+03 -0.44894520246E+03  0.94173340089E+03  0.50400001928E-02 0. -1.
</event>
<event>
 5   0  0.1825253E-04  0.1810271E+04  0.7818609E-02  0.8700856E-01
        1   -1    0    0  501    0  0.00000000000E+00  0.00000000000E+00  0.13230192093E+04  0.13230192093E+04  0.50400001928E-02 0. -1.
       -1   -1    0    0    0  501  0.00000000000E+00  0.00000000000E+00 -0.61924301321E+03  0.61924301323E+03  0.50400001928E-02 0.  1.
    10030    2    1    2    0    0  0.00000000000E+00  0.00000000000E+00  0.70377619608E+03  0.19422622225E+04  0.18102711418E+04 0.  0.
        4    1    3    3  502    0  0.34848291312E+03  0.76503113370E+03 -0.80668921087E+01  0.84070188766E+03  0.12699999809E+01 0.  1.
       -4    1    3    3    0  502 -0.34848291312E+03 -0.76503113370E+03  0.71184308819E+03  0.11015603349E+04  0.12699999809E+01 0. -1.
</event>
<event>
 5   0  0.3582186E-04  0.1783116E+04  0.7818609E-02  0.8715330E-01
        2   -1    0    0  501    0  0.00000000000E+00  0.00000000000E+00  0.21631430250E+04  0.21631430250E+04  0.25500000920E-02 0. -1.
       -2   -1    0    0    0  501  0.00000000000E+00  0.00000000000E+00 -0.36746319679E+03  0.36746319680E+03  0.25500000920E-02 0.  1.
    10030    2    1    2    0    0  0.00000000000E+00  0.00000000000E+00  0.17956798282E+04  0.25306062218E+04  0.17831157574E+04 0.  0.
        4    1    3    3  502    0 -0.30172770101E+03  0.74946772015E+03  0.14328864185E+04  0.16449640028E+04  0.12699999809E+01 0. -1.
       -4    1    3    3    0  502  0.30172770101E+03 -0.74946772015E+03  0.36279340964E+03  0.88564221900E+03  0.12699999809E+01 0.  1.
</event>
<event>
 5   0  0.3582186E-04  0.1986434E+04  0.7818609E-02  0.8612990E-01
       -2   -1    0    0    0  501  0.00000000000E+00  0.00000000000E+00  0.47917005410E+03  0.47917005410E+03  0.25500000920E-02 0. -1.
        2   -1    0    0  501    0  0.00000000000E+00  0.00000000000E+00 -0.20587257445E+04  0.20587257445E+04  0.25500000920E-02 0.  1.
    10030    2    1    2    0    0  0.00000000000E+00  0.00000000000E+00 -0.15795556904E+04  0.25378957986E+04  0.19864337154E+04 0.  0.
        4    1    3    3  502    0 -0.74435961032E+03  0.82208454163E+02  0.43760035086E+02  0.75016399072E+03  0.12699999809E+01 0. -1.
       -4    1    3    3    0  502  0.74435961032E+03 -0.82208454163E+02 -0.16233157255E+04  0.17877318079E+04  0.12699999809E+01 0.  1.
</event>
<event>
 5   0  0.3575091E-04  0.1629582E+04  0.7818609E-02  0.8802578E-01
        2   -1    0    0  501    0  0.00000000000E+00  0.00000000000E+00  0.46039710637E+03  0.46039710638E+03  0.25500000920E-02 0.  1.
       -2   -1    0    0    0  501  0.00000000000E+00  0.00000000000E+00 -0.14419826469E+04  0.14419826469E+04  0.25500000920E-02 0. -1.
    10030    2    1    2    0    0  0.00000000000E+00  0.00000000000E+00 -0.98158554053E+03  0.19023797533E+04  0.16295823245E+04 0.  0.
        5    1    3    3  502    0  0.54039864663E+03 -0.26067630273E+03 -0.11343271684E+04  0.12832392789E+04  0.46999998093E+01 0. -1.
       -5    1    3    3    0  502 -0.54039864663E+03  0.26067630273E+03  0.15274162786E+03  0.61914047434E+03  0.46999998093E+01 0.  1.
</event>
<event>
 5   0  0.3568870E-04  0.1789303E+04  0.7818609E-02  0.8712009E-01
       -2   -1    0    0    0  501  0.00000000000E+00  0.00000000000E+00  0.67714028128E+03  0.67714028129E+03  0.25500000920E-02 0. -1.
        2   -1    0    0  501    0  0.00000000000E+00  0.00000000000E+00 -0.11820320710E+04  0.11820320710E+04  0.25500000920E-02 0.  1.
    10030    2    1    2    0    0  0.00000000000E+00  0.00000000000E+00 -0.50489178972E+03  0.18591723523E+04  0.17893032488E+04 0.  0.
        1    1    3    3  502    0  0.37591298687E+03  0.43036649061E+03  0.46282061903E+03  0.73534265167E+03  0.50400001928E-02 0. -1.
       -1    1    3    3    0  502 -0.37591298687E+03 -0.43036649061E+03 -0.96771240874E+03  0.11238297006E+04  0.50400001928E-02 0.  1.
</event>
<event>
 5   0  0.1883959E-04  0.1826626E+04  0.7818609E-02  0.8692267E-01
        1   -1    0    0  501    0  0.00000000000E+00  0.00000000000E+00  0.20881934539E+04  0.20881934539E+04  0.50400001928E-02 0.  1.
       -1   -1    0    0    0  501  0.00000000000E+00  0.00000000000E+00 -0.39945567852E+03  0.39945567856E+03  0.50400001928E-02 0. -1.
    10030    2    1    2    0    0  0.00000000000E+00  0.00000000000E+00  0.16887377754E+04  0.24876491325E+04  0.18266261063E+04 0.  0.
        5    1    3    3  502    0 -0.50492218886E+03 -0.20031132433E+02 -0.19171003556E+03  0.54048357126E+03  0.46999998093E+01 0. -1.
       -5    1    3    3    0  502  0.50492218886E+03  0.20031132433E+02  0.18804478110E+04  0.19471655612E+04  0.46999998093E+01 0.  1.
</event>
<event>
 5   0  0.3575091E-04  0.1824635E+04  0.7818609E-02  0.8693308E-01
       -2   -1    0    0    0  501  0.00000000000E+00  0.00000000000E+00  0.28680931295E+03  0.28680931296E+03  0.25500000920E-02 0.  1.
        2   -1    0    0  501    0  0.00000000000E+00  0.00000000000E+00 -0.29020075380E+04  0.29020075380E+04  0.25500000920E-02 0. -1.
    10030    2    1    2    0    0  0.00000000000E+00  0.00000000000E+00 -0.26151982251E+04  0.31888168510E+04  0.18246345258E+04 0.  0.
        5    1    3    3  502    0 -0.24266577620E+03  0.38735519021E+03  0.72234208998E+02  0.46278568828E+03  0.46999998093E+01 0.  1.
       -5    1    3    3    0  502  0.24266577620E+03 -0.38735519021E+03 -0.26874324341E+04  0.27260311627E+04  0.46999998093E+01 0. -1.
</event>
<event>
 5   0  0.1330125E-04  0.1791455E+04  0.7818609E-02  0.8710857E-01
        4   -1    0    0  501    0  0.00000000000E+00  0.00000000000E+00  0.11547476196E+04  0.11547483180E+04  0.12699999809E+01 0.  1.
       -4   -1    0    0    0  501  0.00000000000E+00  0.00000000000E+00 -0.69480606064E+03  0.69480722132E+03  0.12699999809E+01 0. -1.
    10030    2    1    2    0    0  0.00000000000E+00  0.00000000000E+00  0.45994155895E+03  0.18495555393E+04  0.17914545641E+04 0.  0.
        5    1    3    3  502    0  0.77129525557E+03 -0.35630653446E+03  0.52281516403E+03  0.99760137504E+03  0.46999998093E+01 0.  1.
       -5    1    3    3    0  502 -0.77129525557E+03  0.35630653446E+03 -0.62873605080E+02  0.85195416424E+03  0.46999998093E+01 0. -1.
</event>
<event>
 5   0  0.3575091E-04  0.1811918E+04  0.7818609E-02  0.8699987E-01
        2   -1    0    0  501    0  0.00000000000E+00  0.00000000000E+00  0.16594530267E+04  0.16594530267E+04  0.25500000920E-02 0. -1.
       -2   -1    0    0    0  501  0.00000000000E+00  0.00000000000E+00 -0.49459756469E+03  0.49459756469E+03  0.25500000920E-02 0.  1.
    10030    2    1    2    0    0  0.00000000000E+00  0.00000000000E+00  0.11648554620E+04  0.21540505914E+04  0.18119176866E+04 0.  0.
        5    1    3    3  502    0  0.48531236974E+03 -0.68545760600E+03  0.98620641024E+03  0.12953784773E+04  0.46999998093E+01 0. -1.
       -5    1    3    3    0  502 -0.48531236974E+03  0.68545760600E+03  0.17864905178E+03  0.85867211411E+03  0.46999998093E+01 0.  1.
</event>
<event>
 5   0  0.1818778E-04  0.1774441E+04  0.7818609E-02  0.8720011E-01
        1   -1    0    0  501    0  0.00000000000E+00  0.00000000000E+00  0.86190683239E+03  0.86190683240E+03  0.50400001928E-02 0.  1.
       -1   -1    0    0    0  501  0.00000000000E+00  0.00000000000E+00 -0.91327808200E+03  0.91327808202E+03  0.50400001928E-02 0. -1.
    10030    2    1    2    0    0  0.00000000000E+00  0.00000000000E+00 -0.51371249615E+02  0.17751849144E+04  0.17744414544E+04 0.  0.
        3    1    3    3  502    0  0.64621208624E+03  0.58438865225E+03 -0.19326835033E+03  0.89244205567E+03  0.10100000352E+00 0. -1.
       -3    1    3    3    0  502 -0.64621208624E+03 -0.58438865225E+03  0.14189710071E+03  0.88274285875E+03  0.10100000352E+00 0.  1.
</event>
<event>
 5   0  0.1825253E-04  0.1797030E+04  0.7818609E-02  0.8707880E-01
        1   -1    0    0  501    0  0.00000000000E+00  0.00000000000E+00  0.90767228351E+03  0.90767228353E+03  0.50400001928E-02 0. -1.
       -1   -1    0    0    0  501  0.00000000000E+00  0.00000000000E+00 -0.88945043396E+03  0.88945043397E+03  0.50400001928E-02 0.  1.
    10030    2    1    2    0    0  0.00000000000E+00  0.00000000000E+00  0.18221849558E+02  0.17971227175E+04  0.17970303353E+04 0.  0.
        4    1    3    3  502    0 -0.25551775539E+03  0.81976210669E+03 -0.25553196476E+03  0.89587802340E+03  0.12699999809E+01 0. -1.
       -4    1    3    3    0  502  0.25551775539E+03 -0.81976210669E+03  0.27375381431E+03  0.90124469410E+03  0.12699999809E+01 0.  1.
</event>
<event>
 5   0  0.1818778E-04  0.1775126E+04  0.7818609E-02  0.8719640E-01
        1   -1    0    0  501    0  0.00000000000E+00  0.00000000000E+00  0.13693942082E+04  0.13693942082E+04  0.50400001928E-02 0. -1.
       -1   -1    0    0    0  501  0.00000000000E+00  0.00000000000E+00 -0.57526788625E+03  0.57526788627E+03  0.50400001928E-02 0.  1.
    10030    2    1    2    0    0  0.00000000000E+00  0.00000000000E+00  0.79412632192E+03  0.19446620945E+04  0.17751264874E+04 0.  0.
        3    1    3    3  502    0  0.14350931294E+03 -0.78247441704E+03 -0.34109164537E+02  0.79625660533E+03  0.10100000352E+00 0.  1.
       -3    1    3    3    0  502 -0.14350931294E+03  0.78247441704E+03  0.82823548646E+03  0.11484054891E+04  0.10100000352E+00 0. -1.
</event>
<event>
 5   0  0.1818778E-04  0.1317518E+04  0.7818609E-02  0.9015787E-01
       -1   -1    0    0    0  501  0.00000000000E+00  0.00000000000E+00  0.18549379104E+03  0.18549379111E+03  0.50400001928E-02 0.  1.
        1   -1    0    0  501    0  0.00000000000E+00  0.00000000000E+00 -0.23395050912E+04  0.23395050912E+04  0.50400001928E-02 0. -1.
    10030    2    1    2    0    0  0.00000000000E+00  0.00000000000E+00 -0.21540113001E+04  0.25249988823E+04  0.13175183773E+04 0.  0.
        3    1    3    3  502    0  0.37106018269E+03  0.45326768661E+02 -0.37460934792E+02  0.37569070653E+03  0.10100000352E+00 0.  1.
       -3    1    3    3    0  502 -0.37106018269E+03 -0.45326768661E+02 -0.21165503653E+04  0.21493081757E+04  0.10100000352E+00 0. -1.
</event>
<event>
 5   0  0.3628581E-04  0.1788195E+04  0.7818609E-02  0.8712603E-01
       -2   -1    0    0    0  501  0.00000000000E+00  0.00000000000E+00  0.11168404121E+04  0.11168404121E+04  0.25500000920E-02 0.  1.
        2   -1    0    0  501    0  0.00000000000E+00  0.00000000000E+00 -0.71577809256E+03  0.71577809257E+03  0.25500000920E-02 0. -1.
    10030    2    1    2    0    0  0.00000000000E+00  0.00000000000E+00  0.40106231955E+03  0.18326185047E+04  0.17881945083E+04 0.  0.
        2    1    3    3  502    0  0.77994820859E+03 -0.41706683441E+03  0.66335628291E+02  0.88694101722E+03  0.25500000920E-02 0. -1.
       -2    1    3    3    0  502 -0.77994820859E+03  0.41706683441E+03  0.33472669125E+03  0.94567748746E+03  0.25500000920E-02 0.  1.
</event>
<event>
 5   0  0.1883959E-04  0.1697702E+04  0.7818609E-02  0.8762676E-01
       -1   -1    0    0    0  501  0.00000000000E+00  0.00000000000E+00  0.73009605908E+03  0.73009605909E+03  0.50400001928E-02 0.  1.
        1   -1    0    0  501    0  0.00000000000E+00  0.00000000000E+00 -0.98692174185E+03  0.98692174186E+03  0.50400001928E-02 0. -1.
    10030    2    1    2    0    0  0.00000000000E+00  0.00000000000E+00 -0.25682568278E+03  0.17170178010E+04  0.16977015926E+04 0.  0.
        5    1    3    3  502    0  0.60957990164E+03  0.58439095750E+03 -0.21556249552E+03  0.87154444933E+03  0.46999998093E+01 0.  1.
       -5    1    3    3    0  502 -0.60957990164E+03 -0.58439095750E+03 -0.41263187252E+02  0.84547335163E+03  0.46999998093E+01 0. -1.
</event>
<event>
 5   0  0.1835421E-04  0.2032214E+04  0.7818609E-02  0.8591706E-01
       -1   -1    0    0    0  501  0.00000000000E+00  0.00000000000E+00  0.83927475534E+03  0.83927475535E+03  0.50400001928E-02 0. -1.
        1   -1    0    0  501    0  0.00000000000E+00  0.00000000000E+00 -0.12301973559E+04  0.12301973559E+04  0.50400001928E-02 0.  1.
    10030    2    1    2    0    0  0.00000000000E+00  0.00000000000E+00 -0.39092260054E+03  0.20694721112E+04  0.20322141471E+04 0.  0.
        2    1    3    3  502    0  0.89124513034E+03 -0.43827016223E+03 -0.41404744293E+03  0.10760269060E+04  0.25500000920E-02 0. -1.
       -2    1    3    3    0  502 -0.89124513034E+03  0.43827016223E+03  0.23124842391E+02  0.99344520523E+03  0.25500000920E-02 0.  1.
</event>
<event>
 5   0  0.1818778E-04  0.1782048E+04  0.7818609E-02  0.8715905E-01
       -1   -1    0    0    0  501  0.00000000000E+00  0.00000000000E+00  0.43114079907E+03  0.43114079910E+03  0.50400001928E-02 0.  1.
        1   -1    0    0  501    0  0.00000000000E+00  0.00000000000E+00 -0.18414480583E+04  0.18414480583E+04  0.50400001928E-02 0. -1.
    10030    2    1    2    0    0  0.00000000000E+00  0.00000000000E+00 -0.14103072592E+04  0.22725888574E+04  0.17820475722E+04 0.  0.
        3    1    3    3  502    0  0.38983925001E+03  0.38386755174E+03  0.19170954895E+03  0.57972536557E+03  0.10100000352E+00 0.  1.
       -3    1    3    3    0  502 -0.38983925001E+03 -0.38386755174E+03 -0.16020168082E+04  0.16928634918E+04  0.10100000352E+00 0. -1.
</event>
<event>
 5   0  0.3568870E-04  0.1787289E+04  0.7818609E-02  0.8713088E-01
        2   -1    0    0  501    0  0.00000000000E+00  0.00000000000E+00  0.17064876092E+04  0.17064876092E+04  0.25500000920E-02 0. -1.
       -2   -1    0    0    0  501  0.00000000000E+00  0.00000000000E+00 -0.46797908308E+03  0.46797908308E+03  0.25500000920E-02 0.  1.
    10030    2    1    2    0    0  0.00000000000E+00  0.00000000000E+00  0.12385085261E+04  0.21744666923E+04  0.17872890160E+04 0.  0.
        1    1    3    3  502    0  0.23830126738E+03  0.86078921993E+03  0.58368100697E+03  0.10669719270E+04  0.50400001928E-02 0. -1.
       -1    1    3    3    0  502 -0.23830126738E+03 -0.86078921993E+03  0.65482751918E+03  0.11074947653E+04  0.50400001928E-02 0.  1.
</event>
<event>
 5   0  0.3628581E-04  0.1804209E+04  0.7818609E-02  0.8704064E-01
       -2   -1    0    0    0  501  0.00000000000E+00  0.00000000000E+00  0.82318881358E+03  0.82318881359E+03  0.25500000920E-02 0.  1.
        2   -1    0    0  501    0  0.00000000000E+00  0.00000000000E+00 -0.98858583076E+03  0.98858583076E+03  0.25500000920E-02 0. -1.
    10030    2    1    2    0    0  0.00000000000E+00  0.00000000000E+00 -0.16539701717E+03  0.18117746443E+04  0.18042092973E+04 0.  0.
        2    1    3    3  502    0  0.42285167417E+03  0.56954029494E+03 -0.64236222600E+03  0.95697905688E+03  0.25500000920E-02 0. -1.
       -2    1    3    3    0  502 -0.42285167417E+03 -0.56954029494E+03  0.47696520883E+03  0.85479558746E+03  0.25500000920E-02 0.  1.
</event>
<event>
 5   0  0.1818778E-04  0.1753718E+04  0.7818609E-02  0.8731306E-01
        1   -1    0    0  501    0  0.00000000000E+00  0.00000000000E+00  0.15519529855E+04  0.15519529855E+04  0.50400001928E-02 0. -1.
       -1   -1    0    0    0  501  0.00000000000E+00  0.00000000000E+00 -0.49542854248E+03  0.49542854251E+03  0.50400001928E-02 0.  1.
    10030    2    1    2    0    0  0.00000000000E+00  0.00000000000E+00  0.10565244431E+04  0.20473815280E+04  0.17537181138E+04 0.  0.
        3    1    3    3  502    0  0.72568540530E+02 -0.49996525913E+03  0.13649680297E+04  0.14554618462E+04  0.10100000352E+00 0. -1.
       -3    1    3    3    0  502 -0.72568540530E+02  0.49996525913E+03 -0.30844358665E+03  0.59191968185E+03  0.10100000352E+00 0.  1.
</event>
<event>
 5   0  0.3568870E-04  0.1822139E+04  0.7818609E-02  0.8694614E-01
        2   -1    0    0  501    0  0.00000000000E+00  0.00000000000E+00  0.10886551224E+04  0.10886551224E+04  0.25500000920E-02 0.  1.
       -2   -1    0    0    0  501  0.00000000000E+00  0.00000000000E+00 -0.76245270925E+03  0.76245270925E+03  0.25500000920E-02 0. -1.
    10030    2    1    2    0    0  0.00000000000E+00  0.00000000000E+00  0.32620241312E+03  0.18511078316E+04  0.18221394540E+04 0.  0.
        1    1    3    3  502    0  0.45107143633E+03  0.77816953265E+03  0.31044069159E+03  0.95151809507E+03  0.50400001928E-02 0.  1.
       -1    1    3    3    0  502 -0.45107143633E+03 -0.77816953265E+03  0.15761721532E+02  0.89958973655E+03  0.50400001928E-02 0. -1.
</event>
<event>
 5   0  0.1837313E-04  0.1752727E+04  0.7818609E-02  0.8731851E-01
       -1   -1    0    0    0  501  0.00000000000E+00  0.00000000000E+00  0.37349208339E+03  0.37349208342E+03  0.50400001928E-02 0.  1.
        1   -1    0    0  501    0  0.00000000000E+00  0.00000000000E+00 -0.20563037668E+04  0.20563037669E+04  0.50400001928E-02 0. -1.
    10030    2    1    2    0    0  0.00000000000E+00  0.00000000000E+00 -0.16828116835E+04  0.24297958503E+04  0.17527272212E+04 0.  0.
        1    1    3    3  502    0  0.23603605522E+03  0.84355994842E+03 -0.80455095062E+03  0.11893732123E+04  0.50400001928E-02 0.  1.
       -1    1    3    3    0  502 -0.23603605522E+03 -0.84355994842E+03 -0.87826073284E+03  0.12404226380E+04  0.50400001928E-02 0. -1.
</event>
<event>
 5   0  0.1818778E-04  0.1796685E+04  0.7818609E-02  0.8708064E-01
       -1   -1    0    0    0  501  0.00000000000E+00  0.00000000000E+00  0.58367339679E+03  0.58367339682E+03  0.50400001928E-02 0. -1.
        1   -1    0    0  501    0  0.00000000000E+00  0.00000000000E+00 -0.13826552221E+04  0.13826552221E+04  0.50400001928E-02 0.  1.
    10030    2    1    2    0    0  0.00000000000E+00  0.00000000000E+00 -0.79898182532E+03  0.19663286189E+04  0.17966848028E+04 0.  0.
        3    1    3    3  502    0  0.88521227930E+03 -0.41061752538E+02 -0.23815309354E+03  0.91760762481E+03  0.10100000352E+00 0.  1.
       -3    1    3    3    0  502 -0.88521227930E+03  0.41061752538E+02 -0.56082873178E+03  0.10487209941E+04  0.10100000352E+00 0. -1.
</event>
<event>
 5   0  0.3582186E-04  0.1753319E+04  0.7818609E-02  0.8731526E-01
       -2   -1    0    0    0  501  0.00000000000E+00  0.00000000000E+00  0.87972129491E+03  0.87972129492E+03  0.25500000920E-02 0. -1.
        2   -1    0    0  501    0  0.00000000000E+00  0.00000000000E+00 -0.87360802566E+03  0.87360802566E+03  0.25500000920E-02 0.  1.
    10030    2    1    2    0    0  0.00000000000E+00  0.00000000000E+00  0.61132692573E+01  0.17533293206E+04  0.17533186631E+04 0.  0.
        4    1    3    3  502    0  0.14397459303E+03 -0.56500789638E+03  0.65771118044E+03  0.87894722037E+03  0.12699999809E+01 0. -1.
       -4    1    3    3    0  502 -0.14397459303E+03  0.56500789638E+03 -0.65159791118E+03  0.87438210021E+03  0.12699999809E+01 0.  1.
</event>
<event>
 5   0  0.3575091E-04  0.1791033E+04  0.7818609E-02  0.8711083E-01
        2   -1    0    0  501    0  0.00000000000E+00  0.00000000000E+00  0.18630316869E+04  0.18630316869E+04  0.25500000920E-02 0. -1.
       -2   -1    0    0    0  501  0.00000000000E+00  0.00000000000E+00 -0.43045407484E+03  0.43045407484E+03  0.25500000920E-02 0.  1.
    10030    2    1    2    0    0  0.00000000000E+00  0.00000000000E+00  0.14325776120E+04  0.22934857617E+04  0.17910327537E+04 0.  0.
        5    1    3    3  502    0 -0.57211008847E+03  0.63787802366E+03  0.10495466499E+04  0.13549053792E+04  0.46999998093E+01 0. -1.
       -5    1    3    3    0  502  0.57211008847E+03 -0.63787802366E+03  0.38303096213E+03  0.93858038246E+03  0.46999998093E+01 0.  1.
</event>
<event>
 5   0  0.1330125E-04  0.1826260E+04  0.7818609E-02  0.8692458E-01
        3   -1    0    0  501    0  0.00000000000E+00  0.00000000000E+00  0.95493248803E+03  0.95493249337E+03  0.10100000352E+00 0. -1.
       -3   -1    0    0    0  501  0.00000000000E+00  0.00000000000E+00 -0.87315772479E+03  0.87315773063E+03  0.10100000352E+00 0.  1.
    10030    2    1    2    0    0  0.00000000000E+00  0.00000000000E+00  0.81774763236E+02  0.18280902240E+04  0.18262603197E+04 0.  0.
        1    1    3    3  502    0 -0.63773512726E+03 -0.47894941452E+03  0.48597665149E+03  0.93395499893E+03  0.50400001928E-02 0. -1.
       -1    1    3    3    0  502  0.63773512726E+03  0.47894941452E+03 -0.40420188825E+03  0.89413522507E+03  0.50400001928E-02 0.  1.
</event>
<event>
 5   0  0.3568870E-04  0.1822921E+04  0.7818609E-02  0.8694204E-01
       -2   -1    0    0    0  501  0.00000000000E+00  0.00000000000E+00  0.74458328413E+03  0.74458328413E+03  0.25500000920E-02 0.  1.
        2   -1    0    0  501    0  0.00000000000E+00  0.00000000000E+00 -0.11157384911E+04  0.11157384911E+04  0.25500000920E-02 0. -1.
    10030    2    1    2    0    0  0.00000000000E+00  0.00000000000E+00 -0.37115520701E+03  0.18603217753E+04  0.18229209856E+04 0.  0.
        1    1    3    3  502    0 -0.28617866116E+03  0.29784650697E+03  0.64358816037E+03  0.76473295209E+03  0.50400001928E-02 0.  1.
       -1    1    3    3    0  502  0.28617866116E+03 -0.29784650697E+03 -0.10147433674E+04  0.10955888232E+04  0.50400001928E-02 0. -1.
</event>
<event>
 5   0  0.3575091E-04  0.1809623E+04  0.7818609E-02  0.8701199E-01
       -2   -1    0    0    0  501  0.00000000000E+00  0.00000000000E+00  0.49146937619E+03  0.49146937620E+03  0.25500000920E-02 0.  1.
        2   -1    0    0  501    0  0.00000000000E+00  0.00000000000E+00 -0.16657885187E+04  0.16657885187E+04  0.25500000920E-02 0. -1.
    10030    2    1    2    0    0  0.00000000000E+00  0.00000000000E+00 -0.11743191425E+04  0.21572578949E+04  0.18096232140E+04 0.  0.
        5    1    3    3  502    0  0.73450724066E+03  0.40798389075E+03 -0.18694256176E+03  0.86076788572E+03  0.46999998093E+01 0. -1.
       -5    1    3    3    0  502 -0.73450724066E+03 -0.40798389075E+03 -0.98737658073E+03  0.12964900092E+04  0.46999998093E+01 0.  1.
</event>
<event>
 5   0  0.3582186E-04  0.1797342E+04  0.7818609E-02  0.8707714E-01
        2   -1    0    0  501    0  0.00000000000E+00  0.00000000000E+00  0.99576941557E+03  0.99576941557E+03  0.25500000920E-02 0. -1.
       -2   -1    0    0    0  501  0.00000000000E+00  0.00000000000E+00 -0.81104089514E+03  0.81104089514E+03  0.25500000920E-02 0.  1.
    10030    2    1    2    0    0  0.00000000000E+00  0.00000000000E+00  0.18472852043E+03  0.18068103107E+04  0.17973421690E+04 0.  0.
        4    1    3    3  502    0  0.69989552387E+03 -0.56195760751E+03  0.47881773408E+02  0.89885726014E+03  0.12699999809E+01 0.  1.
       -4    1    3    3    0  502 -0.69989552387E+03  0.56195760751E+03  0.13684674703E+03  0.90795305058E+03  0.12699999809E+01 0. -1.
</event>
<event>
 5   0  0.1818778E-04  0.1779260E+04  0.7818609E-02  0.8717407E-01
        1   -1    0    0  501    0  0.00000000000E+00  0.00000000000E+00  0.18947705252E+04  0.18947705252E+04  0.50400001928E-02 0.  1.
       -1   -1    0    0    0  501  0.00000000000E+00  0.00000000000E+00 -0.41769805566E+03  0.41769805569E+03  0.50400001928E-02 0. -1.
    10030    2    1    2    0    0  0.00000000000E+00  0.00000000000E+00  0.14770724695E+04  0.23124685809E+04  0.17792604805E+04 0.  0.
        3    1    3    3  502    0  0.20512971020E+03  0.61420632398E+03  0.15313560861E+04  0.16626421982E+04  0.10100000352E+00 0.  1.
       -3    1    3    3    0  502 -0.20512971020E+03 -0.61420632398E+03 -0.54283616602E+02  0.64982638270E+03  0.10100000352E+00 0. -1.
</event>
<event>
 5   0  0.1818778E-04  0.1788447E+04  0.7818609E-02  0.8712467E-01
       -1   -1    0    0    0  501  0.00000000000E+00  0.00000000000E+00  0.55459112055E+03  0.55459112058E+03  0.50400001928E-02 0. -1.
        1   -1    0    0  501    0  0.00000000000E+00  0.00000000000E+00 -0.14418477161E+04  0.14418477161E+04  0.50400001928E-02 0.  1.
    10030    2    1    2    0    0  0.00000000000E+00  0.00000000000E+00 -0.88725659558E+03  0.19964388367E+04  0.17884473049E+04 0.  0.
        3    1    3    3  502    0  0.14942842411E+03 -0.44467821974E+03 -0.12934585641E+04  0.13759006651E+04  0.10100000352E+00 0.  1.
       -3    1    3    3    0  502 -0.14942842411E+03  0.44467821974E+03  0.40620196849E+03  0.62053817163E+03  0.10100000352E+00 0. -1.
</event>
<event>
 5   0  0.3531266E-04  0.1810601E+04  0.7818609E-02  0.8700682E-01
       -2   -1    0    0    0  501  0.00000000000E+00  0.00000000000E+00  0.62573478739E+03  0.62573478739E+03  0.25500000920E-02 0.  1.
        2   -1    0    0  501    0  0.00000000000E+00  0.00000000000E+00 -0.13097703509E+04  0.13097703509E+04  0.25500000920E-02 0. -1.
    10030    2    1    2    0    0  0.00000000000E+00  0.00000000000E+00 -0.68403556347E+03  0.19355051383E+04  0.18106008638E+04 0.  0.
        3    1    3    3  502    0 -0.93583213810E+02 -0.54007509900E+03  0.42819308229E+03  0.69554888857E+03  0.10100000352E+00 0.  1.
       -3    1    3    3    0  502  0.93583213810E+02  0.54007509900E+03 -0.11122286458E+04  0.12399562497E+04  0.10100000352E+00 0. -1.
</event>
<event>
 5   0  0.3582186E-04  0.1718182E+04  0.7818609E-02  0.8751062E-01
        2   -1    0    0  501    0  0.00000000000E+00  0.00000000000E+00  0.15738860119E+04  0.15738860119E+04  0.25500000920E-02 0. -1.
       -2   -1    0    0    0  501  0.00000000000E+00  0.00000000000E+00 -0.46892677911E+03  0.46892677912E+03  0.25500000920E-02 0.  1.
    10030    2    1    2    0    0  0.00000000000E+00  0.00000000000E+00  0.11049592328E+04  0.20428127910E+04  0.17181819441E+04 0.  0.
        4    1    3    3  502    0  0.33084576495E+03 -0.61054543459E+03  0.11538181819E+04  0.13466709537E+04  0.12699999809E+01 0. -1.
       -4    1    3    3    0  502 -0.33084576495E+03  0.61054543459E+03 -0.48858949041E+02  0.69614183734E+03  0.12699999809E+01 0.  1.
</event>
<event>
 5   0  0.1835421E-04  0.1784245E+04  0.7818609E-02  0.8714723E-01
        1   -1    0    0  501    0  0.00000000000E+00  0.00000000000E+00  0.70801411131E+03  0.70801411133E+03  0.50400001928E-02 0.  1.
       -1   -1    0    0    0  501  0.00000000000E+00  0.00000000000E+00 -0.11241054763E+04  0.11241054763E+04  0.50400001928E-02 0. -1.
    10030    2    1    2    0    0  0.00000000000E+00  0.00000000000E+00 -0.41609136497E+03  0.18321195876E+04  0.17842449830E+04 0.  0.
        2    1    3    3  502    0 -0.82703716996E+02  0.77816955010E+03  0.23181100385E+03  0.81616425738E+03  0.25500000920E-02 0.  1.
       -2    1    3    3    0  502  0.82703716996E+02 -0.77816955010E+03 -0.64790236882E+03  0.10159553302E+04  0.25500000920E-02 0. -1.
</event>
<event>
 5   0  0.1837313E-04  0.1713015E+04  0.7818609E-02  0.8753976E-01
        1   -1    0    0  501    0  0.00000000000E+00  0.00000000000E+00  0.17126402219E+04  0.17126402219E+04  0.50400001928E-02 0.  1.
       -1   -1    0    0    0  501  0.00000000000E+00  0.00000000000E+00 -0.42834758203E+03  0.42834758206E+03  0.50400001928E-02 0. -1.
    10030    2    1    2    0    0  0.00000000000E+00  0.00000000000E+00  0.12842926398E+04  0.21409878039E+04  0.17130152340E+04 0.  0.
        1    1    3    3  502    0  0.85291242460E+03 -0.71796605779E+02  0.60280246285E+03  0.10468931015E+04  0.50400001928E-02 0. -1.
       -1    1    3    3    0  502 -0.85291242460E+03  0.71796605779E+02  0.68149017699E+03  0.10940947025E+04  0.50400001928E-02 0.  1.
</event>
<event>
 5   0  0.1835421E-04  0.1715111E+04  0.7818609E-02  0.8752793E-01
       -1   -1    0    0    0  501  0.00000000000E+00  0.00000000000E+00  0.17997462554E+04  0.17997462554E+04  0.50400001928E-02 0. -1.
        1   -1    0    0  501    0  0.00000000000E+00  0.00000000000E+00 -0.40861379461E+03  0.40861379464E+03  0.50400001928E-02 0.  1.
    10030    2    1    2    0    0  0.00000000000E+00  0.00000000000E+00  0.13911324608E+04  0.22083600501E+04  0.17151106633E+04 0.  0.
        2    1    3    3  502    0  0.55173479677E+03  0.39857974837E+03  0.13672443389E+04  0.15272963642E+04  0.25500000920E-02 0. -1.
       -2    1    3    3    0  502 -0.55173479677E+03 -0.39857974837E+03  0.23888121839E+02  0.68106368583E+03  0.25500000920E-02 0.  1.
</event>
<event>
 5   0  0.1330125E-04  0.1740733E+04  0.7818609E-02  0.8738468E-01
       -3   -1    0    0    0  501  0.00000000000E+00  0.00000000000E+00  0.11840512478E+04  0.11840512521E+04  0.10100000352E+00 0. -1.
        3   -1    0    0  501    0  0.00000000000E+00  0.00000000000E+00 -0.63978443233E+03  0.63978444030E+03  0.10100000352E+00 0.  1.
    10030    2    1    2    0    0  0.00000000000E+00  0.00000000000E+00  0.54426681545E+03  0.18238356924E+04  0.17407326809E+04 0.  0.
        5    1    3    3  502    0  0.84799940736E+03  0.40089570260E+01  0.66828685911E+02  0.85065106235E+03  0.46999998093E+01 0.  1.
       -5    1    3    3    0  502 -0.84799940736E+03 -0.40089570260E+01  0.47743812954E+03  0.97318463005E+03  0.46999998093E+01 0. -1.
</event>
<event>
 5   0  0.3582186E-04  0.1797106E+04  0.7818609E-02  0.8707840E-01
        2   -1    0    0  501    0  0.00000000000E+00  0.00000000000E+00  0.18749719454E+04  0.18749719454E+04  0.25500000920E-02 0.  1.
       -2   -1    0    0    0  501  0.00000000000E+00  0.00000000000E+00 -0.43061835820E+03  0.43061835821E+03  0.25500000920E-02 0. -1.
    10030    2    1    2    0    0  0.00000000000E+00  0.00000000000E+00  0.14443535872E+04  0.23055903037E+04  0.17971058298E+04 0.  0.
        4    1    3    3  502    0 -0.36469401446E+03  0.57652150054E+03  0.14724722340E+04  0.16228231135E+04  0.12699999809E+01 0.  1.
       -4    1    3    3    0  502  0.36469401446E+03 -0.57652150054E+03 -0.28118646798E+02  0.68276719017E+03  0.12699999809E+01 0. -1.
</event>
<event>
 5   0  0.3582186E-04  0.1779495E+04  0.7818609E-02  0.8717280E-01
        2   -1    0    0  501    0  0.00000000000E+00  0.00000000000E+00  0.92898467976E+03  0.92898467977E+03  0.25500000920E-02 0.  1.
       -2   -1    0    0    0  501  0.00000000000E+00  0.00000000000E+00 -0.85216803628E+03  0.85216803629E+03  0.25500000920E-02 0. -1.
    10030    2    1    2    0    0  0.00000000000E+00  0.00000000000E+00  0.76816643479E+02  0.17811527161E+04  0.17794954906E+04 0.  0.
        4    1    3    3  502    0  0.30414113165E+02 -0.56220347596E+03 -0.65118297650E+03  0.86083601717E+03  0.12699999809E+01 0. -1.
       -4    1    3    3    0  502 -0.30414113165E+02  0.56220347596E+03  0.72799961998E+03  0.92031669889E+03  0.12699999809E+01 0.  1.
</event>
<event>
 5   0  0.3575091E-04  0.1765831E+04  0.7818609E-02  0.8724684E-01
       -2   -1    0    0    0  501  0.00000000000E+00  0.00000000000E+00  0.37411360073E+03  0.37411360074E+03  0.25500000920E-02 0. -1.
        2   -1    0    0  501    0  0.00000000000E+00  0.00000000000E+00 -0.20836987620E+04  0.20836987620E+04  0.25500000920E-02 0.  1.
    10030    2    1    2    0    0  0.00000000000E+00  0.00000000000E+00 -0.17095851613E+04  0.24578123628E+04  0.17658313019E+04 0.  0.
        5    1    3    3  502    0 -0.49888889376E+03 -0.25379025291E+03  0.95580635441E+02  0.56785329854E+03  0.46999998093E+01 0. -1.
       -5    1    3    3    0  502  0.49888889376E+03  0.25379025291E+03 -0.18051657967E+04  0.18899590642E+04  0.46999998093E+01 0.  1.
</event>
<event>
 5   0  0.1818778E-04  0.1780632E+04  0.7818609E-02  0.8716668E-01
        1   -1    0    0  501    0  0.00000000000E+00  0.00000000000E+00  0.20875978611E+04  0.20875978611E+04  0.50400001928E-02 0. -1.
       -1   -1    0    0    0  501  0.00000000000E+00  0.00000000000E+00 -0.37970059660E+03  0.37970059663E+03  0.50400001928E-02 0.  1.
    10030    2    1    2    0    0  0.00000000000E+00  0.00000000000E+00  0.17078972645E+04  0.24672984577E+04  0.17806315210E+04 0.  0.
        3    1    3    3  502    0  0.21433431615E+03  0.43025809314E+03 -0.18444384816E+03  0.51485995098E+03  0.10100000352E+00 0.  1.
       -3    1    3    3    0  502 -0.21433431615E+03 -0.43025809314E+03  0.18923411126E+04  0.19524385067E+04  0.10100000352E+00 0. -1.
</event>
<event>
 5   0  0.1835421E-04  0.1786642E+04  0.7818609E-02  0.8713436E-01
        1   -1    0    0  501    0  0.00000000000E+00  0.00000000000E+00  0.50917272405E+03  0.50917272407E+03  0.50400001928E-02 0.  1.
       -1   -1    0    0    0  501  0.00000000000E+00  0.00000000000E+00 -0.15672915183E+04  0.15672915183E+04  0.50400001928E-02 0. -1.
    10030    2    1    2    0    0  0.00000000000E+00  0.00000000000E+00 -0.10581187942E+04  0.20764642424E+04  0.17866416448E+04 0.  0.
        2    1    3    3  502    0 -0.22608397081E+03  0.47621330079E+01 -0.15334762803E+04  0.15500600447E+04  0.25500000920E-02 0. -1.
       -2    1    3    3    0  502  0.22608397081E+03 -0.47621330079E+01  0.47535748609E+03  0.52640419770E+03  0.25500000920E-02 0.  1.
</event>
<event>
 5   0  0.3568870E-04  0.1681942E+04  0.7818609E-02  0.8771731E-01
        2   -1    0    0  501    0  0.00000000000E+00  0.00000000000E+00  0.19303134150E+04  0.19303134150E+04  0.25500000920E-02 0.  1.
       -2   -1    0    0    0  501  0.00000000000E+00  0.00000000000E+00 -0.36638199920E+03  0.36638199921E+03  0.25500000920E-02 0. -1.
    10030    2    1    2    0    0  0.00000000000E+00  0.00000000000E+00  0.15639314158E+04  0.22966954142E+04  0.16819418398E+04 0.  0.
        1    1    3    3  502    0 -0.77083649878E+02  0.37694056042E+03  0.18030893825E+04  0.18436803943E+04  0.50400001928E-02 0.  1.
       -1    1    3    3    0  502  0.77083649878E+02 -0.37694056042E+03 -0.23915796669E+03  0.45301501987E+03  0.50400001928E-02 0. -1.
</event>
<event>
 5   0  0.1825253E-04  0.1770857E+04  0.7818609E-02  0.8721953E-01
       -1   -1    0    0    0  501  0.00000000000E+00  0.00000000000E+00  0.61321030142E+03  0.61321030144E+03  0.50400001928E-02 0.  1.
        1   -1    0    0  501    0  0.00000000000E+00  0.00000000000E+00 -0.12784906606E+04  0.12784906606E+04  0.50400001928E-02 0. -1.
    10030    2    1    2    0    0  0.00000000000E+00  0.00000000000E+00 -0.66528035917E+03  0.18917009621E+04  0.17708570167E+04 0.  0.
        4    1    3    3  502    0 -0.32298410485E+03 -0.22070135661E+03 -0.11811715623E+04  0.12442651218E+04  0.12699999809E+01 0. -1.
       -4    1    3    3    0  502  0.32298410485E+03  0.22070135661E+03  0.51589120318E+03  0.64743584022E+03  0.12699999809E+01 0.  1.
</event>
<event>
 5   0  0.3582186E-04  0.1742072E+04  0.7818609E-02  0.8737726E-01
        2   -1    0    0  501    0  0.00000000000E+00  0.00000000000E+00  0.14998689570E+04  0.14998689570E+04  0.25500000920E-02 0. -1.
       -2   -1    0    0    0  501  0.00000000000E+00  0.00000000000E+00 -0.50584683073E+03  0.50584683073E+03  0.25500000920E-02 0.  1.
    10030    2    1    2    0    0  0.00000000000E+00  0.00000000000E+00  0.99402212629E+03  0.20057157878E+04  0.17420722814E+04 0.  0.
        4    1    3    3  502    0 -0.80107956914E+03 -0.34201431521E+03  0.49733182508E+03  0.10030168618E+04  0.12699999809E+01 0.  1.
       -4    1    3    3    0  502  0.80107956914E+03  0.34201431521E+03  0.49669030122E+03  0.10026989260E+04  0.12699999809E+01 0. -1.
</event>
<event>
 5   0  0.1330125E-04  0.1758709E+04  0.7818609E-02  0.8728571E-01
        3   -1    0    0  501    0  0.00000000000E+00  0.00000000000E+00  0.68476107151E+03  0.68476107896E+03  0.10100000352E+00 0. -1.
       -3   -1    0    0    0  501  0.00000000000E+00  0.00000000000E+00 -0.11292466363E+04  0.11292466408E+04  0.10100000352E+00 0.  1.
    10030    2    1    2    0    0  0.00000000000E+00  0.00000000000E+00 -0.44448556483E+03  0.18140077198E+04  0.17587087849E+04 0.  0.
        4    1    3    3  502    0  0.14236244532E+02 -0.40875214998E+03  0.58068206272E+03  0.71026351563E+03  0.12699999809E+01 0. -1.
       -4    1    3    3    0  502 -0.14236244532E+02  0.40875214998E+03 -0.10251676275E+04  0.11037442042E+04  0.12699999809E+01 0.  1.
</event>
<event>
 5   0  0.3628581E-04  0.1812852E+04  0.7818609E-02  0.8699495E-01
       -2   -1    0    0    0  501  0.00000000000E+00  0.00000000000E+00  0.78788340380E+03  0.78788340380E+03  0.25500000920E-02 0. -1.
        2   -1    0    0  501    0  0.00000000000E+00  0.00000000000E+00 -0.10428038154E+04  0.10428038155E+04  0.25500000920E-02 0.  1.
    10030    2    1    2    0    0  0.00000000000E+00  0.00000000000E+00 -0.25492041165E+03  0.18306872193E+04  0.18128516979E+04 0.  0.
        2    1    3    3  502    0 -0.21738592355E+03 -0.78638891398E+03  0.27132195981E+03  0.85981379942E+03  0.25500000920E-02 0.  1.
       -2    1    3    3    0  502  0.21738592355E+03  0.78638891398E+03 -0.52624237146E+03  0.97087341983E+03  0.25500000920E-02 0. -1.
</event>
<event>
 5   0  0.1825253E-04  0.1814138E+04  0.7818609E-02  0.8698817E-01
       -1   -1    0    0    0  501  0.00000000000E+00  0.00000000000E+00  0.12137184415E+04  0.12137184416E+04  0.50400001928E-02 0.  1.
        1   -1    0    0  501    0  0.00000000000E+00  0.00000000000E+00 -0.67789506599E+03  0.67789506600E+03  0.50400001928E-02 0. -1.
    10030    2    1    2    0    0  0.00000000000E+00  0.00000000000E+00  0.53582337555E+03  0.18916135076E+04  0.18141375285E+04 0.  0.
        4    1    3    3  502    0  0.21118652022E+03 -0.86603479519E+03  0.92947734788E+02  0.89624600814E+03  0.12699999809E+01 0. -1.
       -4    1    3    3    0  502 -0.21118652022E+03  0.86603479519E+03  0.44287564077E+03  0.99536749941E+03  0.12699999809E+01 0.  1.
</event>
<event>
 5   0  0.3582186E-04  0.1794058E+04  0.7818609E-02  0.8709466E-01
        2   -1    0    0  501    0  0.00000000000E+00  0.00000000000E+00  0.18195091271E+04  0.18195091271E+04  0.25500000920E-02 0.  1.
       -2   -1    0    0    0  501  0.00000000000E+00  0.00000000000E+00 -0.44224086598E+03  0.44224086598E+03  0.25500000920E-02 0. -1.
    10030    2    1    2    0    0  0.00000000000E+00  0.00000000000E+00  0.13772682612E+04  0.22617499931E+04  0.17940582956E+04 0.  0.
        4    1    3    3  502    0  0.61436618329E+03  0.14818777702E+03  0.14911836490E+04  0.16195788688E+04  0.12699999809E+01 0.  1.
       -4    1    3    3    0  502 -0.61436618329E+03 -0.14818777702E+03 -0.11391538781E+03  0.64217112432E+03  0.12699999809E+01 0. -1.
</event>
<event>
 5   0  0.1818778E-04  0.1811632E+04  0.7818609E-02  0.8700138E-01
       -1   -1    0    0    0  501  0.00000000000E+00  0.00000000000E+00  0.68656261643E+03  0.68656261645E+03  0.50400001928E-02 0.  1.
        1   -1    0    0  501    0  0.00000000000E+00  0.00000000000E+00 -0.11950877333E+04  0.11950877333E+04  0.50400001928E-02 0. -1.
    10030    2    1    2    0    0  0.00000000000E+00  0.00000000000E+00 -0.50852511683E+03  0.18816503497E+04  0.18116319284E+04 0.  0.
        3    1    3    3  502    0  0.61710375377E+03  0.61517595084E+03 -0.51130269123E+03  0.10102915152E+04  0.10100000352E+00 0. -1.
       -3    1    3    3    0  502 -0.61710375377E+03 -0.61517595084E+03  0.27775743991E+01  0.87135883454E+03  0.10100000352E+00 0.  1.
</event>
<event>
 5   0  0.3575091E-04  0.1655650E+04  0.7818609E-02  0.8787071E-01
        2   -1    0    0  501    0  0.00000000000E+00  0.00000000000E+00  0.21596239601E+04  0.21596239601E+04  0.25500000920E-02 0.  1.
       -2   -1    0    0    0  501  0.00000000000E+00  0.00000000000E+00 -0.31732122853E+03  0.31732122854E+03  0.25500000920E-02 0. -1.
    10030    2    1    2    0    0  0.00000000000E+00  0.00000000000E+00  0.18423027316E+04  0.24769451886E+04  0.16556503595E+04 0.  0.
        5    1    3    3  502    0  0.69219108796E+02 -0.92603367054E+02  0.21474661210E+04  0.21505812004E+04  0.46999998093E+01 0.  1.
       -5    1    3    3    0  502 -0.69219108796E+02  0.92603367054E+02 -0.30516338941E+03  0.32636398828E+03  0.46999998093E+01 0. -1.
</event>
<event>
 5   0  0.3575091E-04  0.1797586E+04  0.7818609E-02  0.8707584E-01
        2   -1    0    0  501    0  0.00000000000E+00  0.00000000000E+00  0.19460183448E+04  0.19460183448E+04  0.25500000920E-02 0.  1.
       -2   -1    0    0    0  501  0.00000000000E+00  0.00000000000E+00 -0.41511891078E+03  0.41511891079E+03  0.25500000920E-02 0. -1.
    10030    2    1    2    0    0  0.00000000000E+00  0.00000000000E+00  0.15308994341E+04  0.23611372556E+04  0.17975861767E+04 0.  0.
        5    1    3    3  502    0  0.57371530781E+03 -0.62133414886E+03  0.36574374742E+03  0.92140976646E+03  0.46999998093E+01 0.  1.
       -5    1    3    3    0  502 -0.57371530781E+03  0.62133414886E+03  0.11651556866E+04  0.14397274892E+04  0.46999998093E+01 0. -1.
</event>
<event>
 5   0  0.3568870E-04  0.1741617E+04  0.7818609E-02  0.8737978E-01
        2   -1    0    0  501    0  0.00000000000E+00  0.00000000000E+00  0.16911919643E+04  0.16911919643E+04  0.25500000920E-02 0. -1.
       -2   -1    0    0    0  501  0.00000000000E+00  0.00000000000E+00 -0.44838653105E+03  0.44838653106E+03  0.25500000920E-02 0.  1.
    10030    2    1    2    0    0  0.00000000000E+00  0.00000000000E+00  0.12428054333E+04  0.21395784954E+04  0.17416172923E+04 0.  0.
        1    1    3    3  502    0  0.46884192895E+03  0.73308011539E+03  0.66193372224E+03  0.10933322746E+04  0.50400001928E-02 0. -1.
       -1    1    3    3    0  502 -0.46884192895E+03 -0.73308011539E+03  0.58087171104E+03  0.10462462208E+04  0.50400001928E-02 0.  1.
</event>
<event>
 5   0  0.1835421E-04  0.1478691E+04  0.7818609E-02  0.8898748E-01
       -1   -1    0    0    0  501  0.00000000000E+00  0.00000000000E+00  0.42346373533E+03  0.42346373536E+03  0.50400001928E-02 0.  1.
        1   -1    0    0  501    0  0.00000000000E+00  0.00000000000E+00 -0.12908577599E+04  0.12908577599E+04  0.50400001928E-02 0. -1.
    10030    2    1    2    0    0  0.00000000000E+00  0.00000000000E+00 -0.86739402459E+03  0.17143214953E+04  0.14786905678E+04 0.  0.
        2    1    3    3  502    0 -0.14599466324E+03 -0.71739660800E+03 -0.31400214682E+03  0.79659882191E+03  0.25500000920E-02 0. -1.
       -2    1    3    3    0  502  0.14599466324E+03  0.71739660800E+03 -0.55339187777E+03  0.91772267339E+03  0.25500000920E-02 0.  1.
</event>
<event>
 5   0  0.1818778E-04  0.1787631E+04  0.7818609E-02  0.8712905E-01
       -1   -1    0    0    0  501  0.00000000000E+00  0.00000000000E+00  0.48910792967E+03  0.48910792970E+03  0.50400001928E-02 0. -1.
        1   -1    0    0  501    0  0.00000000000E+00  0.00000000000E+00 -0.16333942021E+04  0.16333942021E+04  0.50400001928E-02 0.  1.
    10030    2    1    2    0    0  0.00000000000E+00  0.00000000000E+00 -0.11442862724E+04  0.21225021318E+04  0.17876308977E+04 0.  0.
        3    1    3    3  502    0  0.12253460239E+03  0.81378604962E+03 -0.15803393095E+03  0.83799594085E+03  0.10100000352E+00 0. -1.
       -3    1    3    3    0  502 -0.12253460239E+03 -0.81378604962E+03 -0.98625234148E+03  0.12845061910E+04  0.10100000352E+00 0.  1.
</event>
<event>
 5   0  0.1837313E-04  0.1757613E+04  0.7818609E-02  0.8729171E-01
       -1   -1    0    0    0  501  0.00000000000E+00  0.00000000000E+00  0.10253805510E+04  0.10253805510E+04  0.50400001928E-02 0.  1.
        1   -1    0    0  501    0  0.00000000000E+00  0.00000000000E+00 -0.75318478844E+03  0.75318478846E+03  0.50400001928E-02 0. -1.
    10030    2    1    2    0    0  0.00000000000E+00  0.00000000000E+00  0.27219576255E+03  0.17785653395E+04  0.17576131922E+04 0.  0.
        1    1    3    3  502    0 -0.21477258912E+03  0.79210786312E+03  0.45407119039E+03  0.93794604207E+03  0.50400001928E-02 0.  1.
       -1    1    3    3    0  502  0.21477258912E+03 -0.79210786312E+03 -0.18187542784E+03  0.84061929739E+03  0.50400001928E-02 0. -1.
</event>
<event>
 5   0  0.3582186E-04  0.1813097E+04  0.7818609E-02  0.8699365E-01
       -2   -1    0    0    0  501  0.00000000000E+00  0.00000000000E+00  0.14202080926E+04  0.14202080926E+04  0.25500000920E-02 0.  1.
        2   -1    0    0  501    0  0.00000000000E+00  0.00000000000E+00 -0.57866884287E+03  0.57866884287E+03  0.25500000920E-02 0. -1.
    10030    2    1    2    0    0  0.00000000000E+00  0.00000000000E+00  0.84153924973E+03  0.19988769355E+04  0.18130969898E+04 0.  0.
        4    1    3    3  502    0 -0.70914349146E+02 -0.32540209004E+03  0.13503208073E+04  0.13907851238E+04  0.12699999809E+01 0.  1.
       -4    1    3    3    0  502  0.70914349146E+02  0.32540209004E+03 -0.50878155760E+03  0.60809181163E+03  0.12699999809E+01 0. -1.
</event>
<event>
 5   0  0.1883959E-04  0.1794919E+04  0.7818609E-02  0.8709006E-01
       -1   -1    0    0    0  501  0.00000000000E+00  0.00000000000E+00  0.67821236853E+03  0.67821236855E+03  0.50400001928E-02 0.  1.
        1   -1    0    0  501    0  0.00000000000E+00  0.00000000000E+00 -0.11875828159E+04  0.11875828159E+04  0.50400001928E-02 0. -1.
    10030    2    1    2    0    0  0.00000000000E+00  0.00000000000E+00 -0.50937044737E+03  0.18657951845E+04  0.17949187775E+04 0.  0.
        5    1    3    3  502    0 -0.56700167403E+02  0.48260863824E+02 -0.11843537388E+04  0.11867012634E+04  0.46999998093E+01 0. -1.
       -5    1    3    3    0  502  0.56700167403E+02 -0.48260863824E+02  0.67498329141E+03  0.67909392108E+03  0.46999998093E+01 0.  1.
</event>
<event>
 5   0  0.1825253E-04  0.1749462E+04  0.7818609E-02  0.8733647E-01
        1   -1    0    0  501    0  0.00000000000E+00  0.00000000000E+00  0.11633419749E+04  0.11633419749E+04  0.50400001928E-02 0.  1.
       -1   -1    0    0    0  501  0.00000000000E+00  0.00000000000E+00 -0.65772072955E+03  0.65772072956E+03  0.50400001928E-02 0. -1.
    10030    2    1    2    0    0  0.00000000000E+00  0.00000000000E+00  0.50562124531E+03  0.18210627044E+04  0.17494617829E+04 0.  0.
        4    1    3    3  502    0 -0.86862983659E+03 -0.10194128458E+03  0.26902708990E+03  0.91503388271E+03  0.12699999809E+01 0.  1.
       -4    1    3    3    0  502  0.86862983659E+03  0.10194128458E+03  0.23659415541E+03  0.90602882172E+03  0.12699999809E+01 0. -1.
</event>
<event>
 5   0  0.1835421E-04  0.1792258E+04  0.7818609E-02  0.8710427E-01
       -1   -1    0    0    0  501  0.00000000000E+00  0.00000000000E+00  0.10507829166E+04  0.10507829166E+04  0.50400001928E-02 0. -1.
        1   -1    0    0  501    0  0.00000000000E+00  0.00000000000E+00 -0.76423725381E+03  0.76423725383E+03  0.50400001928E-02 0.  1.
    10030    2    1    2    0    0  0.00000000000E+00  0.00000000000E+00  0.28654566275E+03  0.18150201704E+04  0.17922582967E+04 0.  0.
        2    1    3    3  502    0  0.85154791415E+03  0.11870172637E+03 -0.11256877108E+03  0.86711918336E+03  0.25500000920E-02 0.  1.
       -2    1    3    3    0  502 -0.85154791415E+03 -0.11870172637E+03  0.39911443383E+03  0.94790098704E+03  0.25500000920E-02 0. -1.
</event>
<event>
 5   0  0.3531266E-04  0.1859717E+04  0.7818609E-02  0.8675172E-01
       -2   -1    0    0    0  501  0.00000000000E+00  0.00000000000E+00  0.70871418288E+03  0.70871418288E+03  0.25500000920E-02 0. -1.
        2   -1    0    0  501    0  0.00000000000E+00  0.00000000000E+00 -0.12200076809E+04  0.12200076809E+04  0.25500000920E-02 0.  1.
    10030    2    1    2    0    0  0.00000000000E+00  0.00000000000E+00 -0.51129349802E+03  0.19287218638E+04  0.18597169104E+04 0.  0.
        3    1    3    3  502    0  0.83192626061E+03  0.27171802211E+03  0.70183792057E+02  0.87798505768E+03  0.10100000352E+00 0. -1.
       -3    1    3    3    0  502 -0.83192626061E+03 -0.27171802211E+03 -0.58147729008E+03  0.10507368061E+04  0.10100000352E+00 0.  1.
</event>
<event>
 5   0  0.3582186E-04  0.1714170E+04  0.7818609E-02  0.8753323E-01
       -2   -1    0    0    0  501  0.00000000000E+00  0.00000000000E+00  0.93036776816E+03  0.93036776816E+03  0.25500000920E-02 0.  1.
        2   -1    0    0  501    0  0.00000000000E+00  0.00000000000E+00 -0.78957495026E+03  0.78957495026E+03  0.25500000920E-02 0. -1.
    10030    2    1    2    0    0  0.00000000000E+00  0.00000000000E+00  0.14079281790E+03  0.17199427184E+04  0.17141704516E+04 0.  0.
        4    1    3    3  502    0 -0.39002549005E+03  0.44542335267E+03  0.69221841907E+03  0.91087309687E+03  0.12699999809E+01 0.  1.
       -4    1    3    3    0  502  0.39002549005E+03 -0.44542335267E+03 -0.55142560117E+03  0.80906962156E+03  0.12699999809E+01 0. -1.
</event>
<event>
 5   0  0.3568870E-04  0.1802760E+04  0.7818609E-02  0.8704833E-01
        2   -1    0    0  501    0  0.00000000000E+00  0.00000000000E+00  0.70673719078E+03  0.70673719079E+03  0.25500000920E-02 0.  1.
       -2   -1    0    0    0  501  0.00000000000E+00  0.00000000000E+00 -0.11496288985E+04  0.11496288985E+04  0.25500000920E-02 0. -1.
    10030    2    1    2    0    0  0.00000000000E+00  0.00000000000E+00 -0.44289170771E+03  0.18563660893E+04  0.18027595493E+04 0.  0.
        1    1    3    3  502    0 -0.60439427503E+03  0.13692613296E+03  0.45257448638E+03  0.76737531321E+03  0.50400001928E-02 0.  1.
       -1    1    3    3    0  502  0.60439427503E+03 -0.13692613296E+03 -0.89546619409E+03  0.10889907761E+04  0.50400001928E-02 0. -1.
</event>
<event>
 5   0  0.3531266E-04  0.1801342E+04  0.7818609E-02  0.8705586E-01
        2   -1    0    0  501    0  0.00000000000E+00  0.00000000000E+00  0.82640963324E+03  0.82640963324E+03  0.25500000920E-02 0.  1.
       -2   -1    0    0    0  501  0.00000000000E+00  0.00000000000E+00 -0.98160509428E+03  0.98160509429E+03  0.25500000920E-02 0. -1.
    10030    2    1    2    0    0  0.00000000000E+00  0.00000000000E+00 -0.15519546105E+03  0.18080147275E+04  0.18013416177E+04 0.  0.
        3    1    3    3  502    0  0.38911108030E+02  0.59901874345E+03  0.59635855321E+03  0.84615664243E+03  0.10100000352E+00 0.  1.
       -3    1    3    3    0  502 -0.38911108030E+02 -0.59901874345E+03 -0.75155401426E+03  0.96185808510E+03  0.10100000352E+00 0. -1.
</event>
<event>
 5   0  0.1883959E-04  0.1709800E+04  0.7818609E-02  0.8755795E-01
       -1   -1    0    0    0  501  0.00000000000E+00  0.00000000000E+00  0.45468177695E+03  0.45468177698E+03  0.50400001928E-02 0.  1.
        1   -1    0    0  501    0  0.00000000000E+00  0.00000000000E+00 -0.16073969587E+04  0.16073969588E+04  0.50400001928E-02 0. -1.
    10030    2    1    2    0    0  0.00000000000E+00  0.00000000000E+00 -0.11527151818E+04  0.20620787357E+04  0.17098001117E+04 0.  0.
        5    1    3    3  502    0 -0.74660043222E+03 -0.37702608171E+03 -0.78962858151E+03  0.11502592136E+04  0.46999998093E+01 0. -1.
       -5    1    3    3    0  502  0.74660043222E+03  0.37702608171E+03 -0.36308660028E+03  0.91181952216E+03  0.46999998093E+01 0.  1.
</event>
<event>
 5   0  0.1825253E-04  0.1824229E+04  0.7818609E-02  0.8693520E-01
        1   -1    0    0  501    0  0.00000000000E+00  0.00000000000E+00  0.86323131100E+03  0.86323131101E+03  0.50400001928E-02 0. -1.
       -1   -1    0    0    0  501  0.00000000000E+00  0.00000000000E+00 -0.96376545235E+03  0.96376545236E+03  0.50400001928E-02 0.  1.
    10030    2    1    2    0    0  0.00000000000E+00  0.00000000000E+00 -0.10053414135E+03  0.18269967634E+04  0.18242286205E+04 0.  0.
        4    1    3    3  502    0 -0.67088513162E+03  0.61446258457E+03 -0.11593923771E+03  0.91711212368E+03  0.12699999809E+01 0.  1.
       -4    1    3    3    0  502  0.67088513162E+03 -0.61446258457E+03  0.15405096355E+02  0.90988463969E+03  0.12699999809E+01 0. -1.
</event>
<event>
 5   0  0.1883959E-04  0.1800010E+04  0.7818609E-02  0.8706294E-01
        1   -1    0    0  501    0  0.00000000000E+00  0.00000000000E+00  0.98301649994E+03  0.98301649996E+03  0.50400001928E-02 0. -1.
       -1   -1    0    0    0  501  0.00000000000E+00  0.00000000000E+00 -0.82400378305E+03  0.82400378307E+03  0.50400001928E-02 0.  1.
    10030    2    1    2    0    0  0.00000000000E+00  0.00000000000E+00  0.15901271689E+03  0.18070202830E+04  0.18000103497E+04 0.  0.
        5    1    3    3  502    0 -0.25131488927E+03 -0.58405789584E+03  0.71893619586E+03  0.95977817384E+03  0.46999998093E+01 0. -1.
       -5    1    3    3    0  502  0.25131488927E+03  0.58405789584E+03 -0.55992347897E+03  0.84724210918E+03  0.46999998093E+01 0.  1.
</event>
<event>
 5   0  0.1837313E-04  0.1641782E+04  0.7818609E-02  0.8795283E-01
        1   -1    0    0  501    0  0.00000000000E+00  0.00000000000E+00  0.27436191271E+04  0.27436191271E+04  0.50400001928E-02 0. -1.
       -1   -1    0    0    0  501  0.00000000000E+00  0.00000000000E+00 -0.24561048537E+03  0.24561048542E+03  0.50400001928E-02 0.  1.
    10030    2    1    2    0    0  0.00000000000E+00  0.00000000000E+00  0.24980086417E+04  0.29892296125E+04  0.16417815026E+04 0.  0.
        1    1    3    3  502    0 -0.13808564161E+03  0.70400410061E+03  0.19754071671E+04  0.21016476617E+04  0.50400001928E-02 0. -1.
       -1    1    3    3    0  502  0.13808564161E+03 -0.70400410061E+03  0.52260147463E+03  0.88758195081E+03  0.50400001928E-02 0.  1.
</event>
<event>
 5   0  0.3582186E-04  0.1544360E+04  0.7818609E-02  0.8855479E-01
        2   -1    0    0  501    0  0.00000000000E+00  0.00000000000E+00  0.86111329790E+03  0.86111329791E+03  0.25500000920E-02 0.  1.
       -2   -1    0    0    0  501  0.00000000000E+00  0.00000000000E+00 -0.69243103842E+03  0.69243103843E+03  0.25500000920E-02 0. -1.
    10030    2    1    2    0    0  0.00000000000E+00  0.00000000000E+00  0.16868225948E+03  0.15535443363E+04  0.15443595113E+04 0.  0.
        4    1    3    3  502    0 -0.24520326546E+03 -0.69905328702E+03 -0.13480726841E+03  0.75297725862E+03  0.12699999809E+01 0. -1.
       -4    1    3    3    0  502  0.24520326546E+03  0.69905328702E+03  0.30348952789E+03  0.80056707771E+03  0.12699999809E+01 0.  1.
</event>
<event>
 5   0  0.3568870E-04  0.1795326E+04  0.7818609E-02  0.8708789E-01
        2   -1    0    0  501    0  0.00000000000E+00  0.00000000000E+00  0.13167996602E+04  0.13167996602E+04  0.25500000920E-02 0.  1.
       -2   -1    0    0    0  501  0.00000000000E+00  0.00000000000E+00 -0.61193728049E+03  0.61193728050E+03  0.25500000920E-02 0. -1.
    10030    2    1    2    0    0  0.00000000000E+00  0.00000000000E+00  0.70486237972E+03  0.19287369407E+04  0.17953259348E+04 0.  0.
        1    1    3    3  502    0  0.16527122247E+03  0.53663564340E+03 -0.39997444343E+03  0.68939969986E+03  0.50400001928E-02 0. -1.
       -1    1    3    3    0  502 -0.16527122247E+03 -0.53663564340E+03  0.11048368231E+04  0.12393372408E+04  0.50400001928E-02 0.  1.
</event>
<event>
 5   0  0.3628581E-04  0.1795350E+04  0.7818609E-02  0.8708776E-01
        2   -1    0    0  501    0  0.00000000000E+00  0.00000000000E+00  0.58583085074E+03  0.58583085074E+03  0.25500000920E-02 0. -1.
       -2   -1    0    0    0  501  0.00000000000E+00  0.00000000000E+00 -0.13755170139E+04  0.13755170139E+04  0.25500000920E-02 0.  1.
    10030    2    1    2    0    0  0.00000000000E+00  0.00000000000E+00 -0.78968616312E+03  0.19613478646E+04  0.17953498850E+04 0.  0.
        2    1    3    3  502    0  0.15745687774E+03  0.27591858324E+03 -0.13120519120E+04  0.13499644264E+04  0.25500000920E-02 0.  1.
       -2    1    3    3    0  502 -0.15745687774E+03 -0.27591858324E+03  0.52236574883E+03  0.61138343818E+03  0.25500000920E-02 0. -1.
</event>
<event>
 5   0  0.1818778E-04  0.1800080E+04  0.7818609E-02  0.8706257E-01
       -1   -1    0    0    0  501  0.00000000000E+00  0.00000000000E+00  0.89074557909E+03  0.89074557910E+03  0.50400001928E-02 0. -1.
        1   -1    0    0  501    0  0.00000000000E+00  0.00000000000E+00 -0.90943100309E+03  0.90943100310E+03  0.50400001928E-02 0.  1.
    10030    2    1    2    0    0  0.00000000000E+00  0.00000000000E+00 -0.18685424000E+02  0.18001765822E+04  0.18000796044E+04 0.  0.
        3    1    3    3  502    0  0.80573282348E+03 -0.18918952107E+03  0.34433377073E+03  0.89641720955E+03  0.10100000352E+00 0. -1.
       -3    1    3    3    0  502 -0.80573282348E+03  0.18918952107E+03 -0.36301919473E+03  0.90375937265E+03  0.10100000352E+00 0.  1.
</event>
<event>
 5   0  0.3531266E-04  0.1786788E+04  0.7818609E-02  0.8713357E-01
       -2   -1    0    0    0  501  0.00000000000E+00  0.00000000000E+00  0.74828888402E+03  0.74828888403E+03  0.25500000920E-02 0. -1.
        2   -1    0    0  501    0  0.00000000000E+00  0.00000000000E+00 -0.10666375484E+04  0.10666375484E+04  0.25500000920E-02 0.  1.
    10030    2    1    2    0    0  0.00000000000E+00  0.00000000000E+00 -0.31834866434E+03  0.18149264324E+04  0.17867882031E+04 0.  0.
        3    1    3    3  502    0  0.81667802648E+03  0.23043721759E+03  0.12466988236E+03  0.85767528818E+03  0.10100000352E+00 0. -1.
       -3    1    3    3    0  502 -0.81667802648E+03 -0.23043721759E+03 -0.44301854670E+03  0.95725114422E+03  0.10100000352E+00 0.  1.
</event>
<event>
 5   0  0.3575091E-04  0.1775936E+04  0.7818609E-02  0.8719202E-01
       -2   -1    0    0    0  501  0.00000000000E+00  0.00000000000E+00  0.14084597628E+04  0.14084597628E+04  0.25500000920E-02 0. -1.
        2   -1    0    0  501    0  0.00000000000E+00  0.00000000000E+00 -0.55982198973E+03  0.55982198974E+03  0.25500000920E-02 0.  1.
    10030    2    1    2    0    0  0.00000000000E+00  0.00000000000E+00  0.84863777306E+03  0.19682817525E+04  0.17759355246E+04 0.  0.
        5    1    3    3  502    0 -0.13179289323E+03  0.13178408471E+03 -0.53788579758E+03  0.56927992493E+03  0.46999998093E+01 0.  1.
       -5    1    3    3    0  502  0.13179289323E+03 -0.13178408471E+03  0.13865235706E+04  0.13990018276E+04  0.46999998093E+01 0. -1.
</event>
<event>
 5   0  0.3568870E-04  0.1814066E+04  0.7818609E-02  0.8698855E-01
        2   -1    0    0  501    0  0.00000000000E+00  0.00000000000E+00  0.11728488683E+04  0.11728488683E+04  0.25500000920E-02 0.  1.
       -2   -1    0    0    0  501  0.00000000000E+00  0.00000000000E+00 -0.70146196885E+03  0.70146196886E+03  0.25500000920E-02 0. -1.
    10030    2    1    2    0    0  0.00000000000E+00  0.00000000000E+00  0.47138689946E+03  0.18743108372E+04  0.18140660146E+04 0.  0.
        1    1    3    3  502    0 -0.46610943309E+03  0.21409272434E+03 -0.53722428368E+03  0.74276754724E+03  0.50400001928E-02 0. -1.
       -1    1    3    3    0  502  0.46610943309E+03 -0.21409272434E+03  0.10086111831E+04  0.11315432899E+04  0.50400001928E-02 0.  1.
</event>
<event>
 5   0  0.1818778E-04  0.1465545E+04  0.7818609E-02  0.8907694E-01
        1   -1    0    0  501    0  0.00000000000E+00  0.00000000000E+00  0.72684213901E+03  0.72684213903E+03  0.50400001928E-02 0.  1.
       -1   -1    0    0    0  501  0.00000000000E+00  0.00000000000E+00 -0.73875125446E+03  0.73875125448E+03  0.50400001928E-02 0. -1.
    10030    2    1    2    0    0  0.00000000000E+00  0.00000000000E+00 -0.11909115448E+02  0.14655933935E+04  0.14655450072E+04 0.  0.
        3    1    3    3  502    0 -0.72800775981E+03  0.77109459486E+02 -0.37804702293E+02  0.73305550459E+03  0.10100000352E+00 0. -1.
       -3    1    3    3    0  502  0.72800775981E+03 -0.77109459486E+02  0.25895586846E+02  0.73253788892E+03  0.10100000352E+00 0.  1.
</event>
<event>
 5   0  0.1825253E-04  0.1802980E+04  0.7818609E-02  0.8704716E-01
        1   -1    0    0  501    0  0.00000000000E+00  0.00000000000E+00  0.15930619737E+04  0.15930619737E+04  0.50400001928E-02 0.  1.
       -1   -1    0    0    0  501  0.00000000000E+00  0.00000000000E+00 -0.51013989343E+03  0.51013989345E+03  0.50400001928E-02 0. -1.
    10030    2    1    2    0    0  0.00000000000E+00  0.00000000000E+00  0.10829220803E+04  0.21032018672E+04  0.18029802723E+04 0.  0.
        4    1    3    3  502    0 -0.18764094984E+03  0.72375818442E+03 -0.46035817964E+02  0.74910342744E+03  0.12699999809E+01 0. -1.
       -4    1    3    3    0  502  0.18764094984E+03 -0.72375818442E+03  0.11289578983E+04  0.13540984397E+04  0.12699999809E+01 0.  1.
</event>
<event>
 5   0  0.1818778E-04  0.1795152E+04  0.7818609E-02  0.8708882E-01
        1   -1    0    0  501    0  0.00000000000E+00  0.00000000000E+00  0.91059915129E+03  0.91059915130E+03  0.50400001928E-02 0. -1.
       -1   -1    0    0    0  501  0.00000000000E+00  0.00000000000E+00 -0.88473866770E+03  0.88473866771E+03  0.50400001928E-02 0.  1.
    10030    2    1    2    0    0  0.00000000000E+00  0.00000000000E+00  0.25860483591E+02  0.17953378190E+04  0.17951515590E+04 0.  0.
        3    1    3    3  502    0 -0.62964600152E+03  0.52124914306E+03 -0.35790131769E+03  0.89232736133E+03  0.10100000352E+00 0.  1.
       -3    1    3    3    0  502  0.62964600152E+03 -0.52124914306E+03  0.38376180128E+03  0.90301045769E+03  0.10100000352E+00 0. -1.
</event>
<event>
 5   0  0.3582186E-04  0.1781399E+04  0.7818609E-02  0.8716254E-01
        2   -1    0    0  501    0  0.00000000000E+00  0.00000000000E+00  0.11765041068E+04  0.11765041068E+04  0.25500000920E-02 0.  1.
       -2   -1    0    0    0  501  0.00000000000E+00  0.00000000000E+00 -0.67432429829E+03  0.67432429830E+03  0.25500000920E-02 0. -1.
    10030    2    1    2    0    0  0.00000000000E+00  0.00000000000E+00  0.50217980851E+03  0.18508284051E+04  0.17813986710E+04 0.  0.
        4    1    3    3  502    0 -0.19956551320E+03 -0.22823387522E+03  0.11212439567E+04  0.11615105334E+04  0.12699999809E+01 0.  1.
       -4    1    3    3    0  502  0.19956551320E+03  0.22823387522E+03 -0.61906414816E+03  0.68931787174E+03  0.12699999809E+01 0. -1.
</event>
<event>
 5   0  0.3575091E-04  0.1791917E+04  0.7818609E-02  0.8710610E-01
        2   -1    0    0  501    0  0.00000000000E+00  0.00000000000E+00  0.13073570960E+04  0.13073570960E+04  0.25500000920E-02 0.  1.
       -2   -1    0    0    0  501  0.00000000000E+00  0.00000000000E+00 -0.61401853679E+03  0.61401853680E+03  0.25500000920E-02 0. -1.
    10030    2    1    2    0    0  0.00000000000E+00  0.00000000000E+00  0.69333855922E+03  0.19213756328E+04  0.17919168409E+04 0.  0.
        5    1    3    3  502    0 -0.53405859407E+03 -0.70604608875E+03  0.19887138264E+03  0.90735416359E+03  0.46999998093E+01 0. -1.
       -5    1    3    3    0  502  0.53405859407E+03  0.70604608875E+03  0.49446717658E+03  0.10140214692E+04  0.46999998093E+01 0.  1.
</event>
<event>
 5   0  0.3628581E-04  0.1470895E+04  0.7818609E-02  0.8904041E-01
       -2   -1    0    0    0  501  0.00000000000E+00  0.00000000000E+00  0.12210994432E+04  0.12210994432E+04  0.25500000920E-02 0. -1.
        2   -1    0    0  501    0  0.00000000000E+00  0.00000000000E+00 -0.44294759521E+03  0.44294759522E+03  0.25500000920E-02 0.  1.
    10030    2    1    2    0    0  0.00000000000E+00  0.00000000000E+00  0.77815184801E+03  0.16640470384E+04  0.14708950498E+04 0.  0.
        2    1    3    3  502    0 -0.38431037664E+03 -0.54722434165E+03  0.42711915925E+02  0.67005466453E+03  0.25500000920E-02 0. -1.
       -2    1    3    3    0  502  0.38431037664E+03  0.54722434165E+03  0.73543993209E+03  0.99399237391E+03  0.25500000920E-02 0.  1.
</event>
<event>
 5   0  0.3531266E-04  0.1804559E+04  0.7818609E-02  0.8703879E-01
       -2   -1    0    0    0  501  0.00000000000E+00  0.00000000000E+00  0.52149853518E+03  0.52149853519E+03  0.25500000920E-02 0.  1.
        2   -1    0    0  501    0  0.00000000000E+00  0.00000000000E+00 -0.15610934514E+04  0.15610934514E+04  0.25500000920E-02 0. -1.
    10030    2    1    2    0    0  0.00000000000E+00  0.00000000000E+00 -0.10395949162E+04  0.20825919866E+04  0.18045586144E+04 0.  0.
        3    1    3    3  502    0  0.57674725253E+03 -0.21991886630E+03 -0.12793020761E+04  0.14204279331E+04  0.10100000352E+00 0. -1.
       -3    1    3    3    0  502 -0.57674725253E+03  0.21991886630E+03  0.23970715986E+03  0.66216405349E+03  0.10100000352E+00 0.  1.
</event>
<event>
 5   0  0.3628581E-04  0.1802705E+04  0.7818609E-02  0.8704862E-01
       -2   -1    0    0    0  501  0.00000000000E+00  0.00000000000E+00  0.32191921832E+03  0.32191921833E+03  0.25500000920E-02 0. -1.
        2   -1    0    0  501    0  0.00000000000E+00  0.00000000000E+00 -0.25237263618E+04  0.25237263618E+04  0.25500000920E-02 0.  1.
    10030    2    1    2    0    0  0.00000000000E+00  0.00000000000E+00 -0.22018071435E+04  0.28456455802E+04  0.18027046543E+04 0.  0.
        2    1    3    3  502    0  0.57905779115E+02 -0.21969424627E+01 -0.25207829597E+04  0.25214489159E+04  0.25500000920E-02 0.  1.
       -2    1    3    3    0  502 -0.57905779115E+02  0.21969424627E+01  0.31897581615E+03  0.32419666425E+03  0.25500000920E-02 0. -1.
</event>
<event>
 5   0  0.3531266E-04  0.1810860E+04  0.7818609E-02  0.8700545E-01
       -2   -1    0    0    0  501  0.00000000000E+00  0.00000000000E+00  0.87694086006E+03  0.87694086007E+03  0.25500000920E-02 0.  1.
        2   -1    0    0  501    0  0.00000000000E+00  0.00000000000E+00 -0.93484501819E+03  0.93484501819E+03  0.25500000920E-02 0. -1.
    10030    2    1    2    0    0  0.00000000000E+00  0.00000000000E+00 -0.57904158129E+02  0.18117858783E+04  0.18108603417E+04 0.  0.
        3    1    3    3  502    0 -0.23563079164E+03 -0.24374709392E+02  0.84538689052E+03  0.87794931590E+03  0.10100000352E+00 0.  1.
       -3    1    3    3    0  502  0.23563079164E+03  0.24374709392E+02 -0.90329104865E+03  0.93383656236E+03  0.10100000352E+00 0. -1.
</event>
<event>
 5   0  0.3531266E-04  0.1767414E+04  0.7818609E-02  0.8723823E-01
       -2   -1    0    0    0  501  0.00000000000E+00  0.00000000000E+00  0.14098540193E+04  0.14098540193E+04  0.25500000920E-02 0. -1.
        2   -1    0    0  501    0  0.00000000000E+00  0.00000000000E+00 -0.55391443962E+03  0.55391443963E+03  0.25500000920E-02 0.  1.
    10030    2    1    2    0    0  0.00000000000E+00  0.00000000000E+00  0.85593957966E+03  0.19637684589E+04  0.17674144947E+04 0.  0.
        3    1    3    3  502    0  0.17475760851E+03 -0.52080807653E+02 -0.53278254975E+03  0.56312510846E+03  0.10100000352E+00 0.  1.
       -3    1    3    3    0  502 -0.17475760851E+03  0.52080807653E+02  0.13887221294E+04  0.14006433504E+04  0.10100000352E+00 0. -1.
</event>
<event>
 5   0  0.3582186E-04  0.1790898E+04  0.7818609E-02  0.8711155E-01
        2   -1    0    0  501    0  0.00000000000E+00  0.00000000000E+00  0.10825292560E+04  0.10825292560E+04  0.25500000920E-02 0. -1.
       -2   -1    0    0    0  501  0.00000000000E+00  0.00000000000E+00 -0.74069954237E+03  0.74069954237E+03  0.25500000920E-02 0.  1.
    10030    2    1    2    0    0  0.00000000000E+00  0.00000000000E+00  0.34182971365E+03  0.18232287984E+04  0.17908980144E+04 0.  0.
        4    1    3    3  502    0  0.86736333154E+03  0.17317866181E+03  0.31314129690E+03  0.93827985299E+03  0.12699999809E+01 0. -1.
       -4    1    3    3    0  502 -0.86736333154E+03 -0.17317866181E+03  0.28688416754E+02  0.88494894540E+03  0.12699999809E+01 0.  1.
</event>
<event>
 5   0  0.1818778E-04  0.1784917E+04  0.7818609E-02  0.8714362E-01
       -1   -1    0    0    0  501  0.00000000000E+00  0.00000000000E+00  0.86471515924E+03  0.86471515926E+03  0.50400001928E-02 0. -1.
        1   -1    0    0  501    0  0.00000000000E+00  0.00000000000E+00 -0.92109158036E+03  0.92109158038E+03  0.50400001928E-02 0.  1.
    10030    2    1    2    0    0  0.00000000000E+00  0.00000000000E+00 -0.56376421120E+02  0.17858067396E+04  0.17849166396E+04 0.  0.
        3    1    3    3  502    0 -0.51427514667E+03  0.59765232381E+02  0.69910691454E+03  0.86994327266E+03  0.10100000352E+00 0. -1.
       -3    1    3    3    0  502  0.51427514667E+03 -0.59765232381E+02 -0.75548333566E+03  0.91586346698E+03  0.10100000352E+00 0.  1.
</event>
<event>
 5   0  0.1835421E-04  0.1720656E+04  0.7818609E-02  0.8749670E-01
        1   -1    0    0  501    0  0.00000000000E+00  0.00000000000E+00  0.87697021799E+03  0.87697021800E+03  0.50400001928E-02 0.  1.
       -1   -1    0    0    0  501  0.00000000000E+00  0.00000000000E+00 -0.84400161870E+03  0.84400161872E+03  0.50400001928E-02 0. -1.
    10030    2    1    2    0    0  0.00000000000E+00  0.00000000000E+00  0.32968599288E+02  0.17209718367E+04  0.17206560186E+04 0.  0.
        2    1    3    3  502    0 -0.45190527353E+02 -0.29247252042E+03  0.82445800165E+03  0.87596424325E+03  0.25500000920E-02 0.  1.
       -2    1    3    3    0  502  0.45190527353E+02  0.29247252042E+03 -0.79148940236E+03  0.84500759347E+03  0.25500000920E-02 0. -1.
</event>
<event>
 5   0  0.1835421E-04  0.1794733E+04  0.7818609E-02  0.8709106E-01
       -1   -1    0    0    0  501  0.00000000000E+00  0.00000000000E+00  0.59247631725E+03  0.59247631727E+03  0.50400001928E-02 0.  1.
        1   -1    0    0  501    0  0.00000000000E+00  0.00000000000E+00 -0.13591534472E+04  0.13591534472E+04  0.50400001928E-02 0. -1.
    10030    2    1    2    0    0  0.00000000000E+00  0.00000000000E+00 -0.76667712995E+03  0.19516297645E+04  0.17947325472E+04 0.  0.
        2    1    3    3  502    0 -0.22778437436E+03  0.71143252100E+03  0.15736697220E+03  0.76340442563E+03  0.25500000920E-02 0. -1.
       -2    1    3    3    0  502  0.22778437436E+03 -0.71143252100E+03 -0.92404410214E+03  0.11882253388E+04  0.25500000920E-02 0.  1.
</event>
<event>
 5   0  0.1818778E-04  0.1796070E+04  0.7818609E-02  0.8708392E-01
       -1   -1    0    0    0  501  0.00000000000E+00  0.00000000000E+00  0.99890472876E+03  0.99890472878E+03  0.50400001928E-02 0.  1.
        1   -1    0    0  501    0  0.00000000000E+00  0.00000000000E+00 -0.80735089800E+03  0.80735089802E+03  0.50400001928E-02 0. -1.
    10030    2    1    2    0    0  0.00000000000E+00  0.00000000000E+00  0.19155383076E+03  0.18062556268E+04  0.17960697423E+04 0.  0.
        3    1    3    3  502    0  0.30888228321E+03  0.52974303234E+03  0.75556979323E+03  0.97309900207E+03  0.10100000352E+00 0.  1.
       -3    1    3    3    0  502 -0.30888228321E+03 -0.52974303234E+03 -0.56401596247E+03  0.83315662472E+03  0.10100000352E+00 0. -1.
</event>
<event>
 5   0  0.3568870E-04  0.1796232E+04  0.7818609E-02  0.8708306E-01
        2   -1    0    0  501    0  0.00000000000E+00  0.00000000000E+00  0.18554963117E+04  0.18554963117E+04  0.25500000920E-02 0.  1.
       -2   -1    0    0    0  501  0.00000000000E+00  0.00000000000E+00 -0.43471530676E+03  0.43471530677E+03  0.25500000920E-02 0. -1.
    10030    2    1    2    0    0  0.00000000000E+00  0.00000000000E+00  0.14207810049E+04  0.22902116184E+04  0.17962323328E+04 0.  0.
        1    1    3    3  502    0 -0.79554842203E+03 -0.41435510173E+03  0.65301219603E+03  0.11095099685E+04  0.50400001928E-02 0. -1.
       -1    1    3    3    0  502  0.79554842203E+03  0.41435510173E+03  0.76776880887E+03  0.11807016499E+04  0.50400001928E-02 0.  1.
</event>
<event>
 5   0  0.1818778E-04  0.1793715E+04  0.7818609E-02  0.8709649E-01
       -1   -1    0    0    0  501  0.00000000000E+00  0.00000000000E+00  0.65584006518E+03  0.65584006520E+03  0.50400001928E-02 0. -1.
        1   -1    0    0  501    0  0.00000000000E+00  0.00000000000E+00 -0.12264469079E+04  0.12264469079E+04  0.50400001928E-02 0.  1.
    10030    2    1    2    0    0  0.00000000000E+00  0.00000000000E+00 -0.57060684271E+03  0.18822869731E+04  0.17937146039E+04 0.  0.
        3    1    3    3  502    0 -0.73257119809E+03  0.10399580857E+03 -0.81716102748E+03  0.11023737313E+04  0.10100000352E+00 0.  1.
       -3    1    3    3    0  502  0.73257119809E+03 -0.10399580857E+03  0.24655418477E+03  0.77991324178E+03  0.10100000352E+00 0. -1.
</event>
<event>
 5   0  0.3531266E-04  0.1742788E+04  0.7818609E-02  0.8737330E-01
       -2   -1    0    0    0  501  0.00000000000E+00  0.00000000000E+00  0.11331421547E+04  0.11331421547E+04  0.25500000920E-02 0.  1.
        2   -1    0    0  501    0  0.00000000000E+00  0.00000000000E+00 -0.67010804402E+03  0.67010804403E+03  0.25500000920E-02 0. -1.
    10030    2    1    2    0    0  0.00000000000E+00  0.00000000000E+00  0.46303411067E+03  0.18032501987E+04  0.17427881947E+04 0.  0.
        3    1    3    3  502    0  0.45687221144E+03  0.48718205823E+03 -0.34758657351E+03  0.75292430678E+03  0.10100000352E+00 0. -1.
       -3    1    3    3    0  502 -0.45687221144E+03 -0.48718205823E+03  0.81062068418E+03  0.10503258919E+04  0.10100000352E+00 0.  1.
</event>
<event>
 5   0  0.1837313E-04  0.1779599E+04  0.7818609E-02  0.8717224E-01
       -1   -1    0    0    0  501  0.00000000000E+00  0.00000000000E+00  0.89527883493E+03  0.89527883494E+03  0.50400001928E-02 0. -1.
        1   -1    0    0  501    0  0.00000000000E+00  0.00000000000E+00 -0.88435367411E+03  0.88435367412E+03  0.50400001928E-02 0.  1.
    10030    2    1    2    0    0  0.00000000000E+00  0.00000000000E+00  0.10925160818E+02  0.17796325091E+04  0.17795989740E+04 0.  0.
        1    1    3    3  502    0  0.59905873579E+02 -0.10210174751E+02  0.89320120538E+03  0.89526608038E+03  0.50400001928E-02 0. -1.
       -1    1    3    3    0  502 -0.59905873579E+02  0.10210174751E+02 -0.88227604456E+03  0.88436642869E+03  0.50400001928E-02 0.  1.
</event>
<event>
 5   0  0.3582186E-04  0.1809460E+04  0.7818609E-02  0.8701285E-01
       -2   -1    0    0    0  501  0.00000000000E+00  0.00000000000E+00  0.50702337913E+03  0.50702337913E+03  0.25500000920E-02 0. -1.
        2   -1    0    0  501    0  0.00000000000E+00  0.00000000000E+00 -0.16143961524E+04  0.16143961524E+04  0.25500000920E-02 0.  1.
    10030    2    1    2    0    0  0.00000000000E+00  0.00000000000E+00 -0.11073727733E+04  0.21214195315E+04  0.18094602427E+04 0.  0.
        4    1    3    3  502    0 -0.38675159379E+03  0.43450999514E+03 -0.13660868583E+04  0.14847796633E+04  0.12699999809E+01 0.  1.
       -4    1    3    3    0  502  0.38675159379E+03 -0.43450999514E+03  0.25871408501E+03  0.63663986826E+03  0.12699999809E+01 0. -1.
</event>
<event>
 5   0  0.3582186E-04  0.1796123E+04  0.7818609E-02  0.8708364E-01
        2   -1    0    0  501    0  0.00000000000E+00  0.00000000000E+00  0.11220008399E+04  0.11220008399E+04  0.25500000920E-02 0.  1.
       -2   -1    0    0    0  501  0.00000000000E+00  0.00000000000E+00 -0.71881810911E+03  0.71881810912E+03  0.25500000920E-02 0. -1.
    10030    2    1    2    0    0  0.00000000000E+00  0.00000000000E+00  0.40318273081E+03  0.18408189490E+04  0.17961230717E+04 0.  0.
        4    1    3    3  502    0  0.77486596208E+03  0.28564634343E+03  0.56322001430E+03  0.99961467081E+03  0.12699999809E+01 0.  1.
       -4    1    3    3    0  502 -0.77486596208E+03 -0.28564634343E+03 -0.16003728349E+03  0.84120427822E+03  0.12699999809E+01 0. -1.
</event>
<event>
 5   0  0.1883959E-04  0.1764221E+04  0.7818609E-02  0.8725561E-01
        1   -1    0    0  501    0  0.00000000000E+00  0.00000000000E+00  0.12378097152E+04  0.12378097152E+04  0.50400001928E-02 0.  1.
       -1   -1    0    0    0  501  0.00000000000E+00  0.00000000000E+00 -0.62862541570E+03  0.62862541572E+03  0.50400001928E-02 0. -1.
    10030    2    1    2    0    0  0.00000000000E+00  0.00000000000E+00  0.60918429946E+03  0.18664351309E+04  0.17642206742E+04 0.  0.
        5    1    3    3  502    0 -0.28333356220E+02 -0.72367633049E+03 -0.22815719784E+03  0.75933392346E+03  0.46999998093E+01 0. -1.
       -5    1    3    3    0  502  0.28333356220E+02  0.72367633049E+03  0.83734149731E+03  0.11071012074E+04  0.46999998093E+01 0.  1.
</event>
<event>
 5   0  0.1818778E-04  0.1797524E+04  0.7818609E-02  0.8707617E-01
        1   -1    0    0  501    0  0.00000000000E+00  0.00000000000E+00  0.13652603968E+04  0.13652603968E+04  0.50400001928E-02 0. -1.
       -1   -1    0    0    0  501  0.00000000000E+00  0.00000000000E+00 -0.59166232974E+03  0.59166232976E+03  0.50400001928E-02 0.  1.
    10030    2    1    2    0    0  0.00000000000E+00  0.00000000000E+00  0.77359806703E+03  0.19569227265E+04  0.17975240161E+04 0.  0.
        3    1    3    3  502    0  0.33793710834E+03 -0.40894082511E+03 -0.40302759422E+03  0.66623219642E+03  0.10100000352E+00 0.  1.
       -3    1    3    3    0  502 -0.33793710834E+03  0.40894082511E+03  0.11766256613E+04  0.12906905301E+04  0.10100000352E+00 0. -1.
</event>
<event>
 5   0  0.1835421E-04  0.1798606E+04  0.7818609E-02  0.8707041E-01
        1   -1    0    0  501    0  0.00000000000E+00  0.00000000000E+00  0.11377296833E+04  0.11377296833E+04  0.50400001928E-02 0.  1.
       -1   -1    0    0    0  501  0.00000000000E+00  0.00000000000E+00 -0.71084202056E+03  0.71084202057E+03  0.50400001928E-02 0. -1.
    10030    2    1    2    0    0  0.00000000000E+00  0.00000000000E+00  0.42688766272E+03  0.18485717039E+04  0.17986062014E+04 0.  0.
        2    1    3    3  502    0 -0.38160839186E+03 -0.26543476566E+03  0.10046779997E+04  0.11070042740E+04  0.25500000920E-02 0.  1.
       -2    1    3    3    0  502  0.38160839186E+03  0.26543476566E+03 -0.57779033696E+03  0.74156742988E+03  0.25500000920E-02 0. -1.
</event>
<event>
 5   0  0.3582186E-04  0.1689166E+04  0.7818609E-02  0.8767568E-01
        2   -1    0    0  501    0  0.00000000000E+00  0.00000000000E+00  0.94330234720E+03  0.94330234720E+03  0.25500000920E-02 0. -1.
       -2   -1    0    0    0  501  0.00000000000E+00  0.00000000000E+00 -0.75619483791E+03  0.75619483792E+03  0.25500000920E-02 0.  1.
    10030    2    1    2    0    0  0.00000000000E+00  0.00000000000E+00  0.18710750929E+03  0.16994971851E+04  0.16891659072E+04 0.  0.
        4    1    3    3  502    0 -0.13733715745E+03 -0.48125390170E+03  0.77804703078E+03  0.92510843025E+03  0.12699999809E+01 0. -1.
       -4    1    3    3    0  502  0.13733715745E+03  0.48125390170E+03 -0.59093952149E+03  0.77438875487E+03  0.12699999809E+01 0.  1.
</event>
<event>
 5   0  0.1818778E-04  0.1765113E+04  0.7818609E-02  0.8725075E-01
        1   -1    0    0  501    0  0.00000000000E+00  0.00000000000E+00  0.10032564497E+04  0.10032564497E+04  0.50400001928E-02 0. -1.
       -1   -1    0    0    0  501  0.00000000000E+00  0.00000000000E+00 -0.77637768108E+03  0.77637768110E+03  0.50400001928E-02 0.  1.
    10030    2    1    2    0    0  0.00000000000E+00  0.00000000000E+00  0.22687876863E+03  0.17796341308E+04  0.17651129323E+04 0.  0.
        3    1    3    3  502    0  0.74216117523E+03  0.17186864368E+03  0.56271033480E+03  0.94709290558E+03  0.10100000352E+00 0. -1.
       -3    1    3    3    0  502 -0.74216117523E+03 -0.17186864368E+03 -0.33583156617E+03  0.83254122525E+03  0.10100000352E+00 0.  1.
</event>
<event>
 5   0  0.3628581E-04  0.1799278E+04  0.7818609E-02  0.8706683E-01
       -2   -1    0    0    0  501  0.00000000000E+00  0.00000000000E+00  0.98226075222E+03  0.98226075223E+03  0.25500000920E-02 0. -1.
        2   -1    0    0  501    0  0.00000000000E+00  0.00000000000E+00 -0.82396731223E+03  0.82396731223E+03  0.25500000920E-02 0.  1.
    10030    2    1    2    0    0  0.00000000000E+00  0.00000000000E+00  0.15829343999E+03  0.18062280645E+04  0.17992784686E+04 0.  0.
        2    1    3    3  502    0  0.19458954599E+03 -0.77955695633E+03 -0.32710961363E+03  0.86751071400E+03  0.25500000920E-02 0.  1.
       -2    1    3    3    0  502 -0.19458954599E+03  0.77955695633E+03  0.48540305363E+03  0.93871735046E+03  0.25500000920E-02 0. -1.
</event>
<event>
 5   0  0.3582186E-04  0.1777461E+04  0.7818609E-02  0.8718378E-01
       -2   -1    0    0    0  501  0.00000000000E+00  0.00000000000E+00  0.83899419457E+03  0.83899419457E+03  0.25500000920E-02 0.  1.
        2   -1    0    0  501    0  0.00000000000E+00  0.00000000000E+00 -0.94141501293E+03  0.94141501294E+03  0.25500000920E-02 0. -1.
    10030    2    1    2    0    0  0.00000000000E+00  0.00000000000E+00 -0.10242081836E+03  0.17804092075E+04  0.17774608075E+04 0.  0.
        4    1    3    3  502    0 -0.64302641219E+03 -0.51353401562E+03 -0.38738590407E+03  0.90954362377E+03  0.12699999809E+01 0.  1.
       -4    1    3    3    0  502  0.64302641219E+03  0.51353401562E+03  0.28496508570E+03  0.87086558374E+03  0.12699999809E+01 0. -1.
</event>
<event>
 5   0  0.1883959E-04  0.1818765E+04  0.7818609E-02  0.8696384E-01
        1   -1    0    0  501    0  0.00000000000E+00  0.00000000000E+00  0.15657659479E+04  0.15657659480E+04  0.50400001928E-02 0.  1.
       -1   -1    0    0    0  501  0.00000000000E+00  0.00000000000E+00 -0.52816077962E+03  0.52816077965E+03  0.50400001928E-02 0. -1.
    10030    2    1    2    0    0  0.00000000000E+00  0.00000000000E+00  0.10376051683E+04  0.20939267276E+04  0.18187645959E+04 0.  0.
        5    1    3    3  502    0  0.70082824537E+02 -0.20898236779E+03  0.15345312519E+04  0.15502881943E+04  0.46999998093E+01 0.  1.
       -5    1    3    3    0  502 -0.70082824537E+02  0.20898236779E+03 -0.49692608358E+03  0.54363853329E+03  0.46999998093E+01 0. -1.
</event>
<event>
 5   0  0.1330125E-04  0.1673464E+04  0.7818609E-02  0.8776645E-01
        4   -1    0    0  501    0  0.00000000000E+00  0.00000000000E+00  0.10193235967E+04  0.10193243878E+04  0.12699999809E+01 0.  1.
       -4   -1    0    0    0  501  0.00000000000E+00  0.00000000000E+00 -0.68684662421E+03  0.68684779834E+03  0.12699999809E+01 0. -1.
    10030    2    1    2    0    0  0.00000000000E+00  0.00000000000E+00  0.33247697247E+03  0.17061721862E+04  0.16734642487E+04 0.  0.
        4    1    3    3  502    0 -0.42336930462E+03 -0.55000579216E+03  0.64267385633E+03  0.94592771289E+03  0.12699999809E+01 0.  1.
       -4    1    3    3    0  502  0.42336930462E+03  0.55000579216E+03 -0.31019688387E+03  0.76024447329E+03  0.12699999809E+01 0. -1.
</event>
<event>
 5   0  0.3628581E-04  0.1795439E+04  0.7818609E-02  0.8708729E-01
        2   -1    0    0  501    0  0.00000000000E+00  0.00000000000E+00  0.14159751566E+04  0.14159751566E+04  0.25500000920E-02 0.  1.
       -2   -1    0    0    0  501  0.00000000000E+00  0.00000000000E+00 -0.56914842700E+03  0.56914842701E+03  0.25500000920E-02 0. -1.
    10030    2    1    2    0    0  0.00000000000E+00  0.00000000000E+00  0.84682672959E+03  0.19851235836E+04  0.17954387019E+04 0.  0.
        2    1    3    3  502    0  0.29327427824E+03  0.80051356576E+03  0.73431146072E+03  0.11251866923E+04  0.25500000920E-02 0. -1.
       -2    1    3    3    0  502 -0.29327427824E+03 -0.80051356576E+03  0.11251526887E+03  0.85993689128E+03  0.25500000920E-02 0.  1.
</event>
<event>
 5   0  0.3531266E-04  0.1801335E+04  0.7818609E-02  0.8705590E-01
       -2   -1    0    0    0  501  0.00000000000E+00  0.00000000000E+00  0.70383396278E+03  0.70383396279E+03  0.25500000920E-02 0. -1.
        2   -1    0    0  501    0  0.00000000000E+00  0.00000000000E+00 -0.11525474557E+04  0.11525474557E+04  0.25500000920E-02 0.  1.
    10030    2    1    2    0    0  0.00000000000E+00  0.00000000000E+00 -0.44871349293E+03  0.18563814185E+04  0.18013351083E+04 0.  0.
        3    1    3    3  502    0  0.84907286709E+03 -0.16989489994E+03  0.31032692535E+02  0.86645949061E+03  0.10100000352E+00 0. -1.
       -3    1    3    3    0  502 -0.84907286709E+03  0.16989489994E+03 -0.47974618546E+03  0.98992192789E+03  0.10100000352E+00 0.  1.
</event>
<event>
 5   0  0.3575091E-04  0.1780033E+04  0.7818609E-02  0.8716990E-01
       -2   -1    0    0    0  501  0.00000000000E+00  0.00000000000E+00  0.12116171013E+04  0.12116171013E+04  0.25500000920E-02 0. -1.
        2   -1    0    0  501    0  0.00000000000E+00  0.00000000000E+00 -0.65377866269E+03  0.65377866269E+03  0.25500000920E-02 0.  1.
    10030    2    1    2    0    0  0.00000000000E+00  0.00000000000E+00  0.55783843865E+03  0.18653957640E+04  0.17800330426E+04 0.  0.
        5    1    3    3  502    0  0.68732559582E+03 -0.48789310242E+03  0.57836907810E+03  0.10222470516E+04  0.46999998093E+01 0. -1.
       -5    1    3    3    0  502 -0.68732559582E+03  0.48789310242E+03 -0.20530639458E+02  0.84314871240E+03  0.46999998093E+01 0.  1.
</event>
<event>
 5   0  0.1835421E-04  0.1321059E+04  0.7818609E-02  0.9013030E-01
        1   -1    0    0  501    0  0.00000000000E+00  0.00000000000E+00  0.56763762266E+03  0.56763762268E+03  0.50400001928E-02 0.  1.
       -1   -1    0    0    0  501  0.00000000000E+00  0.00000000000E+00 -0.76862250611E+03  0.76862250613E+03  0.50400001928E-02 0. -1.
    10030    2    1    2    0    0  0.00000000000E+00  0.00000000000E+00 -0.20098488345E+03  0.13362601288E+04  0.13210587453E+04 0.  0.
        2    1    3    3  502    0 -0.49070015449E+03 -0.27023945654E+03  0.25351049919E+03  0.61488501257E+03  0.25500000920E-02 0.  1.
       -2    1    3    3    0  502  0.49070015449E+03  0.27023945654E+03 -0.45449538264E+03  0.72137511624E+03  0.25500000920E-02 0. -1.
</event>
<event>
 5   0  0.3628581E-04  0.1795700E+04  0.7818609E-02  0.8708589E-01
       -2   -1    0    0    0  501  0.00000000000E+00  0.00000000000E+00  0.13581779151E+04  0.13581779151E+04  0.25500000920E-02 0.  1.
        2   -1    0    0  501    0  0.00000000000E+00  0.00000000000E+00 -0.59354139116E+03  0.59354139116E+03  0.25500000920E-02 0. -1.
    10030    2    1    2    0    0  0.00000000000E+00  0.00000000000E+00  0.76463652396E+03  0.19517193063E+04  0.17957002079E+04 0.  0.
        2    1    3    3  502    0  0.18724778994E+03  0.85779820028E+03  0.17824041323E+03  0.89590687695E+03  0.25500000920E-02 0.  1.
       -2    1    3    3    0  502 -0.18724778994E+03 -0.85779820028E+03  0.58639611073E+03  0.10558124293E+04  0.25500000920E-02 0. -1.
</event>
<event>
 5   0  0.1835421E-04  0.1789312E+04  0.7818609E-02  0.8712004E-01
       -1   -1    0    0    0  501  0.00000000000E+00  0.00000000000E+00  0.54886665241E+03  0.54886665243E+03  0.50400001928E-02 0.  1.
        1   -1    0    0  501    0  0.00000000000E+00  0.00000000000E+00 -0.14582943683E+04  0.14582943683E+04  0.50400001928E-02 0. -1.
    10030    2    1    2    0    0  0.00000000000E+00  0.00000000000E+00 -0.90942771587E+03  0.20071610207E+04  0.17893117651E+04 0.  0.
        2    1    3    3  502    0 -0.45554390565E+03 -0.67071168376E+03 -0.30468640295E+02  0.81135858334E+03  0.25500000920E-02 0.  1.
       -2    1    3    3    0  502  0.45554390565E+03  0.67071168376E+03 -0.87895907558E+03  0.11958024374E+04  0.25500000920E-02 0. -1.
</event>
<event>
 5   0  0.3575091E-04  0.1769791E+04  0.7818609E-02  0.8722531E-01
        2   -1    0    0  501    0  0.00000000000E+00  0.00000000000E+00  0.12556040136E+04  0.12556040136E+04  0.25500000920E-02 0.  1.
       -2   -1    0    0    0  501  0.00000000000E+00  0.00000000000E+00 -0.62363618933E+03  0.62363618933E+03  0.25500000920E-02 0. -1.
    10030    2    1    2    0    0  0.00000000000E+00  0.00000000000E+00  0.63196782430E+03  0.18792402030E+04  0.17697910638E+04 0.  0.
        5    1    3    3  502    0  0.32206015128E+03  0.61607624523E+03  0.89733235122E+03  0.11351211916E+04  0.46999998093E+01 0.  1.
       -5    1    3    3    0  502 -0.32206015128E+03 -0.61607624523E+03 -0.26536452692E+03  0.74411901140E+03  0.46999998093E+01 0. -1.
</event>
<event>
 5   0  0.1825253E-04  0.1770478E+04  0.7818609E-02  0.8722159E-01
       -1   -1    0    0    0  501  0.00000000000E+00  0.00000000000E+00  0.34906134358E+03  0.34906134362E+03  0.50400001928E-02 0.  1.
        1   -1    0    0  501    0  0.00000000000E+00  0.00000000000E+00 -0.22450142125E+04  0.22450142125E+04  0.50400001928E-02 0. -1.
    10030    2    1    2    0    0  0.00000000000E+00  0.00000000000E+00 -0.18959528689E+04  0.25940755561E+04  0.17704775372E+04 0.  0.
        4    1    3    3  502    0  0.86182661103E+03  0.54780010698E+02 -0.12332177437E+04  0.15055143882E+04  0.12699999809E+01 0.  1.
       -4    1    3    3    0  502 -0.86182661103E+03 -0.54780010698E+02 -0.66273512524E+03  0.10885611679E+04  0.12699999809E+01 0. -1.
</event>
<event>
 5   0  0.1835421E-04  0.1814289E+04  0.7818609E-02  0.8698737E-01
        1   -1    0    0  501    0  0.00000000000E+00  0.00000000000E+00  0.98497231572E+03  0.98497231573E+03  0.50400001928E-02 0.  1.
       -1   -1    0    0    0  501  0.00000000000E+00  0.00000000000E+00 -0.83546667945E+03  0.83546667946E+03  0.50400001928E-02 0. -1.
    10030    2    1    2    0    0  0.00000000000E+00  0.00000000000E+00  0.14950563627E+03  0.18204389952E+04  0.18142894477E+04 0.  0.
        2    1    3    3  502    0  0.18570867830E+03  0.38578491869E+03 -0.72770403273E+03  0.84431681018E+03  0.25500000920E-02 0. -1.
       -2    1    3    3    0  502 -0.18570867830E+03 -0.38578491869E+03  0.87720966900E+03  0.97612218501E+03  0.25500000920E-02 0.  1.
</event>
<event>
 5   0  0.1837313E-04  0.1811948E+04  0.7818609E-02  0.8699971E-01
       -1   -1    0    0    0  501  0.00000000000E+00  0.00000000000E+00  0.55478233252E+03  0.55478233255E+03  0.50400001928E-02 0.  1.
        1   -1    0    0  501    0  0.00000000000E+00  0.00000000000E+00 -0.14794788457E+04  0.14794788457E+04  0.50400001928E-02 0. -1.
    10030    2    1    2    0    0  0.00000000000E+00  0.00000000000E+00 -0.92469651316E+03  0.20342611782E+04  0.18119478193E+04 0.  0.
        1    1    3    3  502    0  0.58174289351E+03  0.46693210801E+03  0.11487138583E+03  0.75474884759E+03  0.50400001928E-02 0.  1.
       -1    1    3    3    0  502 -0.58174289351E+03 -0.46693210801E+03 -0.10395678990E+04  0.12795123306E+04  0.50400001928E-02 0. -1.
</event>
<event>
 5   0  0.3575091E-04  0.2005146E+04  0.7818609E-02  0.8604219E-01
        2   -1    0    0  501    0  0.00000000000E+00  0.00000000000E+00  0.23427808145E+04  0.23427808145E+04  0.25500000920E-02 0. -1.
       -2   -1    0    0    0  501  0.00000000000E+00  0.00000000000E+00 -0.42904234422E+03  0.42904234423E+03  0.25500000920E-02 0.  1.
    10030    2    1    2    0    0  0.00000000000E+00  0.00000000000E+00  0.19137384703E+04  0.27718231587E+04  0.20051455535E+04 0.  0.
        5    1    3    3  502    0 -0.75524549743E+03 -0.35311103140E+03  0.17265902197E+04  0.19173468749E+04  0.46999998093E+01 0.  1.
       -5    1    3    3    0  502  0.75524549743E+03  0.35311103140E+03  0.18714825052E+03  0.85447628379E+03  0.46999998093E+01 0. -1.
</event>
<event>
 5   0  0.1883959E-04  0.1814082E+04  0.7818609E-02  0.8698847E-01
       -1   -1    0    0    0  501  0.00000000000E+00  0.00000000000E+00  0.94874836574E+03  0.94874836575E+03  0.50400001928E-02 0. -1.
        1   -1    0    0  501    0  0.00000000000E+00  0.00000000000E+00 -0.86716687100E+03  0.86716687101E+03  0.50400001928E-02 0.  1.
    10030    2    1    2    0    0  0.00000000000E+00  0.00000000000E+00  0.81581494740E+02  0.18159152368E+04  0.18140817531E+04 0.  0.
        5    1    3    3  502    0 -0.15318509869E+03  0.62959062658E+03 -0.59455621365E+03  0.87941413039E+03  0.46999998093E+01 0.  1.
       -5    1    3    3    0  502  0.15318509869E+03 -0.62959062658E+03  0.67613770839E+03  0.93650110637E+03  0.46999998093E+01 0. -1.
</event>
<event>
 5   0  0.1818778E-04  0.1818644E+04  0.7818609E-02  0.8696447E-01
       -1   -1    0    0    0  501  0.00000000000E+00  0.00000000000E+00  0.40879088139E+03  0.40879088142E+03  0.50400001928E-02 0.  1.
        1   -1    0    0  501    0  0.00000000000E+00  0.00000000000E+00 -0.20227121519E+04  0.20227121519E+04  0.50400001928E-02 0. -1.
    10030    2    1    2    0    0  0.00000000000E+00  0.00000000000E+00 -0.16139212705E+04  0.24315030333E+04  0.18186437621E+04 0.  0.
        3    1    3    3  502    0  0.72468283205E+03 -0.27087612731E+03 -0.16810019843E+03  0.79170497682E+03  0.10100000352E+00 0.  1.
       -3    1    3    3    0  502 -0.72468283205E+03  0.27087612731E+03 -0.14458210720E+04  0.16397980565E+04  0.10100000352E+00 0. -1.
</event>
<event>
 5   0  0.3568870E-04  0.1837190E+04  0.7818609E-02  0.8686769E-01
        2   -1    0    0  501    0  0.00000000000E+00  0.00000000000E+00  0.88712745967E+03  0.88712745967E+03  0.25500000920E-02 0. -1.
       -2   -1    0    0    0  501  0.00000000000E+00  0.00000000000E+00 -0.95117838384E+03  0.95117838384E+03  0.25500000920E-02 0.  1.
    10030    2    1    2    0    0  0.00000000000E+00  0.00000000000E+00 -0.64050924170E+02  0.18383058435E+04  0.18371896618E+04 0.  0.
        1    1    3    3  502    0  0.75880496934E+03  0.44932820468E+03  0.22529929759E+03  0.91018711842E+03  0.50400001928E-02 0. -1.
       -1    1    3    3    0  502 -0.75880496934E+03 -0.44932820468E+03 -0.28935022176E+03  0.92811872510E+03  0.50400001928E-02 0.  1.
</event>
<event>
 5   0  0.1837313E-04  0.1782758E+04  0.7818609E-02  0.8715523E-01
        1   -1    0    0  501    0  0.00000000000E+00  0.00000000000E+00  0.10320506387E+04  0.10320506388E+04  0.50400001928E-02 0.  1.
       -1   -1    0    0    0  501  0.00000000000E+00  0.00000000000E+00 -0.76988141387E+03  0.76988141388E+03  0.50400001928E-02 0. -1.
    10030    2    1    2    0    0  0.00000000000E+00  0.00000000000E+00  0.26216922488E+03  0.18019320526E+04  0.17827580935E+04 0.  0.
        1    1    3    3  502    0 -0.44174081155E+03  0.28048321723E+03  0.86047658146E+03  0.10070877454E+04  0.50400001928E-02 0.  1.
       -1    1    3    3    0  502  0.44174081155E+03 -0.28048321723E+03 -0.59830735658E+03  0.79484430721E+03  0.50400001928E-02 0. -1.
</event>
<event>
 5   0  0.3531266E-04  0.1790701E+04  0.7818609E-02  0.8711260E-01
        2   -1    0    0  501    0  0.00000000000E+00  0.00000000000E+00  0.10044500593E+04  0.10044500593E+04  0.25500000920E-02 0.  1.
       -2   -1    0    0    0  501  0.00000000000E+00  0.00000000000E+00 -0.79810130355E+03  0.79810130355E+03  0.25500000920E-02 0. -1.
    10030    2    1    2    0    0  0.00000000000E+00  0.00000000000E+00  0.20634875575E+03  0.18025513629E+04  0.17907014287E+04 0.  0.
        3    1    3    3  502    0 -0.60087863655E+03 -0.27745645731E+03 -0.50382153085E+03  0.83178925619E+03  0.10100000352E+00 0. -1.
       -3    1    3    3    0  502  0.60087863655E+03  0.27745645731E+03  0.71017028661E+03  0.97076210667E+03  0.10100000352E+00 0.  1.
</event>
<event>
 5   0  0.1837313E-04  0.1443018E+04  0.7818609E-02  0.8923255E-01
        1   -1    0    0  501    0  0.00000000000E+00  0.00000000000E+00  0.72240053430E+03  0.72240053432E+03  0.50400001928E-02 0.  1.
       -1   -1    0    0    0  501  0.00000000000E+00  0.00000000000E+00 -0.72061874408E+03  0.72061874409E+03  0.50400001928E-02 0. -1.
    10030    2    1    2    0    0  0.00000000000E+00  0.00000000000E+00  0.17817902285E+01  0.14430192784E+04  0.14430181784E+04 0.  0.
        1    1    3    3  502    0 -0.30035181350E+03  0.15322380346E+03  0.63876803084E+03  0.72229726780E+03  0.50400001928E-02 0.  1.
       -1    1    3    3    0  502  0.30035181350E+03 -0.15322380346E+03 -0.63698624062E+03  0.72072201061E+03  0.50400001928E-02 0. -1.
</event>
<event>
 5   0  0.1825253E-04  0.1849606E+04  0.7818609E-02  0.8680356E-01
       -1   -1    0    0    0  501  0.00000000000E+00  0.00000000000E+00  0.70130183989E+03  0.70130183990E+03  0.50400001928E-02 0. -1.
        1   -1    0    0  501    0  0.00000000000E+00  0.00000000000E+00 -0.12195325373E+04  0.12195325373E+04  0.50400001928E-02 0.  1.
    10030    2    1    2    0    0  0.00000000000E+00  0.00000000000E+00 -0.51823069737E+03  0.19208343772E+04  0.18496058090E+04 0.  0.
        4    1    3    3  502    0 -0.91120365291E+03 -0.39920044642E+02 -0.10034520942E+03  0.91758186610E+03  0.12699999809E+01 0.  1.
       -4    1    3    3    0  502  0.91120365291E+03  0.39920044642E+02 -0.41788548794E+03  0.10032525111E+04  0.12699999809E+01 0. -1.
</event>
<event>
 5   0  0.3568870E-04  0.1800893E+04  0.7818609E-02  0.8705825E-01
       -2   -1    0    0    0  501  0.00000000000E+00  0.00000000000E+00  0.42242674517E+03  0.42242674518E+03  0.25500000920E-02 0.  1.
        2   -1    0    0  501    0  0.00000000000E+00  0.00000000000E+00 -0.19193954784E+04  0.19193954784E+04  0.25500000920E-02 0. -1.
    10030    2    1    2    0    0  0.00000000000E+00  0.00000000000E+00 -0.14969687333E+04  0.23418222236E+04  0.18008930947E+04 0.  0.
        1    1    3    3  502    0 -0.39362760500E+03  0.46722565792E+03 -0.16086568202E+04  0.17207612478E+04  0.50400001928E-02 0. -1.
       -1    1    3    3    0  502  0.39362760500E+03 -0.46722565792E+03  0.11168808695E+03  0.62106097577E+03  0.50400001928E-02 0.  1.
</event>
<event>
 5   0  0.1837313E-04  0.1779195E+04  0.7818609E-02  0.8717442E-01
       -1   -1    0    0    0  501  0.00000000000E+00  0.00000000000E+00  0.58968861974E+03  0.58968861976E+03  0.50400001928E-02 0.  1.
        1   -1    0    0  501    0  0.00000000000E+00  0.00000000000E+00 -0.13420371678E+04  0.13420371678E+04  0.50400001928E-02 0. -1.
    10030    2    1    2    0    0  0.00000000000E+00  0.00000000000E+00 -0.75234854808E+03  0.19317257876E+04  0.17791953745E+04 0.  0.
        1    1    3    3  502    0  0.29371080145E+02  0.61591981246E+03 -0.10723669775E+04  0.12370088158E+04  0.50400001928E-02 0. -1.
       -1    1    3    3    0  502 -0.29371080145E+02 -0.61591981246E+03  0.32001842946E+03  0.69471697183E+03  0.50400001928E-02 0.  1.
</event>
<event>
 5   0  0.1837313E-04  0.1797272E+04  0.7818609E-02  0.8707751E-01
        1   -1    0    0  501    0  0.00000000000E+00  0.00000000000E+00  0.15029886680E+04  0.15029886680E+04  0.50400001928E-02 0. -1.
       -1   -1    0    0    0  501  0.00000000000E+00  0.00000000000E+00 -0.53729419436E+03  0.53729419438E+03  0.50400001928E-02 0.  1.
    10030    2    1    2    0    0  0.00000000000E+00  0.00000000000E+00  0.96569447362E+03  0.20402828624E+04  0.17972724730E+04 0.  0.
        1    1    3    3  502    0 -0.15866514049E+03 -0.48409920123E+03  0.13232255382E+04  0.14179042593E+04  0.50400001928E-02 0. -1.
       -1    1    3    3    0  502  0.15866514049E+03  0.48409920123E+03 -0.35753106459E+03  0.62237860311E+03  0.50400001928E-02 0.  1.
</event>
<event>
 5   0  0.3531266E-04  0.1750447E+04  0.7818609E-02  0.8733104E-01
       -2   -1    0    0    0  501  0.00000000000E+00  0.00000000000E+00  0.48592566686E+03  0.48592566687E+03  0.25500000920E-02 0. -1.
        2   -1    0    0  501    0  0.00000000000E+00  0.00000000000E+00 -0.15764066671E+04  0.15764066671E+04  0.25500000920E-02 0.  1.
    10030    2    1    2    0    0  0.00000000000E+00  0.00000000000E+00 -0.10904810003E+04  0.20623323340E+04  0.17504473268E+04 0.  0.
        3    1    3    3  502    0  0.46921490732E+03  0.70608014736E+03 -0.28899189668E+03  0.89567188763E+03  0.10100000352E+00 0. -1.
       -3    1    3    3    0  502 -0.46921490732E+03 -0.70608014736E+03 -0.80148910358E+03  0.11666604464E+04  0.10100000352E+00 0.  1.
</event>
<event>
 5   0  0.3575091E-04  0.1620127E+04  0.7818609E-02  0.8808278E-01
       -2   -1    0    0    0  501  0.00000000000E+00  0.00000000000E+00  0.71610350213E+03  0.71610350213E+03  0.25500000920E-02 0. -1.
        2   -1    0    0  501    0  0.00000000000E+00  0.00000000000E+00 -0.91635175440E+03  0.91635175441E+03  0.25500000920E-02 0.  1.
    10030    2    1    2    0    0  0.00000000000E+00  0.00000000000E+00 -0.20024825227E+03  0.16324552565E+04  0.16201267858E+04 0.  0.
        5    1    3    3  502    0  0.17174665356E+02 -0.77505741770E+03 -0.33679795339E+03  0.84525967682E+03  0.46999998093E+01 0.  1.
       -5    1    3    3    0  502 -0.17174665356E+02  0.77505741770E+03  0.13654970111E+03  0.78719557972E+03  0.46999998093E+01 0. -1.
</event>
<event>
 5   0  0.3628581E-04  0.1811629E+04  0.7818609E-02  0.8700140E-01
       -2   -1    0    0    0  501  0.00000000000E+00  0.00000000000E+00  0.46162988712E+03  0.46162988712E+03  0.25500000920E-02 0.  1.
        2   -1    0    0  501    0  0.00000000000E+00  0.00000000000E+00 -0.17773981524E+04  0.17773981524E+04  0.25500000920E-02 0. -1.
    10030    2    1    2    0    0  0.00000000000E+00  0.00000000000E+00 -0.13157682653E+04  0.22390280395E+04  0.18116292209E+04 0.  0.
        2    1    3    3  502    0 -0.36540779397E+02 -0.23158206308E+01 -0.17764832076E+04  0.17768604837E+04  0.25500000920E-02 0. -1.
       -2    1    3    3    0  502  0.36540779397E+02  0.23158206308E+01  0.46071494232E+03  0.46216755584E+03  0.25500000920E-02 0.  1.
</event>
<event>
 5   0  0.3628581E-04  0.1767466E+04  0.7818609E-02  0.8723795E-01
       -2   -1    0    0    0  501  0.00000000000E+00  0.00000000000E+00  0.10576487682E+04  0.10576487682E+04  0.25500000920E-02 0.  1.
        2   -1    0    0  501    0  0.00000000000E+00  0.00000000000E+00 -0.73841523035E+03  0.73841523035E+03  0.25500000920E-02 0. -1.
    10030    2    1    2    0    0  0.00000000000E+00  0.00000000000E+00  0.31923353790E+03  0.17960639986E+04  0.17674659361E+04 0.  0.
        2    1    3    3  502    0  0.57515702341E+03 -0.58816906129E+02  0.83880152961E+03  0.10187507232E+04  0.25500000920E-02 0.  1.
       -2    1    3    3    0  502 -0.57515702341E+03  0.58816906129E+02 -0.51956799171E+03  0.77731327536E+03  0.25500000920E-02 0. -1.
</event>
<event>
 5   0  0.3531266E-04  0.1796111E+04  0.7818609E-02  0.8708370E-01
        2   -1    0    0  501    0  0.00000000000E+00  0.00000000000E+00  0.10920102278E+04  0.10920102278E+04  0.25500000920E-02 0.  1.
       -2   -1    0    0    0  501  0.00000000000E+00  0.00000000000E+00 -0.73854943563E+03  0.73854943564E+03  0.25500000920E-02 0. -1.
    10030    2    1    2    0    0  0.00000000000E+00  0.00000000000E+00  0.35346079220E+03  0.18305596635E+04  0.17961108401E+04 0.  0.
        3    1    3    3  502    0  0.66268719333E+02 -0.20470567561E+03 -0.71189117110E+03  0.74369685120E+03  0.10100000352E+00 0. -1.
       -3    1    3    3    0  502 -0.66268719333E+02  0.20470567561E+03  0.10653519633E+04  0.10868628123E+04  0.10100000352E+00 0.  1.
</event>
<event>
 5   0  0.1835421E-04  0.1802758E+04  0.7818609E-02  0.8704834E-01
        1   -1    0    0  501    0  0.00000000000E+00  0.00000000000E+00  0.55048939585E+03  0.55048939587E+03  0.50400001928E-02 0. -1.
       -1   -1    0    0    0  501  0.00000000000E+00  0.00000000000E+00 -0.14759301259E+04  0.14759301259E+04  0.50400001928E-02 0.  1.
    10030    2    1    2    0    0  0.00000000000E+00  0.00000000000E+00 -0.92544073001E+03  0.20264195217E+04  0.18027577578E+04 0.  0.
        2    1    3    3  502    0 -0.30168471654E+02 -0.88745502761E+03 -0.28859045949E+03  0.93368678690E+03  0.25500000920E-02 0. -1.
       -2    1    3    3    0  502  0.30168471654E+02  0.88745502761E+03 -0.63685027052E+03  0.10927327348E+04  0.25500000920E-02 0.  1.
</event>
<event>
 5   0  0.3568870E-04  0.1672155E+04  0.7818609E-02  0.8777406E-01
       -2   -1    0    0    0  501  0.00000000000E+00  0.00000000000E+00  0.50746890496E+03  0.50746890497E+03  0.25500000920E-02 0. -1.
        2   -1    0    0  501    0  0.00000000000E+00  0.00000000000E+00 -0.13774752345E+04  0.13774752345E+04  0.25500000920E-02 0.  1.
    10030    2    1    2    0    0  0.00000000000E+00  0.00000000000E+00 -0.87000632956E+03  0.18849441395E+04  0.16721553144E+04 0.  0.
        1    1    3    3  502    0 -0.24257336863E+03  0.52116995756E+03 -0.11193550025E+04  0.12583384225E+04  0.50400001928E-02 0.  1.
       -1    1    3    3    0  502  0.24257336863E+03 -0.52116995756E+03  0.24934867297E+03  0.62660571699E+03  0.50400001928E-02 0. -1.
</event>
<event>
 5   0  0.1837313E-04  0.1817516E+04  0.7818609E-02  0.8697040E-01
        1   -1    0    0  501    0  0.00000000000E+00  0.00000000000E+00  0.13159102619E+04  0.13159102619E+04  0.50400001928E-02 0. -1.
       -1   -1    0    0    0  501  0.00000000000E+00  0.00000000000E+00 -0.62758158885E+03  0.62758158887E+03  0.50400001928E-02 0.  1.
    10030    2    1    2    0    0  0.00000000000E+00  0.00000000000E+00  0.68832867300E+03  0.19434918507E+04  0.18175159454E+04 0.  0.
        1    1    3    3  502    0 -0.45745341566E+03  0.74889013014E+03  0.59662392265E+03  0.10611598181E+04  0.50400001928E-02 0. -1.
       -1    1    3    3    0  502  0.45745341566E+03 -0.74889013014E+03  0.91704750354E+02  0.88233203261E+03  0.50400001928E-02 0.  1.
</event>
<event>
 5   0  0.1818778E-04  0.1783056E+04  0.7818609E-02  0.8715362E-01
       -1   -1    0    0    0  501  0.00000000000E+00  0.00000000000E+00  0.40385380794E+03  0.40385380797E+03  0.50400001928E-02 0. -1.
        1   -1    0    0  501    0  0.00000000000E+00  0.00000000000E+00 -0.19680932061E+04  0.19680932061E+04  0.50400001928E-02 0.  1.
    10030    2    1    2    0    0  0.00000000000E+00  0.00000000000E+00 -0.15642393982E+04  0.23719470141E+04  0.17830557318E+04 0.  0.
        3    1    3    3  502    0  0.82205961107E+03 -0.34449207853E+03 -0.80753898455E+03  0.12027368865E+04  0.10100000352E+00 0. -1.
       -3    1    3    3    0  502 -0.82205961107E+03  0.34449207853E+03 -0.75670041364E+03  0.11692101276E+04  0.10100000352E+00 0.  1.
</event>
<event>
 5   0  0.1825253E-04  0.1850637E+04  0.7818609E-02  0.8679825E-01
       -1   -1    0    0    0  501  0.00000000000E+00  0.00000000000E+00  0.12928613711E+04  0.12928613711E+04  0.50400001928E-02 0. -1.
        1   -1    0    0  501    0  0.00000000000E+00  0.00000000000E+00 -0.66226319006E+03  0.66226319008E+03  0.50400001928E-02 0.  1.
    10030    2    1    2    0    0  0.00000000000E+00  0.00000000000E+00  0.63059818100E+03  0.19551245612E+04  0.18506371832E+04 0.  0.
        4    1    3    3  502    0  0.18101944966E+03 -0.62965653879E+03 -0.37502914198E+03  0.75490652946E+03  0.12699999809E+01 0.  1.
       -4    1    3    3    0  502 -0.18101944966E+03  0.62965653879E+03  0.10056273230E+04  0.12002180317E+04  0.12699999809E+01 0. -1.
</event>
<event>
 5   0  0.3582186E-04  0.1786598E+04  0.7818609E-02  0.8713459E-01
       -2   -1    0    0    0  501  0.00000000000E+00  0.00000000000E+00  0.57542836422E+03  0.57542836422E+03  0.25500000920E-02 0. -1.
        2   -1    0    0  501    0  0.00000000000E+00  0.00000000000E+00 -0.13867640606E+04  0.13867640606E+04  0.25500000920E-02 0.  1.
    10030    2    1    2    0    0  0.00000000000E+00  0.00000000000E+00 -0.81133569639E+03  0.19621924248E+04  0.17865983040E+04 0.  0.
        4    1    3    3  502    0  0.60946970138E+03  0.90473240693E+02 -0.11160318584E+04  0.12748205544E+04  0.12699999809E+01 0.  1.
       -4    1    3    3    0  502 -0.60946970138E+03 -0.90473240693E+02  0.30469616199E+03  0.68737187040E+03  0.12699999809E+01 0. -1.
</event>
<event>
 5   0  0.1818778E-04  0.1634534E+04  0.7818609E-02  0.8799609E-01
       -1   -1    0    0    0  501  0.00000000000E+00  0.00000000000E+00  0.76413497142E+03  0.76413497143E+03  0.50400001928E-02 0. -1.
        1   -1    0    0  501    0  0.00000000000E+00  0.00000000000E+00 -0.87409341284E+03  0.87409341285E+03  0.50400001928E-02 0.  1.
    10030    2    1    2    0    0  0.00000000000E+00  0.00000000000E+00 -0.10995844142E+03  0.16382283843E+04  0.16345339948E+04 0.  0.
        3    1    3    3  502    0 -0.21212135832E+03  0.22812472401E+03  0.70230048219E+03  0.76828532320E+03  0.10100000352E+00 0. -1.
       -3    1    3    3    0  502  0.21212135832E+03 -0.22812472401E+03 -0.81225892361E+03  0.86994306109E+03  0.10100000352E+00 0.  1.
</event>
<event>
 5   0  0.3575091E-04  0.1930960E+04  0.7818609E-02  0.8639597E-01
        2   -1    0    0  501    0  0.00000000000E+00  0.00000000000E+00  0.21215373413E+04  0.21215373413E+04  0.25500000920E-02 0.  1.
       -2   -1    0    0    0  501  0.00000000000E+00  0.00000000000E+00 -0.43937550743E+03  0.43937550744E+03  0.25500000920E-02 0. -1.
    10030    2    1    2    0    0  0.00000000000E+00  0.00000000000E+00  0.16821618339E+04  0.25609128488E+04  0.19309599125E+04 0.  0.
        5    1    3    3  502    0 -0.37913227323E+03 -0.59377941065E+03 -0.34451484767E+02  0.70535399901E+03  0.46999998093E+01 0. -1.
       -5    1    3    3    0  502  0.37913227323E+03  0.59377941065E+03  0.17166133187E+04  0.18555588498E+04  0.46999998093E+01 0.  1.
</event>
<event>
 5   0  0.1818778E-04  0.1788987E+04  0.7818609E-02  0.8712178E-01
        1   -1    0    0  501    0  0.00000000000E+00  0.00000000000E+00  0.40151777916E+03  0.40151777919E+03  0.50400001928E-02 0.  1.
       -1   -1    0    0    0  501  0.00000000000E+00  0.00000000000E+00 -0.19927350832E+04  0.19927350832E+04  0.50400001928E-02 0. -1.
    10030    2    1    2    0    0  0.00000000000E+00  0.00000000000E+00 -0.15912173040E+04  0.23942528624E+04  0.17889869369E+04 0.  0.
        3    1    3    3  502    0 -0.88465974353E+02  0.88987443700E+03 -0.82289916459E+03  0.12152636700E+04  0.10100000352E+00 0. -1.
       -3    1    3    3    0  502  0.88465974353E+02 -0.88987443700E+03 -0.76831813941E+03  0.11789891924E+04  0.10100000352E+00 0.  1.
</event>
<event>
 5   0  0.3568870E-04  0.1812944E+04  0.7818609E-02  0.8699446E-01
        2   -1    0    0  501    0  0.00000000000E+00  0.00000000000E+00  0.61954588569E+03  0.61954588570E+03  0.25500000920E-02 0.  1.
       -2   -1    0    0    0  501  0.00000000000E+00  0.00000000000E+00 -0.13262799543E+04  0.13262799543E+04  0.25500000920E-02 0. -1.
    10030    2    1    2    0    0  0.00000000000E+00  0.00000000000E+00 -0.70673406862E+03  0.19458258400E+04  0.18129437818E+04 0.  0.
        1    1    3    3  502    0 -0.29341797789E+03  0.85694980938E+03 -0.31566081401E+03  0.95921782462E+03  0.50400001928E-02 0. -1.
       -1    1    3    3    0  502  0.29341797789E+03 -0.85694980938E+03 -0.39107325461E+03  0.98660801539E+03  0.50400001928E-02 0.  1.
</event>
<event>
 5   0  0.1818778E-04  0.1753003E+04  0.7818609E-02  0.8731699E-01
       -1   -1    0    0    0  501  0.00000000000E+00  0.00000000000E+00  0.30645355948E+03  0.30645355952E+03  0.50400001928E-02 0.  1.
        1   -1    0    0  501    0  0.00000000000E+00  0.00000000000E+00 -0.25069219234E+04  0.25069219234E+04  0.50400001928E-02 0. -1.
    10030    2    1    2    0    0  0.00000000000E+00  0.00000000000E+00 -0.22004683639E+04  0.28133754829E+04  0.17530033050E+04 0.  0.
        3    1    3    3  502    0 -0.65785153598E+03  0.57253710203E+03 -0.95951773111E+03  0.12966270332E+04  0.10100000352E+00 0.  1.
       -3    1    3    3    0  502  0.65785153598E+03 -0.57253710203E+03 -0.12409506328E+04  0.15167484497E+04  0.10100000352E+00 0. -1.
</event>
<event>
 5   0  0.3575091E-04  0.1778102E+04  0.7818609E-02  0.8718032E-01
       -2   -1    0    0    0  501  0.00000000000E+00  0.00000000000E+00  0.56189276494E+03  0.56189276495E+03  0.25500000920E-02 0.  1.
        2   -1    0    0  501    0  0.00000000000E+00  0.00000000000E+00 -0.14066956608E+04  0.14066956608E+04  0.25500000920E-02 0. -1.
    10030    2    1    2    0    0  0.00000000000E+00  0.00000000000E+00 -0.84480289584E+03  0.19685884257E+04  0.17781024878E+04 0.  0.
        5    1    3    3  502    0  0.30075850215E+03  0.75577624999E+03 -0.81963796746E+03  0.11547648697E+04  0.46999998093E+01 0. -1.
       -5    1    3    3    0  502 -0.30075850215E+03 -0.75577624999E+03 -0.25164928380E+02  0.81382355599E+03  0.46999998093E+01 0.  1.
</event>
<event>
 5   0  0.3531266E-04  0.1790415E+04  0.7818609E-02  0.8711414E-01
       -2   -1    0    0    0  501  0.00000000000E+00  0.00000000000E+00  0.10226171725E+04  0.10226171725E+04  0.25500000920E-02 0.  1.
        2   -1    0    0  501    0  0.00000000000E+00  0.00000000000E+00 -0.78367165892E+03  0.78367165893E+03  0.25500000920E-02 0. -1.
    10030    2    1    2    0    0  0.00000000000E+00  0.00000000000E+00  0.23894551359E+03  0.18062888314E+04  0.17904145844E+04 0.  0.
        3    1    3    3  502    0  0.16314706412E+03  0.92491365912E+02  0.10025762406E+04  0.10199660512E+04  0.10100000352E+00 0.  1.
       -3    1    3    3    0  502 -0.16314706412E+03 -0.92491365912E+02 -0.76363072698E+03  0.78632278022E+03  0.10100000352E+00 0. -1.
</event>
<event>
 5   0  0.3531266E-04  0.1796183E+04  0.7818609E-02  0.8708332E-01
       -2   -1    0    0    0  501  0.00000000000E+00  0.00000000000E+00  0.69270634725E+03  0.69270634726E+03  0.25500000920E-02 0. -1.
        2   -1    0    0  501    0  0.00000000000E+00  0.00000000000E+00 -0.11643721355E+04  0.11643721355E+04  0.25500000920E-02 0.  1.
    10030    2    1    2    0    0  0.00000000000E+00  0.00000000000E+00 -0.47166578824E+03  0.18570784828E+04  0.17961825841E+04 0.  0.
        3    1    3    3  502    0 -0.35434402802E+03 -0.27558569185E+03  0.56839528045E+03  0.72427920638E+03  0.10100000352E+00 0. -1.
       -3    1    3    3    0  502  0.35434402802E+03  0.27558569185E+03 -0.10400610687E+04  0.11327992764E+04  0.10100000352E+00 0.  1.
</event>
<event>
 5   0  0.1825253E-04  0.1786091E+04  0.7818609E-02  0.8713731E-01
       -1   -1    0    0    0  501  0.00000000000E+00  0.00000000000E+00  0.11496693115E+04  0.11496693115E+04  0.50400001928E-02 0. -1.
        1   -1    0    0  501    0  0.00000000000E+00  0.00000000000E+00 -0.69370415297E+03  0.69370415299E+03  0.50400001928E-02 0.  1.
    10030    2    1    2    0    0  0.00000000000E+00  0.00000000000E+00  0.45596515849E+03  0.18433734645E+04  0.17860911241E+04 0.  0.
        4    1    3    3  502    0 -0.46484470571E+03 -0.72413545915E+03 -0.18585289679E+02  0.86069726938E+03  0.12699999809E+01 0.  1.
       -4    1    3    3    0  502  0.46484470571E+03  0.72413545915E+03  0.47455044817E+03  0.98267619508E+03  0.12699999809E+01 0. -1.
</event>
<event>
 5   0  0.1825253E-04  0.1586178E+04  0.7818609E-02  0.8829085E-01
       -1   -1    0    0    0  501  0.00000000000E+00  0.00000000000E+00  0.14776074692E+04  0.14776074692E+04  0.50400001928E-02 0.  1.
        1   -1    0    0  501    0  0.00000000000E+00  0.00000000000E+00 -0.42568142868E+03  0.42568142871E+03  0.50400001928E-02 0. -1.
    10030    2    1    2    0    0  0.00000000000E+00  0.00000000000E+00  0.10519260405E+04  0.19032888979E+04  0.15861778697E+04 0.  0.
        4    1    3    3  502    0 -0.60228138428E+03 -0.27746302167E+03  0.10479769299E+04  0.12401555760E+04  0.12699999809E+01 0. -1.
       -4    1    3    3    0  502  0.60228138428E+03  0.27746302167E+03  0.39491106282E+01  0.66313332190E+03  0.12699999809E+01 0.  1.
</event>
<event>
 5   0  0.1837313E-04  0.1915830E+04  0.7818609E-02  0.8647017E-01
       -1   -1    0    0    0  501  0.00000000000E+00  0.00000000000E+00  0.90223478474E+03  0.90223478476E+03  0.50400001928E-02 0.  1.
        1   -1    0    0  501    0  0.00000000000E+00  0.00000000000E+00 -0.10170314107E+04  0.10170314107E+04  0.50400001928E-02 0. -1.
    10030    2    1    2    0    0  0.00000000000E+00  0.00000000000E+00 -0.11479662599E+03  0.19192661955E+04  0.19158299674E+04 0.  0.
        1    1    3    3  502    0 -0.67397010954E+02  0.91079589586E+03  0.23210026873E+03  0.94231738590E+03  0.50400001928E-02 0.  1.
       -1    1    3    3    0  502  0.67397010954E+02 -0.91079589586E+03 -0.34689689472E+03  0.97694880961E+03  0.50400001928E-02 0. -1.
</event>
<event>
 5   0  0.1883959E-04  0.1768650E+04  0.7818609E-02  0.8723151E-01
        1   -1    0    0  501    0  0.00000000000E+00  0.00000000000E+00  0.99029566129E+03  0.99029566130E+03  0.50400001928E-02 0.  1.
       -1   -1    0    0    0  501  0.00000000000E+00  0.00000000000E+00 -0.78969428879E+03  0.78969428881E+03  0.50400001928E-02 0. -1.
    10030    2    1    2    0    0  0.00000000000E+00  0.00000000000E+00  0.20060137250E+03  0.17799899501E+04  0.17686501383E+04 0.  0.
        5    1    3    3  502    0 -0.10241246392E+03 -0.91256483257E+02 -0.77890950976E+03  0.79090971223E+03  0.46999998093E+01 0. -1.
       -5    1    3    3    0  502  0.10241246392E+03  0.91256483257E+02  0.97951088226E+03  0.98908023788E+03  0.46999998093E+01 0.  1.
</event>
<event>
 5   0  0.1818778E-04  0.1786022E+04  0.7818609E-02  0.8713769E-01
        1   -1    0    0  501    0  0.00000000000E+00  0.00000000000E+00  0.10238831413E+04  0.10238831413E+04  0.50400001928E-02 0.  1.
       -1   -1    0    0    0  501  0.00000000000E+00  0.00000000000E+00 -0.77886654174E+03  0.77886654176E+03  0.50400001928E-02 0. -1.
    10030    2    1    2    0    0  0.00000000000E+00  0.00000000000E+00  0.24501659955E+03  0.18027496831E+04  0.17860216364E+04 0.  0.
        3    1    3    3  502    0 -0.25531733847E+03 -0.78876358885E+02 -0.73756394777E+03  0.78448008934E+03  0.10100000352E+00 0. -1.
       -3    1    3    3    0  502  0.25531733847E+03  0.78876358885E+02  0.98258054733E+03  0.10182695937E+04  0.10100000352E+00 0.  1.
</event>
<event>
 5   0  0.1825253E-04  0.1863946E+04  0.7818609E-02  0.8673014E-01
        1   -1    0    0  501    0  0.00000000000E+00  0.00000000000E+00  0.81241699740E+03  0.81241699742E+03  0.50400001928E-02 0.  1.
       -1   -1    0    0    0  501  0.00000000000E+00  0.00000000000E+00 -0.10691225115E+04  0.10691225115E+04  0.50400001928E-02 0. -1.
    10030    2    1    2    0    0  0.00000000000E+00  0.00000000000E+00 -0.25670551407E+03  0.18815395089E+04  0.18639456008E+04 0.  0.
        4    1    3    3  502    0  0.42029609372E+03  0.81484472737E+03 -0.29711621215E+03  0.96379478757E+03  0.12699999809E+01 0.  1.
       -4    1    3    3    0  502 -0.42029609372E+03 -0.81484472737E+03  0.40410698079E+02  0.91774472133E+03  0.12699999809E+01 0. -1.
</event>
<event>
 5   0  0.1835421E-04  0.1790877E+04  0.7818609E-02  0.8711166E-01
        1   -1    0    0  501    0  0.00000000000E+00  0.00000000000E+00  0.14904559637E+04  0.14904559637E+04  0.50400001928E-02 0. -1.
       -1   -1    0    0    0  501  0.00000000000E+00  0.00000000000E+00 -0.53796278232E+03  0.53796278234E+03  0.50400001928E-02 0.  1.
    10030    2    1    2    0    0  0.00000000000E+00  0.00000000000E+00  0.95249318141E+03  0.20284187461E+04  0.17908766984E+04 0.  0.
        2    1    3    3  502    0 -0.44980891476E+03 -0.61637031569E+03  0.10069817372E+04  0.12634289235E+04  0.25500000920E-02 0. -1.
       -2    1    3    3    0  502  0.44980891476E+03  0.61637031569E+03 -0.54488555757E+02  0.76498982253E+03  0.25500000920E-02 0.  1.
</event>
<event>
 5   0  0.3628581E-04  0.1856763E+04  0.7818609E-02  0.8676683E-01
        2   -1    0    0  501    0  0.00000000000E+00  0.00000000000E+00  0.11963470594E+04  0.11963470594E+04  0.25500000920E-02 0. -1.
       -2   -1    0    0    0  501  0.00000000000E+00  0.00000000000E+00 -0.72043658967E+03  0.72043658968E+03  0.25500000920E-02 0.  1.
    10030    2    1    2    0    0  0.00000000000E+00  0.00000000000E+00  0.47591046972E+03  0.19167836491E+04  0.18567629849E+04 0.  0.
        2    1    3    3  502    0 -0.88516898606E+03  0.61940067430E+02 -0.43874315126E+02  0.88841750397E+03  0.25500000920E-02 0.  1.
       -2    1    3    3    0  502  0.88516898606E+03 -0.61940067430E+02  0.51978478484E+03  0.10283661451E+04  0.25500000920E-02 0. -1.
</event>
<event>
 5   0  0.1883959E-04  0.1956955E+04  0.7818609E-02  0.8627014E-01
       -1   -1    0    0    0  501  0.00000000000E+00  0.00000000000E+00  0.36688783812E+03  0.36688783816E+03  0.50400001928E-02 0. -1.
        1   -1    0    0  501    0  0.00000000000E+00  0.00000000000E+00 -0.26095658313E+04  0.26095658314E+04  0.50400001928E-02 0.  1.
    10030    2    1    2    0    0  0.00000000000E+00  0.00000000000E+00 -0.22426779932E+04  0.29764536695E+04  0.19569547428E+04 0.  0.
        5    1    3    3  502    0  0.60634067662E+03  0.21540116305E+03 -0.22424738666E+04  0.23329718836E+04  0.46999998093E+01 0.  1.
       -5    1    3    3    0  502 -0.60634067662E+03 -0.21540116305E+03 -0.20412662641E+00  0.64348178594E+03  0.46999998093E+01 0. -1.
</event>
<event>
 5   0  0.1818778E-04  0.1771525E+04  0.7818609E-02  0.8721590E-01
        1   -1    0    0  501    0  0.00000000000E+00  0.00000000000E+00  0.15272591263E+04  0.15272591263E+04  0.50400001928E-02 0. -1.
       -1   -1    0    0    0  501  0.00000000000E+00  0.00000000000E+00 -0.51371449959E+03  0.51371449962E+03  0.50400001928E-02 0.  1.
    10030    2    1    2    0    0  0.00000000000E+00  0.00000000000E+00  0.10135446267E+04  0.20409736259E+04  0.17715249452E+04 0.  0.
        3    1    3    3  502    0 -0.18293843602E+03 -0.71026616538E+02 -0.48835382218E+03  0.52630857628E+03  0.10100000352E+00 0.  1.
       -3    1    3    3    0  502  0.18293843602E+03  0.71026616538E+02  0.15018984489E+04  0.15146650496E+04  0.10100000352E+00 0. -1.
</event>
<event>
 5   0  0.3628581E-04  0.1820325E+04  0.7818609E-02  0.8695565E-01
        2   -1    0    0  501    0  0.00000000000E+00  0.00000000000E+00  0.66066735837E+03  0.66066735838E+03  0.25500000920E-02 0. -1.
       -2   -1    0    0    0  501  0.00000000000E+00  0.00000000000E+00 -0.12538772494E+04  0.12538772494E+04  0.25500000920E-02 0.  1.
    10030    2    1    2    0    0  0.00000000000E+00  0.00000000000E+00 -0.59320989104E+03  0.19145446078E+04  0.18203249931E+04 0.  0.
        2    1    3    3  502    0  0.34538613926E+03  0.67334148965E+03 -0.82846211635E+03  0.11220649826E+04  0.25500000920E-02 0.  1.
       -2    1    3    3    0  502 -0.34538613926E+03 -0.67334148965E+03  0.23525222531E+03  0.79247962523E+03  0.25500000920E-02 0. -1.
</event>
<event>
 5   0  0.1835421E-04  0.1810096E+04  0.7818609E-02  0.8700949E-01
       -1   -1    0    0    0  501  0.00000000000E+00  0.00000000000E+00  0.10280920109E+04  0.10280920109E+04  0.50400001928E-02 0.  1.
        1   -1    0    0  501    0  0.00000000000E+00  0.00000000000E+00 -0.79673048622E+03  0.79673048624E+03  0.50400001928E-02 0. -1.
    10030    2    1    2    0    0  0.00000000000E+00  0.00000000000E+00  0.23136152464E+03  0.18248224971E+04  0.18100964038E+04 0.  0.
        2    1    3    3  502    0  0.82679646263E+03 -0.16125248940E+03 -0.21794583439E+03  0.87011214374E+03  0.25500000920E-02 0. -1.
       -2    1    3    3    0  502 -0.82679646263E+03  0.16125248940E+03  0.44930735903E+03  0.95471035337E+03  0.25500000920E-02 0.  1.
</event>
<event>
 5   0  0.1818778E-04  0.1815852E+04  0.7818609E-02  0.8697915E-01
       -1   -1    0    0    0  501  0.00000000000E+00  0.00000000000E+00  0.84388989289E+03  0.84388989290E+03  0.50400001928E-02 0. -1.
        1   -1    0    0  501    0  0.00000000000E+00  0.00000000000E+00 -0.97682166572E+03  0.97682166573E+03  0.50400001928E-02 0.  1.
    10030    2    1    2    0    0  0.00000000000E+00  0.00000000000E+00 -0.13293177283E+03  0.18207115586E+04  0.18158523408E+04 0.  0.
        3    1    3    3  502    0 -0.47601981183E+02 -0.49632592970E+03  0.69432971173E+03  0.85480941496E+03  0.10100000352E+00 0. -1.
       -3    1    3    3    0  502  0.47601981183E+02  0.49632592970E+03 -0.82726148457E+03  0.96590214368E+03  0.10100000352E+00 0.  1.
</event>
<event>
 5   0  0.3568870E-04  0.1717139E+04  0.7818609E-02  0.8751649E-01
        2   -1    0    0  501    0  0.00000000000E+00  0.00000000000E+00  0.95780674524E+03  0.95780674524E+03  0.25500000920E-02 0. -1.
       -2   -1    0    0    0  501  0.00000000000E+00  0.00000000000E+00 -0.76961444708E+03  0.76961444709E+03  0.25500000920E-02 0.  1.
    10030    2    1    2    0    0  0.00000000000E+00  0.00000000000E+00  0.18819229815E+03  0.17274211923E+04  0.17171393754E+04 0.  0.
        1    1    3    3  502    0 -0.44357651151E+03  0.70916615421E+03 -0.10062200790E+03  0.84249720732E+03  0.50400001928E-02 0.  1.
       -1    1    3    3    0  502  0.44357651151E+03 -0.70916615421E+03  0.28881430606E+03  0.88492398501E+03  0.50400001928E-02 0. -1.
</event>
<event>
 5   0  0.3628581E-04  0.1913289E+04  0.7818609E-02  0.8648270E-01
       -2   -1    0    0    0  501  0.00000000000E+00  0.00000000000E+00  0.41258970853E+03  0.41258970854E+03  0.25500000920E-02 0.  1.
        2   -1    0    0  501    0  0.00000000000E+00  0.00000000000E+00 -0.22181075777E+04  0.22181075777E+04  0.25500000920E-02 0. -1.
    10030    2    1    2    0    0  0.00000000000E+00  0.00000000000E+00 -0.18055178692E+04  0.26306972862E+04  0.19132886442E+04 0.  0.
        2    1    3    3  502    0 -0.60412530003E+03  0.74446127868E+02 -0.19174939046E+04  0.20117883781E+04  0.25500000920E-02 0. -1.
       -2    1    3    3    0  502  0.60412530003E+03 -0.74446127868E+02  0.11197603540E+03  0.61890890816E+03  0.25500000920E-02 0.  1.
</event>
<event>
 5   0  0.3582186E-04  0.1797324E+04  0.7818609E-02  0.8707724E-01
       -2   -1    0    0    0  501  0.00000000000E+00  0.00000000000E+00  0.64998537078E+03  0.64998537078E+03  0.25500000920E-02 0.  1.
        2   -1    0    0  501    0  0.00000000000E+00  0.00000000000E+00 -0.12424793921E+04  0.12424793921E+04  0.25500000920E-02 0. -1.
    10030    2    1    2    0    0  0.00000000000E+00  0.00000000000E+00 -0.59249402135E+03  0.18924647629E+04  0.17973240424E+04 0.  0.
        4    1    3    3  502    0 -0.46851651117E+03 -0.35934134588E+03 -0.10095726574E+04  0.11695608097E+04  0.12699999809E+01 0. -1.
       -4    1    3    3    0  502  0.46851651117E+03  0.35934134588E+03  0.41707863601E+03  0.72290395325E+03  0.12699999809E+01 0.  1.
</event>
<event>
 5   0  0.3575091E-04  0.1847843E+04  0.7818609E-02  0.8681263E-01
       -2   -1    0    0    0  501  0.00000000000E+00  0.00000000000E+00  0.10347536222E+04  0.10347536222E+04  0.25500000920E-02 0.  1.
        2   -1    0    0  501    0  0.00000000000E+00  0.00000000000E+00 -0.82496072048E+03  0.82496072048E+03  0.25500000920E-02 0. -1.
    10030    2    1    2    0    0  0.00000000000E+00  0.00000000000E+00  0.20979290173E+03  0.18597143427E+04  0.18478431684E+04 0.  0.
        5    1    3    3  502    0  0.10848483015E+03  0.46638343900E+03  0.90011596356E+03  0.10195652546E+04  0.46999998093E+01 0.  1.
       -5    1    3    3    0  502 -0.10848483015E+03 -0.46638343900E+03 -0.69032306182E+03  0.84014908810E+03  0.46999998093E+01 0. -1.
</event>
<event>
 5   0  0.3582186E-04  0.1812302E+04  0.7818609E-02  0.8699785E-01
       -2   -1    0    0    0  501  0.00000000000E+00  0.00000000000E+00  0.80102107087E+03  0.80102107088E+03  0.25500000920E-02 0. -1.
        2   -1    0    0  501    0  0.00000000000E+00  0.00000000000E+00 -0.10250781986E+04  0.10250781986E+04  0.25500000920E-02 0.  1.
    10030    2    1    2    0    0  0.00000000000E+00  0.00000000000E+00 -0.22405712774E+03  0.18260992695E+04  0.18123015603E+04 0.  0.
        4    1    3    3  502    0 -0.94303750300E+02 -0.10099489937E+03  0.79034220129E+03  0.80233133746E+03  0.12699999809E+01 0. -1.
       -4    1    3    3    0  502  0.94303750300E+02  0.10099489937E+03 -0.10143993290E+04  0.10237679320E+04  0.12699999809E+01 0.  1.
</event>
<event>
 5   0  0.3568870E-04  0.1802556E+04  0.7818609E-02  0.8704941E-01
        2   -1    0    0  501    0  0.00000000000E+00  0.00000000000E+00  0.79958987459E+03  0.79958987459E+03  0.25500000920E-02 0. -1.
       -2   -1    0    0    0  501  0.00000000000E+00  0.00000000000E+00 -0.10158982357E+04  0.10158982358E+04  0.25500000920E-02 0.  1.
    10030    2    1    2    0    0  0.00000000000E+00  0.00000000000E+00 -0.21630836116E+03  0.18154881103E+04  0.18025558997E+04 0.  0.
        1    1    3    3  502    0 -0.66870589684E+02 -0.89788265008E+03 -0.14890448328E+03  0.91259929556E+03  0.50400001928E-02 0.  1.
       -1    1    3    3    0  502  0.66870589684E+02  0.89788265008E+03 -0.67403877879E+02  0.90288881478E+03  0.50400001928E-02 0. -1.
</event>
<event>
 5   0  0.1835421E-04  0.1798273E+04  0.7818609E-02  0.8707218E-01
       -1   -1    0    0    0  501  0.00000000000E+00  0.00000000000E+00  0.81958074587E+03  0.81958074589E+03  0.50400001928E-02 0.  1.
        1   -1    0    0  501    0  0.00000000000E+00  0.00000000000E+00 -0.98641513650E+03  0.98641513652E+03  0.50400001928E-02 0. -1.
    10030    2    1    2    0    0  0.00000000000E+00  0.00000000000E+00 -0.16683439063E+03  0.18059958824E+04  0.17982734534E+04 0.  0.
        2    1    3    3  502    0  0.22268446748E+02 -0.58680415965E+02  0.81737806495E+03  0.81978422527E+03  0.25500000920E-02 0.  1.
       -2    1    3    3    0  502 -0.22268446748E+02  0.58680415965E+02 -0.98421245558E+03  0.98621165713E+03  0.25500000920E-02 0. -1.
</event>
<event>
 5   0  0.3628581E-04  0.1655082E+04  0.7818609E-02  0.8787406E-01
        2   -1    0    0  501    0  0.00000000000E+00  0.00000000000E+00  0.11780369260E+04  0.11780369260E+04  0.25500000920E-02 0.  1.
       -2   -1    0    0    0  501  0.00000000000E+00  0.00000000000E+00 -0.58132645702E+03  0.58132645702E+03  0.25500000920E-02 0. -1.
    10030    2    1    2    0    0  0.00000000000E+00  0.00000000000E+00  0.59671046895E+03  0.17593633830E+04  0.16550819103E+04 0.  0.
        2    1    3    3  502    0 -0.77974678536E+03 -0.20352599443E+03  0.49834790846E+03  0.94751175061E+03  0.25500000920E-02 0.  1.
       -2    1    3    3    0  502  0.77974678536E+03  0.20352599443E+03  0.98362560493E+02  0.81185163238E+03  0.25500000920E-02 0. -1.
</event>
<event>
 5   0  0.3531266E-04  0.1769052E+04  0.7818609E-02  0.8722933E-01
        2   -1    0    0  501    0  0.00000000000E+00  0.00000000000E+00  0.15313280710E+04  0.15313280710E+04  0.25500000920E-02 0. -1.
       -2   -1    0    0    0  501  0.00000000000E+00  0.00000000000E+00 -0.51092005694E+03  0.51092005695E+03  0.25500000920E-02 0.  1.
    10030    2    1    2    0    0  0.00000000000E+00  0.00000000000E+00  0.10204080141E+04  0.20422481280E+04  0.17690519781E+04 0.  0.
        3    1    3    3  502    0  0.85316021167E+03  0.18420564569E+03  0.34462406082E+03  0.93839214627E+03  0.10100000352E+00 0.  1.
       -3    1    3    3    0  502 -0.85316021167E+03 -0.18420564569E+03  0.67578395327E+03  0.11038559817E+04  0.10100000352E+00 0. -1.
</event>
<event>
 5   0  0.3575091E-04  0.1799817E+04  0.7818609E-02  0.8706397E-01
        2   -1    0    0  501    0  0.00000000000E+00  0.00000000000E+00  0.91027891288E+03  0.91027891289E+03  0.25500000920E-02 0.  1.
       -2   -1    0    0    0  501  0.00000000000E+00  0.00000000000E+00 -0.88965591988E+03  0.88965591989E+03  0.25500000920E-02 0. -1.
    10030    2    1    2    0    0  0.00000000000E+00  0.00000000000E+00  0.20622992998E+02  0.17999348328E+04  0.17998166836E+04 0.  0.
        5    1    3    3  502    0  0.33950995778E+03 -0.76576317499E+03 -0.31857584266E+03  0.89619914591E+03  0.46999998093E+01 0. -1.
       -5    1    3    3    0  502 -0.33950995778E+03  0.76576317499E+03  0.33919883566E+03  0.90373568686E+03  0.46999998093E+01 0.  1.
</event>
<event>
 5   0  0.3568870E-04  0.1806131E+04  0.7818609E-02  0.8703046E-01
       -2   -1    0    0    0  501  0.00000000000E+00  0.00000000000E+00  0.74384465761E+03  0.74384465761E+03  0.25500000920E-02 0.  1.
        2   -1    0    0  501    0  0.00000000000E+00  0.00000000000E+00 -0.10963680742E+04  0.10963680742E+04  0.25500000920E-02 0. -1.
    10030    2    1    2    0    0  0.00000000000E+00  0.00000000000E+00 -0.35252341663E+03  0.18402127319E+04  0.18061312630E+04 0.  0.
        1    1    3    3  502    0  0.20757708484E+02  0.59945536640E+03  0.51156972639E+03  0.78834079164E+03  0.50400001928E-02 0.  1.
       -1    1    3    3    0  502 -0.20757708484E+02 -0.59945536640E+03 -0.86409314303E+03  0.10518719402E+04  0.50400001928E-02 0. -1.
</event>
<event>
 5   0  0.1837313E-04  0.1563527E+04  0.7818609E-02  0.8843274E-01
       -1   -1    0    0    0  501  0.00000000000E+00  0.00000000000E+00  0.45161334735E+03  0.45161334738E+03  0.50400001928E-02 0.  1.
        1   -1    0    0  501    0  0.00000000000E+00  0.00000000000E+00 -0.13532684116E+04  0.13532684116E+04  0.50400001928E-02 0. -1.
    10030    2    1    2    0    0  0.00000000000E+00  0.00000000000E+00 -0.90165506421E+03  0.18048817589E+04  0.15635268814E+04 0.  0.
        1    1    3    3  502    0  0.46164901509E+02 -0.58838480739E+03  0.14097624043E+03  0.60679665464E+03  0.50400001928E-02 0.  1.
       -1    1    3    3    0  502 -0.46164901509E+02  0.58838480739E+03 -0.10426313046E+04  0.11980851043E+04  0.50400001928E-02 0. -1.
</event>
<event>
 5   0  0.3628581E-04  0.1775959E+04  0.7818609E-02  0.8719190E-01
       -2   -1    0    0    0  501  0.00000000000E+00  0.00000000000E+00  0.43573569411E+03  0.43573569412E+03  0.25500000920E-02 0. -1.
        2   -1    0    0  501    0  0.00000000000E+00  0.00000000000E+00 -0.18096005282E+04  0.18096005282E+04  0.25500000920E-02 0.  1.
    10030    2    1    2    0    0  0.00000000000E+00  0.00000000000E+00 -0.13738648341E+04  0.22453362223E+04  0.17759589435E+04 0.  0.
        2    1    3    3  502    0 -0.45125817406E+03  0.72530196100E+03 -0.38032933445E+03  0.93506538645E+03  0.25500000920E-02 0. -1.
       -2    1    3    3    0  502  0.45125817406E+03 -0.72530196100E+03 -0.99353549966E+03  0.13102708359E+04  0.25500000920E-02 0.  1.
</event>
<event>
 5   0  0.1818778E-04  0.1755694E+04  0.7818609E-02  0.8730222E-01
       -1   -1    0    0    0  501  0.00000000000E+00  0.00000000000E+00  0.84561936036E+03  0.84561936038E+03  0.50400001928E-02 0.  1.
        1   -1    0    0  501    0  0.00000000000E+00  0.00000000000E+00 -0.91130337133E+03  0.91130337135E+03  0.50400001928E-02 0. -1.
    10030    2    1    2    0    0  0.00000000000E+00  0.00000000000E+00 -0.65684010968E+02  0.17569227317E+04  0.17556944768E+04 0.  0.
        3    1    3    3  502    0  0.13369319569E+03  0.54034000000E+03 -0.71212066974E+03  0.90385676113E+03  0.10100000352E+00 0. -1.
       -3    1    3    3    0  502 -0.13369319569E+03 -0.54034000000E+03  0.64643665877E+03  0.85306597059E+03  0.10100000352E+00 0.  1.
</event>
<event>
 5   0  0.3575091E-04  0.1791855E+04  0.7818609E-02  0.8710643E-01
        2   -1    0    0  501    0  0.00000000000E+00  0.00000000000E+00  0.80642524880E+03  0.80642524880E+03  0.25500000920E-02 0.  1.
       -2   -1    0    0    0  501  0.00000000000E+00  0.00000000000E+00 -0.99536349742E+03  0.99536349742E+03  0.25500000920E-02 0. -1.
    10030    2    1    2    0    0  0.00000000000E+00  0.00000000000E+00 -0.18893824862E+03  0.18017887462E+04  0.17918551906E+04 0.  0.
        5    1    3    3  502    0  0.64426721251E+03 -0.72881959490E+02 -0.71617831510E+03  0.96608772383E+03  0.46999998093E+01 0. -1.
       -5    1    3    3    0  502 -0.64426721251E+03  0.72881959490E+02  0.52724006647E+03  0.83570102239E+03  0.46999998093E+01 0.  1.
</event>
<event>
 5   0  0.1835421E-04  0.1814743E+04  0.7818609E-02  0.8698499E-01
       -1   -1    0    0    0  501  0.00000000000E+00  0.00000000000E+00  0.41309698532E+03  0.41309698535E+03  0.50400001928E-02 0. -1.
        1   -1    0    0  501    0  0.00000000000E+00  0.00000000000E+00 -0.19930497257E+04  0.19930497257E+04  0.50400001928E-02 0.  1.
    10030    2    1    2    0    0  0.00000000000E+00  0.00000000000E+00 -0.15799527404E+04  0.24061467111E+04  0.18147427733E+04 0.  0.
        2    1    3    3  502    0 -0.66213251199E+03  0.32519512097E+03 -0.14905068145E+04  0.16630640079E+04  0.25500000920E-02 0.  1.
       -2    1    3    3    0  502  0.66213251199E+03 -0.32519512097E+03 -0.89445925883E+02  0.74308270321E+03  0.25500000920E-02 0. -1.
</event>
<event>
 5   0  0.3582186E-04  0.1805148E+04  0.7818609E-02  0.8703567E-01
       -2   -1    0    0    0  501  0.00000000000E+00  0.00000000000E+00  0.73128822013E+03  0.73128822013E+03  0.25500000920E-02 0. -1.
        2   -1    0    0  501    0  0.00000000000E+00  0.00000000000E+00 -0.11139792614E+04  0.11139792614E+04  0.25500000920E-02 0.  1.
    10030    2    1    2    0    0  0.00000000000E+00  0.00000000000E+00 -0.38269104127E+03  0.18452674815E+04  0.18051480951E+04 0.  0.
        4    1    3    3  502    0 -0.67966472379E+03  0.58564083014E+03 -0.29212145408E+03  0.94353371721E+03  0.12699999809E+01 0. -1.
       -4    1    3    3    0  502  0.67966472379E+03 -0.58564083014E+03 -0.90569587194E+02  0.90173376432E+03  0.12699999809E+01 0.  1.
</event>
<event>
 5   0  0.1837313E-04  0.1769175E+04  0.7818609E-02  0.8722866E-01
        1   -1    0    0  501    0  0.00000000000E+00  0.00000000000E+00  0.13945634207E+04  0.13945634207E+04  0.50400001928E-02 0.  1.
       -1   -1    0    0    0  501  0.00000000000E+00  0.00000000000E+00 -0.56110412669E+03  0.56110412671E+03  0.50400001928E-02 0. -1.
    10030    2    1    2    0    0  0.00000000000E+00  0.00000000000E+00  0.83345929403E+03  0.19556675474E+04  0.17691752772E+04 0.  0.
        1    1    3    3  502    0 -0.61097652384E+03  0.47544365265E+03  0.88981021642E+03  0.11794495330E+04  0.50400001928E-02 0.  1.
       -1    1    3    3    0  502  0.61097652384E+03 -0.47544365265E+03 -0.56350922388E+02  0.77621801448E+03  0.50400001928E-02 0. -1.
</event>
<event>
 5   0  0.3568870E-04  0.1801764E+04  0.7818609E-02  0.8705362E-01
        2   -1    0    0  501    0  0.00000000000E+00  0.00000000000E+00  0.14522722133E+04  0.14522722133E+04  0.25500000920E-02 0.  1.
       -2   -1    0    0    0  501  0.00000000000E+00  0.00000000000E+00 -0.55884040531E+03  0.55884040532E+03  0.25500000920E-02 0. -1.
    10030    2    1    2    0    0  0.00000000000E+00  0.00000000000E+00  0.89343180801E+03  0.20111126186E+04  0.18017640160E+04 0.  0.
        1    1    3    3  502    0  0.32044463260E+03  0.90365023956E+02  0.13810802372E+04  0.14206453540E+04  0.50400001928E-02 0.  1.
       -1    1    3    3    0  502 -0.32044463260E+03 -0.90365023956E+02 -0.48764842920E+03  0.59046726467E+03  0.50400001928E-02 0. -1.
</event>
<event>
 5   0  0.1825253E-04  0.1925661E+04  0.7818609E-02  0.8642188E-01
       -1   -1    0    0    0  501  0.00000000000E+00  0.00000000000E+00  0.91635251728E+03  0.91635251729E+03  0.50400001928E-02 0. -1.
        1   -1    0    0  501    0  0.00000000000E+00  0.00000000000E+00 -0.10116656989E+04  0.10116656989E+04  0.50400001928E-02 0.  1.
    10030    2    1    2    0    0  0.00000000000E+00  0.00000000000E+00 -0.95313181635E+02  0.19280182162E+04  0.19256608319E+04 0.  0.
        4    1    3    3  502    0  0.47737685162E+03 -0.44741453494E+03  0.65958792077E+03  0.92904588835E+03  0.12699999809E+01 0. -1.
       -4    1    3    3    0  502 -0.47737685162E+03  0.44741453494E+03 -0.75490110240E+03  0.99897232787E+03  0.12699999809E+01 0.  1.
</event>
<event>
 5   0  0.1330125E-04  0.1805111E+04  0.7818609E-02  0.8703586E-01
       -3   -1    0    0    0  501  0.00000000000E+00  0.00000000000E+00  0.14106202530E+04  0.14106202566E+04  0.10100000352E+00 0.  1.
        3   -1    0    0  501    0  0.00000000000E+00  0.00000000000E+00 -0.57748129966E+03  0.57748130849E+03  0.10100000352E+00 0. -1.
    10030    2    1    2    0    0  0.00000000000E+00  0.00000000000E+00  0.83313895334E+03  0.19881015651E+04  0.18051114419E+04 0.  0.
        3    1    3    3  502    0  0.36563411460E+03 -0.75354539730E+03  0.78694520405E+03  0.11492613871E+04  0.10100000352E+00 0.  1.
       -3    1    3    3    0  502 -0.36563411460E+03  0.75354539730E+03  0.46193749294E+02  0.83884017800E+03  0.10100000352E+00 0. -1.
</event>
<event>
 5   0  0.3531266E-04  0.1811317E+04  0.7818609E-02  0.8700304E-01
       -2   -1    0    0    0  501  0.00000000000E+00  0.00000000000E+00  0.73053919955E+03  0.73053919956E+03  0.25500000920E-02 0.  1.
        2   -1    0    0  501    0  0.00000000000E+00  0.00000000000E+00 -0.11227558731E+04  0.11227558731E+04  0.25500000920E-02 0. -1.
    10030    2    1    2    0    0  0.00000000000E+00  0.00000000000E+00 -0.39221667354E+03  0.18532950727E+04  0.18113168434E+04 0.  0.
        3    1    3    3  502    0 -0.18605345338E+03  0.29538457384E+03  0.65893174879E+03  0.74569363263E+03  0.10100000352E+00 0.  1.
       -3    1    3    3    0  502  0.18605345338E+03 -0.29538457384E+03 -0.10511484223E+04  0.11076014400E+04  0.10100000352E+00 0. -1.
</event>
<event>
 5   0  0.1818778E-04  0.1811430E+04  0.7818609E-02  0.8700244E-01
       -1   -1    0    0    0  501  0.00000000000E+00  0.00000000000E+00  0.80321984949E+03  0.80321984951E+03  0.50400001928E-02 0. -1.
        1   -1    0    0  501    0  0.00000000000E+00  0.00000000000E+00 -0.10212895568E+04  0.10212895568E+04  0.50400001928E-02 0.  1.
    10030    2    1    2    0    0  0.00000000000E+00  0.00000000000E+00 -0.21806970726E+03  0.18245094063E+04  0.18114304227E+04 0.  0.
        3    1    3    3  502    0  0.42220506997E+03  0.46495935597E+03  0.54826855536E+03  0.83369223507E+03  0.10100000352E+00 0. -1.
       -3    1    3    3    0  502 -0.42220506997E+03 -0.46495935597E+03 -0.76633826262E+03  0.99081717122E+03  0.10100000352E+00 0.  1.
</event>
<event>
 5   0  0.3568870E-04  0.1661178E+04  0.7818609E-02  0.8783821E-01
        2   -1    0    0  501    0  0.00000000000E+00  0.00000000000E+00  0.11191435977E+04  0.11191435977E+04  0.25500000920E-02 0. -1.
       -2   -1    0    0    0  501  0.00000000000E+00  0.00000000000E+00 -0.61643388129E+03  0.61643388130E+03  0.25500000920E-02 0.  1.
    10030    2    1    2    0    0  0.00000000000E+00  0.00000000000E+00  0.50270971641E+03  0.17355774790E+04  0.16611779335E+04 0.  0.
        1    1    3    3  502    0  0.44746264462E+03  0.26584873335E+03 -0.42492168612E+03  0.67190535548E+03  0.50400001928E-02 0.  1.
       -1    1    3    3    0  502 -0.44746264462E+03 -0.26584873335E+03  0.92763140254E+03  0.10636721235E+04  0.50400001928E-02 0. -1.
</event>
<event>
 5   0  0.1825253E-04  0.1778380E+04  0.7818609E-02  0.8717882E-01
        1   -1    0    0  501    0  0.00000000000E+00  0.00000000000E+00  0.56978628078E+03  0.56978628080E+03  0.50400001928E-02 0. -1.
       -1   -1    0    0    0  501  0.00000000000E+00  0.00000000000E+00 -0.13876416604E+04  0.13876416604E+04  0.50400001928E-02 0.  1.
    10030    2    1    2    0    0  0.00000000000E+00  0.00000000000E+00 -0.81785537958E+03  0.19574279412E+04  0.17783803651E+04 0.  0.
        4    1    3    3  502    0  0.34353386184E+03 -0.17783942599E+03 -0.12901698976E+04  0.13469158672E+04  0.12699999809E+01 0.  1.
       -4    1    3    3    0  502 -0.34353386184E+03  0.17783942599E+03  0.47231451802E+03  0.61051207400E+03  0.12699999809E+01 0. -1.
</event>
<event>
 5   0  0.3531266E-04  0.1824135E+04  0.7818609E-02  0.8693569E-01
       -2   -1    0    0    0  501  0.00000000000E+00  0.00000000000E+00  0.89386048226E+03  0.89386048226E+03  0.25500000920E-02 0. -1.
        2   -1    0    0  501    0  0.00000000000E+00  0.00000000000E+00 -0.93064525380E+03  0.93064525380E+03  0.25500000920E-02 0.  1.
    10030    2    1    2    0    0  0.00000000000E+00  0.00000000000E+00 -0.36784771544E+02  0.18245057361E+04  0.18241348803E+04 0.  0.
        3    1    3    3  502    0 -0.12392910572E+03  0.62217664467E+03  0.63703070110E+03  0.89903855577E+03  0.10100000352E+00 0. -1.
       -3    1    3    3    0  502  0.12392910572E+03 -0.62217664467E+03 -0.67381547264E+03  0.92546718029E+03  0.10100000352E+00 0.  1.
</event>
<event>
 5   0  0.1825253E-04  0.1794671E+04  0.7818609E-02  0.8709138E-01
        1   -1    0    0  501    0  0.00000000000E+00  0.00000000000E+00  0.83371599326E+03  0.83371599327E+03  0.50400001928E-02 0. -1.
       -1   -1    0    0    0  501  0.00000000000E+00  0.00000000000E+00 -0.96581020827E+03  0.96581020829E+03  0.50400001928E-02 0.  1.
    10030    2    1    2    0    0  0.00000000000E+00  0.00000000000E+00 -0.13209421502E+03  0.17995262016E+04  0.17946714653E+04 0.  0.
        4    1    3    3  502    0  0.84083436120E+03  0.17141413855E+03  0.19700693714E+03  0.88045361948E+03  0.12699999809E+01 0. -1.
       -4    1    3    3    0  502 -0.84083436120E+03 -0.17141413855E+03 -0.32910115216E+03  0.91907258208E+03  0.12699999809E+01 0.  1.
</event>
<event>
 5   0  0.1883959E-04  0.1805907E+04  0.7818609E-02  0.8703164E-01
       -1   -1    0    0    0  501  0.00000000000E+00  0.00000000000E+00  0.46812263859E+03  0.46812263861E+03  0.50400001928E-02 0.  1.
        1   -1    0    0  501    0  0.00000000000E+00  0.00000000000E+00 -0.17416912122E+04  0.17416912122E+04  0.50400001928E-02 0. -1.
    10030    2    1    2    0    0  0.00000000000E+00  0.00000000000E+00 -0.12735685736E+04  0.22098138508E+04  0.18059070695E+04 0.  0.
        5    1    3    3  502    0 -0.85211184252E+03  0.15582754038E+03 -0.94858006011E+03  0.12846022867E+04  0.46999998093E+01 0.  1.
       -5    1    3    3    0  502  0.85211184252E+03 -0.15582754038E+03 -0.32498851350E+03  0.92521156413E+03  0.46999998093E+01 0. -1.
</event>
<event>
 5   0  0.1825253E-04  0.1788382E+04  0.7818609E-02  0.8712502E-01
       -1   -1    0    0    0  501  0.00000000000E+00  0.00000000000E+00  0.63566889104E+03  0.63566889106E+03  0.50400001928E-02 0. -1.
        1   -1    0    0  501    0  0.00000000000E+00  0.00000000000E+00 -0.12578520278E+04  0.12578520278E+04  0.50400001928E-02 0.  1.
    10030    2    1    2    0    0  0.00000000000E+00  0.00000000000E+00 -0.62218313678E+03  0.18935209189E+04  0.17883818425E+04 0.  0.
        4    1    3    3  502    0 -0.59358423213E+03  0.64135251446E+03 -0.11047808537E+03  0.88084181820E+03  0.12699999809E+01 0. -1.
       -4    1    3    3    0  502  0.59358423213E+03 -0.64135251446E+03 -0.51170505141E+03  0.10126791007E+04  0.12699999809E+01 0.  1.
</event>
<event>
 5   0  0.1818778E-04  0.1818113E+04  0.7818609E-02  0.8696726E-01
       -1   -1    0    0    0  501  0.00000000000E+00  0.00000000000E+00  0.68184347497E+03  0.68184347499E+03  0.50400001928E-02 0. -1.
        1   -1    0    0  501    0  0.00000000000E+00  0.00000000000E+00 -0.12119851080E+04  0.12119851080E+04  0.50400001928E-02 0.  1.
    10030    2    1    2    0    0  0.00000000000E+00  0.00000000000E+00 -0.53014163299E+03  0.18938285830E+04  0.18181134592E+04 0.  0.
        3    1    3    3  502    0 -0.37765064563E+03  0.24257670585E+03  0.55836949898E+03  0.71640768838E+03  0.10100000352E+00 0. -1.
       -3    1    3    3    0  502  0.37765064563E+03 -0.24257670585E+03 -0.10885111320E+04  0.11774208946E+04  0.10100000352E+00 0.  1.
</event>
<event>
 5   0  0.3628581E-04  0.1799491E+04  0.7818609E-02  0.8706570E-01
        2   -1    0    0  501    0  0.00000000000E+00  0.00000000000E+00  0.20159192839E+04  0.20159192839E+04  0.25500000920E-02 0.  1.
       -2   -1    0    0    0  501  0.00000000000E+00  0.00000000000E+00 -0.40157469207E+03  0.40157469208E+03  0.25500000920E-02 0. -1.
    10030    2    1    2    0    0  0.00000000000E+00  0.00000000000E+00  0.16143445918E+04  0.24174939760E+04  0.17994912233E+04 0.  0.
        2    1    3    3  502    0  0.60235633389E+03  0.60643993172E+03  0.42971902884E+03  0.95669273412E+03  0.25500000920E-02 0. -1.
       -2    1    3    3    0  502 -0.60235633389E+03 -0.60643993172E+03  0.11846255630E+04  0.14608012419E+04  0.25500000920E-02 0.  1.
</event>
<event>
 5   0  0.3582186E-04  0.1807864E+04  0.7818609E-02  0.8702129E-01
        2   -1    0    0  501    0  0.00000000000E+00  0.00000000000E+00  0.10337570634E+04  0.10337570635E+04  0.25500000920E-02 0. -1.
       -2   -1    0    0    0  501  0.00000000000E+00  0.00000000000E+00 -0.79041071507E+03  0.79041071507E+03  0.25500000920E-02 0.  1.
    10030    2    1    2    0    0  0.00000000000E+00  0.00000000000E+00  0.24334634838E+03  0.18241677785E+04  0.18078635565E+04 0.  0.
        4    1    3    3  502    0 -0.70356086195E+03  0.24580788777E+03  0.63782499106E+03  0.98093921130E+03  0.12699999809E+01 0. -1.
       -4    1    3    3    0  502  0.70356086195E+03 -0.24580788777E+03 -0.39447864268E+03  0.84322856722E+03  0.12699999809E+01 0.  1.
</event>
<event>
 5   0  0.3531266E-04  0.1790800E+04  0.7818609E-02  0.8711207E-01
        2   -1    0    0  501    0  0.00000000000E+00  0.00000000000E+00  0.15997776247E+04  0.15997776247E+04  0.25500000920E-02 0. -1.
       -2   -1    0    0    0  501  0.00000000000E+00  0.00000000000E+00 -0.50115786761E+03  0.50115786761E+03  0.25500000920E-02 0.  1.
    10030    2    1    2    0    0  0.00000000000E+00  0.00000000000E+00  0.10986197571E+04  0.21009354923E+04  0.17907999811E+04 0.  0.
        3    1    3    3  502    0  0.74278663291E+03 -0.38364517716E+03  0.92550755840E+03  0.12471887808E+04  0.10100000352E+00 0. -1.
       -3    1    3    3    0  502 -0.74278663291E+03  0.38364517716E+03  0.17311219873E+03  0.85374671159E+03  0.10100000352E+00 0.  1.
</event>
<event>
 5   0  0.3575091E-04  0.1912188E+04  0.7818609E-02  0.8648813E-01
       -2   -1    0    0    0  501  0.00000000000E+00  0.00000000000E+00  0.47486371396E+03  0.47486371397E+03  0.25500000920E-02 0.  1.
        2   -1    0    0  501    0  0.00000000000E+00  0.00000000000E+00 -0.19250071303E+04  0.19250071303E+04  0.25500000920E-02 0. -1.
    10030    2    1    2    0    0  0.00000000000E+00  0.00000000000E+00 -0.14501434164E+04  0.23998708443E+04  0.19121883122E+04 0.  0.
        5    1    3    3  502    0  0.54955745669E+03  0.35225733922E+03 -0.16018000298E+04  0.17297063498E+04  0.46999998093E+01 0. -1.
       -5    1    3    3    0  502 -0.54955745669E+03 -0.35225733922E+03  0.15165661342E+03  0.67016449446E+03  0.46999998093E+01 0.  1.
</event>
<event>
 5   0  0.1835421E-04  0.2079633E+04  0.7818609E-02  0.8570268E-01
       -1   -1    0    0    0  501  0.00000000000E+00  0.00000000000E+00  0.43726486452E+03  0.43726486455E+03  0.50400001928E-02 0.  1.
        1   -1    0    0  501    0  0.00000000000E+00  0.00000000000E+00 -0.24726862945E+04  0.24726862945E+04  0.50400001928E-02 0. -1.
    10030    2    1    2    0    0  0.00000000000E+00  0.00000000000E+00 -0.20354214300E+04  0.29099511591E+04  0.20796334654E+04 0.  0.
        2    1    3    3  502    0 -0.53682833976E+03  0.48155010219E+03  0.30469448534E+02  0.72180575959E+03  0.25500000920E-02 0.  1.
       -2    1    3    3    0  502  0.53682833976E+03 -0.48155010219E+03 -0.20658908785E+04  0.21881453995E+04  0.25500000920E-02 0. -1.
</event>
<event>
 5   0  0.1837313E-04  0.1804025E+04  0.7818609E-02  0.8704162E-01
        1   -1    0    0  501    0  0.00000000000E+00  0.00000000000E+00  0.99377355695E+03  0.99377355696E+03  0.50400001928E-02 0. -1.
       -1   -1    0    0    0  501  0.00000000000E+00  0.00000000000E+00 -0.81872433660E+03  0.81872433662E+03  0.50400001928E-02 0.  1.
    10030    2    1    2    0    0  0.00000000000E+00  0.00000000000E+00  0.17504922034E+03  0.18124978936E+04  0.18040250510E+04 0.  0.
        1    1    3    3  502    0 -0.84308485905E+03 -0.25214527873E+03  0.28658966217E+03  0.92547444894E+03  0.50400001928E-02 0.  1.
       -1    1    3    3    0  502  0.84308485905E+03  0.25214527873E+03 -0.11154044182E+03  0.88702344464E+03  0.50400001928E-02 0. -1.
</event>
<event>
 5   0  0.3531266E-04  0.1803888E+04  0.7818609E-02  0.8704235E-01
        2   -1    0    0  501    0  0.00000000000E+00  0.00000000000E+00  0.15278261050E+04  0.15278261050E+04  0.25500000920E-02 0. -1.
       -2   -1    0    0    0  501  0.00000000000E+00  0.00000000000E+00 -0.53245759162E+03  0.53245759163E+03  0.25500000920E-02 0.  1.
    10030    2    1    2    0    0  0.00000000000E+00  0.00000000000E+00  0.99536851340E+03  0.20602836967E+04  0.18038875889E+04 0.  0.
        3    1    3    3  502    0 -0.34321799719E+03  0.82891093659E+03  0.60366717385E+03  0.10813445341E+04  0.10100000352E+00 0.  1.
       -3    1    3    3    0  502  0.34321799719E+03 -0.82891093659E+03  0.39170133955E+03  0.97893916257E+03  0.10100000352E+00 0. -1.
</event>
<event>
 5   0  0.3568870E-04  0.1815229E+04  0.7818609E-02  0.8698242E-01
        2   -1    0    0  501    0  0.00000000000E+00  0.00000000000E+00  0.68805553666E+03  0.68805553666E+03  0.25500000920E-02 0. -1.
       -2   -1    0    0    0  501  0.00000000000E+00  0.00000000000E+00 -0.11972351220E+04  0.11972351220E+04  0.25500000920E-02 0.  1.
    10030    2    1    2    0    0  0.00000000000E+00  0.00000000000E+00 -0.50917958535E+03  0.18852906587E+04  0.18152291915E+04 0.  0.
        1    1    3    3  502    0 -0.54985482716E+03  0.61821183482E+03 -0.64213807465E+03  0.10473144278E+04  0.50400001928E-02 0.  1.
       -1    1    3    3    0  502  0.54985482716E+03 -0.61821183482E+03  0.13295848930E+03  0.83797623091E+03  0.50400001928E-02 0. -1.
</event>
<event>
 5   0  0.1330125E-04  0.1832412E+04  0.7818609E-02  0.8689250E-01
       -3   -1    0    0    0  501  0.00000000000E+00  0.00000000000E+00  0.13299007638E+04  0.13299007676E+04  0.10100000352E+00 0.  1.
        3   -1    0    0  501    0  0.00000000000E+00  0.00000000000E+00 -0.63120035124E+03  0.63120035932E+03  0.10100000352E+00 0. -1.
    10030    2    1    2    0    0  0.00000000000E+00  0.00000000000E+00  0.69870041252E+03  0.19611011269E+04  0.18324124436E+04 0.  0.
        1    1    3    3  502    0  0.14380878091E+03  0.89797629152E+03  0.23021560559E+03  0.93810533027E+03  0.50400001928E-02 0. -1.
       -1    1    3    3    0  502 -0.14380878091E+03 -0.89797629152E+03  0.46848480693E+03  0.10229957966E+04  0.50400001928E-02 0.  1.
</event>
<event>
 5   0  0.3531266E-04  0.1753212E+04  0.7818609E-02  0.8731584E-01
        2   -1    0    0  501    0  0.00000000000E+00  0.00000000000E+00  0.16681226007E+04  0.16681226007E+04  0.25500000920E-02 0.  1.
       -2   -1    0    0    0  501  0.00000000000E+00  0.00000000000E+00 -0.46066029137E+03  0.46066029138E+03  0.25500000920E-02 0. -1.
    10030    2    1    2    0    0  0.00000000000E+00  0.00000000000E+00  0.12074623093E+04  0.21287828921E+04  0.17532117308E+04 0.  0.
        3    1    3    3  502    0 -0.20023550312E+03 -0.19285387464E+03  0.16131780138E+04  0.16369576012E+04  0.10100000352E+00 0.  1.
       -3    1    3    3    0  502  0.20023550312E+03  0.19285387464E+03 -0.40571570449E+03  0.49182529087E+03  0.10100000352E+00 0. -1.
</event>
<event>
 5   0  0.1818778E-04  0.1806421E+04  0.7818609E-02  0.8702892E-01
        1   -1    0    0  501    0  0.00000000000E+00  0.00000000000E+00  0.13715563110E+04  0.13715563110E+04  0.50400001928E-02 0.  1.
       -1   -1    0    0    0  501  0.00000000000E+00  0.00000000000E+00 -0.59479104131E+03  0.59479104133E+03  0.50400001928E-02 0. -1.
    10030    2    1    2    0    0  0.00000000000E+00  0.00000000000E+00  0.77676526973E+03  0.19663473524E+04  0.18064212205E+04 0.  0.
        3    1    3    3  502    0  0.41259001240E+03 -0.77867128215E+03  0.60398319262E+03  0.10683422631E+04  0.10100000352E+00 0.  1.
       -3    1    3    3    0  502 -0.41259001240E+03  0.77867128215E+03  0.17278207711E+03  0.89800508926E+03  0.10100000352E+00 0. -1.
</event>
<event>
 5   0  0.1330125E-04  0.1803953E+04  0.7818609E-02  0.8704200E-01
       -3   -1    0    0    0  501  0.00000000000E+00  0.00000000000E+00  0.12604222438E+04  0.12604222479E+04  0.10100000352E+00 0.  1.
        3   -1    0    0  501    0  0.00000000000E+00  0.00000000000E+00 -0.64546750580E+03  0.64546751370E+03  0.10100000352E+00 0. -1.
    10030    2    1    2    0    0  0.00000000000E+00  0.00000000000E+00  0.61495473805E+03  0.19058897616E+04  0.18039530076E+04 0.  0.
        5    1    3    3  502    0 -0.21093525637E+03 -0.19349461107E+03 -0.59619518063E+03  0.66136573112E+03  0.46999998093E+01 0. -1.
       -5    1    3    3    0  502  0.21093525637E+03  0.19349461107E+03  0.12111499187E+04  0.12445240305E+04  0.46999998093E+01 0.  1.
</event>
<event>
 5   0  0.3628581E-04  0.1768049E+04  0.7818609E-02  0.8723477E-01
       -2   -1    0    0    0  501  0.00000000000E+00  0.00000000000E+00  0.49006623671E+03  0.49006623672E+03  0.25500000920E-02 0. -1.
        2   -1    0    0  501    0  0.00000000000E+00  0.00000000000E+00 -0.15946818733E+04  0.15946818733E+04  0.25500000920E-02 0.  1.
    10030    2    1    2    0    0  0.00000000000E+00  0.00000000000E+00 -0.11046156366E+04  0.20847481101E+04  0.17680494840E+04 0.  0.
        2    1    3    3  502    0 -0.85413535543E+02  0.12215406003E+03 -0.15797583313E+04  0.15867745498E+04  0.25500000920E-02 0.  1.
       -2    1    3    3    0  502  0.85413535543E+02 -0.12215406003E+03  0.47514269468E+03  0.49797356030E+03  0.25500000920E-02 0. -1.
</event>
<event>
 5   0  0.1837313E-04  0.1821266E+04  0.7818609E-02  0.8695071E-01
       -1   -1    0    0    0  501  0.00000000000E+00  0.00000000000E+00  0.49012578216E+03  0.49012578218E+03  0.50400001928E-02 0.  1.
        1   -1    0    0  501    0  0.00000000000E+00  0.00000000000E+00 -0.16919177271E+04  0.16919177271E+04  0.50400001928E-02 0. -1.
    10030    2    1    2    0    0  0.00000000000E+00  0.00000000000E+00 -0.12017919449E+04  0.21820435093E+04  0.18212660425E+04 0.  0.
        1    1    3    3  502    0  0.34354150056E+03  0.42321822214E+03  0.27306898744E+03  0.60967294354E+03  0.50400001928E-02 0.  1.
       -1    1    3    3    0  502 -0.34354150056E+03 -0.42321822214E+03 -0.14748609324E+04  0.15723705658E+04  0.50400001928E-02 0. -1.
</event>
<event>
 5   0  0.3531266E-04  0.1790212E+04  0.7818609E-02  0.8711522E-01
       -2   -1    0    0    0  501  0.00000000000E+00  0.00000000000E+00  0.73213956078E+03  0.73213956079E+03  0.25500000920E-02 0. -1.
        2   -1    0    0  501    0  0.00000000000E+00  0.00000000000E+00 -0.10943472747E+04  0.10943472747E+04  0.25500000920E-02 0.  1.
    10030    2    1    2    0    0  0.00000000000E+00  0.00000000000E+00 -0.36220771396E+03  0.18264868355E+04  0.17902122031E+04 0.  0.
        3    1    3    3  502    0 -0.55496083665E+03  0.70207504248E+03 -0.19946936263E+03  0.91688545213E+03  0.10100000352E+00 0. -1.
       -3    1    3    3    0  502  0.55496083665E+03 -0.70207504248E+03 -0.16273835133E+03  0.90960138340E+03  0.10100000352E+00 0.  1.
</event>
<event>
 5   0  0.3628581E-04  0.1779484E+04  0.7818609E-02  0.8717286E-01
        2   -1    0    0  501    0  0.00000000000E+00  0.00000000000E+00  0.74223474504E+03  0.74223474504E+03  0.25500000920E-02 0. -1.
       -2   -1    0    0    0  501  0.00000000000E+00  0.00000000000E+00 -0.10665644644E+04  0.10665644644E+04  0.25500000920E-02 0.  1.
    10030    2    1    2    0    0  0.00000000000E+00  0.00000000000E+00 -0.32432971935E+03  0.18087992094E+04  0.17794844234E+04 0.  0.
        2    1    3    3  502    0  0.79389377794E+03  0.39048242707E+03 -0.66285212314E+02  0.88720774674E+03  0.25500000920E-02 0. -1.
       -2    1    3    3    0  502 -0.79389377794E+03 -0.39048242707E+03 -0.25804450703E+03  0.92159146269E+03  0.25500000920E-02 0.  1.
</event>
<event>
 5   0  0.1837313E-04  0.1800088E+04  0.7818609E-02  0.8706253E-01
        1   -1    0    0  501    0  0.00000000000E+00  0.00000000000E+00  0.27613205982E+03  0.27613205987E+03  0.50400001928E-02 0.  1.
       -1   -1    0    0    0  501  0.00000000000E+00  0.00000000000E+00 -0.29336665995E+04  0.29336665995E+04  0.50400001928E-02 0. -1.
    10030    2    1    2    0    0  0.00000000000E+00  0.00000000000E+00 -0.26575345397E+04  0.32097986594E+04  0.18000882212E+04 0.  0.
        1    1    3    3  502    0  0.70084512702E+03  0.26827907492E+01 -0.23357065939E+04  0.24385890146E+04  0.50400001928E-02 0. -1.
       -1    1    3    3    0  502 -0.70084512702E+03 -0.26827907492E+01 -0.32182794578E+03  0.77120964475E+03  0.50400001928E-02 0.  1.
</event>
<event>
 5   0  0.3575091E-04  0.1817355E+04  0.7818609E-02  0.8697125E-01
        2   -1    0    0  501    0  0.00000000000E+00  0.00000000000E+00  0.16899636600E+04  0.16899636600E+04  0.25500000920E-02 0. -1.
       -2   -1    0    0    0  501  0.00000000000E+00  0.00000000000E+00 -0.48858704591E+03  0.48858704592E+03  0.25500000920E-02 0.  1.
    10030    2    1    2    0    0  0.00000000000E+00  0.00000000000E+00  0.12013766141E+04  0.21785507059E+04  0.18173545085E+04 0.  0.
        5    1    3    3  502    0 -0.41997551040E+03  0.70528557483E+03  0.13353761429E+03  0.83166192399E+03  0.46999998093E+01 0.  1.
       -5    1    3    3    0  502  0.41997551040E+03 -0.70528557483E+03  0.10678389998E+04  0.13468887819E+04  0.46999998093E+01 0. -1.
</event>
<event>
 5   0  0.3628581E-04  0.1844085E+04  0.7818609E-02  0.8683201E-01
        2   -1    0    0  501    0  0.00000000000E+00  0.00000000000E+00  0.82449382820E+03  0.82449382821E+03  0.25500000920E-02 0. -1.
       -2   -1    0    0    0  501  0.00000000000E+00  0.00000000000E+00 -0.10311325457E+04  0.10311325457E+04  0.25500000920E-02 0.  1.
    10030    2    1    2    0    0  0.00000000000E+00  0.00000000000E+00 -0.20663871749E+03  0.18556263739E+04  0.18440850523E+04 0.  0.
        2    1    3    3  502    0 -0.57166531500E+03  0.40855809566E+02  0.62348357797E+03  0.84687791419E+03  0.25500000920E-02 0. -1.
       -2    1    3    3    0  502  0.57166531500E+03 -0.40855809566E+02 -0.83012229546E+03  0.10087484597E+04  0.25500000920E-02 0.  1.
</event>
<event>
 5   0  0.3575091E-04  0.1937519E+04  0.7818609E-02  0.8636403E-01
       -2   -1    0    0    0  501  0.00000000000E+00  0.00000000000E+00  0.88680061432E+03  0.88680061433E+03  0.25500000920E-02 0. -1.
        2   -1    0    0  501    0  0.00000000000E+00  0.00000000000E+00 -0.10582934901E+04  0.10582934901E+04  0.25500000920E-02 0.  1.
    10030    2    1    2    0    0  0.00000000000E+00  0.00000000000E+00 -0.17149287582E+03  0.19450941045E+04  0.19375193596E+04 0.  0.
        5    1    3    3  502    0  0.79097325885E+03 -0.40575433158E+03  0.30072345776E+03  0.93847320785E+03  0.46999998093E+01 0.  1.
       -5    1    3    3    0  502 -0.79097325885E+03  0.40575433158E+03 -0.47221633358E+03  0.10066208966E+04  0.46999998093E+01 0. -1.
</event>
<event>
 5   0  0.1837313E-04  0.1822984E+04  0.7818609E-02  0.8694172E-01
        1   -1    0    0  501    0  0.00000000000E+00  0.00000000000E+00  0.11500692955E+04  0.11500692955E+04  0.50400001928E-02 0. -1.
       -1   -1    0    0    0  501  0.00000000000E+00  0.00000000000E+00 -0.72240640265E+03  0.72240640267E+03  0.50400001928E-02 0.  1.
    10030    2    1    2    0    0  0.00000000000E+00  0.00000000000E+00  0.42766289282E+03  0.18724756982E+04  0.18229837329E+04 0.  0.
        1    1    3    3  502    0 -0.54081370889E+03 -0.16544723858E+03 -0.52039334350E+03  0.76854504648E+03  0.50400001928E-02 0.  1.
       -1    1    3    3    0  502  0.54081370889E+03  0.16544723858E+03  0.94805623632E+03  0.11039306517E+04  0.50400001928E-02 0. -1.
</event>
<event>
 5   0  0.3582186E-04  0.1753429E+04  0.7818609E-02  0.8731465E-01
       -2   -1    0    0    0  501  0.00000000000E+00  0.00000000000E+00  0.59140816893E+03  0.59140816894E+03  0.25500000920E-02 0.  1.
        2   -1    0    0  501    0  0.00000000000E+00  0.00000000000E+00 -0.12996582232E+04  0.12996582232E+04  0.25500000920E-02 0. -1.
    10030    2    1    2    0    0  0.00000000000E+00  0.00000000000E+00 -0.70825005423E+03  0.18910663921E+04  0.17534292002E+04 0.  0.
        4    1    3    3  502    0  0.15070187994E+03  0.48762662230E+03 -0.11229165144E+04  0.12334641829E+04  0.12699999809E+01 0. -1.
       -4    1    3    3    0  502 -0.15070187994E+03 -0.48762662230E+03  0.41466646017E+03  0.65760220915E+03  0.12699999809E+01 0.  1.
</event>
<event>
 5   0  0.3531266E-04  0.1811163E+04  0.7818609E-02  0.8700386E-01
        2   -1    0    0  501    0  0.00000000000E+00  0.00000000000E+00  0.10733893102E+04  0.10733893102E+04  0.25500000920E-02 0. -1.
       -2   -1    0    0    0  501  0.00000000000E+00  0.00000000000E+00 -0.76400743636E+03  0.76400743636E+03  0.25500000920E-02 0.  1.
    10030    2    1    2    0    0  0.00000000000E+00  0.00000000000E+00  0.30938187384E+03  0.18373967466E+04  0.18111625163E+04 0.  0.
        3    1    3    3  502    0 -0.26003894115E+03  0.10782610067E+02  0.10346305205E+04  0.10668630839E+04  0.10100000352E+00 0. -1.
       -3    1    3    3    0  502  0.26003894115E+03 -0.10782610067E+02 -0.72524864668E+03  0.77053366266E+03  0.10100000352E+00 0.  1.
</event>
<event>
 5   0  0.3575091E-04  0.1789721E+04  0.7818609E-02  0.8711785E-01
       -2   -1    0    0    0  501  0.00000000000E+00  0.00000000000E+00  0.19717606893E+04  0.19717606893E+04  0.25500000920E-02 0. -1.
        2   -1    0    0  501    0  0.00000000000E+00  0.00000000000E+00 -0.40612179835E+03  0.40612179836E+03  0.25500000920E-02 0.  1.
    10030    2    1    2    0    0  0.00000000000E+00  0.00000000000E+00  0.15656388909E+04  0.23778824876E+04  0.17897206453E+04 0.  0.
        5    1    3    3  502    0 -0.48966744733E+03  0.15101943822E+03  0.17575074475E+04  0.18306926552E+04  0.46999998093E+01 0. -1.
       -5    1    3    3    0  502  0.48966744733E+03 -0.15101943822E+03 -0.19186855661E+03  0.54718983243E+03  0.46999998093E+01 0.  1.
</event>
<event>
 5   0  0.3531266E-04  0.1801460E+04  0.7818609E-02  0.8705523E-01
       -2   -1    0    0    0  501  0.00000000000E+00  0.00000000000E+00  0.59561131692E+03  0.59561131693E+03  0.25500000920E-02 0.  1.
        2   -1    0    0  501    0  0.00000000000E+00  0.00000000000E+00 -0.13621542738E+04  0.13621542738E+04  0.25500000920E-02 0. -1.
    10030    2    1    2    0    0  0.00000000000E+00  0.00000000000E+00 -0.76654295688E+03  0.19577655907E+04  0.18014599645E+04 0.  0.
        3    1    3    3  502    0  0.28795980818E+03  0.80645763521E+03 -0.68682709723E+03  0.10977368720E+04  0.10100000352E+00 0. -1.
       -3    1    3    3    0  502 -0.28795980818E+03 -0.80645763521E+03 -0.79715859649E+02  0.86002871871E+03  0.10100000352E+00 0.  1.
</event>
<event>
 5   0  0.1818778E-04  0.1780101E+04  0.7818609E-02  0.8716954E-01
       -1   -1    0    0    0  501  0.00000000000E+00  0.00000000000E+00  0.10084888631E+04  0.10084888631E+04  0.50400001928E-02 0. -1.
        1   -1    0    0  501    0  0.00000000000E+00  0.00000000000E+00 -0.78552138213E+03  0.78552138215E+03  0.50400001928E-02 0.  1.
    10030    2    1    2    0    0  0.00000000000E+00  0.00000000000E+00  0.22296748100E+03  0.17940102453E+04  0.17801006327E+04 0.  0.
        3    1    3    3  502    0 -0.32637841024E+03 -0.65377020057E+03  0.62363889729E+03  0.96065801732E+03  0.10100000352E+00 0. -1.
       -3    1    3    3    0  502  0.32637841024E+03  0.65377020057E+03 -0.40067141630E+03  0.83335222797E+03  0.10100000352E+00 0.  1.
</event>
<event>
 5   0  0.1818778E-04  0.1806593E+04  0.7818609E-02  0.8702801E-01
       -1   -1    0    0    0  501  0.00000000000E+00  0.00000000000E+00  0.86360836745E+03  0.86360836747E+03  0.50400001928E-02 0. -1.
        1   -1    0    0  501    0  0.00000000000E+00  0.00000000000E+00 -0.94480817876E+03  0.94480817878E+03  0.50400001928E-02 0.  1.
    10030    2    1    2    0    0  0.00000000000E+00  0.00000000000E+00 -0.81199811309E+02  0.18084165462E+04  0.18065926479E+04 0.  0.
        3    1    3    3  502    0 -0.36238767629E+03 -0.75783911583E+02  0.78417137174E+03  0.86717517240E+03  0.10100000352E+00 0. -1.
       -3    1    3    3    0  502  0.36238767629E+03  0.75783911583E+02 -0.86537118305E+03  0.94124137384E+03  0.10100000352E+00 0.  1.
</event>
<event>
 5   0  0.3582186E-04  0.1797262E+04  0.7818609E-02  0.8707757E-01
       -2   -1    0    0    0  501  0.00000000000E+00  0.00000000000E+00  0.10558427161E+04  0.10558427161E+04  0.25500000920E-02 0. -1.
        2   -1    0    0  501    0  0.00000000000E+00  0.00000000000E+00 -0.76482754271E+03  0.76482754271E+03  0.25500000920E-02 0.  1.
    10030    2    1    2    0    0  0.00000000000E+00  0.00000000000E+00  0.29101517337E+03  0.18206702588E+04  0.17972619064E+04 0.  0.
        4    1    3    3  502    0  0.10394313187E+03  0.76966090786E+03  0.60345054196E+03  0.98353254001E+03  0.12699999809E+01 0. -1.
       -4    1    3    3    0  502 -0.10394313187E+03 -0.76966090786E+03 -0.31243536860E+03  0.83713771878E+03  0.12699999809E+01 0.  1.
</event>
<event>
 5   0  0.1883959E-04  0.1786497E+04  0.7818609E-02  0.8713513E-01
        1   -1    0    0  501    0  0.00000000000E+00  0.00000000000E+00  0.15160019827E+04  0.15160019827E+04  0.50400001928E-02 0. -1.
       -1   -1    0    0    0  501  0.00000000000E+00  0.00000000000E+00 -0.52631416050E+03  0.52631416052E+03  0.50400001928E-02 0.  1.
    10030    2    1    2    0    0  0.00000000000E+00  0.00000000000E+00  0.98968782221E+03  0.20423161432E+04  0.17864974793E+04 0.  0.
        5    1    3    3  502    0 -0.13822490219E+03  0.60731133508E+03 -0.23710315172E+03  0.66646318416E+03  0.46999998093E+01 0.  1.
       -5    1    3    3    0  502  0.13822490219E+03 -0.60731133508E+03  0.12267909739E+04  0.13758529591E+04  0.46999998093E+01 0. -1.
</event>
<event>
 5   0  0.1330125E-04  0.1594315E+04  0.7818609E-02  0.8824048E-01
       -3   -1    0    0    0  501  0.00000000000E+00  0.00000000000E+00  0.99188862767E+03  0.99188863281E+03  0.10100000352E+00 0. -1.
        3   -1    0    0  501    0  0.00000000000E+00  0.00000000000E+00 -0.64065649632E+03  0.64065650428E+03  0.10100000352E+00 0.  1.
    10030    2    1    2    0    0  0.00000000000E+00  0.00000000000E+00  0.35123213135E+03  0.16325451371E+04  0.15943147790E+04 0.  0.
        4    1    3    3  502    0  0.25989759197E+03 -0.39799534046E+03  0.83089173040E+03  0.95725113209E+03  0.12699999809E+01 0. -1.
       -4    1    3    3    0  502 -0.25989759197E+03  0.39799534046E+03 -0.47965959905E+03  0.67529400501E+03  0.12699999809E+01 0.  1.
</event>
<event>
 5   0  0.1818778E-04  0.1826139E+04  0.7818609E-02  0.8692522E-01
       -1   -1    0    0    0  501  0.00000000000E+00  0.00000000000E+00  0.63935779597E+03  0.63935779599E+03  0.50400001928E-02 0. -1.
        1   -1    0    0  501    0  0.00000000000E+00  0.00000000000E+00 -0.13039576138E+04  0.13039576139E+04  0.50400001928E-02 0.  1.
    10030    2    1    2    0    0  0.00000000000E+00  0.00000000000E+00 -0.66459981788E+03  0.19433154098E+04  0.18261385118E+04 0.  0.
        3    1    3    3  502    0 -0.56773629347E+03 -0.81113629453E+02 -0.10883761852E+04  0.12302303241E+04  0.10100000352E+00 0.  1.
       -3    1    3    3    0  502  0.56773629347E+03  0.81113629453E+02  0.42377636727E+03  0.71308508571E+03  0.10100000352E+00 0. -1.
</event>
<event>
 5   0  0.1883959E-04  0.1804497E+04  0.7818609E-02  0.8703912E-01
       -1   -1    0    0    0  501  0.00000000000E+00  0.00000000000E+00  0.87946213808E+03  0.87946213810E+03  0.50400001928E-02 0. -1.
        1   -1    0    0  501    0  0.00000000000E+00  0.00000000000E+00 -0.92562474347E+03  0.92562474349E+03  0.50400001928E-02 0.  1.
    10030    2    1    2    0    0  0.00000000000E+00  0.00000000000E+00 -0.46162605391E+02  0.18050868816E+04  0.18044965126E+04 0.  0.
        5    1    3    3  502    0 -0.39957103759E+03 -0.42415815526E+03 -0.71211916642E+03  0.92016463306E+03  0.46999998093E+01 0.  1.
       -5    1    3    3    0  502  0.39957103759E+03  0.42415815526E+03  0.66595656102E+03  0.88492224852E+03  0.46999998093E+01 0. -1.
</event>
<event>
 5   0  0.1818778E-04  0.1807869E+04  0.7818609E-02  0.8702126E-01
        1   -1    0    0  501    0  0.00000000000E+00  0.00000000000E+00  0.10298052017E+04  0.10298052017E+04  0.50400001928E-02 0.  1.
       -1   -1    0    0    0  501  0.00000000000E+00  0.00000000000E+00 -0.79344871777E+03  0.79344871779E+03  0.50400001928E-02 0. -1.
    10030    2    1    2    0    0  0.00000000000E+00  0.00000000000E+00  0.23635648389E+03  0.18232539195E+04  0.18078690404E+04 0.  0.
        3    1    3    3  502    0 -0.83762540869E+01  0.89943771413E+02  0.10252417378E+04  0.10292136196E+04  0.10100000352E+00 0.  1.
       -3    1    3    3    0  502  0.83762540869E+01 -0.89943771413E+02 -0.78888525395E+03  0.79404029983E+03  0.10100000352E+00 0. -1.
</event>
<event>
 5   0  0.3568870E-04  0.1419167E+04  0.7818609E-02  0.8940060E-01
       -2   -1    0    0    0  501  0.00000000000E+00  0.00000000000E+00  0.26692174665E+03  0.26692174666E+03  0.25500000920E-02 0.  1.
        2   -1    0    0  501    0  0.00000000000E+00  0.00000000000E+00 -0.18863528062E+04  0.18863528062E+04  0.25500000920E-02 0. -1.
    10030    2    1    2    0    0  0.00000000000E+00  0.00000000000E+00 -0.16194310595E+04  0.21532745528E+04  0.14191667778E+04 0.  0.
        1    1    3    3  502    0  0.48197965371E+03  0.74934674353E+01 -0.19638905747E+02  0.48243779422E+03  0.50400001928E-02 0.  1.
       -1    1    3    3    0  502 -0.48197965371E+03 -0.74934674353E+01 -0.15997921538E+04  0.16708367586E+04  0.50400001928E-02 0. -1.
</event>
<event>
 5   0  0.1835421E-04  0.1810283E+04  0.7818609E-02  0.8700850E-01
        1   -1    0    0  501    0  0.00000000000E+00  0.00000000000E+00  0.53170053298E+03  0.53170053300E+03  0.50400001928E-02 0.  1.
       -1   -1    0    0    0  501  0.00000000000E+00  0.00000000000E+00 -0.15408701012E+04  0.15408701012E+04  0.50400001928E-02 0. -1.
    10030    2    1    2    0    0  0.00000000000E+00  0.00000000000E+00 -0.10091695682E+04  0.20725706342E+04  0.18102833525E+04 0.  0.
        2    1    3    3  502    0  0.34132961299E+03  0.26070594362E+03  0.40760239700E+03  0.59212600668E+03  0.25500000920E-02 0.  1.
       -2    1    3    3    0  502 -0.34132961299E+03 -0.26070594362E+03 -0.14167719652E+04  0.14804446275E+04  0.25500000920E-02 0. -1.
</event>
<event>
 5   0  0.1818778E-04  0.1819063E+04  0.7818609E-02  0.8696227E-01
       -1   -1    0    0    0  501  0.00000000000E+00  0.00000000000E+00  0.67976086435E+03  0.67976086437E+03  0.50400001928E-02 0. -1.
        1   -1    0    0  501    0  0.00000000000E+00  0.00000000000E+00 -0.12169690858E+04  0.12169690859E+04  0.50400001928E-02 0.  1.
    10030    2    1    2    0    0  0.00000000000E+00  0.00000000000E+00 -0.53720822149E+03  0.18967299502E+04  0.18190634488E+04 0.  0.
        3    1    3    3  502    0  0.44756562158E+03  0.56506550263E+03 -0.84693285474E+03  0.11121642318E+04  0.10100000352E+00 0.  1.
       -3    1    3    3    0  502 -0.44756562158E+03 -0.56506550263E+03  0.30972463324E+03  0.78456571842E+03  0.10100000352E+00 0. -1.
</event>
<event>
 5   0  0.1835421E-04  0.1788671E+04  0.7818609E-02  0.8712348E-01
        1   -1    0    0  501    0  0.00000000000E+00  0.00000000000E+00  0.10963129228E+04  0.10963129228E+04  0.50400001928E-02 0.  1.
       -1   -1    0    0    0  501  0.00000000000E+00  0.00000000000E+00 -0.72956866415E+03  0.72956866417E+03  0.50400001928E-02 0. -1.
    10030    2    1    2    0    0  0.00000000000E+00  0.00000000000E+00  0.36674425863E+03  0.18258815870E+04  0.17886705170E+04 0.  0.
        2    1    3    3  502    0 -0.65496337969E+03 -0.11645504725E+03  0.79355047642E+03  0.10355004420E+04  0.25500000920E-02 0.  1.
       -2    1    3    3    0  502  0.65496337969E+03  0.11645504725E+03 -0.42680621779E+03  0.79038114496E+03  0.25500000920E-02 0. -1.
</event>
<event>
 5   0  0.1818778E-04  0.1796242E+04  0.7818609E-02  0.8708301E-01
        1   -1    0    0  501    0  0.00000000000E+00  0.00000000000E+00  0.23325958916E+04  0.23325958916E+04  0.50400001928E-02 0. -1.
       -1   -1    0    0    0  501  0.00000000000E+00  0.00000000000E+00 -0.34580413100E+03  0.34580413104E+03  0.50400001928E-02 0.  1.
    10030    2    1    2    0    0  0.00000000000E+00  0.00000000000E+00  0.19867917606E+04  0.26784000227E+04  0.17962419607E+04 0.  0.
        3    1    3    3  502    0 -0.49519963698E+03  0.48497044996E+03  0.14175972578E+03  0.70747073992E+03  0.10100000352E+00 0.  1.
       -3    1    3    3    0  502  0.49519963698E+03 -0.48497044996E+03  0.18450320348E+04  0.19709292827E+04  0.10100000352E+00 0. -1.
</event>
<event>
 5   0  0.3575091E-04  0.1830450E+04  0.7818609E-02  0.8690272E-01
       -2   -1    0    0    0  501  0.00000000000E+00  0.00000000000E+00  0.84258183861E+03  0.84258183861E+03  0.25500000920E-02 0. -1.
        2   -1    0    0  501    0  0.00000000000E+00  0.00000000000E+00 -0.99413092547E+03  0.99413092548E+03  0.25500000920E-02 0.  1.
    10030    2    1    2    0    0  0.00000000000E+00  0.00000000000E+00 -0.15154908687E+03  0.18367127641E+04  0.18304498496E+04 0.  0.
        5    1    3    3  502    0  0.68278212760E+03  0.45723024425E+03 -0.48009694390E+03  0.95171744524E+03  0.46999998093E+01 0.  1.
       -5    1    3    3    0  502 -0.68278212760E+03 -0.45723024425E+03  0.32854785703E+03  0.88499531885E+03  0.46999998093E+01 0. -1.
</event>
<event>
 5   0  0.3568870E-04  0.1870717E+04  0.7818609E-02  0.8669571E-01
        2   -1    0    0  501    0  0.00000000000E+00  0.00000000000E+00  0.12921226539E+04  0.12921226540E+04  0.25500000920E-02 0.  1.
       -2   -1    0    0    0  501  0.00000000000E+00  0.00000000000E+00 -0.67709921137E+03  0.67709921137E+03  0.25500000920E-02 0. -1.
    10030    2    1    2    0    0  0.00000000000E+00  0.00000000000E+00  0.61502344258E+03  0.19692218653E+04  0.18707166862E+04 0.  0.
        1    1    3    3  502    0  0.83228239052E+03 -0.12268041427E+03 -0.12285711709E+03  0.85019899604E+03  0.50400001928E-02 0. -1.
       -1    1    3    3    0  502 -0.83228239052E+03  0.12268041427E+03  0.73788055967E+03  0.11190228693E+04  0.50400001928E-02 0.  1.
</event>
<event>
 5   0  0.1837313E-04  0.1664930E+04  0.7818609E-02  0.8781623E-01
       -1   -1    0    0    0  501  0.00000000000E+00  0.00000000000E+00  0.10111008233E+04  0.10111008234E+04  0.50400001928E-02 0.  1.
        1   -1    0    0  501    0  0.00000000000E+00  0.00000000000E+00 -0.68538948116E+03  0.68538948118E+03  0.50400001928E-02 0. -1.
    10030    2    1    2    0    0  0.00000000000E+00  0.00000000000E+00  0.32571134219E+03  0.16964903045E+04  0.16649298709E+04 0.  0.
        1    1    3    3  502    0 -0.30606964025E+03  0.57771962177E+03 -0.36223727026E+03  0.74743188723E+03  0.50400001928E-02 0. -1.
       -1    1    3    3    0  502  0.30606964025E+03 -0.57771962177E+03  0.68794861245E+03  0.94905841730E+03  0.50400001928E-02 0.  1.
</event>
<event>
 5   0  0.3628581E-04  0.1823596E+04  0.7818609E-02  0.8693851E-01
        2   -1    0    0  501    0  0.00000000000E+00  0.00000000000E+00  0.21978229909E+04  0.21978229909E+04  0.25500000920E-02 0. -1.
       -2   -1    0    0    0  501  0.00000000000E+00  0.00000000000E+00 -0.37827240894E+03  0.37827240895E+03  0.25500000920E-02 0.  1.
    10030    2    1    2    0    0  0.00000000000E+00  0.00000000000E+00  0.18195505819E+04  0.25760953998E+04  0.18235962242E+04 0.  0.
        2    1    3    3  502    0 -0.11087274532E+03 -0.69223228603E+03  0.86192546252E+02  0.70633381521E+03  0.25500000920E-02 0.  1.
       -2    1    3    3    0  502  0.11087274532E+03  0.69223228603E+03  0.17333580357E+04  0.18697615846E+04  0.25500000920E-02 0. -1.
</event>
<event>
 5   0  0.3575091E-04  0.1791731E+04  0.7818609E-02  0.8710709E-01
       -2   -1    0    0    0  501  0.00000000000E+00  0.00000000000E+00  0.47273071080E+03  0.47273071080E+03  0.25500000920E-02 0.  1.
        2   -1    0    0  501    0  0.00000000000E+00  0.00000000000E+00 -0.16977423972E+04  0.16977423972E+04  0.25500000920E-02 0. -1.
    10030    2    1    2    0    0  0.00000000000E+00  0.00000000000E+00 -0.12250116864E+04  0.21704731080E+04  0.17917309733E+04 0.  0.
        5    1    3    3  502    0 -0.46693822164E+03 -0.35809254589E+01 -0.15386468589E+04  0.16079491199E+04  0.46999998093E+01 0. -1.
       -5    1    3    3    0  502  0.46693822164E+03  0.35809254589E+01  0.31363517243E+03  0.56252398814E+03  0.46999998093E+01 0.  1.
</event>
<event>
 5   0  0.1835421E-04  0.1810246E+04  0.7818609E-02  0.8700870E-01
       -1   -1    0    0    0  501  0.00000000000E+00  0.00000000000E+00  0.79477358468E+03  0.79477358469E+03  0.50400001928E-02 0.  1.
        1   -1    0    0  501    0  0.00000000000E+00  0.00000000000E+00 -0.10307936045E+04  0.10307936045E+04  0.50400001928E-02 0. -1.
    10030    2    1    2    0    0  0.00000000000E+00  0.00000000000E+00 -0.23602001982E+03  0.18255671892E+04  0.18102458707E+04 0.  0.
        2    1    3    3  502    0 -0.40184762586E+03  0.29564934239E+03  0.64360207545E+03  0.81431792292E+03  0.25500000920E-02 0.  1.
       -2    1    3    3    0  502  0.40184762586E+03 -0.29564934239E+03 -0.87962209527E+03  0.10112492663E+04  0.25500000920E-02 0. -1.
</event>
<event>
 5   0  0.3628581E-04  0.1784163E+04  0.7818609E-02  0.8714767E-01
        2   -1    0    0  501    0  0.00000000000E+00  0.00000000000E+00  0.12328607255E+04  0.12328607255E+04  0.25500000920E-02 0.  1.
       -2   -1    0    0    0  501  0.00000000000E+00  0.00000000000E+00 -0.64549788709E+03  0.64549788709E+03  0.25500000920E-02 0. -1.
    10030    2    1    2    0    0  0.00000000000E+00  0.00000000000E+00  0.58736283844E+03  0.18783586126E+04  0.17841625413E+04 0.  0.
        2    1    3    3  502    0 -0.45037639117E+03 -0.37610350406E+02  0.11034144663E+04  0.11923828734E+04  0.25500000920E-02 0.  1.
       -2    1    3    3    0  502  0.45037639117E+03  0.37610350406E+02 -0.51605162790E+03  0.68597573925E+03  0.25500000920E-02 0. -1.
</event>
<event>
 5   0  0.3531266E-04  0.1782473E+04  0.7818609E-02  0.8715676E-01
        2   -1    0    0  501    0  0.00000000000E+00  0.00000000000E+00  0.47919366438E+03  0.47919366439E+03  0.25500000920E-02 0. -1.
       -2   -1    0    0    0  501  0.00000000000E+00  0.00000000000E+00 -0.16575820648E+04  0.16575820648E+04  0.25500000920E-02 0.  1.
    10030    2    1    2    0    0  0.00000000000E+00  0.00000000000E+00 -0.11783884004E+04  0.21367757292E+04  0.17824733643E+04 0.  0.
        3    1    3    3  502    0  0.12735893684E+03 -0.26298573613E+03 -0.15985280055E+04  0.16250149509E+04  0.10100000352E+00 0.  1.
       -3    1    3    3    0  502 -0.12735893684E+03  0.26298573613E+03  0.42013960508E+03  0.51176077825E+03  0.10100000352E+00 0. -1.
</event>
<event>
 5   0  0.1883959E-04  0.1794639E+04  0.7818609E-02  0.8709156E-01
       -1   -1    0    0    0  501  0.00000000000E+00  0.00000000000E+00  0.34302548958E+03  0.34302548962E+03  0.50400001928E-02 0. -1.
        1   -1    0    0  501    0  0.00000000000E+00  0.00000000000E+00 -0.23472953252E+04  0.23472953252E+04  0.50400001928E-02 0.  1.
    10030    2    1    2    0    0  0.00000000000E+00  0.00000000000E+00 -0.20042698356E+04  0.26903208148E+04  0.17946388251E+04 0.  0.
        5    1    3    3  502    0  0.22736065588E+03  0.72346208039E+03 -0.17211811409E+04  0.18808447197E+04  0.46999998093E+01 0.  1.
       -5    1    3    3    0  502 -0.22736065588E+03 -0.72346208039E+03 -0.28308869472E+03  0.80947609519E+03  0.46999998093E+01 0. -1.
</event>
<event>
 5   0  0.1883959E-04  0.1798502E+04  0.7818609E-02  0.8707096E-01
       -1   -1    0    0    0  501  0.00000000000E+00  0.00000000000E+00  0.13592031910E+04  0.13592031910E+04  0.50400001928E-02 0. -1.
        1   -1    0    0  501    0  0.00000000000E+00  0.00000000000E+00 -0.59494598270E+03  0.59494598272E+03  0.50400001928E-02 0.  1.
    10030    2    1    2    0    0  0.00000000000E+00  0.00000000000E+00  0.76425720826E+03  0.19541491737E+04  0.17985021303E+04 0.  0.
        5    1    3    3  502    0 -0.73042746567E+02 -0.71211574808E+03  0.97345769495E+03  0.12083402068E+04  0.46999998093E+01 0. -1.
       -5    1    3    3    0  502  0.73042746567E+02  0.71211574808E+03 -0.20920048668E+03  0.74580896691E+03  0.46999998093E+01 0.  1.
</event>
<event>
 5   0  0.3568870E-04  0.1755399E+04  0.7818609E-02  0.8730384E-01
       -2   -1    0    0    0  501  0.00000000000E+00  0.00000000000E+00  0.87535571438E+03  0.87535571439E+03  0.25500000920E-02 0.  1.
        2   -1    0    0  501    0  0.00000000000E+00  0.00000000000E+00 -0.88004992633E+03  0.88004992633E+03  0.25500000920E-02 0. -1.
    10030    2    1    2    0    0  0.00000000000E+00  0.00000000000E+00 -0.46942119412E+01  0.17554056407E+04  0.17553993642E+04 0.  0.
        1    1    3    3  502    0 -0.49837465128E+03  0.43328422439E+03  0.57579354301E+03  0.87615678754E+03  0.50400001928E-02 0.  1.
       -1    1    3    3    0  502  0.49837465128E+03 -0.43328422439E+03 -0.58048775495E+03  0.87924885318E+03  0.50400001928E-02 0. -1.
</event>
<event>
 5   0  0.1825253E-04  0.1794669E+04  0.7818609E-02  0.8709139E-01
        1   -1    0    0  501    0  0.00000000000E+00  0.00000000000E+00  0.90612242761E+03  0.90612242763E+03  0.50400001928E-02 0. -1.
       -1   -1    0    0    0  501  0.00000000000E+00  0.00000000000E+00 -0.88863201989E+03  0.88863201990E+03  0.50400001928E-02 0.  1.
    10030    2    1    2    0    0  0.00000000000E+00  0.00000000000E+00  0.17490407726E+02  0.17947544475E+04  0.17946692209E+04 0.  0.
        4    1    3    3  502    0  0.65157930440E+03 -0.57358835048E+03 -0.21852888194E+03  0.89516237123E+03  0.12699999809E+01 0.  1.
       -4    1    3    3    0  502 -0.65157930440E+03  0.57358835048E+03  0.23601928967E+03  0.89959207629E+03  0.12699999809E+01 0. -1.
</event>
<event>
 5   0  0.1835421E-04  0.1801438E+04  0.7818609E-02  0.8705535E-01
       -1   -1    0    0    0  501  0.00000000000E+00  0.00000000000E+00  0.85653765028E+03  0.85653765030E+03  0.50400001928E-02 0.  1.
        1   -1    0    0  501    0  0.00000000000E+00  0.00000000000E+00 -0.94717955788E+03  0.94717955789E+03  0.50400001928E-02 0. -1.
    10030    2    1    2    0    0  0.00000000000E+00  0.00000000000E+00 -0.90641907596E+02  0.18037172082E+04  0.18014382620E+04 0.  0.
        2    1    3    3  502    0 -0.33793422338E+03 -0.56863860004E+03  0.56679977217E+03  0.87109780078E+03  0.25500000920E-02 0.  1.
       -2    1    3    3    0  502  0.33793422338E+03  0.56863860004E+03 -0.65744167977E+03  0.93261940741E+03  0.25500000920E-02 0. -1.
</event>
<event>
 5   0  0.3582186E-04  0.1437860E+04  0.7818609E-02  0.8926861E-01
       -2   -1    0    0    0  501  0.00000000000E+00  0.00000000000E+00  0.35522740864E+03  0.35522740864E+03  0.25500000920E-02 0.  1.
        2   -1    0    0  501    0  0.00000000000E+00  0.00000000000E+00 -0.14550122208E+04  0.14550122208E+04  0.25500000920E-02 0. -1.
    10030    2    1    2    0    0  0.00000000000E+00  0.00000000000E+00 -0.10997848122E+04  0.18102396295E+04  0.14378598273E+04 0.  0.
        4    1    3    3  502    0 -0.26056972549E+03 -0.42616410237E+03  0.10107090615E+03  0.50963650278E+03  0.12699999809E+01 0.  1.
       -4    1    3    3    0  502  0.26056972549E+03  0.42616410237E+03 -0.12008557183E+04  0.13006031267E+04  0.12699999809E+01 0. -1.
</event>
<event>
 5   0  0.3628581E-04  0.1807999E+04  0.7818609E-02  0.8702057E-01
        2   -1    0    0  501    0  0.00000000000E+00  0.00000000000E+00  0.61800694126E+03  0.61800694127E+03  0.25500000920E-02 0. -1.
       -2   -1    0    0    0  501  0.00000000000E+00  0.00000000000E+00 -0.13223402084E+04  0.13223402084E+04  0.25500000920E-02 0.  1.
    10030    2    1    2    0    0  0.00000000000E+00  0.00000000000E+00 -0.70433326715E+03  0.19403471497E+04  0.18079993667E+04 0.  0.
        2    1    3    3  502    0 -0.43657104048E+03  0.62889017708E+03 -0.86810560022E+03  0.11574560300E+04  0.25500000920E-02 0.  1.
       -2    1    3    3    0  502  0.43657104048E+03 -0.62889017708E+03  0.16377233306E+03  0.78289111970E+03  0.25500000920E-02 0. -1.
</event>
<event>
 5   0  0.3531266E-04  0.1937054E+04  0.7818609E-02  0.8636629E-01
       -2   -1    0    0    0  501  0.00000000000E+00  0.00000000000E+00  0.83310875054E+03  0.83310875054E+03  0.25500000920E-02 0. -1.
        2   -1    0    0  501    0  0.00000000000E+00  0.00000000000E+00 -0.11259568462E+04  0.11259568462E+04  0.25500000920E-02 0.  1.
    10030    2    1    2    0    0  0.00000000000E+00  0.00000000000E+00 -0.29284809568E+03  0.19590655968E+04  0.19370539500E+04 0.  0.
        3    1    3    3  502    0  0.63435387588E+03 -0.16907748542E+03 -0.86659185934E+03  0.10871860452E+04  0.10100000352E+00 0.  1.
       -3    1    3    3    0  502 -0.63435387588E+03  0.16907748542E+03  0.57374376367E+03  0.87187955159E+03  0.10100000352E+00 0. -1.
</event>
<event>
 5   0  0.3575091E-04  0.1810923E+04  0.7818609E-02  0.8700512E-01
       -2   -1    0    0    0  501  0.00000000000E+00  0.00000000000E+00  0.84506035534E+03  0.84506035534E+03  0.25500000920E-02 0.  1.
        2   -1    0    0  501    0  0.00000000000E+00  0.00000000000E+00 -0.97017957468E+03  0.97017957468E+03  0.25500000920E-02 0. -1.
    10030    2    1    2    0    0  0.00000000000E+00  0.00000000000E+00 -0.12511921934E+03  0.18152399300E+04  0.18109227439E+04 0.  0.
        5    1    3    3  502    0  0.89338616950E+03 -0.71267372150E+02  0.66667551148E+02  0.89871271192E+03  0.46999998093E+01 0. -1.
       -5    1    3    3    0  502 -0.89338616950E+03  0.71267372150E+02 -0.19178677049E+03  0.91652721810E+03  0.46999998093E+01 0.  1.
</event>
<event>
 5   0  0.3582186E-04  0.1784342E+04  0.7818609E-02  0.8714671E-01
        2   -1    0    0  501    0  0.00000000000E+00  0.00000000000E+00  0.95747721959E+03  0.95747721960E+03  0.25500000920E-02 0.  1.
       -2   -1    0    0    0  501  0.00000000000E+00  0.00000000000E+00 -0.83131937000E+03  0.83131937000E+03  0.25500000920E-02 0. -1.
    10030    2    1    2    0    0  0.00000000000E+00  0.00000000000E+00  0.12615784959E+03  0.17887965896E+04  0.17843422979E+04 0.  0.
        4    1    3    3  502    0 -0.54722167236E+03  0.53665753491E+03  0.52085312380E+03  0.92668358027E+03  0.12699999809E+01 0.  1.
       -4    1    3    3    0  502  0.54722167236E+03 -0.53665753491E+03 -0.39469527421E+03  0.86211300933E+03  0.12699999809E+01 0. -1.
</event>
<event>
 5   0  0.3531266E-04  0.1796757E+04  0.7818609E-02  0.8708026E-01
       -2   -1    0    0    0  501  0.00000000000E+00  0.00000000000E+00  0.86681955282E+03  0.86681955283E+03  0.25500000920E-02 0. -1.
        2   -1    0    0  501    0  0.00000000000E+00  0.00000000000E+00 -0.93108614996E+03  0.93108614996E+03  0.25500000920E-02 0.  1.
    10030    2    1    2    0    0  0.00000000000E+00  0.00000000000E+00 -0.64266597131E+02  0.17979057028E+04  0.17967567227E+04 0.  0.
        3    1    3    3  502    0 -0.88625323793E+03 -0.14470174050E+03 -0.56536761671E+01  0.89800633055E+03  0.10100000352E+00 0. -1.
       -3    1    3    3    0  502  0.88625323793E+03  0.14470174050E+03 -0.58612920964E+02  0.89989937224E+03  0.10100000352E+00 0.  1.
</event>
<event>
 5   0  0.1818778E-04  0.1761426E+04  0.7818609E-02  0.8727086E-01
       -1   -1    0    0    0  501  0.00000000000E+00  0.00000000000E+00  0.69440355076E+03  0.69440355077E+03  0.50400001928E-02 0.  1.
        1   -1    0    0  501    0  0.00000000000E+00  0.00000000000E+00 -0.11170093883E+04  0.11170093883E+04  0.50400001928E-02 0. -1.
    10030    2    1    2    0    0  0.00000000000E+00  0.00000000000E+00 -0.42260583755E+03  0.18114129391E+04  0.17614258832E+04 0.  0.
        3    1    3    3  502    0 -0.30517131330E+03 -0.20486933022E+03  0.61175627057E+03  0.71368530719E+03  0.10100000352E+00 0.  1.
       -3    1    3    3    0  502  0.30517131330E+03  0.20486933022E+03 -0.10343621081E+04  0.10977276319E+04  0.10100000352E+00 0. -1.
</event>
<event>
 5   0  0.3568870E-04  0.1801039E+04  0.7818609E-02  0.8705747E-01
        2   -1    0    0  501    0  0.00000000000E+00  0.00000000000E+00  0.13328868661E+04  0.13328868661E+04  0.25500000920E-02 0.  1.
       -2   -1    0    0    0  501  0.00000000000E+00  0.00000000000E+00 -0.60840548747E+03  0.60840548747E+03  0.25500000920E-02 0. -1.
    10030    2    1    2    0    0  0.00000000000E+00  0.00000000000E+00  0.72448137865E+03  0.19412923536E+04  0.18010393483E+04 0.  0.
        1    1    3    3  502    0  0.42754411084E+03 -0.23664391361E+03 -0.45306302412E+03  0.66637858040E+03  0.50400001928E-02 0. -1.
       -1    1    3    3    0  502 -0.42754411084E+03  0.23664391361E+03  0.11775444028E+04  0.12749137732E+04  0.50400001928E-02 0.  1.
</event>
<event>
 5   0  0.1835421E-04  0.1784774E+04  0.7818609E-02  0.8714439E-01
        1   -1    0    0  501    0  0.00000000000E+00  0.00000000000E+00  0.10707122515E+04  0.10707122515E+04  0.50400001928E-02 0.  1.
       -1   -1    0    0    0  501  0.00000000000E+00  0.00000000000E+00 -0.74376142913E+03  0.74376142915E+03  0.50400001928E-02 0. -1.
    10030    2    1    2    0    0  0.00000000000E+00  0.00000000000E+00  0.32695082237E+03  0.18144736807E+04  0.17847739066E+04 0.  0.
        2    1    3    3  502    0  0.39760003578E+03  0.63244870591E+03 -0.33278407187E+03  0.81781562259E+03  0.25500000920E-02 0.  1.
       -2    1    3    3    0  502 -0.39760003578E+03 -0.63244870591E+03  0.65973489424E+03  0.99665805808E+03  0.25500000920E-02 0. -1.
</event>
<event>
 5   0  0.1837313E-04  0.1840913E+04  0.7818609E-02  0.8684840E-01
        1   -1    0    0  501    0  0.00000000000E+00  0.00000000000E+00  0.80388345248E+03  0.80388345249E+03  0.50400001928E-02 0.  1.
       -1   -1    0    0    0  501  0.00000000000E+00  0.00000000000E+00 -0.10539336603E+04  0.10539336603E+04  0.50400001928E-02 0. -1.
    10030    2    1    2    0    0  0.00000000000E+00  0.00000000000E+00 -0.25005020779E+03  0.18578171128E+04  0.18409126319E+04 0.  0.
        1    1    3    3  502    0  0.52929570554E+03 -0.48438370164E+03  0.45686152945E+03  0.85059036641E+03  0.50400001928E-02 0.  1.
       -1    1    3    3    0  502 -0.52929570554E+03  0.48438370164E+03 -0.70691173724E+03  0.10072267464E+04  0.50400001928E-02 0. -1.
</event>
<event>
 5   0  0.3582186E-04  0.1805602E+04  0.7818609E-02  0.8703326E-01
        2   -1    0    0  501    0  0.00000000000E+00  0.00000000000E+00  0.64283379763E+03  0.64283379763E+03  0.25500000920E-02 0. -1.
       -2   -1    0    0    0  501  0.00000000000E+00  0.00000000000E+00 -0.12679016277E+04  0.12679016277E+04  0.25500000920E-02 0.  1.
    10030    2    1    2    0    0  0.00000000000E+00  0.00000000000E+00 -0.62506783011E+03  0.19107354254E+04  0.18056024129E+04 0.  0.
        4    1    3    3  502    0 -0.37064669900E+03  0.32591639941E+03  0.48742330279E+03  0.69367396080E+03  0.12699999809E+01 0. -1.
       -4    1    3    3    0  502  0.37064669900E+03 -0.32591639941E+03 -0.11124911329E+04  0.12170614646E+04  0.12699999809E+01 0.  1.
</event>
<event>
 5   0  0.3582186E-04  0.1804386E+04  0.7818609E-02  0.8703970E-01
        2   -1    0    0  501    0  0.00000000000E+00  0.00000000000E+00  0.12285635151E+04  0.12285635151E+04  0.25500000920E-02 0.  1.
       -2   -1    0    0    0  501  0.00000000000E+00  0.00000000000E+00 -0.66252359455E+03  0.66252359456E+03  0.25500000920E-02 0. -1.
    10030    2    1    2    0    0  0.00000000000E+00  0.00000000000E+00  0.56603992051E+03  0.18910871096E+04  0.18043861185E+04 0.  0.
        4    1    3    3  502    0 -0.69214078276E+03  0.41419960020E+03  0.70658074508E+03  0.10723237077E+04  0.12699999809E+01 0.  1.
       -4    1    3    3    0  502  0.69214078276E+03 -0.41419960020E+03 -0.14054082457E+03  0.81876340187E+03  0.12699999809E+01 0. -1.
</event>
<event>
 5   0  0.3582186E-04  0.1542348E+04  0.7818609E-02  0.8856770E-01
       -2   -1    0    0    0  501  0.00000000000E+00  0.00000000000E+00  0.35049492599E+03  0.35049492600E+03  0.25500000920E-02 0. -1.
        2   -1    0    0  501    0  0.00000000000E+00  0.00000000000E+00 -0.16967710392E+04  0.16967710392E+04  0.25500000920E-02 0.  1.
    10030    2    1    2    0    0  0.00000000000E+00  0.00000000000E+00 -0.13462761132E+04  0.20472659652E+04  0.15423483910E+04 0.  0.
        4    1    3    3  502    0  0.51874834703E+03  0.39852309769E+03 -0.13104535864E+03  0.66715440931E+03  0.12699999809E+01 0. -1.
       -4    1    3    3    0  502 -0.51874834703E+03 -0.39852309769E+03 -0.12152307546E+04  0.13801115559E+04  0.12699999809E+01 0.  1.
</event>
<event>
 5   0  0.1330125E-04  0.1805219E+04  0.7818609E-02  0.8703529E-01
       -3   -1    0    0    0  501  0.00000000000E+00  0.00000000000E+00  0.82839298936E+03  0.82839299552E+03  0.10100000352E+00 0.  1.
        3   -1    0    0  501    0  0.00000000000E+00  0.00000000000E+00 -0.98347525751E+03  0.98347526270E+03  0.10100000352E+00 0. -1.
    10030    2    1    2    0    0  0.00000000000E+00  0.00000000000E+00 -0.15508226815E+03  0.18118682582E+04  0.18052191211E+04 0.  0.
        1    1    3    3  502    0 -0.15081843444E+02 -0.28673266628E+03  0.78133319961E+03  0.83242095886E+03  0.50400001928E-02 0.  1.
       -1    1    3    3    0  502  0.15081843444E+02  0.28673266628E+03 -0.93641546776E+03  0.97944729935E+03  0.50400001928E-02 0. -1.
</event>
<event>
 5   0  0.1837313E-04  0.1802131E+04  0.7818609E-02  0.8705167E-01
       -1   -1    0    0    0  501  0.00000000000E+00  0.00000000000E+00  0.10055198839E+04  0.10055198839E+04  0.50400001928E-02 0. -1.
        1   -1    0    0  501    0  0.00000000000E+00  0.00000000000E+00 -0.80746176175E+03  0.80746176177E+03  0.50400001928E-02 0.  1.
    10030    2    1    2    0    0  0.00000000000E+00  0.00000000000E+00  0.19805812214E+03  0.18129816457E+04  0.18021308021E+04 0.  0.
        1    1    3    3  502    0 -0.17337107160E+02  0.52029447812E+03  0.83892455224E+03  0.98732027409E+03  0.50400001928E-02 0. -1.
       -1    1    3    3    0  502  0.17337107160E+02 -0.52029447812E+03 -0.64086643010E+03  0.82566137157E+03  0.50400001928E-02 0.  1.
</event>
<event>
 5   0  0.1330125E-04  0.1813257E+04  0.7818609E-02  0.8699281E-01
       -3   -1    0    0    0  501  0.00000000000E+00  0.00000000000E+00  0.76783038376E+03  0.76783039040E+03  0.10100000352E+00 0.  1.
        3   -1    0    0  501    0  0.00000000000E+00  0.00000000000E+00 -0.10705160848E+04  0.10705160896E+04  0.10100000352E+00 0. -1.
    10030    2    1    2    0    0  0.00000000000E+00  0.00000000000E+00 -0.30268570106E+03  0.18383464800E+04  0.18132565033E+04 0.  0.
        3    1    3    3  502    0 -0.27380204565E+03 -0.86108003042E+03 -0.75824602037E+02  0.90673908014E+03  0.10100000352E+00 0. -1.
       -3    1    3    3    0  502  0.27380204565E+03  0.86108003042E+03 -0.22686109902E+03  0.93160739984E+03  0.10100000352E+00 0.  1.
</event>
<event>
 5   0  0.3531266E-04  0.1807646E+04  0.7818609E-02  0.8702244E-01
       -2   -1    0    0    0  501  0.00000000000E+00  0.00000000000E+00  0.45670991788E+03  0.45670991788E+03  0.25500000920E-02 0.  1.
        2   -1    0    0  501    0  0.00000000000E+00  0.00000000000E+00 -0.17886540735E+04  0.17886540735E+04  0.25500000920E-02 0. -1.
    10030    2    1    2    0    0  0.00000000000E+00  0.00000000000E+00 -0.13319441556E+04  0.22453639914E+04  0.18076460439E+04 0.  0.
        3    1    3    3  502    0 -0.46143419564E+03 -0.61400398334E+03 -0.74191011045E+02  0.77163898605E+03  0.10100000352E+00 0.  1.
       -3    1    3    3    0  502  0.46143419564E+03  0.61400398334E+03 -0.12577531446E+04  0.14737250053E+04  0.10100000352E+00 0. -1.
</event>
<event>
 5   0  0.3568870E-04  0.1796216E+04  0.7818609E-02  0.8708314E-01
       -2   -1    0    0    0  501  0.00000000000E+00  0.00000000000E+00  0.37373946216E+03  0.37373946217E+03  0.25500000920E-02 0. -1.
        2   -1    0    0  501    0  0.00000000000E+00  0.00000000000E+00 -0.21581821113E+04  0.21581821113E+04  0.25500000920E-02 0.  1.
    10030    2    1    2    0    0  0.00000000000E+00  0.00000000000E+00 -0.17844426492E+04  0.25319215735E+04  0.17962158239E+04 0.  0.
        1    1    3    3  502    0 -0.78020365536E+03 -0.81288257442E+02 -0.27574306193E+03  0.83148046331E+03  0.50400001928E-02 0.  1.
       -1    1    3    3    0  502  0.78020365536E+03  0.81288257442E+02 -0.15086995872E+04  0.17004411102E+04  0.50400001928E-02 0. -1.
</event>
<event>
 5   0  0.1330125E-04  0.1742472E+04  0.7818609E-02  0.8737505E-01
       -4   -1    0    0    0  501  0.00000000000E+00  0.00000000000E+00  0.90458235941E+03  0.90458325093E+03  0.12699999809E+01 0. -1.
        4   -1    0    0  501    0  0.00000000000E+00  0.00000000000E+00 -0.83911732783E+03  0.83911828890E+03  0.12699999809E+01 0.  1.
    10030    2    1    2    0    0  0.00000000000E+00  0.00000000000E+00  0.65465031580E+02  0.17437015398E+04  0.17424722063E+04 0.  0.
        4    1    3    3  502    0 -0.26591688922E+03  0.38473410046E+03 -0.70284976039E+03  0.84423427945E+03  0.12699999809E+01 0.  1.
       -4    1    3    3    0  502  0.26591688922E+03 -0.38473410046E+03  0.76831479197E+03  0.89946726037E+03  0.12699999809E+01 0. -1.
</event>
<event>
 5   0  0.1837313E-04  0.1793360E+04  0.7818609E-02  0.8709839E-01
       -1   -1    0    0    0  501  0.00000000000E+00  0.00000000000E+00  0.16325556831E+04  0.16325556831E+04  0.50400001928E-02 0.  1.
        1   -1    0    0  501    0  0.00000000000E+00  0.00000000000E+00 -0.49250081318E+03  0.49250081321E+03  0.50400001928E-02 0. -1.
    10030    2    1    2    0    0  0.00000000000E+00  0.00000000000E+00  0.11400548699E+04  0.21250564963E+04  0.17933599767E+04 0.  0.
        1    1    3    3  502    0 -0.75472435752E+03  0.45786943111E+03  0.38348879100E+03  0.96245359609E+03  0.50400001928E-02 0.  1.
       -1    1    3    3    0  502  0.75472435752E+03 -0.45786943111E+03  0.75656607887E+03  0.11626029002E+04  0.50400001928E-02 0. -1.
</event>
<event>
 5   0  0.1835421E-04  0.1923363E+04  0.7818609E-02  0.8643314E-01
        1   -1    0    0  501    0  0.00000000000E+00  0.00000000000E+00  0.14014571918E+04  0.14014571918E+04  0.50400001928E-02 0. -1.
       -1   -1    0    0    0  501  0.00000000000E+00  0.00000000000E+00 -0.65990698919E+03  0.65990698921E+03  0.50400001928E-02 0.  1.
    10030    2    1    2    0    0  0.00000000000E+00  0.00000000000E+00  0.74155020261E+03  0.20613641810E+04  0.19233630920E+04 0.  0.
        2    1    3    3  502    0  0.12356216790E+03 -0.73874851157E+03 -0.27567261202E+03  0.79813054178E+03  0.25500000920E-02 0.  1.
       -2    1    3    3    0  502 -0.12356216790E+03  0.73874851157E+03  0.10172228146E+04  0.12632336392E+04  0.25500000920E-02 0. -1.
</event>
<event>
 5   0  0.3531266E-04  0.1825673E+04  0.7818609E-02  0.8692765E-01
       -2   -1    0    0    0  501  0.00000000000E+00  0.00000000000E+00  0.59121834891E+03  0.59121834891E+03  0.25500000920E-02 0. -1.
        2   -1    0    0  501    0  0.00000000000E+00  0.00000000000E+00 -0.14094128545E+04  0.14094128545E+04  0.25500000920E-02 0.  1.
    10030    2    1    2    0    0  0.00000000000E+00  0.00000000000E+00 -0.81819450561E+03  0.20006312034E+04  0.18256732904E+04 0.  0.
        3    1    3    3  502    0 -0.65030015240E+03  0.49354191510E+03 -0.85664343844E+03  0.11833477515E+04  0.10100000352E+00 0.  1.
       -3    1    3    3    0  502  0.65030015240E+03 -0.49354191510E+03  0.38448932825E+02  0.81728345193E+03  0.10100000352E+00 0. -1.
</event>
<event>
 5   0  0.1835421E-04  0.1776646E+04  0.7818609E-02  0.8718819E-01
        1   -1    0    0  501    0  0.00000000000E+00  0.00000000000E+00  0.78457015628E+03  0.78457015630E+03  0.50400001928E-02 0. -1.
       -1   -1    0    0    0  501  0.00000000000E+00  0.00000000000E+00 -0.10057957526E+04  0.10057957526E+04  0.50400001928E-02 0.  1.
    10030    2    1    2    0    0  0.00000000000E+00  0.00000000000E+00 -0.22122559631E+03  0.17903659089E+04  0.17766455255E+04 0.  0.
        2    1    3    3  502    0 -0.69892342688E+03  0.14002358016E+03 -0.64481679493E+03  0.96119158271E+03  0.25500000920E-02 0.  1.
       -2    1    3    3    0  502  0.69892342688E+03 -0.14002358016E+03  0.42359119863E+03  0.82917432618E+03  0.25500000920E-02 0. -1.
</event>
<event>
 5   0  0.3628581E-04  0.1946523E+04  0.7818609E-02  0.8632039E-01
       -2   -1    0    0    0  501  0.00000000000E+00  0.00000000000E+00  0.80800615566E+03  0.80800615566E+03  0.25500000920E-02 0.  1.
        2   -1    0    0  501    0  0.00000000000E+00  0.00000000000E+00 -0.11723158269E+04  0.11723158269E+04  0.25500000920E-02 0. -1.
    10030    2    1    2    0    0  0.00000000000E+00  0.00000000000E+00 -0.36430967129E+03  0.19803219826E+04  0.19465234697E+04 0.  0.
        2    1    3    3  502    0 -0.38509053419E+03 -0.52905335204E+03 -0.91511300002E+03  0.11249995430E+04  0.25500000920E-02 0. -1.
       -2    1    3    3    0  502  0.38509053419E+03  0.52905335204E+03  0.55080332873E+03  0.85532243966E+03  0.25500000920E-02 0.  1.
</event>
<event>
 5   0  0.1818778E-04  0.1738688E+04  0.7818609E-02  0.8739601E-01
        1   -1    0    0  501    0  0.00000000000E+00  0.00000000000E+00  0.12274870369E+04  0.12274870369E+04  0.50400001928E-02 0. -1.
       -1   -1    0    0    0  501  0.00000000000E+00  0.00000000000E+00 -0.61569634648E+03  0.61569634650E+03  0.50400001928E-02 0.  1.
    10030    2    1    2    0    0  0.00000000000E+00  0.00000000000E+00  0.61179069041E+03  0.18431833834E+04  0.17386883378E+04 0.  0.
        3    1    3    3  502    0  0.63612659924E+03 -0.26880916851E+03  0.86568819131E+03  0.11073985164E+04  0.10100000352E+00 0. -1.
       -3    1    3    3    0  502 -0.63612659924E+03  0.26880916851E+03 -0.25389750090E+03  0.73578486700E+03  0.10100000352E+00 0.  1.
</event>
<event>
 5   0  0.1837313E-04  0.1848047E+04  0.7818609E-02  0.8681158E-01
        1   -1    0    0  501    0  0.00000000000E+00  0.00000000000E+00  0.79179775783E+03  0.79179775785E+03  0.50400001928E-02 0. -1.
       -1   -1    0    0    0  501  0.00000000000E+00  0.00000000000E+00 -0.10783305432E+04  0.10783305432E+04  0.50400001928E-02 0.  1.
    10030    2    1    2    0    0  0.00000000000E+00  0.00000000000E+00 -0.28653278541E+03  0.18701283011E+04  0.18480473007E+04 0.  0.
        1    1    3    3  502    0  0.47602918977E+03  0.78141017960E+03 -0.27370196582E+03  0.95504891205E+03  0.50400001928E-02 0. -1.
       -1    1    3    3    0  502 -0.47602918977E+03 -0.78141017960E+03 -0.12830819582E+02  0.91507938904E+03  0.50400001928E-02 0.  1.
</event>
<event>
 5   0  0.3582186E-04  0.1782012E+04  0.7818609E-02  0.8715924E-01
        2   -1    0    0  501    0  0.00000000000E+00  0.00000000000E+00  0.12198247913E+04  0.12198247913E+04  0.25500000920E-02 0. -1.
       -2   -1    0    0    0  501  0.00000000000E+00  0.00000000000E+00 -0.65082441556E+03  0.65082441556E+03  0.25500000920E-02 0.  1.
    10030    2    1    2    0    0  0.00000000000E+00  0.00000000000E+00  0.56900037572E+03  0.18706492068E+04  0.17820120728E+04 0.  0.
        4    1    3    3  502    0 -0.55028506336E+03 -0.91275200940E+02 -0.44485781581E+03  0.71347382744E+03  0.12699999809E+01 0.  1.
       -4    1    3    3    0  502  0.55028506336E+03  0.91275200940E+02  0.10138581915E+04  0.11571753794E+04  0.12699999809E+01 0. -1.
</event>
<event>
 5   0  0.3575091E-04  0.1820601E+04  0.7818609E-02  0.8695420E-01
       -2   -1    0    0    0  501  0.00000000000E+00  0.00000000000E+00  0.45288655391E+03  0.45288655392E+03  0.25500000920E-02 0.  1.
        2   -1    0    0  501    0  0.00000000000E+00  0.00000000000E+00 -0.18297009679E+04  0.18297009679E+04  0.25500000920E-02 0. -1.
    10030    2    1    2    0    0  0.00000000000E+00  0.00000000000E+00 -0.13768144140E+04  0.22825875218E+04  0.18206009624E+04 0.  0.
        5    1    3    3  502    0  0.65818692819E+03  0.44134718703E+03 -0.12499823883E+04  0.14800254839E+04  0.46999998093E+01 0. -1.
       -5    1    3    3    0  502 -0.65818692819E+03 -0.44134718703E+03 -0.12683202567E+03  0.80256203789E+03  0.46999998093E+01 0.  1.
</event>
<event>
 5   0  0.1835421E-04  0.1789901E+04  0.7818609E-02  0.8711689E-01
       -1   -1    0    0    0  501  0.00000000000E+00  0.00000000000E+00  0.61589347116E+03  0.61589347118E+03  0.50400001928E-02 0.  1.
        1   -1    0    0  501    0  0.00000000000E+00  0.00000000000E+00 -0.13004463139E+04  0.13004463139E+04  0.50400001928E-02 0. -1.
    10030    2    1    2    0    0  0.00000000000E+00  0.00000000000E+00 -0.68455284270E+03  0.19163397850E+04  0.17899009965E+04 0.  0.
        2    1    3    3  502    0 -0.27241383522E+03  0.33775308537E+03 -0.11802873984E+04  0.12575232749E+04  0.25500000920E-02 0. -1.
       -2    1    3    3    0  502  0.27241383522E+03 -0.33775308537E+03  0.49573455566E+03  0.65881651010E+03  0.25500000920E-02 0.  1.
</event>
<event>
 5   0  0.1835421E-04  0.1788283E+04  0.7818609E-02  0.8712555E-01
       -1   -1    0    0    0  501  0.00000000000E+00  0.00000000000E+00  0.60981867453E+03  0.60981867455E+03  0.50400001928E-02 0. -1.
        1   -1    0    0  501    0  0.00000000000E+00  0.00000000000E+00 -0.13110280814E+04  0.13110280814E+04  0.50400001928E-02 0.  1.
    10030    2    1    2    0    0  0.00000000000E+00  0.00000000000E+00 -0.70120940683E+03  0.19208467559E+04  0.17882834304E+04 0.  0.
        2    1    3    3  502    0 -0.81409190451E+03  0.32733598965E+03 -0.53538897747E+03  0.10278792907E+04  0.25500000920E-02 0.  1.
       -2    1    3    3    0  502  0.81409190451E+03 -0.32733598965E+03 -0.16582042936E+03  0.89296746520E+03  0.25500000920E-02 0. -1.
</event>
<event>
 5   0  0.1837313E-04  0.1307699E+04  0.7818609E-02  0.9023482E-01
        1   -1    0    0  501    0  0.00000000000E+00  0.00000000000E+00  0.60616885104E+03  0.60616885106E+03  0.50400001928E-02 0. -1.
       -1   -1    0    0    0  501  0.00000000000E+00  0.00000000000E+00 -0.70528029931E+03  0.70528029932E+03  0.50400001928E-02 0.  1.
    10030    2    1    2    0    0  0.00000000000E+00  0.00000000000E+00 -0.99111448267E+02  0.13114491504E+04  0.13076986636E+04 0.  0.
        1    1    3    3  502    0  0.52879221916E+02  0.49914856303E+03  0.37066086758E+03  0.62396712964E+03  0.50400001928E-02 0. -1.
       -1    1    3    3    0  502 -0.52879221916E+02 -0.49914856303E+03 -0.46977231585E+03  0.68748202075E+03  0.50400001928E-02 0.  1.
</event>
<event>
 5   0  0.1883959E-04  0.1710105E+04  0.7818609E-02  0.8755622E-01
        1   -1    0    0  501    0  0.00000000000E+00  0.00000000000E+00  0.13161600291E+04  0.13161600292E+04  0.50400001928E-02 0. -1.
       -1   -1    0    0    0  501  0.00000000000E+00  0.00000000000E+00 -0.55549048475E+03  0.55549048477E+03  0.50400001928E-02 0.  1.
    10030    2    1    2    0    0  0.00000000000E+00  0.00000000000E+00  0.76066954439E+03  0.18716505139E+04  0.17101045262E+04 0.  0.
        5    1    3    3  502    0 -0.48830604761E+03  0.34546965053E+03  0.10490346084E+04  0.12075958658E+04  0.46999998093E+01 0. -1.
       -5    1    3    3    0  502  0.48830604761E+03 -0.34546965053E+03 -0.28836506397E+03  0.66405464812E+03  0.46999998093E+01 0.  1.
</event>
<event>
 5   0  0.1818778E-04  0.1803581E+04  0.7818609E-02  0.8704397E-01
       -1   -1    0    0    0  501  0.00000000000E+00  0.00000000000E+00  0.12915150014E+04  0.12915150014E+04  0.50400001928E-02 0. -1.
        1   -1    0    0  501    0  0.00000000000E+00  0.00000000000E+00 -0.62966846366E+03  0.62966846368E+03  0.50400001928E-02 0.  1.
    10030    2    1    2    0    0  0.00000000000E+00  0.00000000000E+00  0.66184653776E+03  0.19211834651E+04  0.18035811784E+04 0.  0.
        3    1    3    3  502    0  0.13066514855E+02  0.17518665775E+03 -0.61126544183E+03  0.63600829353E+03  0.10100000352E+00 0.  1.
       -3    1    3    3    0  502 -0.13066514855E+02 -0.17518665775E+03  0.12731119796E+04  0.12851751716E+04  0.10100000352E+00 0. -1.
</event>
<event>
 5   0  0.3568870E-04  0.1789828E+04  0.7818609E-02  0.8711728E-01
       -2   -1    0    0    0  501  0.00000000000E+00  0.00000000000E+00  0.31876829709E+03  0.31876829710E+03  0.25500000920E-02 0.  1.
        2   -1    0    0  501    0  0.00000000000E+00  0.00000000000E+00 -0.25123922974E+04  0.25123922974E+04  0.25500000920E-02 0. -1.
    10030    2    1    2    0    0  0.00000000000E+00  0.00000000000E+00 -0.21936240003E+04  0.28311605945E+04  0.17898279406E+04 0.  0.
        1    1    3    3  502    0 -0.86927015161E+03 -0.19482845106E+03 -0.96182645068E+03  0.13109915496E+04  0.50400001928E-02 0.  1.
       -1    1    3    3    0  502  0.86927015161E+03  0.19482845106E+03 -0.12317975496E+04  0.15201690449E+04  0.50400001928E-02 0. -1.
</event>
<event>
 5   0  0.1818778E-04  0.1784360E+04  0.7818609E-02  0.8714661E-01
        1   -1    0    0  501    0  0.00000000000E+00  0.00000000000E+00  0.13898102956E+04  0.13898102956E+04  0.50400001928E-02 0.  1.
       -1   -1    0    0    0  501  0.00000000000E+00  0.00000000000E+00 -0.57272924527E+03  0.57272924530E+03  0.50400001928E-02 0. -1.
    10030    2    1    2    0    0  0.00000000000E+00  0.00000000000E+00  0.81708105032E+03  0.19625395409E+04  0.17843598311E+04 0.  0.
        3    1    3    3  502    0  0.17812537585E+03  0.31356116411E+03  0.13060770662E+04  0.13549489165E+04  0.10100000352E+00 0.  1.
       -3    1    3    3    0  502 -0.17812537585E+03 -0.31356116411E+03 -0.48899601588E+03  0.60759062444E+03  0.10100000352E+00 0. -1.
</event>
<event>
 5   0  0.1837313E-04  0.1799794E+04  0.7818609E-02  0.8706409E-01
       -1   -1    0    0    0  501  0.00000000000E+00  0.00000000000E+00  0.36112432106E+03  0.36112432110E+03  0.50400001928E-02 0. -1.
        1   -1    0    0  501    0  0.00000000000E+00  0.00000000000E+00 -0.22424823758E+04  0.22424823758E+04  0.50400001928E-02 0.  1.
    10030    2    1    2    0    0  0.00000000000E+00  0.00000000000E+00 -0.18813580547E+04  0.26036066969E+04  0.17997943499E+04 0.  0.
        1    1    3    3  502    0  0.24933047592E+03  0.75283866536E+03 -0.32542907052E+03  0.85722565422E+03  0.50400001928E-02 0. -1.
       -1    1    3    3    0  502 -0.24933047592E+03 -0.75283866536E+03 -0.15559289842E+04  0.17463810427E+04  0.50400001928E-02 0.  1.
</event>
<event>
 5   0  0.1837313E-04  0.1804341E+04  0.7818609E-02  0.8703995E-01
        1   -1    0    0  501    0  0.00000000000E+00  0.00000000000E+00  0.10725016739E+04  0.10725016739E+04  0.50400001928E-02 0. -1.
       -1   -1    0    0    0  501  0.00000000000E+00  0.00000000000E+00 -0.75889036300E+03  0.75889036302E+03  0.50400001928E-02 0.  1.
    10030    2    1    2    0    0  0.00000000000E+00  0.00000000000E+00  0.31361131090E+03  0.18313920369E+04  0.18043405273E+04 0.  0.
        1    1    3    3  502    0  0.91729020142E+02 -0.24486582841E+03 -0.71958476471E+03  0.76562113391E+03  0.50400001928E-02 0.  1.
       -1    1    3    3    0  502 -0.91729020142E+02  0.24486582841E+03  0.10331960756E+04  0.10657709030E+04  0.50400001928E-02 0. -1.
</event>
<event>
 5   0  0.1835421E-04  0.1861468E+04  0.7818609E-02  0.8674278E-01
       -1   -1    0    0    0  501  0.00000000000E+00  0.00000000000E+00  0.73191869258E+03  0.73191869260E+03  0.50400001928E-02 0.  1.
        1   -1    0    0  501    0  0.00000000000E+00  0.00000000000E+00 -0.11835540856E+04  0.11835540857E+04  0.50400001928E-02 0. -1.
    10030    2    1    2    0    0  0.00000000000E+00  0.00000000000E+00 -0.45163539307E+03  0.19154727783E+04  0.18614675490E+04 0.  0.
        2    1    3    3  502    0 -0.62719648109E+03  0.50368307473E+03 -0.70758147657E+03  0.10713279664E+04  0.25500000920E-02 0. -1.
       -2    1    3    3    0  502  0.62719648109E+03 -0.50368307473E+03  0.25594608350E+03  0.84414481183E+03  0.25500000920E-02 0.  1.
</event>
<event>
 5   0  0.1818778E-04  0.1802516E+04  0.7818609E-02  0.8704963E-01
        1   -1    0    0  501    0  0.00000000000E+00  0.00000000000E+00  0.23088795419E+04  0.23088795419E+04  0.50400001928E-02 0.  1.
       -1   -1    0    0    0  501  0.00000000000E+00  0.00000000000E+00 -0.35180089008E+03  0.35180089011E+03  0.50400001928E-02 0. -1.
    10030    2    1    2    0    0  0.00000000000E+00  0.00000000000E+00  0.19570786518E+04  0.26606804320E+04  0.18025158840E+04 0.  0.
        3    1    3    3  502    0 -0.80222980772E+03  0.40887538896E+03  0.92110206550E+03  0.12880919118E+04  0.10100000352E+00 0. -1.
       -3    1    3    3    0  502  0.80222980772E+03 -0.40887538896E+03  0.10359765863E+04  0.13725885202E+04  0.10100000352E+00 0.  1.
</event>
<event>
 5   0  0.3568870E-04  0.1359056E+04  0.7818609E-02  0.8984001E-01
       -2   -1    0    0    0  501  0.00000000000E+00  0.00000000000E+00  0.72261066900E+03  0.72261066900E+03  0.25500000920E-02 0. -1.
        2   -1    0    0  501    0  0.00000000000E+00  0.00000000000E+00 -0.63901373046E+03  0.63901373047E+03  0.25500000920E-02 0.  1.
    10030    2    1    2    0    0  0.00000000000E+00  0.00000000000E+00  0.83596938536E+02  0.13616243995E+04  0.13590557594E+04 0.  0.
        1    1    3    3  502    0 -0.94717784751E+01 -0.17248066020E+03 -0.61664899132E+03  0.64038681377E+03  0.50400001928E-02 0.  1.
       -1    1    3    3    0  502  0.94717784751E+01  0.17248066020E+03  0.70024592985E+03  0.72123758570E+03  0.50400001928E-02 0. -1.
</event>
<event>
 5   0  0.3531266E-04  0.1751632E+04  0.7818609E-02  0.8732453E-01
        2   -1    0    0  501    0  0.00000000000E+00  0.00000000000E+00  0.13127881479E+04  0.13127881479E+04  0.25500000920E-02 0.  1.
       -2   -1    0    0    0  501  0.00000000000E+00  0.00000000000E+00 -0.58429337725E+03  0.58429337726E+03  0.25500000920E-02 0. -1.
    10030    2    1    2    0    0  0.00000000000E+00  0.00000000000E+00  0.72849477062E+03  0.18970815251E+04  0.17516317199E+04 0.  0.
        3    1    3    3  502    0 -0.52456362870E+03 -0.64590210005E+03  0.68245522075E+02  0.83487363408E+03  0.10100000352E+00 0. -1.
       -3    1    3    3    0  502  0.52456362870E+03  0.64590210005E+03  0.66024924854E+03  0.10622078910E+04  0.10100000352E+00 0.  1.
</event>
<event>
 5   0  0.1818778E-04  0.1856380E+04  0.7818609E-02  0.8676879E-01
        1   -1    0    0  501    0  0.00000000000E+00  0.00000000000E+00  0.57992124437E+03  0.57992124439E+03  0.50400001928E-02 0. -1.
       -1   -1    0    0    0  501  0.00000000000E+00  0.00000000000E+00 -0.14856101635E+04  0.14856101635E+04  0.50400001928E-02 0.  1.
    10030    2    1    2    0    0  0.00000000000E+00  0.00000000000E+00 -0.90568891915E+03  0.20655314079E+04  0.18563802355E+04 0.  0.
        3    1    3    3  502    0  0.36698438450E+03 -0.75775314428E+03 -0.18093013775E+02  0.84213700399E+03  0.10100000352E+00 0.  1.
       -3    1    3    3    0  502 -0.36698438450E+03  0.75775314428E+03 -0.88759590537E+03  0.12233944039E+04  0.10100000352E+00 0. -1.
</event>
<event>
 5   0  0.3575091E-04  0.1774560E+04  0.7818609E-02  0.8719946E-01
       -2   -1    0    0    0  501  0.00000000000E+00  0.00000000000E+00  0.10001791790E+04  0.10001791790E+04  0.25500000920E-02 0. -1.
        2   -1    0    0  501    0  0.00000000000E+00  0.00000000000E+00 -0.78712482325E+03  0.78712482325E+03  0.25500000920E-02 0.  1.
    10030    2    1    2    0    0  0.00000000000E+00  0.00000000000E+00  0.21305435575E+03  0.17873040023E+04  0.17745600689E+04 0.  0.
        5    1    3    3  502    0  0.84013819793E+02  0.55648748869E+03  0.79738841212E+03  0.97600564382E+03  0.46999998093E+01 0. -1.
       -5    1    3    3    0  502 -0.84013819793E+02 -0.55648748869E+03 -0.58433405636E+03  0.81129835844E+03  0.46999998093E+01 0.  1.
</event>
<event>
 5   0  0.1825253E-04  0.1798442E+04  0.7818609E-02  0.8707128E-01
       -1   -1    0    0    0  501  0.00000000000E+00  0.00000000000E+00  0.45237259416E+03  0.45237259419E+03  0.50400001928E-02 0.  1.
        1   -1    0    0  501    0  0.00000000000E+00  0.00000000000E+00 -0.17874608422E+04  0.17874608423E+04  0.50400001928E-02 0. -1.
    10030    2    1    2    0    0  0.00000000000E+00  0.00000000000E+00 -0.13350882481E+04  0.22398334364E+04  0.17984418792E+04 0.  0.
        4    1    3    3  502    0 -0.17189140072E+03 -0.86062079248E+03 -0.91153998335E+03  0.12653543204E+04  0.12699999809E+01 0. -1.
       -4    1    3    3    0  502  0.17189140072E+03  0.86062079248E+03 -0.42354826473E+03  0.97447911601E+03  0.12699999809E+01 0.  1.
</event>
<event>
 5   0  0.1835421E-04  0.1755249E+04  0.7818609E-02  0.8730466E-01
       -1   -1    0    0    0  501  0.00000000000E+00  0.00000000000E+00  0.47939938676E+03  0.47939938679E+03  0.50400001928E-02 0.  1.
        1   -1    0    0  501    0  0.00000000000E+00  0.00000000000E+00 -0.16066459926E+04  0.16066459926E+04  0.50400001928E-02 0. -1.
    10030    2    1    2    0    0  0.00000000000E+00  0.00000000000E+00 -0.11272466058E+04  0.20860453794E+04  0.17552493881E+04 0.  0.
        2    1    3    3  502    0  0.45974026898E+03  0.51582974231E+03 -0.12066934416E+04  0.13905216647E+04  0.25500000920E-02 0. -1.
       -2    1    3    3    0  502 -0.45974026898E+03 -0.51582974231E+03  0.79446835773E+02  0.69552371469E+03  0.25500000920E-02 0.  1.
</event>
<event>
 5   0  0.1837313E-04  0.1697192E+04  0.7818609E-02  0.8762968E-01
       -1   -1    0    0    0  501  0.00000000000E+00  0.00000000000E+00  0.87850301649E+03  0.87850301651E+03  0.50400001928E-02 0. -1.
        1   -1    0    0  501    0  0.00000000000E+00  0.00000000000E+00 -0.81970697524E+03  0.81970697525E+03  0.50400001928E-02 0.  1.
    10030    2    1    2    0    0  0.00000000000E+00  0.00000000000E+00  0.58796041256E+02  0.16982099918E+04  0.16971918576E+04 0.  0.
        1    1    3    3  502    0  0.17021706085E+03 -0.47487437109E+03 -0.65338625361E+03  0.82546539150E+03  0.50400001928E-02 0.  1.
       -1    1    3    3    0  502 -0.17021706085E+03  0.47487437109E+03  0.71218229487E+03  0.87274460026E+03  0.50400001928E-02 0. -1.
</event>
<event>
 5   0  0.1883959E-04  0.1939088E+04  0.7818609E-02  0.8635641E-01
        1   -1    0    0  501    0  0.00000000000E+00  0.00000000000E+00  0.17542298499E+04  0.17542298499E+04  0.50400001928E-02 0. -1.
       -1   -1    0    0    0  501  0.00000000000E+00  0.00000000000E+00 -0.53585669284E+03  0.53585669287E+03  0.50400001928E-02 0.  1.
    10030    2    1    2    0    0  0.00000000000E+00  0.00000000000E+00  0.12183731570E+04  0.22900865427E+04  0.19390882454E+04 0.  0.
        5    1    3    3  502    0 -0.66406400936E+03 -0.28332264020E+02 -0.22441885532E+03  0.70154802996E+03  0.46999998093E+01 0.  1.
       -5    1    3    3    0  502  0.66406400936E+03  0.28332264020E+02  0.14427920123E+04  0.15885385128E+04  0.46999998093E+01 0. -1.
</event>
<event>
 5   0  0.3575091E-04  0.1822594E+04  0.7818609E-02  0.8694376E-01
       -2   -1    0    0    0  501  0.00000000000E+00  0.00000000000E+00  0.62233879904E+03  0.62233879905E+03  0.25500000920E-02 0. -1.
        2   -1    0    0  501    0  0.00000000000E+00  0.00000000000E+00 -0.13344213981E+04  0.13344213981E+04  0.25500000920E-02 0.  1.
    10030    2    1    2    0    0  0.00000000000E+00  0.00000000000E+00 -0.71208259904E+03  0.19567601971E+04  0.18225939869E+04 0.  0.
        5    1    3    3  502    0  0.57212229339E+03  0.38373483781E+03 -0.99649769071E+03  0.12114479279E+04  0.46999998093E+01 0.  1.
       -5    1    3    3    0  502 -0.57212229339E+03 -0.38373483781E+03  0.28441509167E+03  0.74531226926E+03  0.46999998093E+01 0. -1.
</event>
<event>
 5   0  0.3582186E-04  0.1767636E+04  0.7818609E-02  0.8723702E-01
       -2   -1    0    0    0  501  0.00000000000E+00  0.00000000000E+00  0.54977782304E+03  0.54977782304E+03  0.25500000920E-02 0.  1.
        2   -1    0    0  501    0  0.00000000000E+00  0.00000000000E+00 -0.14208185257E+04  0.14208185257E+04  0.25500000920E-02 0. -1.
    10030    2    1    2    0    0  0.00000000000E+00  0.00000000000E+00 -0.87104070264E+03  0.19705963487E+04  0.17676362929E+04 0.  0.
        4    1    3    3  502    0  0.72286171533E+02 -0.65123065056E+03  0.22571572565E+03  0.69301937385E+03  0.12699999809E+01 0. -1.
       -4    1    3    3    0  502 -0.72286171533E+02  0.65123065056E+03 -0.10967564283E+04  0.12775769749E+04  0.12699999809E+01 0.  1.
</event>
<event>
 5   0  0.1883959E-04  0.1752444E+04  0.7818609E-02  0.8732006E-01
       -1   -1    0    0    0  501  0.00000000000E+00  0.00000000000E+00  0.45226855198E+03  0.45226855201E+03  0.50400001928E-02 0. -1.
        1   -1    0    0  501    0  0.00000000000E+00  0.00000000000E+00 -0.16975867019E+04  0.16975867019E+04  0.50400001928E-02 0.  1.
    10030    2    1    2    0    0  0.00000000000E+00  0.00000000000E+00 -0.12453181499E+04  0.21498552539E+04  0.17524440985E+04 0.  0.
        5    1    3    3  502    0 -0.72899575187E+03  0.10143197919E+03 -0.39431257321E+02  0.73708898153E+03  0.46999998093E+01 0. -1.
       -5    1    3    3    0  502  0.72899575187E+03 -0.10143197919E+03 -0.12058868925E+04  0.14127662723E+04  0.46999998093E+01 0.  1.
</event>
<event>
 5   0  0.1883959E-04  0.1757554E+04  0.7818609E-02  0.8729203E-01
        1   -1    0    0  501    0  0.00000000000E+00  0.00000000000E+00  0.72552854013E+03  0.72552854015E+03  0.50400001928E-02 0.  1.
       -1   -1    0    0    0  501  0.00000000000E+00  0.00000000000E+00 -0.10643948729E+04  0.10643948729E+04  0.50400001928E-02 0. -1.
    10030    2    1    2    0    0  0.00000000000E+00  0.00000000000E+00 -0.33886633277E+03  0.17899234131E+04  0.17575538208E+04 0.  0.
        5    1    3    3  502    0 -0.30840138449E+03 -0.16936452865E+03 -0.98951596767E+03  0.10502188809E+04  0.46999998093E+01 0. -1.
       -5    1    3    3    0  502  0.30840138449E+03  0.16936452865E+03  0.65064963490E+03  0.73970453217E+03  0.46999998093E+01 0.  1.
</event>
<event>
 5   0  0.3568870E-04  0.1793152E+04  0.7818609E-02  0.8709950E-01
       -2   -1    0    0    0  501  0.00000000000E+00  0.00000000000E+00  0.86865060790E+03  0.86865060790E+03  0.25500000920E-02 0. -1.
        2   -1    0    0  501    0  0.00000000000E+00  0.00000000000E+00 -0.92539924770E+03  0.92539924770E+03  0.25500000920E-02 0.  1.
    10030    2    1    2    0    0  0.00000000000E+00  0.00000000000E+00 -0.56748639798E+02  0.17940498556E+04  0.17931521063E+04 0.  0.
        1    1    3    3  502    0 -0.57474723307E+03 -0.32208654497E+03 -0.63676962374E+03  0.91626943533E+03  0.50400001928E-02 0. -1.
       -1    1    3    3    0  502  0.57474723307E+03  0.32208654497E+03  0.58002098394E+03  0.87778042027E+03  0.50400001928E-02 0.  1.
</event>
<event>
 5   0  0.3582186E-04  0.1796047E+04  0.7818609E-02  0.8708405E-01
        2   -1    0    0  501    0  0.00000000000E+00  0.00000000000E+00  0.15579858189E+04  0.15579858189E+04  0.25500000920E-02 0.  1.
       -2   -1    0    0    0  501  0.00000000000E+00  0.00000000000E+00 -0.51762096242E+03  0.51762096243E+03  0.25500000920E-02 0. -1.
    10030    2    1    2    0    0  0.00000000000E+00  0.00000000000E+00  0.10403648565E+04  0.20756067813E+04  0.17960469025E+04 0.  0.
        4    1    3    3  502    0 -0.50504561776E+03 -0.37103075916E+03  0.12635013865E+04  0.14103801852E+04  0.12699999809E+01 0.  1.
       -4    1    3    3    0  502  0.50504561776E+03  0.37103075916E+03 -0.22313653001E+03  0.66522659612E+03  0.12699999809E+01 0. -1.
</event>
<event>
 5   0  0.3582186E-04  0.1782900E+04  0.7818609E-02  0.8715446E-01
       -2   -1    0    0    0  501  0.00000000000E+00  0.00000000000E+00  0.46315737261E+03  0.46315737262E+03  0.25500000920E-02 0.  1.
        2   -1    0    0  501    0  0.00000000000E+00  0.00000000000E+00 -0.17157952714E+04  0.17157952714E+04  0.25500000920E-02 0. -1.
    10030    2    1    2    0    0  0.00000000000E+00  0.00000000000E+00 -0.12526378988E+04  0.21789526440E+04  0.17829001429E+04 0.  0.
        4    1    3    3  502    0 -0.10093886754E+03  0.48840981103E+03  0.27669973645E+03  0.57034827565E+03  0.12699999809E+01 0.  1.
       -4    1    3    3    0  502  0.10093886754E+03 -0.48840981103E+03 -0.15293376352E+04  0.16086043683E+04  0.12699999809E+01 0. -1.
</event>
<event>
 5   0  0.1825253E-04  0.1797987E+04  0.7818609E-02  0.8707371E-01
       -1   -1    0    0    0  501  0.00000000000E+00  0.00000000000E+00  0.86162887606E+03  0.86162887607E+03  0.50400001928E-02 0.  1.
        1   -1    0    0  501    0  0.00000000000E+00  0.00000000000E+00 -0.93797840412E+03  0.93797840413E+03  0.50400001928E-02 0. -1.
    10030    2    1    2    0    0  0.00000000000E+00  0.00000000000E+00 -0.76349528061E+02  0.17996072802E+04  0.17979869612E+04 0.  0.
        4    1    3    3  502    0 -0.63138439927E+03  0.19010360130E+03 -0.64979175063E+03  0.92575189492E+03  0.12699999809E+01 0.  1.
       -4    1    3    3    0  502  0.63138439927E+03 -0.19010360130E+03  0.57344222257E+03  0.87385538529E+03  0.12699999809E+01 0. -1.
</event>
<event>
 5   0  0.1818778E-04  0.1816395E+04  0.7818609E-02  0.8697629E-01
       -1   -1    0    0    0  501  0.00000000000E+00  0.00000000000E+00  0.67424810039E+03  0.67424810041E+03  0.50400001928E-02 0.  1.
        1   -1    0    0  501    0  0.00000000000E+00  0.00000000000E+00 -0.12233216809E+04  0.12233216809E+04  0.50400001928E-02 0. -1.
    10030    2    1    2    0    0  0.00000000000E+00  0.00000000000E+00 -0.54907358048E+03  0.18975697813E+04  0.18163945822E+04 0.  0.
        3    1    3    3  502    0  0.60396469901E+03 -0.58183817679E+03  0.89629249676E+02  0.84341118929E+03  0.10100000352E+00 0.  1.
       -3    1    3    3    0  502 -0.60396469901E+03  0.58183817679E+03 -0.63870283016E+03  0.10541585920E+04  0.10100000352E+00 0. -1.
</event>
<event>
 5   0  0.1818778E-04  0.1717699E+04  0.7818609E-02  0.8751334E-01
       -1   -1    0    0    0  501  0.00000000000E+00  0.00000000000E+00  0.43839459595E+03  0.43839459598E+03  0.50400001928E-02 0. -1.
        1   -1    0    0  501    0  0.00000000000E+00  0.00000000000E+00 -0.16825536811E+04  0.16825536811E+04  0.50400001928E-02 0.  1.
    10030    2    1    2    0    0  0.00000000000E+00  0.00000000000E+00 -0.12441590851E+04  0.21209482771E+04  0.17176989739E+04 0.  0.
        3    1    3    3  502    0 -0.34327237972E+03 -0.76935380731E+03 -0.82825593467E+03  0.11814182625E+04  0.10100000352E+00 0.  1.
       -3    1    3    3    0  502  0.34327237972E+03  0.76935380731E+03 -0.41590315048E+03  0.93953001457E+03  0.10100000352E+00 0. -1.
</event>
<event>
 5   0  0.3582186E-04  0.1820080E+04  0.7818609E-02  0.8695694E-01
       -2   -1    0    0    0  501  0.00000000000E+00  0.00000000000E+00  0.91654774618E+03  0.91654774618E+03  0.25500000920E-02 0. -1.
        2   -1    0    0  501    0  0.00000000000E+00  0.00000000000E+00 -0.90357802102E+03  0.90357802102E+03  0.25500000920E-02 0.  1.
    10030    2    1    2    0    0  0.00000000000E+00  0.00000000000E+00  0.12969725159E+02  0.18201257672E+04  0.18200795572E+04 0.  0.
        4    1    3    3  502    0  0.55687633926E+03 -0.24011135034E+03  0.68503437938E+03  0.91489804439E+03  0.12699999809E+01 0. -1.
       -4    1    3    3    0  502 -0.55687633926E+03  0.24011135034E+03 -0.67206465422E+03  0.90522772281E+03  0.12699999809E+01 0.  1.
</event>
<event>
 5   0  0.1825253E-04  0.1827772E+04  0.7818609E-02  0.8691669E-01
        1   -1    0    0  501    0  0.00000000000E+00  0.00000000000E+00  0.14904293287E+04  0.14904293287E+04  0.50400001928E-02 0.  1.
       -1   -1    0    0    0  501  0.00000000000E+00  0.00000000000E+00 -0.56036707863E+03  0.56036707865E+03  0.50400001928E-02 0. -1.
    10030    2    1    2    0    0  0.00000000000E+00  0.00000000000E+00  0.93006225010E+03  0.20507964074E+04  0.18277718992E+04 0.  0.
        4    1    3    3  502    0 -0.52151774073E+03  0.69543003729E+03  0.14850570677E+03  0.88184990135E+03  0.12699999809E+01 0. -1.
       -4    1    3    3    0  502  0.52151774073E+03 -0.69543003729E+03  0.78155654333E+03  0.11689465060E+04  0.12699999809E+01 0.  1.
</event>
<event>
 5   0  0.3568870E-04  0.1781331E+04  0.7818609E-02  0.8716291E-01
       -2   -1    0    0    0  501  0.00000000000E+00  0.00000000000E+00  0.42191815882E+03  0.42191815882E+03  0.25500000920E-02 0.  1.
        2   -1    0    0  501    0  0.00000000000E+00  0.00000000000E+00 -0.18801864301E+04  0.18801864301E+04  0.25500000920E-02 0. -1.
    10030    2    1    2    0    0  0.00000000000E+00  0.00000000000E+00 -0.14582682712E+04  0.23021045889E+04  0.17813307349E+04 0.  0.
        1    1    3    3  502    0  0.18219951248E+03  0.57463156514E+03 -0.15764737156E+04  0.16877995953E+04  0.50400001928E-02 0. -1.
       -1    1    3    3    0  502 -0.18219951248E+03 -0.57463156514E+03  0.11820544435E+03  0.61430499355E+03  0.50400001928E-02 0.  1.
</event>
<event>
 5   0  0.1883959E-04  0.1795687E+04  0.7818609E-02  0.8708596E-01
        1   -1    0    0  501    0  0.00000000000E+00  0.00000000000E+00  0.25022438003E+04  0.25022438003E+04  0.50400001928E-02 0.  1.
       -1   -1    0    0    0  501  0.00000000000E+00  0.00000000000E+00 -0.32216019608E+03  0.32216019612E+03  0.50400001928E-02 0. -1.
    10030    2    1    2    0    0  0.00000000000E+00  0.00000000000E+00  0.21800836042E+04  0.28244039964E+04  0.17956874488E+04 0.  0.
        5    1    3    3  502    0 -0.41810102567E+03  0.75400445591E+03  0.69597268743E+03  0.11080303510E+04  0.46999998093E+01 0. -1.
       -5    1    3    3    0  502  0.41810102567E+03 -0.75400445591E+03  0.14841109168E+04  0.17163736454E+04  0.46999998093E+01 0.  1.
</event>
<event>
 5   0  0.3531266E-04  0.1775198E+04  0.7818609E-02  0.8719601E-01
        2   -1    0    0  501    0  0.00000000000E+00  0.00000000000E+00  0.20479425491E+04  0.20479425491E+04  0.25500000920E-02 0.  1.
       -2   -1    0    0    0  501  0.00000000000E+00  0.00000000000E+00 -0.38469424774E+03  0.38469424775E+03  0.25500000920E-02 0. -1.
    10030    2    1    2    0    0  0.00000000000E+00  0.00000000000E+00  0.16632483014E+04  0.24326367969E+04  0.17751976998E+04 0.  0.
        3    1    3    3  502    0 -0.69527856931E+03  0.24944987203E+03  0.15060161309E+04  0.16774153107E+04  0.10100000352E+00 0.  1.
       -3    1    3    3    0  502  0.69527856931E+03 -0.24944987203E+03  0.15723217044E+03  0.75522148620E+03  0.10100000352E+00 0. -1.
</event>
<event>
 5   0  0.3568870E-04  0.1789478E+04  0.7818609E-02  0.8711915E-01
       -2   -1    0    0    0  501  0.00000000000E+00  0.00000000000E+00  0.68299051296E+03  0.68299051296E+03  0.25500000920E-02 0. -1.
        2   -1    0    0  501    0  0.00000000000E+00  0.00000000000E+00 -0.11721366785E+04  0.11721366785E+04  0.25500000920E-02 0.  1.
    10030    2    1    2    0    0  0.00000000000E+00  0.00000000000E+00 -0.48914616555E+03  0.18551271915E+04  0.17894783947E+04 0.  0.
        1    1    3    3  502    0 -0.53344527684E+03  0.17834050938E+03 -0.96593748152E+03  0.11177676050E+04  0.50400001928E-02 0.  1.
       -1    1    3    3    0  502  0.53344527684E+03 -0.17834050938E+03  0.47679131598E+03  0.73735958642E+03  0.50400001928E-02 0. -1.
</event>
<event>
 5   0  0.1883959E-04  0.1780056E+04  0.7818609E-02  0.8716978E-01
       -1   -1    0    0    0  501  0.00000000000E+00  0.00000000000E+00  0.43694436623E+03  0.43694436626E+03  0.50400001928E-02 0. -1.
        1   -1    0    0  501    0  0.00000000000E+00  0.00000000000E+00 -0.18129310708E+04  0.18129310708E+04  0.50400001928E-02 0.  1.
    10030    2    1    2    0    0  0.00000000000E+00  0.00000000000E+00 -0.13759867046E+04  0.22498754371E+04  0.17800561989E+04 0.  0.
        5    1    3    3  502    0 -0.20497859606E+03  0.73438276592E+03 -0.10769207196E+03  0.77003502783E+03  0.46999998093E+01 0. -1.
       -5    1    3    3    0  502  0.20497859606E+03 -0.73438276592E+03 -0.12682946326E+04  0.14798404092E+04  0.46999998093E+01 0.  1.
</event>
<event>
 5   0  0.1835421E-04  0.1899019E+04  0.7818609E-02  0.8655345E-01
       -1   -1    0    0    0  501  0.00000000000E+00  0.00000000000E+00  0.52643297723E+03  0.52643297725E+03  0.50400001928E-02 0. -1.
        1   -1    0    0  501    0  0.00000000000E+00  0.00000000000E+00 -0.17125984724E+04  0.17125984724E+04  0.50400001928E-02 0.  1.
    10030    2    1    2    0    0  0.00000000000E+00  0.00000000000E+00 -0.11861654952E+04  0.22390314497E+04  0.18990190232E+04 0.  0.
        2    1    3    3  502    0 -0.37901177045E+03 -0.39495176037E+03  0.32167145457E+03  0.63490892249E+03  0.25500000920E-02 0. -1.
       -2    1    3    3    0  502  0.37901177045E+03  0.39495176037E+03 -0.15078369498E+04  0.16041225272E+04  0.25500000920E-02 0.  1.
</event>
<event>
 5   0  0.3628581E-04  0.1786515E+04  0.7818609E-02  0.8713504E-01
       -2   -1    0    0    0  501  0.00000000000E+00  0.00000000000E+00  0.63967295532E+03  0.63967295532E+03  0.25500000920E-02 0.  1.
        2   -1    0    0  501    0  0.00000000000E+00  0.00000000000E+00 -0.12473696584E+04  0.12473696584E+04  0.25500000920E-02 0. -1.
    10030    2    1    2    0    0  0.00000000000E+00  0.00000000000E+00 -0.60769670304E+03  0.18870426137E+04  0.17865146355E+04 0.  0.
        2    1    3    3  502    0  0.29572024142E+03  0.57150219116E+03  0.35056504218E+03  0.73277627179E+03  0.25500000920E-02 0.  1.
       -2    1    3    3    0  502 -0.29572024142E+03 -0.57150219116E+03 -0.95826174521E+03  0.11542663419E+04  0.25500000920E-02 0. -1.
</event>
<event>
 5   0  0.3628581E-04  0.1870713E+04  0.7818609E-02  0.8669573E-01
        2   -1    0    0  501    0  0.00000000000E+00  0.00000000000E+00  0.10010104797E+04  0.10010104797E+04  0.25500000920E-02 0. -1.
       -2   -1    0    0    0  501  0.00000000000E+00  0.00000000000E+00 -0.87400830947E+03  0.87400830947E+03  0.25500000920E-02 0.  1.
    10030    2    1    2    0    0  0.00000000000E+00  0.00000000000E+00  0.12700217019E+03  0.18750187891E+04  0.18707126739E+04 0.  0.
        2    1    3    3  502    0 -0.47080920964E+03 -0.62951523956E+03  0.57156109335E+03  0.97192223566E+03  0.25500000920E-02 0. -1.
       -2    1    3    3    0  502  0.47080920964E+03  0.62951523956E+03 -0.44455892317E+03  0.90309655348E+03  0.25500000920E-02 0.  1.
</event>
<event>
 5   0  0.1818778E-04  0.1788916E+04  0.7818609E-02  0.8712216E-01
        1   -1    0    0  501    0  0.00000000000E+00  0.00000000000E+00  0.13782607724E+04  0.13782607724E+04  0.50400001928E-02 0. -1.
       -1   -1    0    0    0  501  0.00000000000E+00  0.00000000000E+00 -0.58048191517E+03  0.58048191519E+03  0.50400001928E-02 0.  1.
    10030    2    1    2    0    0  0.00000000000E+00  0.00000000000E+00  0.79777885721E+03  0.19587426876E+04  0.17889163790E+04 0.  0.
        3    1    3    3  502    0  0.13621097513E+03 -0.46420880008E+03 -0.42486970871E+03  0.64386141319E+03  0.10100000352E+00 0.  1.
       -3    1    3    3    0  502 -0.13621097513E+03  0.46420880008E+03  0.12226485659E+04  0.13148812744E+04  0.10100000352E+00 0. -1.
</event>
<event>
 5   0  0.1835421E-04  0.1852639E+04  0.7818609E-02  0.8678797E-01
        1   -1    0    0  501    0  0.00000000000E+00  0.00000000000E+00  0.17300044044E+04  0.17300044044E+04  0.50400001928E-02 0. -1.
       -1   -1    0    0    0  501  0.00000000000E+00  0.00000000000E+00 -0.49599191465E+03  0.49599191467E+03  0.50400001928E-02 0.  1.
    10030    2    1    2    0    0  0.00000000000E+00  0.00000000000E+00  0.12340124898E+04  0.22259963191E+04  0.18526394111E+04 0.  0.
        2    1    3    3  502    0  0.60719890904E+03  0.77210732852E+02  0.14524056014E+04  0.15761135884E+04  0.25500000920E-02 0. -1.
       -2    1    3    3    0  502 -0.60719890904E+03 -0.77210732852E+02 -0.21839311169E+03  0.64988273069E+03  0.25500000920E-02 0.  1.
</event>
<event>
 5   0  0.3568870E-04  0.1798067E+04  0.7818609E-02  0.8707328E-01
       -2   -1    0    0    0  501  0.00000000000E+00  0.00000000000E+00  0.47312511404E+03  0.47312511405E+03  0.25500000920E-02 0.  1.
        2   -1    0    0  501    0  0.00000000000E+00  0.00000000000E+00 -0.17083452706E+04  0.17083452706E+04  0.25500000920E-02 0. -1.
    10030    2    1    2    0    0  0.00000000000E+00  0.00000000000E+00 -0.12352201566E+04  0.21814703847E+04  0.17980667963E+04 0.  0.
        1    1    3    3  502    0 -0.38973103573E+03 -0.64791371479E+03 -0.12077176929E+04  0.14248734989E+04  0.50400001928E-02 0. -1.
       -1    1    3    3    0  502  0.38973103573E+03  0.64791371479E+03 -0.27502463650E+02  0.75659688577E+03  0.50400001928E-02 0.  1.
</event>
<event>
 5   0  0.1825253E-04  0.1608275E+04  0.7818609E-02  0.8815481E-01
       -1   -1    0    0    0  501  0.00000000000E+00  0.00000000000E+00  0.13801471439E+04  0.13801471439E+04  0.50400001928E-02 0.  1.
        1   -1    0    0  501    0  0.00000000000E+00  0.00000000000E+00 -0.46852742870E+03  0.46852742873E+03  0.50400001928E-02 0. -1.
    10030    2    1    2    0    0  0.00000000000E+00  0.00000000000E+00  0.91161971519E+03  0.18486745726E+04  0.16082745942E+04 0.  0.
        4    1    3    3  502    0 -0.63958365555E+03 -0.18910722647E+03 -0.60568125432E+02  0.66970060943E+03  0.12699999809E+01 0. -1.
       -4    1    3    3    0  502  0.63958365555E+03  0.18910722647E+03  0.97218784062E+03  0.11789739632E+04  0.12699999809E+01 0.  1.
</event>
<event>
 5   0  0.3568870E-04  0.1770112E+04  0.7818609E-02  0.8722357E-01
       -2   -1    0    0    0  501  0.00000000000E+00  0.00000000000E+00  0.86909676861E+03  0.86909676862E+03  0.25500000920E-02 0. -1.
        2   -1    0    0  501    0  0.00000000000E+00  0.00000000000E+00 -0.90130798910E+03  0.90130798911E+03  0.25500000920E-02 0.  1.
    10030    2    1    2    0    0  0.00000000000E+00  0.00000000000E+00 -0.32211220490E+02  0.17704047577E+04  0.17701117037E+04 0.  0.
        1    1    3    3  502    0 -0.20002874691E+03 -0.85940920745E+03 -0.84878723379E+02  0.88645365539E+03  0.50400001928E-02 0.  1.
       -1    1    3    3    0  502  0.20002874691E+03  0.85940920745E+03  0.52667502889E+02  0.88395110234E+03  0.50400001928E-02 0. -1.
</event>
<event>
 5   0  0.1837313E-04  0.1800460E+04  0.7818609E-02  0.8706055E-01
        1   -1    0    0  501    0  0.00000000000E+00  0.00000000000E+00  0.18801301885E+04  0.18801301885E+04  0.50400001928E-02 0. -1.
       -1   -1    0    0    0  501  0.00000000000E+00  0.00000000000E+00 -0.43104154845E+03  0.43104154848E+03  0.50400001928E-02 0.  1.
    10030    2    1    2    0    0  0.00000000000E+00  0.00000000000E+00  0.14490886401E+04  0.23111717370E+04  0.18004601943E+04 0.  0.
        1    1    3    3  502    0 -0.21895497079E+03 -0.69880860706E+03  0.52443406789E+02  0.73418326014E+03  0.50400001928E-02 0.  1.
       -1    1    3    3    0  502  0.21895497079E+03  0.69880860706E+03  0.13966452333E+04  0.15769884769E+04  0.50400001928E-02 0. -1.
</event>
<event>
 5   0  0.3582186E-04  0.1803174E+04  0.7818609E-02  0.8704614E-01
        2   -1    0    0  501    0  0.00000000000E+00  0.00000000000E+00  0.13819790788E+04  0.13819790788E+04  0.25500000920E-02 0. -1.
       -2   -1    0    0    0  501  0.00000000000E+00  0.00000000000E+00 -0.58818463234E+03  0.58818463234E+03  0.25500000920E-02 0.  1.
    10030    2    1    2    0    0  0.00000000000E+00  0.00000000000E+00  0.79379444647E+03  0.19701637112E+04  0.18031737092E+04 0.  0.
        4    1    3    3  502    0 -0.14364642957E+03  0.54112493902E+03  0.11690299344E+04  0.12961801946E+04  0.12699999809E+01 0. -1.
       -4    1    3    3    0  502  0.14364642957E+03 -0.54112493902E+03 -0.37523548792E+03  0.67398351660E+03  0.12699999809E+01 0.  1.
</event>
<event>
 5   0  0.1883959E-04  0.1795749E+04  0.7818609E-02  0.8708563E-01
        1   -1    0    0  501    0  0.00000000000E+00  0.00000000000E+00  0.15825720428E+04  0.15825720428E+04  0.50400001928E-02 0. -1.
       -1   -1    0    0    0  501  0.00000000000E+00  0.00000000000E+00 -0.50941047135E+03  0.50941047138E+03  0.50400001928E-02 0.  1.
    10030    2    1    2    0    0  0.00000000000E+00  0.00000000000E+00  0.10731615715E+04  0.20919825142E+04  0.17957491699E+04 0.  0.
        5    1    3    3  502    0 -0.52944310027E+03 -0.71862808643E+03  0.64965043967E+03  0.11039946136E+04  0.46999998093E+01 0.  1.
       -5    1    3    3    0  502  0.52944310027E+03  0.71862808643E+03  0.42351113179E+03  0.98798790062E+03  0.46999998093E+01 0. -1.
</event>
<event>
 5   0  0.3531266E-04  0.1777510E+04  0.7818609E-02  0.8718352E-01
        2   -1    0    0  501    0  0.00000000000E+00  0.00000000000E+00  0.42249605182E+03  0.42249605182E+03  0.25500000920E-02 0. -1.
       -2   -1    0    0    0  501  0.00000000000E+00  0.00000000000E+00 -0.18695689806E+04  0.18695689806E+04  0.25500000920E-02 0.  1.
    10030    2    1    2    0    0  0.00000000000E+00  0.00000000000E+00 -0.14470729288E+04  0.22920650324E+04  0.17775100708E+04 0.  0.
        3    1    3    3  502    0 -0.49427885860E+03 -0.67854331940E+03 -0.10998194029E+04  0.13835950837E+04  0.10100000352E+00 0.  1.
       -3    1    3    3    0  502  0.49427885860E+03  0.67854331940E+03 -0.34725352588E+03  0.90846994876E+03  0.10100000352E+00 0. -1.
</event>
<event>
 5   0  0.3628581E-04  0.1787910E+04  0.7818609E-02  0.8712756E-01
       -2   -1    0    0    0  501  0.00000000000E+00  0.00000000000E+00  0.33834993354E+03  0.33834993355E+03  0.25500000920E-02 0. -1.
        2   -1    0    0  501    0  0.00000000000E+00  0.00000000000E+00 -0.23619190624E+04  0.23619190624E+04  0.25500000920E-02 0.  1.
    10030    2    1    2    0    0  0.00000000000E+00  0.00000000000E+00 -0.20235691289E+04  0.27002689959E+04  0.17879095702E+04 0.  0.
        2    1    3    3  502    0 -0.33324767996E+03 -0.21906432924E+03  0.19655627000E+03  0.44460945090E+03  0.25500000920E-02 0. -1.
       -2    1    3    3    0  502  0.33324767996E+03  0.21906432924E+03 -0.22201253989E+04  0.22556595451E+04  0.25500000920E-02 0.  1.
</event>
<event>
 5   0  0.3568870E-04  0.1793628E+04  0.7818609E-02  0.8709696E-01
       -2   -1    0    0    0  501  0.00000000000E+00  0.00000000000E+00  0.72181191472E+03  0.72181191473E+03  0.25500000920E-02 0. -1.
        2   -1    0    0  501    0  0.00000000000E+00  0.00000000000E+00 -0.11142445962E+04  0.11142445962E+04  0.25500000920E-02 0.  1.
    10030    2    1    2    0    0  0.00000000000E+00  0.00000000000E+00 -0.39243268149E+03  0.18360565109E+04  0.17936276375E+04 0.  0.
        1    1    3    3  502    0 -0.85713448437E+03  0.21026138306E+03 -0.33118610431E+02  0.88316828288E+03  0.50400001928E-02 0. -1.
       -1    1    3    3    0  502  0.85713448437E+03 -0.21026138306E+03 -0.35931407106E+03  0.95288822806E+03  0.50400001928E-02 0.  1.
</event>
<event>
 5   0  0.1835421E-04  0.1765468E+04  0.7818609E-02  0.8724882E-01
        1   -1    0    0  501    0  0.00000000000E+00  0.00000000000E+00  0.76885004241E+03  0.76885004243E+03  0.50400001928E-02 0. -1.
       -1   -1    0    0    0  501  0.00000000000E+00  0.00000000000E+00 -0.10134864268E+04  0.10134864268E+04  0.50400001928E-02 0.  1.
    10030    2    1    2    0    0  0.00000000000E+00  0.00000000000E+00 -0.24463638441E+03  0.17823364693E+04  0.17654677366E+04 0.  0.
        2    1    3    3  502    0 -0.18022784460E+03  0.50714737041E+03 -0.82867373451E+03  0.98811977491E+03  0.25500000920E-02 0.  1.
       -2    1    3    3    0  502  0.18022784460E+03 -0.50714737041E+03  0.58403735010E+03  0.79421669436E+03  0.25500000920E-02 0. -1.
</event>
<event>
 5   0  0.3628581E-04  0.1859143E+04  0.7818609E-02  0.8675465E-01
       -2   -1    0    0    0  501  0.00000000000E+00  0.00000000000E+00  0.85722015022E+03  0.85722015023E+03  0.25500000920E-02 0.  1.
        2   -1    0    0  501    0  0.00000000000E+00  0.00000000000E+00 -0.10080293614E+04  0.10080293614E+04  0.25500000920E-02 0. -1.
    10030    2    1    2    0    0  0.00000000000E+00  0.00000000000E+00 -0.15080921118E+03  0.18652495116E+04  0.18591429000E+04 0.  0.
        2    1    3    3  502    0  0.99709429438E+02  0.17520680064E+03  0.83502503584E+03  0.85901467030E+03  0.25500000920E-02 0.  1.
       -2    1    3    3    0  502 -0.99709429438E+02 -0.17520680064E+03 -0.98583424702E+03  0.10062348413E+04  0.25500000920E-02 0. -1.
</event>
<event>
 5   0  0.1818778E-04  0.1918460E+04  0.7818609E-02  0.8645722E-01
        1   -1    0    0  501    0  0.00000000000E+00  0.00000000000E+00  0.18060211347E+04  0.18060211347E+04  0.50400001928E-02 0.  1.
       -1   -1    0    0    0  501  0.00000000000E+00  0.00000000000E+00 -0.50947499453E+03  0.50947499455E+03  0.50400001928E-02 0. -1.
    10030    2    1    2    0    0  0.00000000000E+00  0.00000000000E+00  0.12965461402E+04  0.23154961293E+04  0.19184604325E+04 0.  0.
        3    1    3    3  502    0 -0.90345912854E+03 -0.31547634284E+03  0.56858770706E+03  0.11131287934E+04  0.10100000352E+00 0.  1.
       -3    1    3    3    0  502  0.90345912854E+03  0.31547634284E+03  0.72795843313E+03  0.12023673359E+04  0.10100000352E+00 0. -1.
</event>
<event>
 5   0  0.1825253E-04  0.1672690E+04  0.7818609E-02  0.8777096E-01
        1   -1    0    0  501    0  0.00000000000E+00  0.00000000000E+00  0.78854397982E+03  0.78854397984E+03  0.50400001928E-02 0. -1.
       -1   -1    0    0    0  501  0.00000000000E+00  0.00000000000E+00 -0.88704331332E+03  0.88704331334E+03  0.50400001928E-02 0.  1.
    10030    2    1    2    0    0  0.00000000000E+00  0.00000000000E+00 -0.98499333502E+02  0.16755872932E+04  0.16726896479E+04 0.  0.
        4    1    3    3  502    0  0.14135441225E+03  0.63499400965E+03  0.47727726273E+03  0.80684178163E+03  0.12699999809E+01 0. -1.
       -4    1    3    3    0  502 -0.14135441225E+03 -0.63499400965E+03 -0.57577659623E+03  0.86874551154E+03  0.12699999809E+01 0.  1.
</event>
<event>
 5   0  0.1835421E-04  0.1800634E+04  0.7818609E-02  0.8705962E-01
        1   -1    0    0  501    0  0.00000000000E+00  0.00000000000E+00  0.13525360868E+04  0.13525360868E+04  0.50400001928E-02 0.  1.
       -1   -1    0    0    0  501  0.00000000000E+00  0.00000000000E+00 -0.59929678625E+03  0.59929678627E+03  0.50400001928E-02 0. -1.
    10030    2    1    2    0    0  0.00000000000E+00  0.00000000000E+00  0.75323930056E+03  0.19518328731E+04  0.18006338108E+04 0.  0.
        2    1    3    3  502    0 -0.41779078453E+03 -0.76386891133E+03  0.12819021282E+03  0.88004408072E+03  0.25500000920E-02 0. -1.
       -2    1    3    3    0  502  0.41779078453E+03  0.76386891133E+03  0.62504908774E+03  0.10717887924E+04  0.25500000920E-02 0.  1.
</event>
<event>
 5   0  0.1883959E-04  0.1810381E+04  0.7818609E-02  0.8700798E-01
       -1   -1    0    0    0  501  0.00000000000E+00  0.00000000000E+00  0.80361029182E+03  0.80361029184E+03  0.50400001928E-02 0. -1.
        1   -1    0    0  501    0  0.00000000000E+00  0.00000000000E+00 -0.10196108742E+04  0.10196108742E+04  0.50400001928E-02 0.  1.
    10030    2    1    2    0    0  0.00000000000E+00  0.00000000000E+00 -0.21600058234E+03  0.18232211660E+04  0.18103809457E+04 0.  0.
        5    1    3    3  502    0  0.33823734143E+02  0.80698240210E+03 -0.51953416798E+03  0.96036580738E+03  0.46999998093E+01 0.  1.
       -5    1    3    3    0  502 -0.33823734143E+02 -0.80698240210E+03  0.30353358564E+03  0.86285535862E+03  0.46999998093E+01 0. -1.
</event>
<event>
 5   0  0.3568870E-04  0.1856500E+04  0.7818609E-02  0.8676817E-01
       -2   -1    0    0    0  501  0.00000000000E+00  0.00000000000E+00  0.84008633850E+03  0.84008633851E+03  0.25500000920E-02 0. -1.
        2   -1    0    0  501    0  0.00000000000E+00  0.00000000000E+00 -0.10256666023E+04  0.10256666023E+04  0.25500000920E-02 0.  1.
    10030    2    1    2    0    0  0.00000000000E+00  0.00000000000E+00 -0.18558026381E+03  0.18657529408E+04  0.18565004718E+04 0.  0.
        1    1    3    3  502    0  0.70139063134E+03  0.55869989742E+03 -0.33389014398E+03  0.95685788986E+03  0.50400001928E-02 0.  1.
       -1    1    3    3    0  502 -0.70139063134E+03 -0.55869989742E+03  0.14830988017E+03  0.90889505097E+03  0.50400001928E-02 0. -1.
</event>
<event>
 5   0  0.3582186E-04  0.1809031E+04  0.7818609E-02  0.8701511E-01
       -2   -1    0    0    0  501  0.00000000000E+00  0.00000000000E+00  0.11104653947E+04  0.11104653948E+04  0.25500000920E-02 0.  1.
        2   -1    0    0  501    0  0.00000000000E+00  0.00000000000E+00 -0.73676202732E+03  0.73676202732E+03  0.25500000920E-02 0. -1.
    10030    2    1    2    0    0  0.00000000000E+00  0.00000000000E+00  0.37370336743E+03  0.18472274221E+04  0.18090314928E+04 0.  0.
        4    1    3    3  502    0 -0.58957422603E+03 -0.51885007304E+03  0.64503950213E+03  0.10163074035E+04  0.12699999809E+01 0.  1.
       -4    1    3    3    0  502  0.58957422603E+03  0.51885007304E+03 -0.27133613470E+03  0.83092001853E+03  0.12699999809E+01 0. -1.
</event>
<event>
 5   0  0.3531266E-04  0.1739351E+04  0.7818609E-02  0.8739234E-01
        2   -1    0    0  501    0  0.00000000000E+00  0.00000000000E+00  0.16253290912E+04  0.16253290913E+04  0.25500000920E-02 0.  1.
       -2   -1    0    0    0  501  0.00000000000E+00  0.00000000000E+00 -0.46534320048E+03  0.46534320049E+03  0.25500000920E-02 0. -1.
    10030    2    1    2    0    0  0.00000000000E+00  0.00000000000E+00  0.11599858908E+04  0.20906722917E+04  0.17393514207E+04 0.  0.
        3    1    3    3  502    0  0.46736973350E+03 -0.66750526491E+03  0.21474392673E+03  0.84268185618E+03  0.10100000352E+00 0. -1.
       -3    1    3    3    0  502 -0.46736973350E+03  0.66750526491E+03  0.94524196404E+03  0.12479904356E+04  0.10100000352E+00 0.  1.
</event>
<event>
 5   0  0.1835421E-04  0.1781678E+04  0.7818609E-02  0.8716104E-01
       -1   -1    0    0    0  501  0.00000000000E+00  0.00000000000E+00  0.12095204572E+04  0.12095204572E+04  0.50400001928E-02 0.  1.
        1   -1    0    0  501    0  0.00000000000E+00  0.00000000000E+00 -0.65612269596E+03  0.65612269598E+03  0.50400001928E-02 0. -1.
    10030    2    1    2    0    0  0.00000000000E+00  0.00000000000E+00  0.55339776122E+03  0.18656431532E+04  0.17816776624E+04 0.  0.
        2    1    3    3  502    0  0.36530552812E+03 -0.47373110012E+03  0.96790162386E+03  0.11378500945E+04  0.25500000920E-02 0.  1.
       -2    1    3    3    0  502 -0.36530552812E+03  0.47373110012E+03 -0.41450386263E+03  0.72779305866E+03  0.25500000920E-02 0. -1.
</event>
<event>
 5   0  0.1330125E-04  0.1748079E+04  0.7818609E-02  0.8734408E-01
       -4   -1    0    0    0  501  0.00000000000E+00  0.00000000000E+00  0.12789025252E+04  0.12789031558E+04  0.12699999809E+01 0.  1.
        4   -1    0    0  501    0  0.00000000000E+00  0.00000000000E+00 -0.59734278054E+03  0.59734413060E+03  0.12699999809E+01 0. -1.
    10030    2    1    2    0    0  0.00000000000E+00  0.00000000000E+00  0.68155974471E+03  0.18762472864E+04  0.17480790011E+04 0.  0.
        2    1    3    3  502    0 -0.64897370335E+03 -0.44899099899E+03 -0.62515933946E+02  0.79162366489E+03  0.25500000920E-02 0. -1.
       -2    1    3    3    0  502  0.64897370335E+03  0.44899099899E+03  0.74407567866E+03  0.10846236215E+04  0.25500000920E-02 0.  1.
</event>
<event>
 5   0  0.1330125E-04  0.1803262E+04  0.7818609E-02  0.8704567E-01
       -3   -1    0    0    0  501  0.00000000000E+00  0.00000000000E+00  0.68667189929E+03  0.68667190672E+03  0.10100000352E+00 0. -1.
        3   -1    0    0  501    0  0.00000000000E+00  0.00000000000E+00 -0.11838823266E+04  0.11838823309E+04  0.10100000352E+00 0.  1.
    10030    2    1    2    0    0  0.00000000000E+00  0.00000000000E+00 -0.49721042730E+03  0.18705542376E+04  0.18032623067E+04 0.  0.
        2    1    3    3  502    0  0.87319094452E+03  0.15865030982E+02 -0.16133725755E+02  0.87348407079E+03  0.25500000920E-02 0. -1.
       -2    1    3    3    0  502 -0.87319094452E+03 -0.15865030982E+02 -0.48107670154E+03  0.99707016683E+03  0.25500000920E-02 0.  1.
</event>
<event>
 5   0  0.1883959E-04  0.1801028E+04  0.7818609E-02  0.8705753E-01
        1   -1    0    0  501    0  0.00000000000E+00  0.00000000000E+00  0.14937986499E+04  0.14937986499E+04  0.50400001928E-02 0. -1.
       -1   -1    0    0    0  501  0.00000000000E+00  0.00000000000E+00 -0.54286124240E+03  0.54286124242E+03  0.50400001928E-02 0.  1.
    10030    2    1    2    0    0  0.00000000000E+00  0.00000000000E+00  0.95093740752E+03  0.20366598923E+04  0.18010279187E+04 0.  0.
        5    1    3    3  502    0 -0.79726404164E+03 -0.11210005551E+03  0.19325628124E+02  0.80535206242E+03  0.46999998093E+01 0.  1.
       -5    1    3    3    0  502  0.79726404164E+03  0.11210005551E+03  0.93161177940E+03  0.12313078299E+04  0.46999998093E+01 0. -1.
</event>
<event>
 5   0  0.1825253E-04  0.1802691E+04  0.7818609E-02  0.8704870E-01
        1   -1    0    0  501    0  0.00000000000E+00  0.00000000000E+00  0.12072277068E+04  0.12072277068E+04  0.50400001928E-02 0.  1.
       -1   -1    0    0    0  501  0.00000000000E+00  0.00000000000E+00 -0.67296639623E+03  0.67296639625E+03  0.50400001928E-02 0. -1.
    10030    2    1    2    0    0  0.00000000000E+00  0.00000000000E+00  0.53426131054E+03  0.18801941030E+04  0.18026909655E+04 0.  0.
        4    1    3    3  502    0 -0.75686541838E+02 -0.90899780181E+02 -0.66483531927E+03  0.67527685974E+03  0.12699999809E+01 0. -1.
       -4    1    3    3    0  502  0.75686541838E+02  0.90899780181E+02  0.11990966298E+04  0.12049172433E+04  0.12699999809E+01 0.  1.
</event>
<event>
 5   0  0.1837313E-04  0.1811586E+04  0.7818609E-02  0.8700162E-01
       -1   -1    0    0    0  501  0.00000000000E+00  0.00000000000E+00  0.82299214967E+03  0.82299214969E+03  0.50400001928E-02 0.  1.
        1   -1    0    0  501    0  0.00000000000E+00  0.00000000000E+00 -0.99692418027E+03  0.99692418028E+03  0.50400001928E-02 0. -1.
    10030    2    1    2    0    0  0.00000000000E+00  0.00000000000E+00 -0.17393203060E+03  0.18199163300E+04  0.18115857962E+04 0.  0.
        1    1    3    3  502    0  0.42960757471E+03 -0.37470310934E+02  0.71324827497E+03  0.83348053020E+03  0.50400001928E-02 0.  1.
       -1    1    3    3    0  502 -0.42960757471E+03  0.37470310934E+02 -0.88718030557E+03  0.98643579977E+03  0.50400001928E-02 0. -1.
</event>
<event>
 5   0  0.3582186E-04  0.1481499E+04  0.7818609E-02  0.8896850E-01
        2   -1    0    0  501    0  0.00000000000E+00  0.00000000000E+00  0.76082470492E+03  0.76082470493E+03  0.25500000920E-02 0.  1.
       -2   -1    0    0    0  501  0.00000000000E+00  0.00000000000E+00 -0.72120394224E+03  0.72120394224E+03  0.25500000920E-02 0. -1.
    10030    2    1    2    0    0  0.00000000000E+00  0.00000000000E+00  0.39620762688E+02  0.14820286472E+04  0.14814989390E+04 0.  0.
        4    1    3    3  502    0 -0.52188489938E+03  0.41490970580E+03  0.34271713857E+03  0.74964695833E+03  0.12699999809E+01 0.  1.
       -4    1    3    3    0  502  0.52188489938E+03 -0.41490970580E+03 -0.30309637588E+03  0.73238168884E+03  0.12699999809E+01 0. -1.
</event>
<event>
 5   0  0.3575091E-04  0.1751025E+04  0.7818609E-02  0.8732786E-01
       -2   -1    0    0    0  501  0.00000000000E+00  0.00000000000E+00  0.49327741065E+03  0.49327741066E+03  0.25500000920E-02 0. -1.
        2   -1    0    0  501    0  0.00000000000E+00  0.00000000000E+00 -0.15539369549E+04  0.15539369549E+04  0.25500000920E-02 0.  1.
    10030    2    1    2    0    0  0.00000000000E+00  0.00000000000E+00 -0.10606595443E+04  0.20472143656E+04  0.17510248398E+04 0.  0.
        5    1    3    3  502    0 -0.34915024070E+03  0.31824683778E+03  0.33144950900E+03  0.57712027113E+03  0.46999998093E+01 0. -1.
       -5    1    3    3    0  502  0.34915024070E+03 -0.31824683778E+03 -0.13921090533E+04  0.14700940944E+04  0.46999998093E+01 0.  1.
</event>
<event>
 5   0  0.1883959E-04  0.1813755E+04  0.7818609E-02  0.8699019E-01
        1   -1    0    0  501    0  0.00000000000E+00  0.00000000000E+00  0.11906019735E+04  0.11906019736E+04  0.50400001928E-02 0.  1.
       -1   -1    0    0    0  501  0.00000000000E+00  0.00000000000E+00 -0.69076516242E+03  0.69076516244E+03  0.50400001928E-02 0. -1.
    10030    2    1    2    0    0  0.00000000000E+00  0.00000000000E+00  0.49983681112E+03  0.18813671360E+04  0.18137545211E+04 0.  0.
        5    1    3    3  502    0 -0.28728716921E+03  0.84984908247E+03  0.11220286365E+03  0.90409565488E+03  0.46999998093E+01 0.  1.
       -5    1    3    3    0  502  0.28728716921E+03 -0.84984908247E+03  0.38763394747E+03  0.97727148111E+03  0.46999998093E+01 0. -1.
</event>
<event>
 5   0  0.3568870E-04  0.1773164E+04  0.7818609E-02  0.8720702E-01
       -2   -1    0    0    0  501  0.00000000000E+00  0.00000000000E+00  0.74003729747E+03  0.74003729747E+03  0.25500000920E-02 0. -1.
        2   -1    0    0  501    0  0.00000000000E+00  0.00000000000E+00 -0.10621456284E+04  0.10621456284E+04  0.25500000920E-02 0.  1.
    10030    2    1    2    0    0  0.00000000000E+00  0.00000000000E+00 -0.32210833092E+03  0.18021829259E+04  0.17731637041E+04 0.  0.
        1    1    3    3  502    0 -0.25646152870E+03 -0.48841246292E+03 -0.86646483840E+03  0.10271711473E+04  0.50400001928E-02 0.  1.
       -1    1    3    3    0  502  0.25646152870E+03  0.48841246292E+03  0.54435650748E+03  0.77501177856E+03  0.50400001928E-02 0. -1.
</event>
<event>
 5   0  0.3628581E-04  0.1806260E+04  0.7818609E-02  0.8702978E-01
       -2   -1    0    0    0  501  0.00000000000E+00  0.00000000000E+00  0.69350062695E+03  0.69350062695E+03  0.25500000920E-02 0.  1.
        2   -1    0    0  501    0  0.00000000000E+00  0.00000000000E+00 -0.11761253302E+04  0.11761253302E+04  0.25500000920E-02 0. -1.
    10030    2    1    2    0    0  0.00000000000E+00  0.00000000000E+00 -0.48262470321E+03  0.18696259571E+04  0.18062598416E+04 0.  0.
        2    1    3    3  502    0  0.84436811200E+03 -0.17273555577E+03  0.38061031663E+02  0.86269561429E+03  0.25500000920E-02 0.  1.
       -2    1    3    3    0  502 -0.84436811200E+03  0.17273555577E+03 -0.52068573487E+03  0.10069303428E+04  0.25500000920E-02 0. -1.
</event>
<event>
 5   0  0.3628581E-04  0.1814404E+04  0.7818609E-02  0.8698677E-01
       -2   -1    0    0    0  501  0.00000000000E+00  0.00000000000E+00  0.61031048247E+03  0.61031048248E+03  0.25500000920E-02 0. -1.
        2   -1    0    0  501    0  0.00000000000E+00  0.00000000000E+00 -0.13485187177E+04  0.13485187177E+04  0.25500000920E-02 0.  1.
    10030    2    1    2    0    0  0.00000000000E+00  0.00000000000E+00 -0.73820823519E+03  0.19588292001E+04  0.18144036036E+04 0.  0.
        2    1    3    3  502    0 -0.54073810387E+03 -0.50339279194E+03 -0.93752438109E+03  0.11936305815E+04  0.25500000920E-02 0. -1.
       -2    1    3    3    0  502  0.54073810387E+03  0.50339279194E+03  0.19931614589E+03  0.76519861864E+03  0.25500000920E-02 0.  1.
</event>
<event>
 5   0  0.1825253E-04  0.1792340E+04  0.7818609E-02  0.8710384E-01
       -1   -1    0    0    0  501  0.00000000000E+00  0.00000000000E+00  0.85497524808E+03  0.85497524810E+03  0.50400001928E-02 0.  1.
        1   -1    0    0  501    0  0.00000000000E+00  0.00000000000E+00 -0.93934944906E+03  0.93934944907E+03  0.50400001928E-02 0. -1.
    10030    2    1    2    0    0  0.00000000000E+00  0.00000000000E+00 -0.84374200974E+02  0.17943246972E+04  0.17923398431E+04 0.  0.
        4    1    3    3  502    0 -0.11509016447E+03  0.35847957539E+03 -0.85633154680E+03  0.93544571349E+03  0.12699999809E+01 0. -1.
       -4    1    3    3    0  502  0.11509016447E+03 -0.35847957539E+03  0.77195734583E+03  0.85887898368E+03  0.12699999809E+01 0.  1.
</event>
<event>
 5   0  0.1837313E-04  0.1788694E+04  0.7818609E-02  0.8712335E-01
        1   -1    0    0  501    0  0.00000000000E+00  0.00000000000E+00  0.48097252005E+03  0.48097252008E+03  0.50400001928E-02 0. -1.
       -1   -1    0    0    0  501  0.00000000000E+00  0.00000000000E+00 -0.16629981410E+04  0.16629981410E+04  0.50400001928E-02 0.  1.
    10030    2    1    2    0    0  0.00000000000E+00  0.00000000000E+00 -0.11820256210E+04  0.21439706611E+04  0.17886938327E+04 0.  0.
        1    1    3    3  502    0  0.27982705295E+03  0.18795394425E+03  0.40191250680E+03  0.52456031862E+03  0.50400001928E-02 0. -1.
       -1    1    3    3    0  502 -0.27982705295E+03 -0.18795394425E+03 -0.15839381278E+04  0.16194103425E+04  0.50400001928E-02 0.  1.
</event>
<event>
 5   0  0.3575091E-04  0.2102707E+04  0.7818609E-02  0.8560052E-01
        2   -1    0    0  501    0  0.00000000000E+00  0.00000000000E+00  0.14327561908E+04  0.14327561908E+04  0.25500000920E-02 0.  1.
       -2   -1    0    0    0  501  0.00000000000E+00  0.00000000000E+00 -0.77148092260E+03  0.77148092261E+03  0.25500000920E-02 0. -1.
    10030    2    1    2    0    0  0.00000000000E+00  0.00000000000E+00  0.66127526815E+03  0.22042371134E+04  0.21027068915E+04 0.  0.
        5    1    3    3  502    0  0.38626172484E+03  0.29670691254E+03  0.13073387083E+04  0.13951307108E+04  0.46999998093E+01 0.  1.
       -5    1    3    3    0  502 -0.38626172484E+03 -0.29670691254E+03 -0.64606344013E+03  0.80910640258E+03  0.46999998093E+01 0. -1.
</event>
<event>
 5   0  0.1883959E-04  0.1861289E+04  0.7818609E-02  0.8674369E-01
       -1   -1    0    0    0  501  0.00000000000E+00  0.00000000000E+00  0.71693612759E+03  0.71693612761E+03  0.50400001928E-02 0. -1.
        1   -1    0    0  501    0  0.00000000000E+00  0.00000000000E+00 -0.12080561673E+04  0.12080561673E+04  0.50400001928E-02 0.  1.
    10030    2    1    2    0    0  0.00000000000E+00  0.00000000000E+00 -0.49112003967E+03  0.19249922949E+04  0.18612889195E+04 0.  0.
        5    1    3    3  502    0 -0.33774529216E+03 -0.16990714044E+02 -0.11422498242E+04  0.11912671059E+04  0.46999998093E+01 0.  1.
       -5    1    3    3    0  502  0.33774529216E+03  0.16990714044E+02  0.65112978449E+03  0.73372518901E+03  0.46999998093E+01 0. -1.
</event>
<event>
 5   0  0.3628581E-04  0.1725842E+04  0.7818609E-02  0.8746761E-01
        2   -1    0    0  501    0  0.00000000000E+00  0.00000000000E+00  0.11089029780E+04  0.11089029780E+04  0.25500000920E-02 0.  1.
       -2   -1    0    0    0  501  0.00000000000E+00  0.00000000000E+00 -0.67150396464E+03  0.67150396464E+03  0.25500000920E-02 0. -1.
    10030    2    1    2    0    0  0.00000000000E+00  0.00000000000E+00  0.43739901341E+03  0.17804069427E+04  0.17258421088E+04 0.  0.
        2    1    3    3  502    0  0.27346266716E+03 -0.76514525466E+03  0.51840785830E+03  0.96383390613E+03  0.25500000920E-02 0.  1.
       -2    1    3    3    0  502 -0.27346266716E+03  0.76514525466E+03 -0.81008844891E+02  0.81657303655E+03  0.25500000920E-02 0. -1.
</event>
<event>
 5   0  0.3582186E-04  0.1834111E+04  0.7818609E-02  0.8688367E-01
        2   -1    0    0  501    0  0.00000000000E+00  0.00000000000E+00  0.86686460120E+03  0.86686460120E+03  0.25500000920E-02 0.  1.
       -2   -1    0    0    0  501  0.00000000000E+00  0.00000000000E+00 -0.97015232614E+03  0.97015232614E+03  0.25500000920E-02 0. -1.
    10030    2    1    2    0    0  0.00000000000E+00  0.00000000000E+00 -0.10328772494E+03  0.18370169273E+04  0.18341109119E+04 0.  0.
        4    1    3    3  502    0 -0.26796365016E+03  0.51530203819E+02  0.82525987264E+03  0.86920385986E+03  0.12699999809E+01 0.  1.
       -4    1    3    3    0  502  0.26796365016E+03 -0.51530203819E+02 -0.92854759758E+03  0.96781306748E+03  0.12699999809E+01 0. -1.
</event>
<event>
 5   0  0.1825253E-04  0.1773220E+04  0.7818609E-02  0.8720672E-01
        1   -1    0    0  501    0  0.00000000000E+00  0.00000000000E+00  0.10746801684E+04  0.10746801684E+04  0.50400001928E-02 0.  1.
       -1   -1    0    0    0  501  0.00000000000E+00  0.00000000000E+00 -0.73145253927E+03  0.73145253928E+03  0.50400001928E-02 0. -1.
    10030    2    1    2    0    0  0.00000000000E+00  0.00000000000E+00  0.34322762913E+03  0.18061327077E+04  0.17732202775E+04 0.  0.
        4    1    3    3  502    0  0.35774751109E+03  0.28642486938E+03 -0.60145535697E+03  0.75615649624E+03  0.12699999809E+01 0. -1.
       -4    1    3    3    0  502 -0.35774751109E+03 -0.28642486938E+03  0.94468298610E+03  0.10499762115E+04  0.12699999809E+01 0.  1.
</event>
<event>
 5   0  0.3575091E-04  0.1827581E+04  0.7818609E-02  0.8691768E-01
       -2   -1    0    0    0  501  0.00000000000E+00  0.00000000000E+00  0.90879283663E+03  0.90879283664E+03  0.25500000920E-02 0. -1.
        2   -1    0    0  501    0  0.00000000000E+00  0.00000000000E+00 -0.91881576093E+03  0.91881576094E+03  0.25500000920E-02 0.  1.
    10030    2    1    2    0    0  0.00000000000E+00  0.00000000000E+00 -0.10022924299E+02  0.18276085976E+04  0.18275811136E+04 0.  0.
        5    1    3    3  502    0  0.35922536391E+03 -0.74736025878E+03 -0.38894544950E+03  0.91590985974E+03  0.46999998093E+01 0.  1.
       -5    1    3    3    0  502 -0.35922536391E+03  0.74736025878E+03  0.37892252520E+03  0.91169873784E+03  0.46999998093E+01 0. -1.
</event>
<event>
 5   0  0.3531266E-04  0.1798132E+04  0.7818609E-02  0.8707294E-01
       -2   -1    0    0    0  501  0.00000000000E+00  0.00000000000E+00  0.95502360395E+03  0.95502360395E+03  0.25500000920E-02 0. -1.
        2   -1    0    0  501    0  0.00000000000E+00  0.00000000000E+00 -0.84638666084E+03  0.84638666084E+03  0.25500000920E-02 0.  1.
    10030    2    1    2    0    0  0.00000000000E+00  0.00000000000E+00  0.10863694311E+03  0.18014102648E+04  0.17981315182E+04 0.  0.
        3    1    3    3  502    0  0.35955663053E+03  0.30763880508E+03  0.82017078533E+03  0.94689108785E+03  0.10100000352E+00 0. -1.
       -3    1    3    3    0  502 -0.35955663053E+03 -0.30763880508E+03 -0.71153384222E+03  0.85451917694E+03  0.10100000352E+00 0.  1.
</event>
<event>
 5   0  0.3582186E-04  0.1766458E+04  0.7818609E-02  0.8724343E-01
       -2   -1    0    0    0  501  0.00000000000E+00  0.00000000000E+00  0.10343619588E+04  0.10343619588E+04  0.25500000920E-02 0.  1.
        2   -1    0    0  501    0  0.00000000000E+00  0.00000000000E+00 -0.75417842287E+03  0.75417842287E+03  0.25500000920E-02 0. -1.
    10030    2    1    2    0    0  0.00000000000E+00  0.00000000000E+00  0.28018353596E+03  0.17885403817E+04  0.17664580049E+04 0.  0.
        4    1    3    3  502    0 -0.46304042166E+02 -0.37368555950E+03 -0.66883685227E+03  0.76754759432E+03  0.12699999809E+01 0. -1.
       -4    1    3    3    0  502  0.46304042166E+02  0.37368555950E+03  0.94902038823E+03  0.10209927874E+04  0.12699999809E+01 0.  1.
</event>
<event>
 5   0  0.1835421E-04  0.1794260E+04  0.7818609E-02  0.8709358E-01
       -1   -1    0    0    0  501  0.00000000000E+00  0.00000000000E+00  0.58408288120E+03  0.58408288122E+03  0.50400001928E-02 0. -1.
        1   -1    0    0  501    0  0.00000000000E+00  0.00000000000E+00 -0.13779595557E+04  0.13779595557E+04  0.50400001928E-02 0.  1.
    10030    2    1    2    0    0  0.00000000000E+00  0.00000000000E+00 -0.79387667449E+03  0.19620424369E+04  0.17942603908E+04 0.  0.
        2    1    3    3  502    0 -0.57484059824E+03 -0.62326829831E+03 -0.76374675472E+02  0.85131555614E+03  0.25500000920E-02 0. -1.
       -2    1    3    3    0  502  0.57484059824E+03  0.62326829831E+03 -0.71750199902E+03  0.11107268808E+04  0.25500000920E-02 0.  1.
</event>
<event>
 5   0  0.3531266E-04  0.1761601E+04  0.7818609E-02  0.8726990E-01
       -2   -1    0    0    0  501  0.00000000000E+00  0.00000000000E+00  0.57076691764E+03  0.57076691764E+03  0.25500000920E-02 0.  1.
        2   -1    0    0  501    0  0.00000000000E+00  0.00000000000E+00 -0.13592409418E+04  0.13592409418E+04  0.25500000920E-02 0. -1.
    10030    2    1    2    0    0  0.00000000000E+00  0.00000000000E+00 -0.78847402416E+03  0.19300078594E+04  0.17616012746E+04 0.  0.
        3    1    3    3  502    0 -0.18599458207E+03 -0.83206552619E+03 -0.15200631488E+03  0.86604442981E+03  0.10100000352E+00 0. -1.
       -3    1    3    3    0  502  0.18599458207E+03  0.83206552619E+03 -0.63646770927E+03  0.10639634296E+04  0.10100000352E+00 0.  1.
</event>
<event>
 5   0  0.1818778E-04  0.1968905E+04  0.7818609E-02  0.8621298E-01
        1   -1    0    0  501    0  0.00000000000E+00  0.00000000000E+00  0.18051250298E+04  0.18051250298E+04  0.50400001928E-02 0.  1.
       -1   -1    0    0    0  501  0.00000000000E+00  0.00000000000E+00 -0.53688638382E+03  0.53688638384E+03  0.50400001928E-02 0. -1.
    10030    2    1    2    0    0  0.00000000000E+00  0.00000000000E+00  0.12682386460E+04  0.23420114137E+04  0.19689053300E+04 0.  0.
        3    1    3    3  502    0 -0.50580956095E+03  0.65285219465E+02  0.16357324803E+04  0.17133961098E+04  0.10100000352E+00 0.  1.
       -3    1    3    3    0  502  0.50580956095E+03 -0.65285219465E+02 -0.36749383427E+03  0.62861530387E+03  0.10100000352E+00 0. -1.
</event>
<event>
 5   0  0.3582186E-04  0.1794434E+04  0.7818609E-02  0.8709265E-01
        2   -1    0    0  501    0  0.00000000000E+00  0.00000000000E+00  0.55955258593E+03  0.55955258594E+03  0.25500000920E-02 0. -1.
       -2   -1    0    0    0  501  0.00000000000E+00  0.00000000000E+00 -0.14386461975E+04  0.14386461975E+04  0.25500000920E-02 0.  1.
    10030    2    1    2    0    0  0.00000000000E+00  0.00000000000E+00 -0.87909361159E+03  0.19981987835E+04  0.17944338384E+04 0.  0.
        4    1    3    3  502    0  0.51129316418E+03  0.70381675016E+03 -0.68406729111E+03  0.11066744730E+04  0.12699999809E+01 0.  1.
       -4    1    3    3    0  502 -0.51129316418E+03 -0.70381675016E+03 -0.19502632047E+03  0.89152431045E+03  0.12699999809E+01 0. -1.
</event>
<event>
 5   0  0.1837313E-04  0.1794789E+04  0.7818609E-02  0.8709075E-01
        1   -1    0    0  501    0  0.00000000000E+00  0.00000000000E+00  0.61425936428E+03  0.61425936430E+03  0.50400001928E-02 0.  1.
       -1   -1    0    0    0  501  0.00000000000E+00  0.00000000000E+00 -0.13110374188E+04  0.13110374188E+04  0.50400001928E-02 0. -1.
    10030    2    1    2    0    0  0.00000000000E+00  0.00000000000E+00 -0.69677805455E+03  0.19252967832E+04  0.17947891369E+04 0.  0.
        1    1    3    3  502    0 -0.27407728585E+03  0.55957686547E+03 -0.10411604595E+04  0.12133671041E+04  0.50400001928E-02 0. -1.
       -1    1    3    3    0  502  0.27407728585E+03 -0.55957686547E+03  0.34438240494E+03  0.71192967900E+03  0.50400001928E-02 0.  1.
</event>
<event>
 5   0  0.3575091E-04  0.1778949E+04  0.7818609E-02  0.8717575E-01
       -2   -1    0    0    0  501  0.00000000000E+00  0.00000000000E+00  0.78669145655E+03  0.78669145656E+03  0.25500000920E-02 0. -1.
        2   -1    0    0  501    0  0.00000000000E+00  0.00000000000E+00 -0.10056859697E+04  0.10056859698E+04  0.25500000920E-02 0.  1.
    10030    2    1    2    0    0  0.00000000000E+00  0.00000000000E+00 -0.21899451319E+03  0.17923774263E+04  0.17789486338E+04 0.  0.
        5    1    3    3  502    0 -0.61125306157E+03  0.46258553870E+03 -0.56404221282E+03  0.95172548234E+03  0.46999998093E+01 0.  1.
       -5    1    3    3    0  502  0.61125306157E+03 -0.46258553870E+03  0.34504769963E+03  0.84065194397E+03  0.46999998093E+01 0. -1.
</event>
<event>
 5   0  0.1883959E-04  0.1799596E+04  0.7818609E-02  0.8706514E-01
        1   -1    0    0  501    0  0.00000000000E+00  0.00000000000E+00  0.85114543604E+03  0.85114543605E+03  0.50400001928E-02 0. -1.
       -1   -1    0    0    0  501  0.00000000000E+00  0.00000000000E+00 -0.95123177577E+03  0.95123177579E+03  0.50400001928E-02 0.  1.
    10030    2    1    2    0    0  0.00000000000E+00  0.00000000000E+00 -0.10008633974E+03  0.18023772118E+04  0.17995961598E+04 0.  0.
        5    1    3    3  502    0 -0.19343041973E+03 -0.44767810479E+03 -0.80737538749E+03  0.94324340395E+03  0.46999998093E+01 0.  1.
       -5    1    3    3    0  502  0.19343041973E+03  0.44767810479E+03  0.70728904775E+03  0.85913380788E+03  0.46999998093E+01 0. -1.
</event>
<event>
 5   0  0.1883959E-04  0.1626357E+04  0.7818609E-02  0.8804517E-01
       -1   -1    0    0    0  501  0.00000000000E+00  0.00000000000E+00  0.92877645256E+03  0.92877645258E+03  0.50400001928E-02 0. -1.
        1   -1    0    0  501    0  0.00000000000E+00  0.00000000000E+00 -0.71196858557E+03  0.71196858559E+03  0.50400001928E-02 0.  1.
    10030    2    1    2    0    0  0.00000000000E+00  0.00000000000E+00  0.21680786699E+03  0.16407450382E+04  0.16263574727E+04 0.  0.
        5    1    3    3  502    0  0.57974723602E+03 -0.46995013925E+03  0.43418103432E+03  0.86342066898E+03  0.46999998093E+01 0.  1.
       -5    1    3    3    0  502 -0.57974723602E+03  0.46995013925E+03 -0.21737316733E+03  0.77732436919E+03  0.46999998093E+01 0. -1.
</event>
<event>
 5   0  0.3575091E-04  0.1774520E+04  0.7818609E-02  0.8719968E-01
       -2   -1    0    0    0  501  0.00000000000E+00  0.00000000000E+00  0.59957204345E+03  0.59957204346E+03  0.25500000920E-02 0. -1.
        2   -1    0    0  501    0  0.00000000000E+00  0.00000000000E+00 -0.13129865594E+04  0.13129865594E+04  0.25500000920E-02 0.  1.
    10030    2    1    2    0    0  0.00000000000E+00  0.00000000000E+00 -0.71341451599E+03  0.19125586029E+04  0.17745196922E+04 0.  0.
        5    1    3    3  502    0 -0.84890437242E+03  0.12364127929E+03 -0.60077872941E+03  0.10473218088E+04  0.46999998093E+01 0. -1.
       -5    1    3    3    0  502  0.84890437242E+03 -0.12364127929E+03 -0.11263578658E+03  0.86523679411E+03  0.46999998093E+01 0.  1.
</event>
<event>
 5   0  0.1825253E-04  0.1757665E+04  0.7818609E-02  0.8729143E-01
       -1   -1    0    0    0  501  0.00000000000E+00  0.00000000000E+00  0.10325603218E+04  0.10325603218E+04  0.50400001928E-02 0.  1.
        1   -1    0    0  501    0  0.00000000000E+00  0.00000000000E+00 -0.74799156564E+03  0.74799156565E+03  0.50400001928E-02 0. -1.
    10030    2    1    2    0    0  0.00000000000E+00  0.00000000000E+00  0.28456875616E+03  0.17805518875E+04  0.17576648278E+04 0.  0.
        4    1    3    3  502    0 -0.32459077123E+03 -0.79838870548E+03  0.31645660478E+03  0.91811224227E+03  0.12699999809E+01 0. -1.
       -4    1    3    3    0  502  0.32459077123E+03  0.79838870548E+03 -0.31887848616E+02  0.86243964519E+03  0.12699999809E+01 0.  1.
</event>
<event>
 5   0  0.1825253E-04  0.1812533E+04  0.7818609E-02  0.8699663E-01
       -1   -1    0    0    0  501  0.00000000000E+00  0.00000000000E+00  0.20612170975E+04  0.20612170975E+04  0.50400001928E-02 0. -1.
        1   -1    0    0  501    0  0.00000000000E+00  0.00000000000E+00 -0.39846321869E+03  0.39846321872E+03  0.50400001928E-02 0.  1.
    10030    2    1    2    0    0  0.00000000000E+00  0.00000000000E+00  0.16627538788E+04  0.24596803162E+04  0.18125332539E+04 0.  0.
        4    1    3    3  502    0 -0.83948347340E+03 -0.20835786265E+03  0.11984608910E+04  0.14779903996E+04  0.12699999809E+01 0. -1.
       -4    1    3    3    0  502  0.83948347340E+03  0.20835786265E+03  0.46429298778E+03  0.98168991665E+03  0.12699999809E+01 0.  1.
</event>
<event>
 5   0  0.1883959E-04  0.1365195E+04  0.7818609E-02  0.8979405E-01
       -1   -1    0    0    0  501  0.00000000000E+00  0.00000000000E+00  0.12880901038E+04  0.12880901038E+04  0.50400001928E-02 0. -1.
        1   -1    0    0  501    0  0.00000000000E+00  0.00000000000E+00 -0.36172889630E+03  0.36172889633E+03  0.50400001928E-02 0.  1.
    10030    2    1    2    0    0  0.00000000000E+00  0.00000000000E+00  0.92636120753E+03  0.16498190002E+04  0.13651950947E+04 0.  0.
        5    1    3    3  502    0  0.16083751186E+03 -0.73598845419E+02  0.12598944119E+04  0.12722584306E+04  0.46999998093E+01 0. -1.
       -5    1    3    3    0  502 -0.16083751186E+03  0.73598845419E+02 -0.33353320434E+03  0.37756056953E+03  0.46999998093E+01 0.  1.
</event>
<event>
 5   0  0.1835421E-04  0.1506779E+04  0.7818609E-02  0.8879958E-01
       -1   -1    0    0    0  501  0.00000000000E+00  0.00000000000E+00  0.99978658034E+03  0.99978658035E+03  0.50400001928E-02 0. -1.
        1   -1    0    0  501    0  0.00000000000E+00  0.00000000000E+00 -0.56771657230E+03  0.56771657232E+03  0.50400001928E-02 0.  1.
    10030    2    1    2    0    0  0.00000000000E+00  0.00000000000E+00  0.43207000804E+03  0.15675031527E+04  0.15067785643E+04 0.  0.
        2    1    3    3  502    0  0.58508819999E+03  0.45191948006E+03  0.65151941535E+02  0.74216183796E+03  0.25500000920E-02 0.  1.
       -2    1    3    3    0  502 -0.58508819999E+03 -0.45191948006E+03  0.36691806651E+03  0.82534131471E+03  0.25500000920E-02 0. -1.
</event>
<event>
 5   0  0.1825253E-04  0.1811986E+04  0.7818609E-02  0.8699951E-01
       -1   -1    0    0    0  501  0.00000000000E+00  0.00000000000E+00  0.58774865237E+03  0.58774865240E+03  0.50400001928E-02 0. -1.
        1   -1    0    0  501    0  0.00000000000E+00  0.00000000000E+00 -0.13965545610E+04  0.13965545611E+04  0.50400001928E-02 0.  1.
    10030    2    1    2    0    0  0.00000000000E+00  0.00000000000E+00 -0.80880590867E+03  0.19843032134E+04  0.18119857188E+04 0.  0.
        4    1    3    3  502    0  0.32915533565E+03  0.42136228960E+03  0.39654181293E+03  0.66568493778E+03  0.12699999809E+01 0. -1.
       -4    1    3    3    0  502 -0.32915533565E+03 -0.42136228960E+03 -0.12053477216E+04  0.13186182757E+04  0.12699999809E+01 0.  1.
</event>
<event>
 5   0  0.1825253E-04  0.1771808E+04  0.7818609E-02  0.8721437E-01
       -1   -1    0    0    0  501  0.00000000000E+00  0.00000000000E+00  0.14484362595E+04  0.14484362595E+04  0.50400001928E-02 0. -1.
        1   -1    0    0  501    0  0.00000000000E+00  0.00000000000E+00 -0.54184357068E+03  0.54184357070E+03  0.50400001928E-02 0.  1.
    10030    2    1    2    0    0  0.00000000000E+00  0.00000000000E+00  0.90659268884E+03  0.19902798302E+04  0.17718079747E+04 0.  0.
        4    1    3    3  502    0 -0.89902033413E+02  0.30005291433E+03  0.13841560222E+04  0.14191559582E+04  0.12699999809E+01 0. -1.
       -4    1    3    3    0  502  0.89902033413E+02 -0.30005291433E+03 -0.47756333332E+03  0.57112387206E+03  0.12699999809E+01 0.  1.
</event>
<event>
 5   0  0.1837313E-04  0.1732141E+04  0.7818609E-02  0.8743243E-01
        1   -1    0    0  501    0  0.00000000000E+00  0.00000000000E+00  0.15851101920E+04  0.15851101920E+04  0.50400001928E-02 0.  1.
       -1   -1    0    0    0  501  0.00000000000E+00  0.00000000000E+00 -0.47320245392E+03  0.47320245394E+03  0.50400001928E-02 0. -1.
    10030    2    1    2    0    0  0.00000000000E+00  0.00000000000E+00  0.11119077381E+04  0.20583126459E+04  0.17321409095E+04 0.  0.
        1    1    3    3  502    0 -0.45126082529E+03 -0.23330817865E+03  0.13894712189E+04  0.14794253299E+04  0.50400001928E-02 0.  1.
       -1    1    3    3    0  502  0.45126082529E+03  0.23330817865E+03 -0.27756348086E+03  0.57888731598E+03  0.50400001928E-02 0. -1.
</event>
<event>
 5   0  0.3628581E-04  0.1611908E+04  0.7818609E-02  0.8813266E-01
       -2   -1    0    0    0  501  0.00000000000E+00  0.00000000000E+00  0.83326414343E+03  0.83326414344E+03  0.25500000920E-02 0.  1.
        2   -1    0    0  501    0  0.00000000000E+00  0.00000000000E+00 -0.77953903826E+03  0.77953903827E+03  0.25500000920E-02 0. -1.
    10030    2    1    2    0    0  0.00000000000E+00  0.00000000000E+00  0.53725105168E+02  0.16128031817E+04  0.16119080979E+04 0.  0.
        2    1    3    3  502    0  0.38567220360E+03  0.70765988707E+03  0.32896207590E+02  0.80660258174E+03  0.25500000920E-02 0.  1.
       -2    1    3    3    0  502 -0.38567220360E+03 -0.70765988707E+03  0.20828897579E+02  0.80620059996E+03  0.25500000920E-02 0. -1.
</event>
<event>
 5   0  0.1837313E-04  0.1789095E+04  0.7818609E-02  0.8712120E-01
       -1   -1    0    0    0  501  0.00000000000E+00  0.00000000000E+00  0.68492646083E+03  0.68492646085E+03  0.50400001928E-02 0.  1.
        1   -1    0    0  501    0  0.00000000000E+00  0.00000000000E+00 -0.11683222788E+04  0.11683222788E+04  0.50400001928E-02 0. -1.
    10030    2    1    2    0    0  0.00000000000E+00  0.00000000000E+00 -0.48339581800E+03  0.18532487397E+04  0.17890945683E+04 0.  0.
        1    1    3    3  502    0  0.80639505904E+03 -0.37304580229E+03 -0.34924117956E+03  0.95467563254E+03  0.50400001928E-02 0. -1.
       -1    1    3    3    0  502 -0.80639505904E+03  0.37304580229E+03 -0.13415463844E+03  0.89857310715E+03  0.50400001928E-02 0.  1.
</event>
<event>
 5   0  0.1825253E-04  0.1832978E+04  0.7818609E-02  0.8688956E-01
        1   -1    0    0  501    0  0.00000000000E+00  0.00000000000E+00  0.13347552411E+04  0.13347552411E+04  0.50400001928E-02 0.  1.
       -1   -1    0    0    0  501  0.00000000000E+00  0.00000000000E+00 -0.62929300345E+03  0.62929300347E+03  0.50400001928E-02 0. -1.
    10030    2    1    2    0    0  0.00000000000E+00  0.00000000000E+00  0.70546223766E+03  0.19640482446E+04  0.18329780518E+04 0.  0.
        4    1    3    3  502    0 -0.53551399291E+03 -0.28255713828E+03 -0.38445983699E+03  0.71723409857E+03  0.12699999809E+01 0. -1.
       -4    1    3    3    0  502  0.53551399291E+03  0.28255713828E+03  0.10899220747E+04  0.12468141460E+04  0.12699999809E+01 0.  1.
</event>
<event>
 5   0  0.3575091E-04  0.1866539E+04  0.7818609E-02  0.8671694E-01
       -2   -1    0    0    0  501  0.00000000000E+00  0.00000000000E+00  0.18289431819E+04  0.18289431819E+04  0.25500000920E-02 0. -1.
        2   -1    0    0  501    0  0.00000000000E+00  0.00000000000E+00 -0.47622695049E+03  0.47622695050E+03  0.25500000920E-02 0.  1.
    10030    2    1    2    0    0  0.00000000000E+00  0.00000000000E+00  0.13527162314E+04  0.23051701324E+04  0.18665390798E+04 0.  0.
        5    1    3    3  502    0 -0.52655644678E+03 -0.27942328397E+03  0.15631778651E+04  0.16729872059E+04  0.46999998093E+01 0. -1.
       -5    1    3    3    0  502  0.52655644678E+03  0.27942328397E+03 -0.21046163369E+03  0.63218292647E+03  0.46999998093E+01 0.  1.
</event>
<event>
 5   0  0.3575091E-04  0.1817943E+04  0.7818609E-02  0.8696815E-01
        2   -1    0    0  501    0  0.00000000000E+00  0.00000000000E+00  0.11238701463E+04  0.11238701463E+04  0.25500000920E-02 0.  1.
       -2   -1    0    0    0  501  0.00000000000E+00  0.00000000000E+00 -0.73516436381E+03  0.73516436381E+03  0.25500000920E-02 0. -1.
    10030    2    1    2    0    0  0.00000000000E+00  0.00000000000E+00  0.38870578248E+03  0.18590345101E+04  0.18179431026E+04 0.  0.
        5    1    3    3  502    0  0.58688714838E+03  0.69381761960E+03  0.21449004740E+03  0.93372773581E+03  0.46999998093E+01 0. -1.
       -5    1    3    3    0  502 -0.58688714838E+03 -0.69381761960E+03  0.17421573508E+03  0.92530677429E+03  0.46999998093E+01 0.  1.
</event>
<event>
 5   0  0.1818778E-04  0.1874527E+04  0.7818609E-02  0.8667641E-01
       -1   -1    0    0    0  501  0.00000000000E+00  0.00000000000E+00  0.48187530677E+03  0.48187530680E+03  0.50400001928E-02 0. -1.
        1   -1    0    0  501    0  0.00000000000E+00  0.00000000000E+00 -0.18230084974E+04  0.18230084975E+04  0.50400001928E-02 0.  1.
    10030    2    1    2    0    0  0.00000000000E+00  0.00000000000E+00 -0.13411331907E+04  0.23048838042E+04  0.18745269046E+04 0.  0.
        3    1    3    3  502    0  0.59215868822E+03  0.72208060482E+03 -0.57211973949E+03  0.10951590380E+04  0.10100000352E+00 0. -1.
       -3    1    3    3    0  502 -0.59215868822E+03 -0.72208060482E+03 -0.76901345118E+03  0.12097247663E+04  0.10100000352E+00 0.  1.
</event>
<event>
 5   0  0.1825253E-04  0.1815013E+04  0.7818609E-02  0.8698356E-01
        1   -1    0    0  501    0  0.00000000000E+00  0.00000000000E+00  0.11191894218E+04  0.11191894218E+04  0.50400001928E-02 0.  1.
       -1   -1    0    0    0  501  0.00000000000E+00  0.00000000000E+00 -0.73586117297E+03  0.73586117299E+03  0.50400001928E-02 0. -1.
    10030    2    1    2    0    0  0.00000000000E+00  0.00000000000E+00  0.38332824878E+03  0.18550505948E+04  0.18150129925E+04 0.  0.
        4    1    3    3  502    0 -0.39847503389E+03 -0.47221361975E+03  0.87100551627E+03  0.10679046201E+04  0.12699999809E+01 0.  1.
       -4    1    3    3    0  502  0.39847503389E+03  0.47221361975E+03 -0.48767726749E+03  0.78714597467E+03  0.12699999809E+01 0. -1.
</event>
<event>
 5   0  0.1825253E-04  0.1786363E+04  0.7818609E-02  0.8713586E-01
        1   -1    0    0  501    0  0.00000000000E+00  0.00000000000E+00  0.17666377471E+04  0.17666377471E+04  0.50400001928E-02 0. -1.
       -1   -1    0    0    0  501  0.00000000000E+00  0.00000000000E+00 -0.45157688189E+03  0.45157688192E+03  0.50400001928E-02 0.  1.
    10030    2    1    2    0    0  0.00000000000E+00  0.00000000000E+00  0.13150608652E+04  0.22182146290E+04  0.17863625223E+04 0.  0.
        4    1    3    3  502    0  0.14657490333E+03  0.42805429321E+03  0.16138036473E+04  0.16760305800E+04  0.12699999809E+01 0. -1.
       -4    1    3    3    0  502 -0.14657490333E+03 -0.42805429321E+03 -0.29874278210E+03  0.54218404899E+03  0.12699999809E+01 0.  1.
</event>
<event>
 5   0  0.3582186E-04  0.1801540E+04  0.7818609E-02  0.8705481E-01
       -2   -1    0    0    0  501  0.00000000000E+00  0.00000000000E+00  0.51622099432E+03  0.51622099432E+03  0.25500000920E-02 0. -1.
        2   -1    0    0  501    0  0.00000000000E+00  0.00000000000E+00 -0.15717809598E+04  0.15717809598E+04  0.25500000920E-02 0.  1.
    10030    2    1    2    0    0  0.00000000000E+00  0.00000000000E+00 -0.10555599654E+04  0.20880019541E+04  0.18015397080E+04 0.  0.
        4    1    3    3  502    0 -0.15905038086E+03  0.88635717181E+03 -0.50295829935E+03  0.10314527248E+04  0.12699999809E+01 0. -1.
       -4    1    3    3    0  502  0.15905038086E+03 -0.88635717181E+03 -0.55260166609E+03  0.10565492293E+04  0.12699999809E+01 0.  1.
</event>
<event>
 5   0  0.1330125E-04  0.1795282E+04  0.7818609E-02  0.8708813E-01
       -3   -1    0    0    0  501  0.00000000000E+00  0.00000000000E+00  0.77793043428E+03  0.77793044084E+03  0.10100000352E+00 0. -1.
        3   -1    0    0  501    0  0.00000000000E+00  0.00000000000E+00 -0.10357726373E+04  0.10357726422E+04  0.10100000352E+00 0.  1.
    10030    2    1    2    0    0  0.00000000000E+00  0.00000000000E+00 -0.25784220304E+03  0.18137030831E+04  0.17952816692E+04 0.  0.
        2    1    3    3  502    0  0.19937321242E+03  0.48196844149E+02  0.75393747124E+03  0.78134136212E+03  0.25500000920E-02 0. -1.
       -2    1    3    3    0  502 -0.19937321242E+03 -0.48196844149E+02 -0.10117796743E+04  0.10323617210E+04  0.25500000920E-02 0.  1.
</event>
<event>
 5   0  0.1818778E-04  0.1732728E+04  0.7818609E-02  0.8742916E-01
        1   -1    0    0  501    0  0.00000000000E+00  0.00000000000E+00  0.15436584268E+04  0.15436584268E+04  0.50400001928E-02 0.  1.
       -1   -1    0    0    0  501  0.00000000000E+00  0.00000000000E+00 -0.48623857342E+03  0.48623857345E+03  0.50400001928E-02 0. -1.
    10030    2    1    2    0    0  0.00000000000E+00  0.00000000000E+00  0.10574198534E+04  0.20298970002E+04  0.17327276431E+04 0.  0.
        3    1    3    3  502    0 -0.19726111858E+03 -0.50167622797E+03  0.13232583733E+04  0.14288469894E+04  0.10100000352E+00 0.  1.
       -3    1    3    3    0  502  0.19726111858E+03  0.50167622797E+03 -0.26583851991E+03  0.60105001080E+03  0.10100000352E+00 0. -1.
</event>
<event>
 5   0  0.3628581E-04  0.1816105E+04  0.7818609E-02  0.8697782E-01
       -2   -1    0    0    0  501  0.00000000000E+00  0.00000000000E+00  0.10530864900E+04  0.10530864900E+04  0.25500000920E-02 0. -1.
        2   -1    0    0  501    0  0.00000000000E+00  0.00000000000E+00 -0.78299277788E+03  0.78299277789E+03  0.25500000920E-02 0.  1.
    10030    2    1    2    0    0  0.00000000000E+00  0.00000000000E+00  0.27009371215E+03  0.18360792679E+04  0.18161047505E+04 0.  0.
        2    1    3    3  502    0  0.47408748518E+02 -0.99509428835E+02  0.10462978234E+04  0.10520878533E+04  0.25500000920E-02 0. -1.
       -2    1    3    3    0  502 -0.47408748518E+02  0.99509428835E+02 -0.77620411124E+03  0.78399141461E+03  0.25500000920E-02 0.  1.
</event>
<event>
 5   0  0.3575091E-04  0.1827601E+04  0.7818609E-02  0.8691758E-01
       -2   -1    0    0    0  501  0.00000000000E+00  0.00000000000E+00  0.10665450010E+04  0.10665450010E+04  0.25500000920E-02 0.  1.
        2   -1    0    0  501    0  0.00000000000E+00  0.00000000000E+00 -0.78293147666E+03  0.78293147667E+03  0.25500000920E-02 0. -1.
    10030    2    1    2    0    0  0.00000000000E+00  0.00000000000E+00  0.28361352435E+03  0.18494764777E+04  0.18276013270E+04 0.  0.
        5    1    3    3  502    0 -0.41480603600E+03  0.90293867439E+01  0.96571635469E+03  0.10510831295E+04  0.46999998093E+01 0.  1.
       -5    1    3    3    0  502  0.41480603600E+03 -0.90293867439E+01 -0.68210283034E+03  0.79839334822E+03  0.46999998093E+01 0. -1.
</event>
<event>
 5   0  0.3531266E-04  0.1806136E+04  0.7818609E-02  0.8703043E-01
        2   -1    0    0  501    0  0.00000000000E+00  0.00000000000E+00  0.64091794849E+03  0.64091794849E+03  0.25500000920E-02 0.  1.
       -2   -1    0    0    0  501  0.00000000000E+00  0.00000000000E+00 -0.12724432745E+04  0.12724432745E+04  0.25500000920E-02 0. -1.
    10030    2    1    2    0    0  0.00000000000E+00  0.00000000000E+00 -0.63152532599E+03  0.19133612230E+04  0.18061359119E+04 0.  0.
        3    1    3    3  502    0  0.62486365134E+03  0.48721526003E+03 -0.77472480184E+03  0.11081659718E+04  0.10100000352E+00 0. -1.
       -3    1    3    3    0  502 -0.62486365134E+03 -0.48721526003E+03  0.14319947585E+03  0.80519525113E+03  0.10100000352E+00 0.  1.
</event>
<event>
 5   0  0.1835421E-04  0.1871680E+04  0.7818609E-02  0.8669083E-01
        1   -1    0    0  501    0  0.00000000000E+00  0.00000000000E+00  0.78432221360E+03  0.78432221361E+03  0.50400001928E-02 0.  1.
       -1   -1    0    0    0  501  0.00000000000E+00  0.00000000000E+00 -0.11166287731E+04  0.11166287731E+04  0.50400001928E-02 0. -1.
    10030    2    1    2    0    0  0.00000000000E+00  0.00000000000E+00 -0.33230655954E+03  0.19009509868E+04  0.18716802624E+04 0.  0.
        2    1    3    3  502    0  0.13052785011E+03  0.22307949995E+03 -0.10796607756E+04  0.11101663719E+04  0.25500000920E-02 0. -1.
       -2    1    3    3    0  502 -0.13052785011E+03 -0.22307949995E+03  0.74735421601E+03  0.79078461489E+03  0.25500000920E-02 0.  1.
</event>
<event>
 5   0  0.3531266E-04  0.1782918E+04  0.7818609E-02  0.8715437E-01
       -2   -1    0    0    0  501  0.00000000000E+00  0.00000000000E+00  0.14988901360E+04  0.14988901360E+04  0.25500000920E-02 0.  1.
        2   -1    0    0  501    0  0.00000000000E+00  0.00000000000E+00 -0.53019166955E+03  0.53019166955E+03  0.25500000920E-02 0. -1.
    10030    2    1    2    0    0  0.00000000000E+00  0.00000000000E+00  0.96869846650E+03  0.20290818056E+04  0.17829179047E+04 0.  0.
        3    1    3    3  502    0  0.28121777284E+03 -0.12232412006E+03 -0.46827039522E+03  0.55975333795E+03  0.10100000352E+00 0. -1.
       -3    1    3    3    0  502 -0.28121777284E+03  0.12232412006E+03  0.14369688617E+04  0.14693284676E+04  0.10100000352E+00 0.  1.
</event>
<event>
 5   0  0.1883959E-04  0.1849609E+04  0.7818609E-02  0.8680354E-01
        1   -1    0    0  501    0  0.00000000000E+00  0.00000000000E+00  0.11941326040E+04  0.11941326040E+04  0.50400001928E-02 0.  1.
       -1   -1    0    0    0  501  0.00000000000E+00  0.00000000000E+00 -0.71622176242E+03  0.71622176244E+03  0.50400001928E-02 0. -1.
    10030    2    1    2    0    0  0.00000000000E+00  0.00000000000E+00  0.47791084157E+03  0.19103543664E+04  0.18496094271E+04 0.  0.
        5    1    3    3  502    0 -0.34046339399E+03 -0.10631727956E+03 -0.64230943193E+03  0.73471231303E+03  0.46999998093E+01 0. -1.
       -5    1    3    3    0  502  0.34046339399E+03  0.10631727956E+03  0.11202202735E+04  0.11756420534E+04  0.46999998093E+01 0.  1.
</event>
<event>
 5   0  0.1818778E-04  0.1794224E+04  0.7818609E-02  0.8709377E-01
       -1   -1    0    0    0  501  0.00000000000E+00  0.00000000000E+00  0.11952931371E+04  0.11952931371E+04  0.50400001928E-02 0.  1.
        1   -1    0    0  501    0  0.00000000000E+00  0.00000000000E+00 -0.67331586657E+03  0.67331586659E+03  0.50400001928E-02 0. -1.
    10030    2    1    2    0    0  0.00000000000E+00  0.00000000000E+00  0.52197727049E+03  0.18686090037E+04  0.17942238817E+04 0.  0.
        3    1    3    3  502    0 -0.80498364484E+03  0.32608852867E+03  0.49497492433E+03  0.99966623576E+03  0.10100000352E+00 0.  1.
       -3    1    3    3    0  502  0.80498364484E+03 -0.32608852867E+03  0.27002346161E+02  0.86894276791E+03  0.10100000352E+00 0. -1.
</event>
<event>
 5   0  0.1825253E-04  0.1717510E+04  0.7818609E-02  0.8751440E-01
       -1   -1    0    0    0  501  0.00000000000E+00  0.00000000000E+00  0.74797504006E+03  0.74797504008E+03  0.50400001928E-02 0.  1.
        1   -1    0    0  501    0  0.00000000000E+00  0.00000000000E+00 -0.98594214435E+03  0.98594214436E+03  0.50400001928E-02 0. -1.
    10030    2    1    2    0    0  0.00000000000E+00  0.00000000000E+00 -0.23796710429E+03  0.17339171844E+04  0.17175099591E+04 0.  0.
        4    1    3    3  502    0 -0.24140021470E+03 -0.33579282299E+03 -0.87878706520E+03  0.97123591495E+03  0.12699999809E+01 0. -1.
       -4    1    3    3    0  502  0.24140021470E+03  0.33579282299E+03  0.64081996091E+03  0.76268126949E+03  0.12699999809E+01 0.  1.
</event>
<event>
 5   0  0.3582186E-04  0.1793050E+04  0.7818609E-02  0.8710004E-01
        2   -1    0    0  501    0  0.00000000000E+00  0.00000000000E+00  0.21831332734E+04  0.21831332734E+04  0.25500000920E-02 0.  1.
       -2   -1    0    0    0  501  0.00000000000E+00  0.00000000000E+00 -0.36816673905E+03  0.36816673905E+03  0.25500000920E-02 0. -1.
    10030    2    1    2    0    0  0.00000000000E+00  0.00000000000E+00  0.18149665343E+04  0.25513000124E+04  0.17930499805E+04 0.  0.
        4    1    3    3  502    0 -0.14927747253E+03  0.27971807459E+02  0.21646944572E+04  0.21700161041E+04  0.12699999809E+01 0.  1.
       -4    1    3    3    0  502  0.14927747253E+03 -0.27971807459E+02 -0.34972792291E+03  0.38128390837E+03  0.12699999809E+01 0. -1.
</event>
<event>
 5   0  0.1825253E-04  0.1833534E+04  0.7818609E-02  0.8688667E-01
        1   -1    0    0  501    0  0.00000000000E+00  0.00000000000E+00  0.17140435076E+04  0.17140435076E+04  0.50400001928E-02 0.  1.
       -1   -1    0    0    0  501  0.00000000000E+00  0.00000000000E+00 -0.49033851280E+03  0.49033851283E+03  0.50400001928E-02 0. -1.
    10030    2    1    2    0    0  0.00000000000E+00  0.00000000000E+00  0.12237049948E+04  0.22043820204E+04  0.18335337951E+04 0.  0.
        4    1    3    3  502    0  0.59550717038E+03 -0.35795332846E+03  0.13309002756E+04  0.15013515684E+04  0.12699999809E+01 0.  1.
       -4    1    3    3    0  502 -0.59550717038E+03  0.35795332846E+03 -0.10719528085E+03  0.70303045202E+03  0.12699999809E+01 0. -1.
</event>
<event>
 5   0  0.3575091E-04  0.1626917E+04  0.7818609E-02  0.8804181E-01
       -2   -1    0    0    0  501  0.00000000000E+00  0.00000000000E+00  0.40310337688E+03  0.40310337688E+03  0.25500000920E-02 0. -1.
        2   -1    0    0  501    0  0.00000000000E+00  0.00000000000E+00 -0.16415502233E+04  0.16415502233E+04  0.25500000920E-02 0.  1.
    10030    2    1    2    0    0  0.00000000000E+00  0.00000000000E+00 -0.12384468464E+04  0.20446536002E+04  0.16269166400E+04 0.  0.
        5    1    3    3  502    0  0.73274730423E+03  0.23319203500E+03 -0.95266979703E+03  0.12242952949E+04  0.46999998093E+01 0.  1.
       -5    1    3    3    0  502 -0.73274730423E+03 -0.23319203500E+03 -0.28577704940E+03  0.82035830526E+03  0.46999998093E+01 0. -1.
</event>
<event>
 5   0  0.1818778E-04  0.1804121E+04  0.7818609E-02  0.8704111E-01
       -1   -1    0    0    0  501  0.00000000000E+00  0.00000000000E+00  0.48041572062E+03  0.48041572064E+03  0.50400001928E-02 0. -1.
        1   -1    0    0  501    0  0.00000000000E+00  0.00000000000E+00 -0.16937693499E+04  0.16937693500E+04  0.50400001928E-02 0.  1.
    10030    2    1    2    0    0  0.00000000000E+00  0.00000000000E+00 -0.12133536293E+04  0.21741850706E+04  0.18041213073E+04 0.  0.
        3    1    3    3  502    0  0.25922311823E+03 -0.46304664122E+03 -0.14857585938E+04  0.15776841973E+04  0.10100000352E+00 0.  1.
       -3    1    3    3    0  502 -0.25922311823E+03  0.46304664122E+03  0.27240496452E+03  0.59650087332E+03  0.10100000352E+00 0. -1.
</event>
<event>
 5   0  0.3628581E-04  0.1816541E+04  0.7818609E-02  0.8697552E-01
       -2   -1    0    0    0  501  0.00000000000E+00  0.00000000000E+00  0.16865709220E+04  0.16865709220E+04  0.25500000920E-02 0.  1.
        2   -1    0    0  501    0  0.00000000000E+00  0.00000000000E+00 -0.48913172323E+03  0.48913172324E+03  0.25500000920E-02 0. -1.
    10030    2    1    2    0    0  0.00000000000E+00  0.00000000000E+00  0.11974391988E+04  0.21757026452E+04  0.18165410443E+04 0.  0.
        2    1    3    3  502    0 -0.81453654350E+03 -0.32530424685E+03  0.88129639052E+03  0.12433728168E+04  0.25500000920E-02 0. -1.
       -2    1    3    3    0  502  0.81453654350E+03  0.32530424685E+03  0.31614280826E+03  0.93232982841E+03  0.25500000920E-02 0.  1.
</event>
<event>
 5   0  0.3582186E-04  0.1826756E+04  0.7818609E-02  0.8692199E-01
        2   -1    0    0  501    0  0.00000000000E+00  0.00000000000E+00  0.24583371708E+04  0.24583371708E+04  0.25500000920E-02 0. -1.
       -2   -1    0    0    0  501  0.00000000000E+00  0.00000000000E+00 -0.33935931327E+03  0.33935931328E+03  0.25500000920E-02 0.  1.
    10030    2    1    2    0    0  0.00000000000E+00  0.00000000000E+00  0.21189778575E+04  0.27976964840E+04  0.18267562662E+04 0.  0.
        4    1    3    3  502    0  0.60543910957E+03 -0.44361803556E+03  0.18566170313E+04  0.20025937908E+04  0.12699999809E+01 0. -1.
       -4    1    3    3    0  502 -0.60543910957E+03  0.44361803556E+03  0.26236082617E+03  0.79510269329E+03  0.12699999809E+01 0.  1.
</event>
<event>
 5   0  0.3628581E-04  0.1795890E+04  0.7818609E-02  0.8708488E-01
        2   -1    0    0  501    0  0.00000000000E+00  0.00000000000E+00  0.15651977777E+04  0.15651977777E+04  0.25500000920E-02 0.  1.
       -2   -1    0    0    0  501  0.00000000000E+00  0.00000000000E+00 -0.51514581282E+03  0.51514581282E+03  0.25500000920E-02 0. -1.
    10030    2    1    2    0    0  0.00000000000E+00  0.00000000000E+00  0.10500519649E+04  0.20803435906E+04  0.17958898423E+04 0.  0.
        2    1    3    3  502    0  0.27229908845E+03 -0.10181023374E+03  0.15091768900E+04  0.15369212740E+04  0.25500000920E-02 0.  1.
       -2    1    3    3    0  502 -0.27229908845E+03  0.10181023374E+03 -0.45912492508E+03  0.54342231653E+03  0.25500000920E-02 0. -1.
</event>
<event>
 5   0  0.1825253E-04  0.1793988E+04  0.7818609E-02  0.8709503E-01
       -1   -1    0    0    0  501  0.00000000000E+00  0.00000000000E+00  0.51005417481E+03  0.51005417483E+03  0.50400001928E-02 0.  1.
        1   -1    0    0  501    0  0.00000000000E+00  0.00000000000E+00 -0.15774767897E+04  0.15774767897E+04  0.50400001928E-02 0. -1.
    10030    2    1    2    0    0  0.00000000000E+00  0.00000000000E+00 -0.10674226149E+04  0.20875309646E+04  0.17939884306E+04 0.  0.
        4    1    3    3  502    0  0.82044012498E+03  0.31866017069E+03 -0.73502428441E+03  0.11467033682E+04  0.12699999809E+01 0. -1.
       -4    1    3    3    0  502 -0.82044012498E+03 -0.31866017069E+03 -0.33239833050E+03  0.94082759636E+03  0.12699999809E+01 0.  1.
</event>
<event>
 5   0  0.3575091E-04  0.1779119E+04  0.7818609E-02  0.8717483E-01
        2   -1    0    0  501    0  0.00000000000E+00  0.00000000000E+00  0.89839007687E+03  0.89839007687E+03  0.25500000920E-02 0. -1.
       -2   -1    0    0    0  501  0.00000000000E+00  0.00000000000E+00 -0.88081548079E+03  0.88081548079E+03  0.25500000920E-02 0.  1.
    10030    2    1    2    0    0  0.00000000000E+00  0.00000000000E+00  0.17574596080E+02  0.17792055577E+04  0.17791187566E+04 0.  0.
        5    1    3    3  502    0 -0.45698349436E+02 -0.14193030390E+03  0.88579145550E+03  0.89826563050E+03  0.46999998093E+01 0. -1.
       -5    1    3    3    0  502  0.45698349436E+02  0.14193030390E+03 -0.86821685942E+03  0.88093992717E+03  0.46999998093E+01 0.  1.
</event>
<event>
 5   0  0.1835421E-04  0.1796550E+04  0.7818609E-02  0.8708136E-01
        1   -1    0    0  501    0  0.00000000000E+00  0.00000000000E+00  0.11165859923E+04  0.11165859923E+04  0.50400001928E-02 0.  1.
       -1   -1    0    0    0  501  0.00000000000E+00  0.00000000000E+00 -0.72264732216E+03  0.72264732217E+03  0.50400001928E-02 0. -1.
    10030    2    1    2    0    0  0.00000000000E+00  0.00000000000E+00  0.39393867018E+03  0.18392333145E+04  0.17965498906E+04 0.  0.
        2    1    3    3  502    0  0.24407694458E+02 -0.36276284933E+03  0.10378891570E+04  0.10997302044E+04  0.25500000920E-02 0.  1.
       -2    1    3    3    0  502 -0.24407694458E+02  0.36276284933E+03 -0.64395048678E+03  0.73950311009E+03  0.25500000920E-02 0. -1.
</event>
<event>
 5   0  0.1837313E-04  0.1753307E+04  0.7818609E-02  0.8731532E-01
       -1   -1    0    0    0  501  0.00000000000E+00  0.00000000000E+00  0.69790265025E+03  0.69790265027E+03  0.50400001928E-02 0.  1.
        1   -1    0    0  501    0  0.00000000000E+00  0.00000000000E+00 -0.11011873322E+04  0.11011873322E+04  0.50400001928E-02 0. -1.
    10030    2    1    2    0    0  0.00000000000E+00  0.00000000000E+00 -0.40328468195E+03  0.17990899825E+04  0.17533072265E+04 0.  0.
        1    1    3    3  502    0 -0.21717942882E+03 -0.58372524631E+03  0.43141110052E+03  0.75763949552E+03  0.50400001928E-02 0.  1.
       -1    1    3    3    0  502  0.21717942882E+03  0.58372524631E+03 -0.83469578247E+03  0.10414504870E+04  0.50400001928E-02 0. -1.
</event>
<event>
 5   0  0.1883959E-04  0.1803780E+04  0.7818609E-02  0.8704292E-01
        1   -1    0    0  501    0  0.00000000000E+00  0.00000000000E+00  0.66091481194E+03  0.66091481196E+03  0.50400001928E-02 0.  1.
       -1   -1    0    0    0  501  0.00000000000E+00  0.00000000000E+00 -0.12307266076E+04  0.12307266076E+04  0.50400001928E-02 0. -1.
    10030    2    1    2    0    0  0.00000000000E+00  0.00000000000E+00 -0.56981179569E+03  0.18916414196E+04  0.18037798585E+04 0.  0.
        5    1    3    3  502    0 -0.10366696192E+02  0.26622824474E+03 -0.11885008530E+04  0.12180071076E+04  0.46999998093E+01 0. -1.
       -5    1    3    3    0  502  0.10366696192E+02 -0.26622824474E+03  0.61868905728E+03  0.67363431199E+03  0.46999998093E+01 0.  1.
</event>
<event>
 5   0  0.1825253E-04  0.1868702E+04  0.7818609E-02  0.8670594E-01
        1   -1    0    0  501    0  0.00000000000E+00  0.00000000000E+00  0.10923086084E+04  0.10923086084E+04  0.50400001928E-02 0. -1.
       -1   -1    0    0    0  501  0.00000000000E+00  0.00000000000E+00 -0.79923540213E+03  0.79923540214E+03  0.50400001928E-02 0.  1.
    10030    2    1    2    0    0  0.00000000000E+00  0.00000000000E+00  0.29307320625E+03  0.18915440105E+04  0.18687019130E+04 0.  0.
        4    1    3    3  502    0 -0.62896690650E+03  0.54495709838E+03 -0.28342907511E+03  0.87915371925E+03  0.12699999809E+01 0.  1.
       -4    1    3    3    0  502  0.62896690650E+03 -0.54495709838E+03  0.57650228136E+03  0.10123902913E+04  0.12699999809E+01 0. -1.
</event>
<event>
 5   0  0.3568870E-04  0.1730673E+04  0.7818609E-02  0.8744061E-01
        2   -1    0    0  501    0  0.00000000000E+00  0.00000000000E+00  0.16315075458E+04  0.16315075458E+04  0.25500000920E-02 0. -1.
       -2   -1    0    0    0  501  0.00000000000E+00  0.00000000000E+00 -0.45896629290E+03  0.45896629291E+03  0.25500000920E-02 0.  1.
    10030    2    1    2    0    0  0.00000000000E+00  0.00000000000E+00  0.11725412529E+04  0.20904738387E+04  0.17306726671E+04 0.  0.
        1    1    3    3  502    0 -0.71708628234E+03  0.33643491857E+03  0.16539916038E+03  0.80917122603E+03  0.50400001928E-02 0.  1.
       -1    1    3    3    0  502  0.71708628234E+03 -0.33643491857E+03  0.10071420926E+04  0.12813026127E+04  0.50400001928E-02 0. -1.
</event>
<event>
 5   0  0.1837313E-04  0.1803294E+04  0.7818609E-02  0.8704550E-01
        1   -1    0    0  501    0  0.00000000000E+00  0.00000000000E+00  0.13868412919E+04  0.13868412919E+04  0.50400001928E-02 0. -1.
       -1   -1    0    0    0  501  0.00000000000E+00  0.00000000000E+00 -0.58620045252E+03  0.58620045254E+03  0.50400001928E-02 0.  1.
    10030    2    1    2    0    0  0.00000000000E+00  0.00000000000E+00  0.80064083940E+03  0.19730417445E+04  0.18032936454E+04 0.  0.
        1    1    3    3  502    0  0.25850946253E+03 -0.31446287095E+03  0.12805720580E+04  0.13437182871E+04  0.50400001928E-02 0. -1.
       -1    1    3    3    0  502 -0.25850946253E+03  0.31446287095E+03 -0.47993121856E+03  0.62932345737E+03  0.50400001928E-02 0.  1.
</event>
<event>
 5   0  0.3531266E-04  0.1829888E+04  0.7818609E-02  0.8690565E-01
       -2   -1    0    0    0  501  0.00000000000E+00  0.00000000000E+00  0.70643050838E+03  0.70643050838E+03  0.25500000920E-02 0. -1.
        2   -1    0    0  501    0  0.00000000000E+00  0.00000000000E+00 -0.11850036075E+04  0.11850036075E+04  0.25500000920E-02 0.  1.
    10030    2    1    2    0    0  0.00000000000E+00  0.00000000000E+00 -0.47857309909E+03  0.18914341159E+04  0.18298881942E+04 0.  0.
        3    1    3    3  502    0  0.35362440049E+03 -0.71741482375E+03  0.21994056804E+03  0.82952282044E+03  0.10100000352E+00 0. -1.
       -3    1    3    3    0  502 -0.35362440049E+03  0.71741482375E+03 -0.69851366713E+03  0.10619112954E+04  0.10100000352E+00 0.  1.
</event>
<event>
 5   0  0.3568870E-04  0.1804907E+04  0.7818609E-02  0.8703694E-01
        2   -1    0    0  501    0  0.00000000000E+00  0.00000000000E+00  0.69663615226E+03  0.69663615226E+03  0.25500000920E-02 0. -1.
       -2   -1    0    0    0  501  0.00000000000E+00  0.00000000000E+00 -0.11690783324E+04  0.11690783324E+04  0.25500000920E-02 0.  1.
    10030    2    1    2    0    0  0.00000000000E+00  0.00000000000E+00 -0.47244218019E+03  0.18657144847E+04  0.18049069020E+04 0.  0.
        1    1    3    3  502    0  0.68330801160E+03 -0.28925229945E+03  0.29474308925E+03  0.79840479717E+03  0.50400001928E-02 0. -1.
       -1    1    3    3    0  502 -0.68330801160E+03  0.28925229945E+03 -0.76718526944E+03  0.10673096875E+04  0.50400001928E-02 0.  1.
</event>
<event>
 5   0  0.3568870E-04  0.1817888E+04  0.7818609E-02  0.8696844E-01
        2   -1    0    0  501    0  0.00000000000E+00  0.00000000000E+00  0.12260756651E+04  0.12260756651E+04  0.25500000920E-02 0. -1.
       -2   -1    0    0    0  501  0.00000000000E+00  0.00000000000E+00 -0.67384003858E+03  0.67384003858E+03  0.25500000920E-02 0.  1.
    10030    2    1    2    0    0  0.00000000000E+00  0.00000000000E+00  0.55223562649E+03  0.18999157037E+04  0.18178876461E+04 0.  0.
        1    1    3    3  502    0 -0.24802157583E+03  0.29680353536E+03  0.11357729264E+04  0.11998279798E+04  0.50400001928E-02 0. -1.
       -1    1    3    3    0  502  0.24802157583E+03 -0.29680353536E+03 -0.58353729993E+03  0.70008772387E+03  0.50400001928E-02 0.  1.
</event>
<event>
 5   0  0.3575091E-04  0.1800353E+04  0.7818609E-02  0.8706112E-01
       -2   -1    0    0    0  501  0.00000000000E+00  0.00000000000E+00  0.19731157442E+04  0.19731157442E+04  0.25500000920E-02 0. -1.
        2   -1    0    0  501    0  0.00000000000E+00  0.00000000000E+00 -0.41067917781E+03  0.41067917782E+03  0.25500000920E-02 0.  1.
    10030    2    1    2    0    0  0.00000000000E+00  0.00000000000E+00  0.15624365664E+04  0.23837949221E+04  0.18003528005E+04 0.  0.
        5    1    3    3  502    0  0.89067627732E+03  0.12204784280E+03  0.72060598226E+03  0.11521696831E+04  0.46999998093E+01 0.  1.
       -5    1    3    3    0  502 -0.89067627732E+03 -0.12204784280E+03  0.84183058416E+03  0.12316252390E+04  0.46999998093E+01 0. -1.
</event>
<event>
 5   0  0.1883959E-04  0.1768864E+04  0.7818609E-02  0.8723035E-01
       -1   -1    0    0    0  501  0.00000000000E+00  0.00000000000E+00  0.13173266214E+04  0.13173266214E+04  0.50400001928E-02 0.  1.
        1   -1    0    0  501    0  0.00000000000E+00  0.00000000000E+00 -0.59379368611E+03  0.59379368613E+03  0.50400001928E-02 0. -1.
    10030    2    1    2    0    0  0.00000000000E+00  0.00000000000E+00  0.72353293525E+03  0.19111203075E+04  0.17688643027E+04 0.  0.
        5    1    3    3  502    0  0.18798767478E+02 -0.65221399380E+02 -0.59096190505E+03  0.59486577294E+03  0.46999998093E+01 0. -1.
       -5    1    3    3    0  502 -0.18798767478E+02  0.65221399380E+02  0.13144948403E+04  0.13162545346E+04  0.46999998093E+01 0.  1.
</event>
<event>
 5   0  0.3531266E-04  0.1945022E+04  0.7818609E-02  0.8632765E-01
        2   -1    0    0  501    0  0.00000000000E+00  0.00000000000E+00  0.16107124496E+04  0.16107124497E+04  0.25500000920E-02 0. -1.
       -2   -1    0    0    0  501  0.00000000000E+00  0.00000000000E+00 -0.58717975071E+03  0.58717975072E+03  0.25500000920E-02 0.  1.
    10030    2    1    2    0    0  0.00000000000E+00  0.00000000000E+00  0.10235326989E+04  0.21978922004E+04  0.19450220921E+04 0.  0.
        3    1    3    3  502    0  0.14441033144E+03  0.18185609543E+03 -0.55539031665E+03  0.60198371847E+03  0.10100000352E+00 0.  1.
       -3    1    3    3    0  502 -0.14441033144E+03 -0.18185609543E+03  0.15789230156E+04  0.15959084819E+04  0.10100000352E+00 0. -1.
</event>
<event>
 5   0  0.1835421E-04  0.1784989E+04  0.7818609E-02  0.8714323E-01
        1   -1    0    0  501    0  0.00000000000E+00  0.00000000000E+00  0.18671753514E+04  0.18671753514E+04  0.50400001928E-02 0.  1.
       -1   -1    0    0    0  501  0.00000000000E+00  0.00000000000E+00 -0.42660495554E+03  0.42660495557E+03  0.50400001928E-02 0. -1.
    10030    2    1    2    0    0  0.00000000000E+00  0.00000000000E+00  0.14405703958E+04  0.22937803069E+04  0.17849888042E+04 0.  0.
        2    1    3    3  502    0  0.10905591156E+03  0.19898214047E+03  0.18294899118E+04  0.18435076407E+04  0.25500000920E-02 0.  1.
       -2    1    3    3    0  502 -0.10905591156E+03 -0.19898214047E+03 -0.38891951594E+03  0.45027266624E+03  0.25500000920E-02 0. -1.
</event>
<event>
 5   0  0.1837313E-04  0.1708598E+04  0.7818609E-02  0.8756476E-01
       -1   -1    0    0    0  501  0.00000000000E+00  0.00000000000E+00  0.65554718045E+03  0.65554718047E+03  0.50400001928E-02 0. -1.
        1   -1    0    0  501    0  0.00000000000E+00  0.00000000000E+00 -0.11133092235E+04  0.11133092235E+04  0.50400001928E-02 0.  1.
    10030    2    1    2    0    0  0.00000000000E+00  0.00000000000E+00 -0.45776204306E+03  0.17688564040E+04  0.17085979310E+04 0.  0.
        1    1    3    3  502    0 -0.33094872544E+02  0.73880986161E+03 -0.67162166519E+03  0.99900497665E+03  0.50400001928E-02 0.  1.
       -1    1    3    3    0  502  0.33094872544E+02 -0.73880986161E+03  0.21385962212E+03  0.76985142735E+03  0.50400001928E-02 0. -1.
</event>
<event>
 5   0  0.1818778E-04  0.1749435E+04  0.7818609E-02  0.8733661E-01
        1   -1    0    0  501    0  0.00000000000E+00  0.00000000000E+00  0.47681606109E+03  0.47681606112E+03  0.50400001928E-02 0. -1.
       -1   -1    0    0    0  501  0.00000000000E+00  0.00000000000E+00 -0.16046670316E+04  0.16046670316E+04  0.50400001928E-02 0.  1.
    10030    2    1    2    0    0  0.00000000000E+00  0.00000000000E+00 -0.11278509705E+04  0.20814830927E+04  0.17494353528E+04 0.  0.
        3    1    3    3  502    0  0.60668692716E+03 -0.60752477501E+03 -0.36492007880E+03  0.93291052837E+03  0.10100000352E+00 0.  1.
       -3    1    3    3    0  502 -0.60668692716E+03  0.60752477501E+03 -0.76293089168E+03  0.11485725643E+04  0.10100000352E+00 0. -1.
</event>
<event>
 5   0  0.1818778E-04  0.1829431E+04  0.7818609E-02  0.8690803E-01
       -1   -1    0    0    0  501  0.00000000000E+00  0.00000000000E+00  0.65320654444E+03  0.65320654446E+03  0.50400001928E-02 0.  1.
        1   -1    0    0  501    0  0.00000000000E+00  0.00000000000E+00 -0.12809182734E+04  0.12809182734E+04  0.50400001928E-02 0. -1.
    10030    2    1    2    0    0  0.00000000000E+00  0.00000000000E+00 -0.62771172897E+03  0.19341248179E+04  0.18294307302E+04 0.  0.
        3    1    3    3  502    0 -0.58720352810E+03 -0.27319051302E+03  0.36906997218E+03  0.74542182312E+03  0.10100000352E+00 0.  1.
       -3    1    3    3    0  502  0.58720352810E+03  0.27319051302E+03 -0.99678170115E+03  0.11887029948E+04  0.10100000352E+00 0. -1.
</event>
<event>
 5   0  0.3628581E-04  0.1801677E+04  0.7818609E-02  0.8705408E-01
        2   -1    0    0  501    0  0.00000000000E+00  0.00000000000E+00  0.29056525193E+04  0.29056525193E+04  0.25500000920E-02 0. -1.
       -2   -1    0    0    0  501  0.00000000000E+00  0.00000000000E+00 -0.27928680058E+03  0.27928680059E+03  0.25500000920E-02 0.  1.
    10030    2    1    2    0    0  0.00000000000E+00  0.00000000000E+00  0.26263657187E+04  0.31849393199E+04  0.18016774359E+04 0.  0.
        2    1    3    3  502    0 -0.24876985489E+03 -0.13868733922E+03  0.28239636908E+04  0.28382902505E+04  0.25500000920E-02 0. -1.
       -2    1    3    3    0  502  0.24876985489E+03  0.13868733922E+03 -0.19759797209E+03  0.34664906944E+03  0.25500000920E-02 0.  1.
</event>
<event>
 5   0  0.1883959E-04  0.1829504E+04  0.7818609E-02  0.8690765E-01
        1   -1    0    0  501    0  0.00000000000E+00  0.00000000000E+00  0.79342548375E+03  0.79342548376E+03  0.50400001928E-02 0. -1.
       -1   -1    0    0    0  501  0.00000000000E+00  0.00000000000E+00 -0.10546313961E+04  0.10546313962E+04  0.50400001928E-02 0.  1.
    10030    2    1    2    0    0  0.00000000000E+00  0.00000000000E+00 -0.26120591239E+03  0.18480568799E+04  0.18295042232E+04 0.  0.
        5    1    3    3  502    0  0.82466099321E+03 -0.38703594580E+03 -0.46774909198E+02  0.91218011335E+03  0.46999998093E+01 0. -1.
       -5    1    3    3    0  502 -0.82466099321E+03  0.38703594580E+03 -0.21443100319E+03  0.93587676656E+03  0.46999998093E+01 0.  1.
</event>
<event>
 5   0  0.3575091E-04  0.1753262E+04  0.7818609E-02  0.8731557E-01
       -2   -1    0    0    0  501  0.00000000000E+00  0.00000000000E+00  0.75411827697E+03  0.75411827698E+03  0.25500000920E-02 0.  1.
        2   -1    0    0  501    0  0.00000000000E+00  0.00000000000E+00 -0.10190465737E+04  0.10190465737E+04  0.25500000920E-02 0. -1.
    10030    2    1    2    0    0  0.00000000000E+00  0.00000000000E+00 -0.26492829669E+03  0.17731648506E+04  0.17532616990E+04 0.  0.
        5    1    3    3  502    0  0.30940173053E+03  0.97189869748E+02 -0.95613218339E+03  0.10096465440E+04  0.46999998093E+01 0. -1.
       -5    1    3    3    0  502 -0.30940173053E+03 -0.97189869748E+02  0.69120388670E+03  0.76351830667E+03  0.46999998093E+01 0.  1.
</event>
<event>
 5   0  0.1835421E-04  0.1788988E+04  0.7818609E-02  0.8712178E-01
       -1   -1    0    0    0  501  0.00000000000E+00  0.00000000000E+00  0.81017925663E+03  0.81017925665E+03  0.50400001928E-02 0.  1.
        1   -1    0    0  501    0  0.00000000000E+00  0.00000000000E+00 -0.98758336067E+03  0.98758336068E+03  0.50400001928E-02 0. -1.
    10030    2    1    2    0    0  0.00000000000E+00  0.00000000000E+00 -0.17740410404E+03  0.17977626173E+04  0.17889880414E+04 0.  0.
        2    1    3    3  502    0  0.37695343545E+03  0.50792021099E+03  0.54688946703E+03  0.83616082328E+03  0.25500000920E-02 0.  1.
       -2    1    3    3    0  502 -0.37695343545E+03 -0.50792021099E+03 -0.72429357107E+03  0.96160179405E+03  0.25500000920E-02 0. -1.
</event>
<event>
 5   0  0.3575091E-04  0.1762666E+04  0.7818609E-02  0.8726409E-01
        2   -1    0    0  501    0  0.00000000000E+00  0.00000000000E+00  0.12700015320E+04  0.12700015320E+04  0.25500000920E-02 0.  1.
       -2   -1    0    0    0  501  0.00000000000E+00  0.00000000000E+00 -0.61161171938E+03  0.61161171939E+03  0.25500000920E-02 0. -1.
    10030    2    1    2    0    0  0.00000000000E+00  0.00000000000E+00  0.65838981262E+03  0.18816132514E+04  0.17626659588E+04 0.  0.
        5    1    3    3  502    0  0.75179826808E+03  0.40802136898E+03  0.10263807188E+03  0.86153278360E+03  0.46999998093E+01 0. -1.
       -5    1    3    3    0  502 -0.75179826808E+03 -0.40802136898E+03  0.55575174074E+03  0.10200804678E+04  0.46999998093E+01 0.  1.
</event>
<event>
 5   0  0.1837313E-04  0.1789770E+04  0.7818609E-02  0.8711759E-01
        1   -1    0    0  501    0  0.00000000000E+00  0.00000000000E+00  0.87408094504E+03  0.87408094505E+03  0.50400001928E-02 0.  1.
       -1   -1    0    0    0  501  0.00000000000E+00  0.00000000000E+00 -0.91618397094E+03  0.91618397095E+03  0.50400001928E-02 0. -1.
    10030    2    1    2    0    0  0.00000000000E+00  0.00000000000E+00 -0.42103025900E+02  0.17902649160E+04  0.17897697630E+04 0.  0.
        1    1    3    3  502    0  0.34696766070E+03  0.94280253787E+02  0.79865285673E+03  0.87585484495E+03  0.50400001928E-02 0.  1.
       -1    1    3    3    0  502 -0.34696766070E+03 -0.94280253787E+02 -0.84075588263E+03  0.91441007105E+03  0.50400001928E-02 0. -1.
</event>
<event>
 5   0  0.1835421E-04  0.1795393E+04  0.7818609E-02  0.8708753E-01
       -1   -1    0    0    0  501  0.00000000000E+00  0.00000000000E+00  0.13244933721E+04  0.13244933722E+04  0.50400001928E-02 0.  1.
        1   -1    0    0  501    0  0.00000000000E+00  0.00000000000E+00 -0.60842793018E+03  0.60842793021E+03  0.50400001928E-02 0. -1.
    10030    2    1    2    0    0  0.00000000000E+00  0.00000000000E+00  0.71606544196E+03  0.19329213024E+04  0.17953927269E+04 0.  0.
        2    1    3    3  502    0 -0.34913305281E+03 -0.66779848549E+03 -0.16720071280E+03  0.77188391884E+03  0.25500000920E-02 0. -1.
       -2    1    3    3    0  502  0.34913305281E+03  0.66779848549E+03  0.88326615476E+03  0.11610373835E+04  0.25500000920E-02 0.  1.
</event>
<event>
 5   0  0.3568870E-04  0.1789300E+04  0.7818609E-02  0.8712010E-01
        2   -1    0    0  501    0  0.00000000000E+00  0.00000000000E+00  0.69196474140E+03  0.69196474141E+03  0.25500000920E-02 0. -1.
       -2   -1    0    0    0  501  0.00000000000E+00  0.00000000000E+00 -0.11567041739E+04  0.11567041739E+04  0.25500000920E-02 0.  1.
    10030    2    1    2    0    0  0.00000000000E+00  0.00000000000E+00 -0.46473943250E+03  0.18486689153E+04  0.17892998682E+04 0.  0.
        1    1    3    3  502    0  0.68998701873E+03 -0.11937261633E+03 -0.80768180572E+03  0.10689629586E+04  0.50400001928E-02 0.  1.
       -1    1    3    3    0  502 -0.68998701873E+03  0.11937261633E+03  0.34294237322E+03  0.77970595671E+03  0.50400001928E-02 0. -1.
</event>
<event>
 5   0  0.3568870E-04  0.1810482E+04  0.7818609E-02  0.8700745E-01
       -2   -1    0    0    0  501  0.00000000000E+00  0.00000000000E+00  0.12609169623E+04  0.12609169623E+04  0.25500000920E-02 0. -1.
        2   -1    0    0  501    0  0.00000000000E+00  0.00000000000E+00 -0.64989338939E+03  0.64989338939E+03  0.25500000920E-02 0.  1.
    10030    2    1    2    0    0  0.00000000000E+00  0.00000000000E+00  0.61102357296E+03  0.19108103517E+04  0.18104823649E+04 0.  0.
        1    1    3    3  502    0 -0.13037991628E+03 -0.73329868329E+03  0.84854895429E+03  0.11290532358E+04  0.50400001928E-02 0.  1.
       -1    1    3    3    0  502  0.13037991628E+03  0.73329868329E+03 -0.23752538133E+03  0.78175711591E+03  0.50400001928E-02 0. -1.
</event>
<event>
 5   0  0.1330125E-04  0.1817279E+04  0.7818609E-02  0.8697164E-01
        3   -1    0    0  501    0  0.00000000000E+00  0.00000000000E+00  0.12146166601E+04  0.12146166643E+04  0.10100000352E+00 0.  1.
       -3   -1    0    0    0  501  0.00000000000E+00  0.00000000000E+00 -0.67974203078E+03  0.67974203828E+03  0.10100000352E+00 0. -1.
    10030    2    1    2    0    0  0.00000000000E+00  0.00000000000E+00  0.53487462927E+03  0.18943587025E+04  0.18172792919E+04 0.  0.
        2    1    3    3  502    0  0.45597158834E+03 -0.75550533039E+03  0.41621283669E+02  0.88341990292E+03  0.25500000920E-02 0.  1.
       -2    1    3    3    0  502 -0.45597158834E+03  0.75550533039E+03  0.49325334561E+03  0.10109387996E+04  0.25500000920E-02 0. -1.
</event>
<event>
 5   0  0.1825253E-04  0.1806068E+04  0.7818609E-02  0.8703079E-01
        1   -1    0    0  501    0  0.00000000000E+00  0.00000000000E+00  0.15100258682E+04  0.15100258682E+04  0.50400001928E-02 0. -1.
       -1   -1    0    0    0  501  0.00000000000E+00  0.00000000000E+00 -0.54003726276E+03  0.54003726278E+03  0.50400001928E-02 0.  1.
    10030    2    1    2    0    0  0.00000000000E+00  0.00000000000E+00  0.96998860545E+03  0.20500631310E+04  0.18060678133E+04 0.  0.
        4    1    3    3  502    0  0.24530078381E+03 -0.60374798570E+03  0.11945751057E+04  0.13607701499E+04  0.12699999809E+01 0. -1.
       -4    1    3    3    0  502 -0.24530078381E+03  0.60374798570E+03 -0.22458650027E+03  0.68929298109E+03  0.12699999809E+01 0.  1.
</event>
<event>
 5   0  0.3575091E-04  0.1796505E+04  0.7818609E-02  0.8708160E-01
       -2   -1    0    0    0  501  0.00000000000E+00  0.00000000000E+00  0.10620065161E+04  0.10620065161E+04  0.25500000920E-02 0.  1.
        2   -1    0    0  501    0  0.00000000000E+00  0.00000000000E+00 -0.75974836352E+03  0.75974836352E+03  0.25500000920E-02 0. -1.
    10030    2    1    2    0    0  0.00000000000E+00  0.00000000000E+00  0.30225815259E+03  0.18217548796E+04  0.17965051769E+04 0.  0.
        5    1    3    3  502    0  0.38218853341E+02  0.86998116460E+03  0.37446926452E+03  0.94793313455E+03  0.46999998093E+01 0.  1.
       -5    1    3    3    0  502 -0.38218853341E+02 -0.86998116460E+03 -0.72211111922E+02  0.87382174509E+03  0.46999998093E+01 0. -1.
</event>
<event>
 5   0  0.1883959E-04  0.1803907E+04  0.7818609E-02  0.8704225E-01
        1   -1    0    0  501    0  0.00000000000E+00  0.00000000000E+00  0.10398715065E+04  0.10398715066E+04  0.50400001928E-02 0. -1.
       -1   -1    0    0    0  501  0.00000000000E+00  0.00000000000E+00 -0.78232720103E+03  0.78232720105E+03  0.50400001928E-02 0.  1.
    10030    2    1    2    0    0  0.00000000000E+00  0.00000000000E+00  0.25754430552E+03  0.18221987076E+04  0.18039066109E+04 0.  0.
        5    1    3    3  502    0 -0.30669725603E+03  0.82664628657E+03  0.32067324338E+03  0.93822210003E+03  0.46999998093E+01 0. -1.
       -5    1    3    3    0  502  0.30669725603E+03 -0.82664628657E+03 -0.63128937863E+02  0.88397660758E+03  0.46999998093E+01 0.  1.
</event>
<event>
 5   0  0.1835421E-04  0.1811547E+04  0.7818609E-02  0.8700183E-01
       -1   -1    0    0    0  501  0.00000000000E+00  0.00000000000E+00  0.74358467382E+03  0.74358467384E+03  0.50400001928E-02 0.  1.
        1   -1    0    0  501    0  0.00000000000E+00  0.00000000000E+00 -0.11033382369E+04  0.11033382369E+04  0.50400001928E-02 0. -1.
    10030    2    1    2    0    0  0.00000000000E+00  0.00000000000E+00 -0.35975356307E+03  0.18469229107E+04  0.18115467458E+04 0.  0.
        2    1    3    3  502    0  0.23117632170E+03  0.95254991691E+02  0.70770395821E+03  0.75057371232E+03  0.25500000920E-02 0.  1.
       -2    1    3    3    0  502 -0.23117632170E+03 -0.95254991691E+02 -0.10674575213E+04  0.10963491984E+04  0.25500000920E-02 0. -1.
</event>
<event>
 5   0  0.3575091E-04  0.1858741E+04  0.7818609E-02  0.8675671E-01
        2   -1    0    0  501    0  0.00000000000E+00  0.00000000000E+00  0.93893756277E+03  0.93893756278E+03  0.25500000920E-02 0. -1.
       -2   -1    0    0    0  501  0.00000000000E+00  0.00000000000E+00 -0.91990048946E+03  0.91990048946E+03  0.25500000920E-02 0.  1.
    10030    2    1    2    0    0  0.00000000000E+00  0.00000000000E+00  0.19037073318E+02  0.18588380522E+04  0.18587405667E+04 0.  0.
        5    1    3    3  502    0 -0.15001014493E+03  0.12770875809E+03  0.91780317927E+03  0.93872111745E+03  0.46999998093E+01 0. -1.
       -5    1    3    3    0  502  0.15001014493E+03 -0.12770875809E+03 -0.89876610595E+03  0.92011693479E+03  0.46999998093E+01 0.  1.
</event>
<event>
 5   0  0.3568870E-04  0.1784482E+04  0.7818609E-02  0.8714595E-01
       -2   -1    0    0    0  501  0.00000000000E+00  0.00000000000E+00  0.12872388748E+04  0.12872388748E+04  0.25500000920E-02 0. -1.
        2   -1    0    0  501    0  0.00000000000E+00  0.00000000000E+00 -0.61845111414E+03  0.61845111414E+03  0.25500000920E-02 0.  1.
    10030    2    1    2    0    0  0.00000000000E+00  0.00000000000E+00  0.66878776068E+03  0.19056899890E+04  0.17844823522E+04 0.  0.
        1    1    3    3  502    0 -0.68312055220E+03 -0.57342301941E+03  0.30766019450E+03  0.94346300581E+03  0.50400001928E-02 0.  1.
       -1    1    3    3    0  502  0.68312055220E+03  0.57342301941E+03  0.36112756618E+03  0.96222698315E+03  0.50400001928E-02 0. -1.
</event>
<event>
 5   0  0.1835421E-04  0.1817700E+04  0.7818609E-02  0.8696943E-01
       -1   -1    0    0    0  501  0.00000000000E+00  0.00000000000E+00  0.62570373493E+03  0.62570373495E+03  0.50400001928E-02 0. -1.
        1   -1    0    0  501    0  0.00000000000E+00  0.00000000000E+00 -0.13201275051E+04  0.13201275051E+04  0.50400001928E-02 0.  1.
    10030    2    1    2    0    0  0.00000000000E+00  0.00000000000E+00 -0.69442377019E+03  0.19458312401E+04  0.18177004270E+04 0.  0.
        2    1    3    3  502    0  0.64592676192E+03  0.18319425045E+03 -0.10029493782E+04  0.12069337059E+04  0.25500000920E-02 0.  1.
       -2    1    3    3    0  502 -0.64592676192E+03 -0.18319425045E+03  0.30852560805E+03  0.73889753416E+03  0.25500000920E-02 0. -1.
</event>
<event>
 5   0  0.1883959E-04  0.1688607E+04  0.7818609E-02  0.8767889E-01
       -1   -1    0    0    0  501  0.00000000000E+00  0.00000000000E+00  0.20093703839E+04  0.20093703839E+04  0.50400001928E-02 0.  1.
        1   -1    0    0  501    0  0.00000000000E+00  0.00000000000E+00 -0.35476222523E+03  0.35476222527E+03  0.50400001928E-02 0. -1.
    10030    2    1    2    0    0  0.00000000000E+00  0.00000000000E+00  0.16546081587E+04  0.23641326092E+04  0.16886073656E+04 0.  0.
        5    1    3    3  502    0  0.19412634046E+03  0.73450174976E+03  0.31165876958E+03  0.82117667716E+03  0.46999998093E+01 0.  1.
       -5    1    3    3    0  502 -0.19412634046E+03 -0.73450174976E+03  0.13429493891E+04  0.15429559320E+04  0.46999998093E+01 0. -1.
</event>
<event>
 5   0  0.1818778E-04  0.1818151E+04  0.7818609E-02  0.8696706E-01
       -1   -1    0    0    0  501  0.00000000000E+00  0.00000000000E+00  0.35188430460E+03  0.35188430464E+03  0.50400001928E-02 0.  1.
        1   -1    0    0  501    0  0.00000000000E+00  0.00000000000E+00 -0.23485521216E+04  0.23485521217E+04  0.50400001928E-02 0. -1.
    10030    2    1    2    0    0  0.00000000000E+00  0.00000000000E+00 -0.19966678170E+04  0.27004364263E+04  0.18181514021E+04 0.  0.
        3    1    3    3  502    0 -0.22201427007E+03 -0.38522903572E+03 -0.21760345846E+04  0.22209948828E+04  0.10100000352E+00 0. -1.
       -3    1    3    3    0  502  0.22201427007E+03  0.38522903572E+03  0.17936676755E+03  0.47944154344E+03  0.10100000352E+00 0.  1.
</event>
<event>
 5   0  0.1818778E-04  0.1801650E+04  0.7818609E-02  0.8705423E-01
        1   -1    0    0  501    0  0.00000000000E+00  0.00000000000E+00  0.15970308908E+04  0.15970308908E+04  0.50400001928E-02 0.  1.
       -1   -1    0    0    0  501  0.00000000000E+00  0.00000000000E+00 -0.50812125808E+03  0.50812125811E+03  0.50400001928E-02 0. -1.
    10030    2    1    2    0    0  0.00000000000E+00  0.00000000000E+00  0.10889096327E+04  0.21051521489E+04  0.18016496279E+04 0.  0.
        3    1    3    3  502    0  0.43237232865E+03  0.78992853933E+03  0.51699213712E+03  0.10383707468E+04  0.10100000352E+00 0. -1.
       -3    1    3    3    0  502 -0.43237232865E+03 -0.78992853933E+03  0.57191749558E+03  0.10667814021E+04  0.10100000352E+00 0.  1.
</event>
<event>
 5   0  0.1883959E-04  0.1802661E+04  0.7818609E-02  0.8704886E-01
       -1   -1    0    0    0  501  0.00000000000E+00  0.00000000000E+00  0.12034857441E+04  0.12034857441E+04  0.50400001928E-02 0. -1.
        1   -1    0    0  501    0  0.00000000000E+00  0.00000000000E+00 -0.67503609842E+03  0.67503609844E+03  0.50400001928E-02 0.  1.
    10030    2    1    2    0    0  0.00000000000E+00  0.00000000000E+00  0.52844964568E+03  0.18785218426E+04  0.18026606128E+04 0.  0.
        5    1    3    3  502    0 -0.30067120651E+03  0.83409039904E+03  0.43310741612E+03  0.98676952329E+03  0.46999998093E+01 0. -1.
       -5    1    3    3    0  502  0.30067120651E+03 -0.83409039904E+03  0.95342229556E+02  0.89175231927E+03  0.46999998093E+01 0.  1.
</event>
<event>
 5   0  0.1825253E-04  0.1817245E+04  0.7818609E-02  0.8697182E-01
        1   -1    0    0  501    0  0.00000000000E+00  0.00000000000E+00  0.16478486080E+04  0.16478486080E+04  0.50400001928E-02 0.  1.
       -1   -1    0    0    0  501  0.00000000000E+00  0.00000000000E+00 -0.50101365822E+03  0.50101365824E+03  0.50400001928E-02 0. -1.
    10030    2    1    2    0    0  0.00000000000E+00  0.00000000000E+00  0.11468349498E+04  0.21488622663E+04  0.18172447929E+04 0.  0.
        4    1    3    3  502    0  0.42454081285E+03  0.67481149094E+03  0.10888333261E+04  0.13495054928E+04  0.12699999809E+01 0.  1.
       -4    1    3    3    0  502 -0.42454081285E+03 -0.67481149094E+03  0.58001623690E+02  0.79935677350E+03  0.12699999809E+01 0. -1.
</event>
<event>
 5   0  0.1818778E-04  0.1741252E+04  0.7818609E-02  0.8738180E-01
        1   -1    0    0  501    0  0.00000000000E+00  0.00000000000E+00  0.91655297471E+03  0.91655297472E+03  0.50400001928E-02 0.  1.
       -1   -1    0    0    0  501  0.00000000000E+00  0.00000000000E+00 -0.82700023980E+03  0.82700023981E+03  0.50400001928E-02 0. -1.
    10030    2    1    2    0    0  0.00000000000E+00  0.00000000000E+00  0.89552734909E+02  0.17435532145E+04  0.17412518829E+04 0.  0.
        3    1    3    3  502    0  0.14712244758E+03 -0.53002420810E+02  0.90237504323E+03  0.91582476492E+03  0.10100000352E+00 0.  1.
       -3    1    3    3    0  502 -0.14712244758E+03  0.53002420810E+02 -0.81282230832E+03  0.82772844961E+03  0.10100000352E+00 0. -1.
</event>
<event>
 5   0  0.3582186E-04  0.1749415E+04  0.7818609E-02  0.8733672E-01
       -2   -1    0    0    0  501  0.00000000000E+00  0.00000000000E+00  0.49663898025E+03  0.49663898026E+03  0.25500000920E-02 0.  1.
        2   -1    0    0  501    0  0.00000000000E+00  0.00000000000E+00 -0.15405822391E+04  0.15405822391E+04  0.25500000920E-02 0. -1.
    10030    2    1    2    0    0  0.00000000000E+00  0.00000000000E+00 -0.10439432589E+04  0.20372212194E+04  0.17494149791E+04 0.  0.
        4    1    3    3  502    0 -0.81403721522E+03  0.30469546906E+03 -0.40777981833E+03  0.96009474000E+03  0.12699999809E+01 0. -1.
       -4    1    3    3    0  502  0.81403721522E+03 -0.30469546906E+03 -0.63616344055E+03  0.10771264794E+04  0.12699999809E+01 0.  1.
</event>
<event>
 5   0  0.1818778E-04  0.1804937E+04  0.7818609E-02  0.8703679E-01
       -1   -1    0    0    0  501  0.00000000000E+00  0.00000000000E+00  0.46450139610E+03  0.46450139613E+03  0.50400001928E-02 0. -1.
        1   -1    0    0  501    0  0.00000000000E+00  0.00000000000E+00 -0.17533836076E+04  0.17533836076E+04  0.50400001928E-02 0.  1.
    10030    2    1    2    0    0  0.00000000000E+00  0.00000000000E+00 -0.12888822115E+04  0.22178850037E+04  0.18049367121E+04 0.  0.
        3    1    3    3  502    0 -0.47242720516E+03  0.31036127324E+03 -0.15089157177E+04  0.16113156852E+04  0.10100000352E+00 0.  1.
       -3    1    3    3    0  502  0.47242720516E+03 -0.31036127324E+03  0.22003350621E+03  0.60656931851E+03  0.10100000352E+00 0. -1.
</event>
<event>
 5   0  0.3531266E-04  0.1801619E+04  0.7818609E-02  0.8705439E-01
       -2   -1    0    0    0  501  0.00000000000E+00  0.00000000000E+00  0.64834815195E+03  0.64834815196E+03  0.25500000920E-02 0.  1.
        2   -1    0    0  501    0  0.00000000000E+00  0.00000000000E+00 -0.12515765893E+04  0.12515765893E+04  0.25500000920E-02 0. -1.
    10030    2    1    2    0    0  0.00000000000E+00  0.00000000000E+00 -0.60322843734E+03  0.18999247413E+04  0.18016185708E+04 0.  0.
        3    1    3    3  502    0 -0.13713761979E+03  0.60552923305E+03 -0.98990300088E+03  0.11684949038E+04  0.10100000352E+00 0. -1.
       -3    1    3    3    0  502  0.13713761979E+03 -0.60552923305E+03  0.38667456354E+03  0.73142983746E+03  0.10100000352E+00 0.  1.
</event>
<event>
 5   0  0.3531266E-04  0.1808142E+04  0.7818609E-02  0.8701982E-01
       -2   -1    0    0    0  501  0.00000000000E+00  0.00000000000E+00  0.38503896060E+03  0.38503896061E+03  0.25500000920E-02 0.  1.
        2   -1    0    0  501    0  0.00000000000E+00  0.00000000000E+00 -0.21227571022E+04  0.21227571022E+04  0.25500000920E-02 0. -1.
    10030    2    1    2    0    0  0.00000000000E+00  0.00000000000E+00 -0.17377181416E+04  0.25077960628E+04  0.18081417956E+04 0.  0.
        3    1    3    3  502    0  0.18929229251E+02  0.52647273563E+03  0.15015722120E+03  0.54779472283E+03  0.10100000352E+00 0.  1.
       -3    1    3    3    0  502 -0.18929229251E+02 -0.52647273563E+03 -0.18878753628E+04  0.19600013400E+04  0.10100000352E+00 0. -1.
</event>
<event>
 5   0  0.3575091E-04  0.1799660E+04  0.7818609E-02  0.8706480E-01
       -2   -1    0    0    0  501  0.00000000000E+00  0.00000000000E+00  0.70975967303E+03  0.70975967304E+03  0.25500000920E-02 0. -1.
        2   -1    0    0  501    0  0.00000000000E+00  0.00000000000E+00 -0.11407998514E+04  0.11407998514E+04  0.25500000920E-02 0.  1.
    10030    2    1    2    0    0  0.00000000000E+00  0.00000000000E+00 -0.43104017839E+03  0.18505595245E+04  0.17996596673E+04 0.  0.
        5    1    3    3  502    0 -0.13396301941E+03 -0.77067207486E+03 -0.67283456905E+03  0.10317993918E+04  0.46999998093E+01 0.  1.
       -5    1    3    3    0  502  0.13396301941E+03  0.77067207486E+03  0.24179439066E+03  0.81876013270E+03  0.46999998093E+01 0. -1.
</event>
<event>
 5   0  0.3575091E-04  0.1775871E+04  0.7818609E-02  0.8719237E-01
        2   -1    0    0  501    0  0.00000000000E+00  0.00000000000E+00  0.25044936234E+04  0.25044936234E+04  0.25500000920E-02 0.  1.
       -2   -1    0    0    0  501  0.00000000000E+00  0.00000000000E+00 -0.31480578757E+03  0.31480578758E+03  0.25500000920E-02 0. -1.
    10030    2    1    2    0    0  0.00000000000E+00  0.00000000000E+00  0.21896878358E+04  0.28192994109E+04  0.17758705894E+04 0.  0.
        5    1    3    3  502    0 -0.20967053275E+03  0.31559932153E+03  0.23696867787E+04  0.23997921125E+04  0.46999998093E+01 0.  1.
       -5    1    3    3    0  502  0.20967053275E+03 -0.31559932153E+03 -0.17999894287E+03  0.41950729849E+03  0.46999998093E+01 0. -1.
</event>
<event>
 5   0  0.1883959E-04  0.1806018E+04  0.7818609E-02  0.8703106E-01
        1   -1    0    0  501    0  0.00000000000E+00  0.00000000000E+00  0.11816296954E+04  0.11816296954E+04  0.50400001928E-02 0.  1.
       -1   -1    0    0    0  501  0.00000000000E+00  0.00000000000E+00 -0.69008507685E+03  0.69008507687E+03  0.50400001928E-02 0. -1.
    10030    2    1    2    0    0  0.00000000000E+00  0.00000000000E+00  0.49154461851E+03  0.18717147722E+04  0.18060177398E+04 0.  0.
        5    1    3    3  502    0 -0.68839790673E+02  0.11825295181E+03 -0.67926592157E+03  0.69292637386E+03  0.46999998093E+01 0. -1.
       -5    1    3    3    0  502  0.68839790673E+02 -0.11825295181E+03  0.11708105401E+04  0.11787883984E+04  0.46999998093E+01 0.  1.
</event>
<event>
 5   0  0.1835421E-04  0.1853313E+04  0.7818609E-02  0.8678451E-01
       -1   -1    0    0    0  501  0.00000000000E+00  0.00000000000E+00  0.70898190012E+03  0.70898190013E+03  0.50400001928E-02 0. -1.
        1   -1    0    0  501    0  0.00000000000E+00  0.00000000000E+00 -0.12111631162E+04  0.12111631162E+04  0.50400001928E-02 0.  1.
    10030    2    1    2    0    0  0.00000000000E+00  0.00000000000E+00 -0.50218121606E+03  0.19201450163E+04  0.18533134948E+04 0.  0.
        2    1    3    3  502    0  0.31427136380E+03  0.32895323067E+03 -0.10874912090E+04  0.11788188358E+04  0.25500000920E-02 0.  1.
       -2    1    3    3    0  502 -0.31427136380E+03 -0.32895323067E+03  0.58530999292E+03  0.74132618050E+03  0.25500000920E-02 0. -1.
</event>
<event>
 5   0  0.3575091E-04  0.1658782E+04  0.7818609E-02  0.8785228E-01
       -2   -1    0    0    0  501  0.00000000000E+00  0.00000000000E+00  0.34763863212E+03  0.34763863213E+03  0.25500000920E-02 0. -1.
        2   -1    0    0  501    0  0.00000000000E+00  0.00000000000E+00 -0.19787485227E+04  0.19787485227E+04  0.25500000920E-02 0.  1.
    10030    2    1    2    0    0  0.00000000000E+00  0.00000000000E+00 -0.16311098906E+04  0.23263871548E+04  0.16587819986E+04 0.  0.
        5    1    3    3  502    0 -0.78174154274E+03 -0.17930500704E+03 -0.51938120852E+03  0.95553600401E+03  0.46999998093E+01 0. -1.
       -5    1    3    3    0  502  0.78174154274E+03  0.17930500704E+03 -0.11117286820E+04  0.13708511508E+04  0.46999998093E+01 0.  1.
</event>
<event>
 5   0  0.3568870E-04  0.1767500E+04  0.7818609E-02  0.8723776E-01
        2   -1    0    0  501    0  0.00000000000E+00  0.00000000000E+00  0.64744960909E+03  0.64744960910E+03  0.25500000920E-02 0. -1.
       -2   -1    0    0    0  501  0.00000000000E+00  0.00000000000E+00 -0.12062936989E+04  0.12062936989E+04  0.25500000920E-02 0.  1.
    10030    2    1    2    0    0  0.00000000000E+00  0.00000000000E+00 -0.55884408979E+03  0.18537433080E+04  0.17675003636E+04 0.  0.
        1    1    3    3  502    0  0.41206239966E+03  0.63829268803E+03 -0.75289336068E+03  0.10696080541E+04  0.50400001928E-02 0.  1.
       -1    1    3    3    0  502 -0.41206239966E+03 -0.63829268803E+03  0.19404927090E+03  0.78413525388E+03  0.50400001928E-02 0. -1.
</event>
<event>
 5   0  0.1835421E-04  0.1774221E+04  0.7818609E-02  0.8720130E-01
        1   -1    0    0  501    0  0.00000000000E+00  0.00000000000E+00  0.13515933083E+04  0.13515933083E+04  0.50400001928E-02 0.  1.
       -1   -1    0    0    0  501  0.00000000000E+00  0.00000000000E+00 -0.58224955744E+03  0.58224955747E+03  0.50400001928E-02 0. -1.
    10030    2    1    2    0    0  0.00000000000E+00  0.00000000000E+00  0.76934375083E+03  0.19338428657E+04  0.17742205112E+04 0.  0.
        2    1    3    3  502    0 -0.28182015163E+03 -0.41194851410E+03 -0.41468425399E+03  0.64891232586E+03  0.25500000920E-02 0. -1.
       -2    1    3    3    0  502  0.28182015163E+03  0.41194851410E+03  0.11840280048E+04  0.12849305399E+04  0.25500000920E-02 0.  1.
</event>
<event>
 5   0  0.3568870E-04  0.1815876E+04  0.7818609E-02  0.8697902E-01
        2   -1    0    0  501    0  0.00000000000E+00  0.00000000000E+00  0.68419837627E+03  0.68419837627E+03  0.25500000920E-02 0.  1.
       -2   -1    0    0    0  501  0.00000000000E+00  0.00000000000E+00 -0.12048430499E+04  0.12048430499E+04  0.25500000920E-02 0. -1.
    10030    2    1    2    0    0  0.00000000000E+00  0.00000000000E+00 -0.52064467363E+03  0.18890414262E+04  0.18158762716E+04 0.  0.
        1    1    3    3  502    0  0.78079107435E+03 -0.42711672919E+03 -0.73392974743E+02  0.89300052123E+03  0.50400001928E-02 0. -1.
       -1    1    3    3    0  502 -0.78079107435E+03  0.42711672919E+03 -0.44725169889E+03  0.99604090495E+03  0.50400001928E-02 0.  1.
</event>
<event>
 5   0  0.1825253E-04  0.1803393E+04  0.7818609E-02  0.8704497E-01
        1   -1    0    0  501    0  0.00000000000E+00  0.00000000000E+00  0.93615149273E+03  0.93615149274E+03  0.50400001928E-02 0.  1.
       -1   -1    0    0    0  501  0.00000000000E+00  0.00000000000E+00 -0.86850932449E+03  0.86850932450E+03  0.50400001928E-02 0. -1.
    10030    2    1    2    0    0  0.00000000000E+00  0.00000000000E+00  0.67642168238E+02  0.18046608172E+04  0.18033926922E+04 0.  0.
        4    1    3    3  502    0  0.35521883669E+03 -0.33879218331E+03 -0.72307982432E+03  0.87396030267E+03  0.12699999809E+01 0. -1.
       -4    1    3    3    0  502 -0.35521883669E+03  0.33879218331E+03  0.79072199255E+03  0.93070051457E+03  0.12699999809E+01 0.  1.
</event>
<event>
 5   0  0.3531266E-04  0.1787996E+04  0.7818609E-02  0.8712709E-01
       -2   -1    0    0    0  501  0.00000000000E+00  0.00000000000E+00  0.69387196551E+03  0.69387196551E+03  0.25500000920E-02 0. -1.
        2   -1    0    0  501    0  0.00000000000E+00  0.00000000000E+00 -0.11518442730E+04  0.11518442730E+04  0.25500000920E-02 0.  1.
    10030    2    1    2    0    0  0.00000000000E+00  0.00000000000E+00 -0.45797230745E+03  0.18457162385E+04  0.17879960287E+04 0.  0.
        3    1    3    3  502    0  0.76036682173E+03  0.71557277685E+02 -0.70869674054E+03  0.10418873393E+04  0.10100000352E+00 0.  1.
       -3    1    3    3    0  502 -0.76036682173E+03 -0.71557277685E+02  0.25072443309E+03  0.80382889916E+03  0.10100000352E+00 0. -1.
</event>
<event>
 5   0  0.1825253E-04  0.1793910E+04  0.7818609E-02  0.8709545E-01
        1   -1    0    0  501    0  0.00000000000E+00  0.00000000000E+00  0.81033802521E+03  0.81033802522E+03  0.50400001928E-02 0. -1.
       -1   -1    0    0    0  501  0.00000000000E+00  0.00000000000E+00 -0.99283095426E+03  0.99283095428E+03  0.50400001928E-02 0.  1.
    10030    2    1    2    0    0  0.00000000000E+00  0.00000000000E+00 -0.18249292906E+03  0.18031689795E+04  0.17939104491E+04 0.  0.
        4    1    3    3  502    0  0.73844483967E+03  0.26182704671E+03 -0.53016116742E+03  0.94600563422E+03  0.12699999809E+01 0.  1.
       -4    1    3    3    0  502 -0.73844483967E+03 -0.26182704671E+03  0.34766823836E+03  0.85716334528E+03  0.12699999809E+01 0. -1.
</event>
<event>
 5   0  0.3531266E-04  0.1796804E+04  0.7818609E-02  0.8708001E-01
       -2   -1    0    0    0  501  0.00000000000E+00  0.00000000000E+00  0.12173228024E+04  0.12173228024E+04  0.25500000920E-02 0. -1.
        2   -1    0    0  501    0  0.00000000000E+00  0.00000000000E+00 -0.66303407125E+03  0.66303407125E+03  0.25500000920E-02 0.  1.
    10030    2    1    2    0    0  0.00000000000E+00  0.00000000000E+00  0.55428873119E+03  0.18803568737E+04  0.17968043786E+04 0.  0.
        3    1    3    3  502    0 -0.31705569692E+03 -0.41546306498E+02  0.11557538137E+04  0.11991735898E+04  0.10100000352E+00 0. -1.
       -3    1    3    3    0  502  0.31705569692E+03  0.41546306498E+02 -0.60146508249E+03  0.68118328385E+03  0.10100000352E+00 0.  1.
</event>
<event>
 5   0  0.3582186E-04  0.1812110E+04  0.7818609E-02  0.8699886E-01
       -2   -1    0    0    0  501  0.00000000000E+00  0.00000000000E+00  0.64358673269E+03  0.64358673270E+03  0.25500000920E-02 0. -1.
        2   -1    0    0  501    0  0.00000000000E+00  0.00000000000E+00 -0.12755626862E+04  0.12755626862E+04  0.25500000920E-02 0.  1.
    10030    2    1    2    0    0  0.00000000000E+00  0.00000000000E+00 -0.63197595350E+03  0.19191494189E+04  0.18121095128E+04 0.  0.
        4    1    3    3  502    0 -0.45871981785E+03 -0.41599247783E+03 -0.10164643976E+04  0.11902416130E+04  0.12699999809E+01 0.  1.
       -4    1    3    3    0  502  0.45871981785E+03  0.41599247783E+03  0.38448844411E+03  0.72890780586E+03  0.12699999809E+01 0. -1.
</event>
<event>
 5   0  0.3628581E-04  0.1794546E+04  0.7818609E-02  0.8709205E-01
       -2   -1    0    0    0  501  0.00000000000E+00  0.00000000000E+00  0.45682615041E+03  0.45682615042E+03  0.25500000920E-02 0. -1.
        2   -1    0    0  501    0  0.00000000000E+00  0.00000000000E+00 -0.17623742642E+04  0.17623742642E+04  0.25500000920E-02 0.  1.
    10030    2    1    2    0    0  0.00000000000E+00  0.00000000000E+00 -0.13055481138E+04  0.22192004146E+04  0.17945457929E+04 0.  0.
        2    1    3    3  502    0  0.73395125885E+03 -0.90138394814E+02 -0.12812594121E+04  0.14793360205E+04  0.25500000920E-02 0.  1.
       -2    1    3    3    0  502 -0.73395125885E+03  0.90138394814E+02 -0.24288701686E+02  0.73986439408E+03  0.25500000920E-02 0. -1.
</event>
<event>
 5   0  0.3628581E-04  0.1807127E+04  0.7818609E-02  0.8702519E-01
       -2   -1    0    0    0  501  0.00000000000E+00  0.00000000000E+00  0.67204868265E+03  0.67204868266E+03  0.25500000920E-02 0.  1.
        2   -1    0    0  501    0  0.00000000000E+00  0.00000000000E+00 -0.12148326503E+04  0.12148326503E+04  0.25500000920E-02 0. -1.
    10030    2    1    2    0    0  0.00000000000E+00  0.00000000000E+00 -0.54278396767E+03  0.18868813330E+04  0.18071266500E+04 0.  0.
        2    1    3    3  502    0 -0.41407119346E+03  0.27697566651E+03 -0.10584886853E+04  0.11698584401E+04  0.25500000920E-02 0. -1.
       -2    1    3    3    0  502  0.41407119346E+03 -0.27697566651E+03  0.51570471761E+03  0.71702289284E+03  0.25500000920E-02 0.  1.
</event>
<event>
 5   0  0.1835421E-04  0.1388253E+04  0.7818609E-02  0.8962366E-01
       -1   -1    0    0    0  501  0.00000000000E+00  0.00000000000E+00  0.98779200281E+03  0.98779200282E+03  0.50400001928E-02 0. -1.
        1   -1    0    0  501    0  0.00000000000E+00  0.00000000000E+00 -0.48776601096E+03  0.48776601099E+03  0.50400001928E-02 0.  1.
    10030    2    1    2    0    0  0.00000000000E+00  0.00000000000E+00  0.50002599185E+03  0.14755580138E+04  0.13882526642E+04 0.  0.
        2    1    3    3  502    0  0.55066407500E+03 -0.14388601395E+02  0.69891632941E+03  0.88989998925E+03  0.25500000920E-02 0. -1.
       -2    1    3    3    0  502 -0.55066407500E+03  0.14388601395E+02 -0.19889033756E+03  0.58565802456E+03  0.25500000920E-02 0.  1.
</event>
<event>
 5   0  0.3628581E-04  0.1766552E+04  0.7818609E-02  0.8724292E-01
        2   -1    0    0  501    0  0.00000000000E+00  0.00000000000E+00  0.23171230565E+04  0.23171230565E+04  0.25500000920E-02 0.  1.
       -2   -1    0    0    0  501  0.00000000000E+00  0.00000000000E+00 -0.33670038961E+03  0.33670038962E+03  0.25500000920E-02 0. -1.
    10030    2    1    2    0    0  0.00000000000E+00  0.00000000000E+00  0.19804226668E+04  0.26538234461E+04  0.17665517099E+04 0.  0.
        2    1    3    3  502    0 -0.57246575888E+03  0.64284504332E+03  0.12876798433E+04  0.15488983742E+04  0.25500000920E-02 0.  1.
       -2    1    3    3    0  502  0.57246575888E+03 -0.64284504332E+03  0.69274282352E+03  0.11049250718E+04  0.25500000920E-02 0. -1.
</event>
<event>
 5   0  0.3575091E-04  0.1783178E+04  0.7818609E-02  0.8715297E-01
       -2   -1    0    0    0  501  0.00000000000E+00  0.00000000000E+00  0.27672363121E+03  0.27672363123E+03  0.25500000920E-02 0.  1.
        2   -1    0    0  501    0  0.00000000000E+00  0.00000000000E+00 -0.28726523854E+04  0.28726523854E+04  0.25500000920E-02 0. -1.
    10030    2    1    2    0    0  0.00000000000E+00  0.00000000000E+00 -0.25959287542E+04  0.31493760166E+04  0.17831778367E+04 0.  0.
        5    1    3    3  502    0 -0.21855092724E+03  0.41909316249E+03  0.37215941830E+02  0.47414207045E+03  0.46999998093E+01 0.  1.
       -5    1    3    3    0  502  0.21855092724E+03 -0.41909316249E+03 -0.26331446960E+04  0.26752339462E+04  0.46999998093E+01 0. -1.
</event>
<event>
 5   0  0.3575091E-04  0.1790271E+04  0.7818609E-02  0.8711490E-01
        2   -1    0    0  501    0  0.00000000000E+00  0.00000000000E+00  0.12088311778E+04  0.12088311778E+04  0.25500000920E-02 0.  1.
       -2   -1    0    0    0  501  0.00000000000E+00  0.00000000000E+00 -0.66284523522E+03  0.66284523523E+03  0.25500000920E-02 0. -1.
    10030    2    1    2    0    0  0.00000000000E+00  0.00000000000E+00  0.54598594254E+03  0.18716764130E+04  0.17902714726E+04 0.  0.
        5    1    3    3  502    0 -0.13177846656E+03  0.33624614074E+03 -0.58328448400E+03  0.68605386864E+03  0.46999998093E+01 0. -1.
       -5    1    3    3    0  502  0.13177846656E+03 -0.33624614074E+03  0.11292704265E+04  0.11856225443E+04  0.46999998093E+01 0.  1.
</event>
<event>
 5   0  0.3531266E-04  0.1816082E+04  0.7818609E-02  0.8697794E-01
        2   -1    0    0  501    0  0.00000000000E+00  0.00000000000E+00  0.13172348950E+04  0.13172348950E+04  0.25500000920E-02 0.  1.
       -2   -1    0    0    0  501  0.00000000000E+00  0.00000000000E+00 -0.62596147399E+03  0.62596147400E+03  0.25500000920E-02 0. -1.
    10030    2    1    2    0    0  0.00000000000E+00  0.00000000000E+00  0.69127342102E+03  0.19431963690E+04  0.18160818225E+04 0.  0.
        3    1    3    3  502    0 -0.25181157255E+03 -0.50490972431E+03 -0.41563619132E+03  0.70078267066E+03  0.10100000352E+00 0. -1.
       -3    1    3    3    0  502  0.25181157255E+03  0.50490972431E+03  0.11069096123E+04  0.12424136983E+04  0.10100000352E+00 0.  1.
</event>
<event>
 5   0  0.1883959E-04  0.1830204E+04  0.7818609E-02  0.8690400E-01
       -1   -1    0    0    0  501  0.00000000000E+00  0.00000000000E+00  0.73234593178E+03  0.73234593179E+03  0.50400001928E-02 0. -1.
        1   -1    0    0  501    0  0.00000000000E+00  0.00000000000E+00 -0.11434649240E+04  0.11434649240E+04  0.50400001928E-02 0.  1.
    10030    2    1    2    0    0  0.00000000000E+00  0.00000000000E+00 -0.41111899223E+03  0.18758108558E+04  0.18302042348E+04 0.  0.
        5    1    3    3  502    0  0.55281288473E+03  0.67156582999E+03 -0.49687282259E+03  0.10017521856E+04  0.46999998093E+01 0.  1.
       -5    1    3    3    0  502 -0.55281288473E+03 -0.67156582999E+03  0.85753830357E+02  0.87405867021E+03  0.46999998093E+01 0. -1.
</event>
<event>
 5   0  0.1837313E-04  0.1796777E+04  0.7818609E-02  0.8708016E-01
        1   -1    0    0  501    0  0.00000000000E+00  0.00000000000E+00  0.11959285269E+04  0.11959285269E+04  0.50400001928E-02 0.  1.
       -1   -1    0    0    0  501  0.00000000000E+00  0.00000000000E+00 -0.67487438769E+03  0.67487438770E+03  0.50400001928E-02 0. -1.
    10030    2    1    2    0    0  0.00000000000E+00  0.00000000000E+00  0.52105413921E+03  0.18708029146E+04  0.17967765942E+04 0.  0.
        1    1    3    3  502    0 -0.82049646860E+03 -0.79265810612E+02 -0.11140713105E+03  0.83181071921E+03  0.50400001928E-02 0. -1.
       -1    1    3    3    0  502  0.82049646860E+03  0.79265810612E+02  0.63246127026E+03  0.10389921954E+04  0.50400001928E-02 0.  1.
</event>
<event>
 5   0  0.3531266E-04  0.1790696E+04  0.7818609E-02  0.8711263E-01
       -2   -1    0    0    0  501  0.00000000000E+00  0.00000000000E+00  0.55211800401E+03  0.55211800401E+03  0.25500000920E-02 0. -1.
        2   -1    0    0  501    0  0.00000000000E+00  0.00000000000E+00 -0.14519506761E+04  0.14519506761E+04  0.25500000920E-02 0.  1.
    10030    2    1    2    0    0  0.00000000000E+00  0.00000000000E+00 -0.89983267210E+03  0.20040686801E+04  0.17906960761E+04 0.  0.
        3    1    3    3  502    0 -0.70502517014E+03 -0.19406308916E+03  0.12829562861E+03  0.74241548450E+03  0.10100000352E+00 0. -1.
       -3    1    3    3    0  502  0.70502517014E+03  0.19406308916E+03 -0.10281283007E+04  0.12616531956E+04  0.10100000352E+00 0.  1.
</event>
<event>
 5   0  0.1330125E-04  0.1788141E+04  0.7818609E-02  0.8712631E-01
        4   -1    0    0  501    0  0.00000000000E+00  0.00000000000E+00  0.74524409163E+03  0.74524517375E+03  0.12699999809E+01 0.  1.
       -4   -1    0    0    0  501  0.00000000000E+00  0.00000000000E+00 -0.10726156775E+04  0.10726164293E+04  0.12699999809E+01 0. -1.
    10030    2    1    2    0    0  0.00000000000E+00  0.00000000000E+00 -0.32737158584E+03  0.18178616031E+04  0.17881411166E+04 0.  0.
        1    1    3    3  502    0  0.20118039303E+03 -0.85297521230E+03 -0.34360729791E+03  0.94133216164E+03  0.50400001928E-02 0. -1.
       -1    1    3    3    0  502 -0.20118039303E+03  0.85297521230E+03  0.16235712074E+02  0.87652944144E+03  0.50400001928E-02 0.  1.
</event>
<event>
 5   0  0.3582186E-04  0.1780978E+04  0.7818609E-02  0.8716481E-01
       -2   -1    0    0    0  501  0.00000000000E+00  0.00000000000E+00  0.99496301281E+03  0.99496301281E+03  0.25500000920E-02 0.  1.
        2   -1    0    0  501    0  0.00000000000E+00  0.00000000000E+00 -0.79698496735E+03  0.79698496735E+03  0.25500000920E-02 0. -1.
    10030    2    1    2    0    0  0.00000000000E+00  0.00000000000E+00  0.19797804546E+03  0.17919479802E+04  0.17809778935E+04 0.  0.
        4    1    3    3  502    0  0.77513857552E+03 -0.22618197672E+03  0.47676256105E+03  0.93771117641E+03  0.12699999809E+01 0.  1.
       -4    1    3    3    0  502 -0.77513857552E+03  0.22618197672E+03 -0.27878451559E+03  0.85423680375E+03  0.12699999809E+01 0. -1.
</event>
<event>
 5   0  0.1330125E-04  0.1747091E+04  0.7818609E-02  0.8734953E-01
       -3   -1    0    0    0  501  0.00000000000E+00  0.00000000000E+00  0.50907130886E+03  0.50907131888E+03  0.10100000352E+00 0.  1.
        3   -1    0    0  501    0  0.00000000000E+00  0.00000000000E+00 -0.14989675383E+04  0.14989675417E+04  0.10100000352E+00 0. -1.
    10030    2    1    2    0    0  0.00000000000E+00  0.00000000000E+00 -0.98989622946E+03  0.20080388606E+04  0.17470905874E+04 0.  0.
        5    1    3    3  502    0 -0.30589259843E+03 -0.31065808029E+03 -0.13649629040E+04  0.14329077234E+04  0.46999998093E+01 0. -1.
       -5    1    3    3    0  502  0.30589259843E+03  0.31065808029E+03  0.37506667452E+03  0.57513113718E+03  0.46999998093E+01 0.  1.
</event>
<event>
 5   0  0.1825253E-04  0.1817087E+04  0.7818609E-02  0.8697265E-01
       -1   -1    0    0    0  501  0.00000000000E+00  0.00000000000E+00  0.54752920386E+03  0.54752920388E+03  0.50400001928E-02 0.  1.
        1   -1    0    0  501    0  0.00000000000E+00  0.00000000000E+00 -0.15075927043E+04  0.15075927043E+04  0.50400001928E-02 0. -1.
    10030    2    1    2    0    0  0.00000000000E+00  0.00000000000E+00 -0.96006350048E+03  0.20551219082E+04  0.18170867158E+04 0.  0.
        4    1    3    3  502    0  0.60080006497E+03  0.67479670994E+03 -0.58814774464E+03  0.10780680406E+04  0.12699999809E+01 0.  1.
       -4    1    3    3    0  502 -0.60080006497E+03 -0.67479670994E+03 -0.37191575584E+03  0.97705386758E+03  0.12699999809E+01 0. -1.
</event>
<event>
 5   0  0.3582186E-04  0.1796827E+04  0.7818609E-02  0.8707989E-01
       -2   -1    0    0    0  501  0.00000000000E+00  0.00000000000E+00  0.96393558538E+03  0.96393558538E+03  0.25500000920E-02 0.  1.
        2   -1    0    0  501    0  0.00000000000E+00  0.00000000000E+00 -0.83734491043E+03  0.83734491043E+03  0.25500000920E-02 0. -1.
    10030    2    1    2    0    0  0.00000000000E+00  0.00000000000E+00  0.12659067495E+03  0.18012804958E+04  0.17968267100E+04 0.  0.
        4    1    3    3  502    0  0.26965612153E+03 -0.16306566416E+03 -0.78012241048E+03  0.84136640231E+03  0.12699999809E+01 0. -1.
       -4    1    3    3    0  502 -0.26965612153E+03  0.16306566416E+03  0.90671308543E+03  0.95991409350E+03  0.12699999809E+01 0.  1.
</event>
<event>
 5   0  0.3568870E-04  0.1766940E+04  0.7818609E-02  0.8724080E-01
       -2   -1    0    0    0  501  0.00000000000E+00  0.00000000000E+00  0.14268099859E+04  0.14268099859E+04  0.25500000920E-02 0.  1.
        2   -1    0    0  501    0  0.00000000000E+00  0.00000000000E+00 -0.54703815359E+03  0.54703815360E+03  0.25500000920E-02 0. -1.
    10030    2    1    2    0    0  0.00000000000E+00  0.00000000000E+00  0.87977183230E+03  0.19738481395E+04  0.17669402935E+04 0.  0.
        1    1    3    3  502    0  0.52117983181E+03  0.33031857843E+02 -0.35616015189E+03  0.63211515924E+03  0.50400001928E-02 0. -1.
       -1    1    3    3    0  502 -0.52117983181E+03 -0.33031857843E+02  0.12359319842E+04  0.13417329802E+04  0.50400001928E-02 0.  1.
</event>
<event>
 5   0  0.3628581E-04  0.1793129E+04  0.7818609E-02  0.8709962E-01
        2   -1    0    0  501    0  0.00000000000E+00  0.00000000000E+00  0.27659174764E+04  0.27659174764E+04  0.25500000920E-02 0. -1.
       -2   -1    0    0    0  501  0.00000000000E+00  0.00000000000E+00 -0.29061905704E+03  0.29061905705E+03  0.25500000920E-02 0.  1.
    10030    2    1    2    0    0  0.00000000000E+00  0.00000000000E+00  0.24752984193E+04  0.30565365334E+04  0.17931294754E+04 0.  0.
        2    1    3    3  502    0 -0.88676043298E+03  0.11185053715E+03  0.11174342162E+04  0.14309136367E+04  0.25500000920E-02 0.  1.
       -2    1    3    3    0  502  0.88676043298E+03 -0.11185053715E+03  0.13578642031E+04  0.16256228967E+04  0.25500000920E-02 0. -1.
</event>
<event>
 5   0  0.1818778E-04  0.1809640E+04  0.7818609E-02  0.8701190E-01
       -1   -1    0    0    0  501  0.00000000000E+00  0.00000000000E+00  0.51667838884E+03  0.51667838886E+03  0.50400001928E-02 0. -1.
        1   -1    0    0  501    0  0.00000000000E+00  0.00000000000E+00 -0.15845428467E+04  0.15845428467E+04  0.50400001928E-02 0.  1.
    10030    2    1    2    0    0  0.00000000000E+00  0.00000000000E+00 -0.10678644578E+04  0.21012212355E+04  0.18096397930E+04 0.  0.
        3    1    3    3  502    0 -0.12255665509E+03  0.13910112640E+03  0.49438945925E+03  0.52800587562E+03  0.10100000352E+00 0. -1.
       -3    1    3    3    0  502  0.12255665509E+03 -0.13910112640E+03 -0.15622539171E+04  0.15732153599E+04  0.10100000352E+00 0.  1.
</event>
<event>
 5   0  0.1330125E-04  0.1802011E+04  0.7818609E-02  0.8705231E-01
        3   -1    0    0  501    0  0.00000000000E+00  0.00000000000E+00  0.10692818891E+04  0.10692818939E+04  0.10100000352E+00 0.  1.
       -3   -1    0    0    0  501  0.00000000000E+00  0.00000000000E+00 -0.75921121457E+03  0.75921122129E+03  0.10100000352E+00 0. -1.
    10030    2    1    2    0    0  0.00000000000E+00  0.00000000000E+00  0.31007067454E+03  0.18284931152E+04  0.18020108904E+04 0.  0.
        3    1    3    3  502    0 -0.14271413071E+03  0.39090898829E+03 -0.65585441945E+03  0.77673817335E+03  0.10100000352E+00 0. -1.
       -3    1    3    3    0  502  0.14271413071E+03 -0.39090898829E+03  0.96592509399E+03  0.10517549418E+04  0.10100000352E+00 0.  1.
</event>
<event>
 5   0  0.1837313E-04  0.1792820E+04  0.7818609E-02  0.8710127E-01
       -1   -1    0    0    0  501  0.00000000000E+00  0.00000000000E+00  0.90484146590E+03  0.90484146591E+03  0.50400001928E-02 0.  1.
        1   -1    0    0  501    0  0.00000000000E+00  0.00000000000E+00 -0.88805740012E+03  0.88805740014E+03  0.50400001928E-02 0. -1.
    10030    2    1    2    0    0  0.00000000000E+00  0.00000000000E+00  0.16784065777E+02  0.17928988661E+04  0.17928203030E+04 0.  0.
        1    1    3    3  502    0  0.66514643622E+02 -0.81694047443E+03 -0.35457734449E+03  0.89305152697E+03  0.50400001928E-02 0. -1.
       -1    1    3    3    0  502 -0.66514643622E+02  0.81694047443E+03  0.37136141026E+03  0.89984733908E+03  0.50400001928E-02 0.  1.
</event>
<event>
 5   0  0.1835421E-04  0.1810863E+04  0.7818609E-02  0.8700544E-01
       -1   -1    0    0    0  501  0.00000000000E+00  0.00000000000E+00  0.58195091825E+03  0.58195091827E+03  0.50400001928E-02 0.  1.
        1   -1    0    0  501    0  0.00000000000E+00  0.00000000000E+00 -0.14087212197E+04  0.14087212197E+04  0.50400001928E-02 0. -1.
    10030    2    1    2    0    0  0.00000000000E+00  0.00000000000E+00 -0.82677030142E+03  0.19906721379E+04  0.18108634486E+04 0.  0.
        2    1    3    3  502    0 -0.48696534346E+03 -0.67907213753E+03 -0.30154654901E+02  0.83617194220E+03  0.25500000920E-02 0.  1.
       -2    1    3    3    0  502  0.48696534346E+03  0.67907213753E+03 -0.79661564652E+03  0.11545001957E+04  0.25500000920E-02 0. -1.
</event>
<event>
 5   0  0.3628581E-04  0.1968804E+04  0.7818609E-02  0.8621346E-01
       -2   -1    0    0    0  501  0.00000000000E+00  0.00000000000E+00  0.71834330560E+03  0.71834330561E+03  0.25500000920E-02 0. -1.
        2   -1    0    0  501    0  0.00000000000E+00  0.00000000000E+00 -0.13490034453E+04  0.13490034454E+04  0.25500000920E-02 0.  1.
    10030    2    1    2    0    0  0.00000000000E+00  0.00000000000E+00 -0.63066013975E+03  0.20673467510E+04  0.19688043013E+04 0.  0.
        2    1    3    3  502    0 -0.49042820471E+03  0.40072198367E+03 -0.11066747718E+04  0.12750792064E+04  0.25500000920E-02 0.  1.
       -2    1    3    3    0  502  0.49042820471E+03 -0.40072198367E+03  0.47601463204E+03  0.79226754452E+03  0.25500000920E-02 0. -1.
</event>
<event>
 5   0  0.3575091E-04  0.1805695E+04  0.7818609E-02  0.8703277E-01
       -2   -1    0    0    0  501  0.00000000000E+00  0.00000000000E+00  0.42347254738E+03  0.42347254739E+03  0.25500000920E-02 0. -1.
        2   -1    0    0  501    0  0.00000000000E+00  0.00000000000E+00 -0.19248785714E+04  0.19248785714E+04  0.25500000920E-02 0.  1.
    10030    2    1    2    0    0  0.00000000000E+00  0.00000000000E+00 -0.15014060240E+04  0.23483511188E+04  0.18056945833E+04 0.  0.
        5    1    3    3  502    0  0.77669852691E+03 -0.94697517536E+02 -0.13364923740E+04  0.15486969288E+04  0.46999998093E+01 0.  1.
       -5    1    3    3    0  502 -0.77669852691E+03  0.94697517536E+02 -0.16491364995E+03  0.79965418993E+03  0.46999998093E+01 0. -1.
</event>
<event>
 5   0  0.1837313E-04  0.1817465E+04  0.7818609E-02  0.8697067E-01
        1   -1    0    0  501    0  0.00000000000E+00  0.00000000000E+00  0.13756985093E+04  0.13756985093E+04  0.50400001928E-02 0.  1.
       -1   -1    0    0    0  501  0.00000000000E+00  0.00000000000E+00 -0.60027288615E+03  0.60027288617E+03  0.50400001928E-02 0. -1.
    10030    2    1    2    0    0  0.00000000000E+00  0.00000000000E+00  0.77542562314E+03  0.19759713955E+04  0.18174647338E+04 0.  0.
        1    1    3    3  502    0 -0.40709191186E+03 -0.19118524022E+03  0.12462111715E+04  0.13248841100E+04  0.50400001928E-02 0.  1.
       -1    1    3    3    0  502  0.40709191186E+03  0.19118524022E+03 -0.47078554837E+03  0.65108728552E+03  0.50400001928E-02 0. -1.
</event>
<event>
 5   0  0.3568870E-04  0.1806041E+04  0.7818609E-02  0.8703094E-01
        2   -1    0    0  501    0  0.00000000000E+00  0.00000000000E+00  0.10732276210E+04  0.10732276210E+04  0.25500000920E-02 0.  1.
       -2   -1    0    0    0  501  0.00000000000E+00  0.00000000000E+00 -0.75980706972E+03  0.75980706972E+03  0.25500000920E-02 0. -1.
    10030    2    1    2    0    0  0.00000000000E+00  0.00000000000E+00  0.31342055131E+03  0.18330346907E+04  0.18060409008E+04 0.  0.
        1    1    3    3  502    0 -0.22529170574E+03  0.53230188976E+03 -0.54744917130E+03  0.79611698242E+03  0.50400001928E-02 0. -1.
       -1    1    3    3    0  502  0.22529170574E+03 -0.53230188976E+03  0.86086972261E+03  0.10369177083E+04  0.50400001928E-02 0.  1.
</event>
<event>
 5   0  0.1825253E-04  0.1778672E+04  0.7818609E-02  0.8717724E-01
       -1   -1    0    0    0  501  0.00000000000E+00  0.00000000000E+00  0.86305417478E+03  0.86305417479E+03  0.50400001928E-02 0. -1.
        1   -1    0    0  501    0  0.00000000000E+00  0.00000000000E+00 -0.91641856129E+03  0.91641856130E+03  0.50400001928E-02 0.  1.
    10030    2    1    2    0    0  0.00000000000E+00  0.00000000000E+00 -0.53364386513E+02  0.17794727361E+04  0.17786723871E+04 0.  0.
        4    1    3    3  502    0 -0.89633564751E+02  0.86071771673E+03  0.17846638152E+03  0.88358419296E+03  0.12699999809E+01 0. -1.
       -4    1    3    3    0  502  0.89633564751E+02 -0.86071771673E+03 -0.23183076804E+03  0.89588854314E+03  0.12699999809E+01 0.  1.
</event>
<event>
 5   0  0.3575091E-04  0.1773965E+04  0.7818609E-02  0.8720268E-01
       -2   -1    0    0    0  501  0.00000000000E+00  0.00000000000E+00  0.59928510003E+03  0.59928510003E+03  0.25500000920E-02 0. -1.
        2   -1    0    0  501    0  0.00000000000E+00  0.00000000000E+00 -0.13127940402E+04  0.13127940402E+04  0.25500000920E-02 0.  1.
    10030    2    1    2    0    0  0.00000000000E+00  0.00000000000E+00 -0.71350894019E+03  0.19120791403E+04  0.17739649463E+04 0.  0.
        5    1    3    3  502    0  0.49884673936E+01 -0.46990053925E+02 -0.13114229009E+04  0.13122823877E+04  0.46999998093E+01 0.  1.
       -5    1    3    3    0  502 -0.49884673936E+01  0.46990053925E+02  0.59791396072E+03  0.59979675258E+03  0.46999998093E+01 0. -1.
</event>
<event>
 5   0  0.3582186E-04  0.1774240E+04  0.7818609E-02  0.8720120E-01
       -2   -1    0    0    0  501  0.00000000000E+00  0.00000000000E+00  0.35086233397E+03  0.35086233398E+03  0.25500000920E-02 0.  1.
        2   -1    0    0  501    0  0.00000000000E+00  0.00000000000E+00 -0.22429929071E+04  0.22429929071E+04  0.25500000920E-02 0. -1.
    10030    2    1    2    0    0  0.00000000000E+00  0.00000000000E+00 -0.18921305731E+04  0.25938552411E+04  0.17742398107E+04 0.  0.
        4    1    3    3  502    0 -0.26092698665E+03  0.84109524165E+03 -0.78958839328E+03  0.11827829647E+04  0.12699999809E+01 0.  1.
       -4    1    3    3    0  502  0.26092698665E+03 -0.84109524165E+03 -0.11025421798E+04  0.14110722764E+04  0.12699999809E+01 0. -1.
</event>
<event>
 5   0  0.3575091E-04  0.1816015E+04  0.7818609E-02  0.8697829E-01
        2   -1    0    0  501    0  0.00000000000E+00  0.00000000000E+00  0.14740467455E+04  0.14740467455E+04  0.25500000920E-02 0. -1.
       -2   -1    0    0    0  501  0.00000000000E+00  0.00000000000E+00 -0.55932915219E+03  0.55932915220E+03  0.25500000920E-02 0.  1.
    10030    2    1    2    0    0  0.00000000000E+00  0.00000000000E+00  0.91471759329E+03  0.20333758977E+04  0.18160146656E+04 0.  0.
        5    1    3    3  502    0 -0.20255295961E+03 -0.79578554790E+03  0.23483260824E+02  0.82150830381E+03  0.46999998093E+01 0.  1.
       -5    1    3    3    0  502  0.20255295961E+03  0.79578554790E+03  0.89123433247E+03  0.12118675939E+04  0.46999998093E+01 0. -1.
</event>
<event>
 5   0  0.3575091E-04  0.1726067E+04  0.7818609E-02  0.8746636E-01
        2   -1    0    0  501    0  0.00000000000E+00  0.00000000000E+00  0.81155695312E+03  0.81155695313E+03  0.25500000920E-02 0.  1.
       -2   -1    0    0    0  501  0.00000000000E+00  0.00000000000E+00 -0.91777505146E+03  0.91777505147E+03  0.25500000920E-02 0. -1.
    10030    2    1    2    0    0  0.00000000000E+00  0.00000000000E+00 -0.10621809834E+03  0.17293320046E+04  0.17260668868E+04 0.  0.
        5    1    3    3  502    0  0.63692179778E+03  0.73430411377E+02 -0.63190700955E+03  0.90021661867E+03  0.46999998093E+01 0. -1.
       -5    1    3    3    0  502 -0.63692179778E+03 -0.73430411377E+02  0.52568891122E+03  0.82911538593E+03  0.46999998093E+01 0.  1.
</event>
<event>
 5   0  0.3575091E-04  0.1787793E+04  0.7818609E-02  0.8712818E-01
        2   -1    0    0  501    0  0.00000000000E+00  0.00000000000E+00  0.17869855897E+04  0.17869855897E+04  0.25500000920E-02 0. -1.
       -2   -1    0    0    0  501  0.00000000000E+00  0.00000000000E+00 -0.44715000425E+03  0.44715000426E+03  0.25500000920E-02 0.  1.
    10030    2    1    2    0    0  0.00000000000E+00  0.00000000000E+00  0.13398355855E+04  0.22341355940E+04  0.17877926211E+04 0.  0.
        5    1    3    3  502    0 -0.20755348467E+03 -0.48801933516E+03 -0.22930652681E+03  0.57779312364E+03  0.46999998093E+01 0.  1.
       -5    1    3    3    0  502  0.20755348467E+03  0.48801933516E+03  0.15691421123E+04  0.16563424703E+04  0.46999998093E+01 0. -1.
</event>
<event>
 5   0  0.3568870E-04  0.1792599E+04  0.7818609E-02  0.8710245E-01
        2   -1    0    0  501    0  0.00000000000E+00  0.00000000000E+00  0.95615972326E+03  0.95615972327E+03  0.25500000920E-02 0. -1.
       -2   -1    0    0    0  501  0.00000000000E+00  0.00000000000E+00 -0.84018700420E+03  0.84018700420E+03  0.25500000920E-02 0.  1.
    10030    2    1    2    0    0  0.00000000000E+00  0.00000000000E+00  0.11597271906E+03  0.17963467275E+04  0.17925992005E+04 0.  0.
        1    1    3    3  502    0  0.59102513226E+03 -0.29909485790E+03 -0.54708429231E+03  0.85910980900E+03  0.50400001928E-02 0.  1.
       -1    1    3    3    0  502 -0.59102513226E+03  0.29909485790E+03  0.66305701137E+03  0.93723691847E+03  0.50400001928E-02 0. -1.
</event>
<event>
 5   0  0.1835421E-04  0.1788092E+04  0.7818609E-02  0.8712658E-01
       -1   -1    0    0    0  501  0.00000000000E+00  0.00000000000E+00  0.10713303904E+04  0.10713303904E+04  0.50400001928E-02 0. -1.
        1   -1    0    0  501    0  0.00000000000E+00  0.00000000000E+00 -0.74609907445E+03  0.74609907447E+03  0.50400001928E-02 0.  1.
    10030    2    1    2    0    0  0.00000000000E+00  0.00000000000E+00  0.32523131596E+03  0.18174294649E+04  0.17880924056E+04 0.  0.
        2    1    3    3  502    0  0.62426737428E+02 -0.35675948011E+03  0.99342754896E+03  0.10573895778E+04  0.25500000920E-02 0. -1.
       -2    1    3    3    0  502 -0.62426737428E+02  0.35675948011E+03 -0.66819623299E+03  0.76003988710E+03  0.25500000920E-02 0.  1.
</event>
<event>
 5   0  0.3582186E-04  0.1828898E+04  0.7818609E-02  0.8691081E-01
       -2   -1    0    0    0  501  0.00000000000E+00  0.00000000000E+00  0.16081736813E+04  0.16081736813E+04  0.25500000920E-02 0.  1.
        2   -1    0    0  501    0  0.00000000000E+00  0.00000000000E+00 -0.51997921078E+03  0.51997921078E+03  0.25500000920E-02 0. -1.
    10030    2    1    2    0    0  0.00000000000E+00  0.00000000000E+00  0.10881944705E+04  0.21281528921E+04  0.18288978994E+04 0.  0.
        4    1    3    3  502    0 -0.25254790935E+03  0.12728777281E+03 -0.46781087109E+03  0.54665459628E+03  0.12699999809E+01 0. -1.
       -4    1    3    3    0  502  0.25254790935E+03 -0.12728777281E+03  0.15560053416E+04  0.15814982958E+04  0.12699999809E+01 0.  1.
</event>
<event>
 5   0  0.1818778E-04  0.1711749E+04  0.7818609E-02  0.8754692E-01
        1   -1    0    0  501    0  0.00000000000E+00  0.00000000000E+00  0.90386040503E+03  0.90386040505E+03  0.50400001928E-02 0. -1.
       -1   -1    0    0    0  501  0.00000000000E+00  0.00000000000E+00 -0.81043588125E+03  0.81043588126E+03  0.50400001928E-02 0.  1.
    10030    2    1    2    0    0  0.00000000000E+00  0.00000000000E+00  0.93424523783E+02  0.17142962863E+04  0.17117487011E+04 0.  0.
        3    1    3    3  502    0  0.12080265614E+03 -0.83945942593E+03  0.16192905795E+03  0.86342714778E+03  0.10100000352E+00 0. -1.
       -3    1    3    3    0  502 -0.12080265614E+03  0.83945942593E+03 -0.68504534166E+02  0.85086913853E+03  0.10100000352E+00 0.  1.
</event>
<event>
 5   0  0.3531266E-04  0.1828653E+04  0.7818609E-02  0.8691209E-01
       -2   -1    0    0    0  501  0.00000000000E+00  0.00000000000E+00  0.36144654177E+03  0.36144654178E+03  0.25500000920E-02 0.  1.
        2   -1    0    0  501    0  0.00000000000E+00  0.00000000000E+00 -0.23129096595E+04  0.23129096595E+04  0.25500000920E-02 0. -1.
    10030    2    1    2    0    0  0.00000000000E+00  0.00000000000E+00 -0.19514631178E+04  0.26743562013E+04  0.18286532726E+04 0.  0.
        3    1    3    3  502    0  0.24592950491E+03 -0.81889621570E+03 -0.50201475293E+03  0.99150953391E+03  0.10100000352E+00 0.  1.
       -3    1    3    3    0  502 -0.24592950491E+03  0.81889621570E+03 -0.14494483648E+04  0.16828466674E+04  0.10100000352E+00 0. -1.
</event>
<event>
 5   0  0.1825253E-04  0.1801590E+04  0.7818609E-02  0.8705455E-01
        1   -1    0    0  501    0  0.00000000000E+00  0.00000000000E+00  0.18995838975E+04  0.18995838975E+04  0.50400001928E-02 0.  1.
       -1   -1    0    0    0  501  0.00000000000E+00  0.00000000000E+00 -0.42716259223E+03  0.42716259226E+03  0.50400001928E-02 0. -1.
    10030    2    1    2    0    0  0.00000000000E+00  0.00000000000E+00  0.14724213053E+04  0.23267464898E+04  0.18015895003E+04 0.  0.
        4    1    3    3  502    0  0.77990151431E+02 -0.31675392107E+03 -0.34819585205E+03  0.47713465030E+03  0.12699999809E+01 0. -1.
       -4    1    3    3    0  502 -0.77990151431E+02  0.31675392107E+03  0.18206171573E+04  0.18496118395E+04  0.12699999809E+01 0.  1.
</event>
<event>
 5   0  0.3568870E-04  0.1804996E+04  0.7818609E-02  0.8703647E-01
       -2   -1    0    0    0  501  0.00000000000E+00  0.00000000000E+00  0.35978818366E+03  0.35978818367E+03  0.25500000920E-02 0. -1.
        2   -1    0    0  501    0  0.00000000000E+00  0.00000000000E+00 -0.22638382020E+04  0.22638382020E+04  0.25500000920E-02 0.  1.
    10030    2    1    2    0    0  0.00000000000E+00  0.00000000000E+00 -0.19040500183E+04  0.26236263857E+04  0.18049955510E+04 0.  0.
        1    1    3    3  502    0  0.85081358421E+02 -0.53427150442E+03  0.97964873634E+02  0.54980177744E+03  0.50400001928E-02 0. -1.
       -1    1    3    3    0  502 -0.85081358421E+02  0.53427150442E+03 -0.20020148920E+04  0.20738246082E+04  0.50400001928E-02 0.  1.
</event>
<event>
 5   0  0.1883959E-04  0.2009267E+04  0.7818609E-02  0.8602300E-01
        1   -1    0    0  501    0  0.00000000000E+00  0.00000000000E+00  0.14657120280E+04  0.14657120280E+04  0.50400001928E-02 0. -1.
       -1   -1    0    0    0  501  0.00000000000E+00  0.00000000000E+00 -0.68859961497E+03  0.68859961498E+03  0.50400001928E-02 0.  1.
    10030    2    1    2    0    0  0.00000000000E+00  0.00000000000E+00  0.77711241306E+03  0.21543116430E+04  0.20092672676E+04 0.  0.
        5    1    3    3  502    0 -0.94125663368E+03 -0.34058235139E+03  0.29690918176E+03  0.10440965189E+04  0.46999998093E+01 0. -1.
       -5    1    3    3    0  502  0.94125663368E+03  0.34058235139E+03  0.48020323129E+03  0.11102151241E+04  0.46999998093E+01 0.  1.
</event>
<event>
 5   0  0.1825253E-04  0.1802414E+04  0.7818609E-02  0.8705017E-01
       -1   -1    0    0    0  501  0.00000000000E+00  0.00000000000E+00  0.58449958380E+03  0.58449958382E+03  0.50400001928E-02 0.  1.
        1   -1    0    0  501    0  0.00000000000E+00  0.00000000000E+00 -0.13895197516E+04  0.13895197516E+04  0.50400001928E-02 0. -1.
    10030    2    1    2    0    0  0.00000000000E+00  0.00000000000E+00 -0.80502016779E+03  0.19740193354E+04  0.18024136224E+04 0.  0.
        4    1    3    3  502    0  0.31338228756E+03  0.61613310705E+03 -0.10357867326E+04  0.12452647237E+04  0.12699999809E+01 0. -1.
       -4    1    3    3    0  502 -0.31338228756E+03 -0.61613310705E+03  0.23076656481E+03  0.72875461172E+03  0.12699999809E+01 0.  1.
</event>
<event>
 5   0  0.3531266E-04  0.1815734E+04  0.7818609E-02  0.8697977E-01
        2   -1    0    0  501    0  0.00000000000E+00  0.00000000000E+00  0.19431529489E+04  0.19431529489E+04  0.25500000920E-02 0. -1.
       -2   -1    0    0    0  501  0.00000000000E+00  0.00000000000E+00 -0.42416748482E+03  0.42416748483E+03  0.25500000920E-02 0.  1.
    10030    2    1    2    0    0  0.00000000000E+00  0.00000000000E+00  0.15189854641E+04  0.23673204338E+04  0.18157337899E+04 0.  0.
        3    1    3    3  502    0  0.73189442130E+03  0.46483536279E+03  0.11105005186E+04  0.14088835191E+04  0.10100000352E+00 0. -1.
       -3    1    3    3    0  502 -0.73189442130E+03 -0.46483536279E+03  0.40848494551E+03  0.95843691464E+03  0.10100000352E+00 0.  1.
</event>
<event>
 5   0  0.1883959E-04  0.1788938E+04  0.7818609E-02  0.8712204E-01
       -1   -1    0    0    0  501  0.00000000000E+00  0.00000000000E+00  0.32507742851E+03  0.32507742855E+03  0.50400001928E-02 0. -1.
        1   -1    0    0  501    0  0.00000000000E+00  0.00000000000E+00 -0.24611834510E+04  0.24611834510E+04  0.50400001928E-02 0.  1.
    10030    2    1    2    0    0  0.00000000000E+00  0.00000000000E+00 -0.21361060225E+04  0.27862608796E+04  0.17889384421E+04 0.  0.
        5    1    3    3  502    0 -0.31599328203E+03  0.47818820209E+03 -0.21375620191E+04  0.22130768595E+04  0.46999998093E+01 0.  1.
       -5    1    3    3    0  502  0.31599328203E+03 -0.47818820209E+03  0.14559965544E+01  0.57318402004E+03  0.46999998093E+01 0. -1.
</event>
<event>
 5   0  0.1818778E-04  0.1785666E+04  0.7818609E-02  0.8713960E-01
        1   -1    0    0  501    0  0.00000000000E+00  0.00000000000E+00  0.12307623117E+04  0.12307623117E+04  0.50400001928E-02 0.  1.
       -1   -1    0    0    0  501  0.00000000000E+00  0.00000000000E+00 -0.64768830121E+03  0.64768830123E+03  0.50400001928E-02 0. -1.
    10030    2    1    2    0    0  0.00000000000E+00  0.00000000000E+00  0.58307401047E+03  0.18784506129E+04  0.17856655352E+04 0.  0.
        3    1    3    3  502    0 -0.66925573947E+03  0.19992755233E+03 -0.29348583735E+03  0.75763330043E+03  0.10100000352E+00 0. -1.
       -3    1    3    3    0  502  0.66925573947E+03 -0.19992755233E+03  0.87655984782E+03  0.11208173125E+04  0.10100000352E+00 0.  1.
</event>
<event>
 5   0  0.1835421E-04  0.1788372E+04  0.7818609E-02  0.8712507E-01
        1   -1    0    0  501    0  0.00000000000E+00  0.00000000000E+00  0.16564787079E+04  0.16564787079E+04  0.50400001928E-02 0.  1.
       -1   -1    0    0    0  501  0.00000000000E+00  0.00000000000E+00 -0.48269199021E+03  0.48269199024E+03  0.50400001928E-02 0. -1.
    10030    2    1    2    0    0  0.00000000000E+00  0.00000000000E+00  0.11737867177E+04  0.21391706981E+04  0.17883724492E+04 0.  0.
        2    1    3    3  502    0 -0.62835345012E+03  0.49315056718E+00 -0.17409131658E+03  0.65202460689E+03  0.25500000920E-02 0. -1.
       -2    1    3    3    0  502  0.62835345012E+03 -0.49315056718E+00  0.13478780343E+04  0.14871460913E+04  0.25500000920E-02 0.  1.
</event>
<event>
 5   0  0.3628581E-04  0.1596491E+04  0.7818609E-02  0.8822706E-01
        2   -1    0    0  501    0  0.00000000000E+00  0.00000000000E+00  0.23311408680E+04  0.23311408680E+04  0.25500000920E-02 0. -1.
       -2   -1    0    0    0  501  0.00000000000E+00  0.00000000000E+00 -0.27334091456E+03  0.27334091457E+03  0.25500000920E-02 0.  1.
    10030    2    1    2    0    0  0.00000000000E+00  0.00000000000E+00  0.20577999535E+04  0.26044817826E+04  0.15964913740E+04 0.  0.
        2    1    3    3  502    0  0.56181139784E+03  0.51884619072E+03  0.14022068744E+04  0.15971905131E+04  0.25500000920E-02 0.  1.
       -2    1    3    3    0  502 -0.56181139784E+03 -0.51884619072E+03  0.65559307909E+03  0.10072912696E+04  0.25500000920E-02 0. -1.
</event>
<event>
 5   0  0.1835421E-04  0.1777022E+04  0.7818609E-02  0.8718615E-01
       -1   -1    0    0    0  501  0.00000000000E+00  0.00000000000E+00  0.42455598688E+03  0.42455598691E+03  0.50400001928E-02 0.  1.
        1   -1    0    0  501    0  0.00000000000E+00  0.00000000000E+00 -0.18594764778E+04  0.18594764778E+04  0.50400001928E-02 0. -1.
    10030    2    1    2    0    0  0.00000000000E+00  0.00000000000E+00 -0.14349204909E+04  0.22840324647E+04  0.17770220833E+04 0.  0.
        2    1    3    3  502    0 -0.79638461189E+03  0.38248037357E+03 -0.59598485585E+03  0.10657005370E+04  0.25500000920E-02 0. -1.
       -2    1    3    3    0  502  0.79638461189E+03 -0.38248037357E+03 -0.83893563506E+03  0.12183319277E+04  0.25500000920E-02 0.  1.
</event>
<event>
 5   0  0.1835421E-04  0.1768455E+04  0.7818609E-02  0.8723257E-01
        1   -1    0    0  501    0  0.00000000000E+00  0.00000000000E+00  0.20515492926E+04  0.20515492926E+04  0.50400001928E-02 0.  1.
       -1   -1    0    0    0  501  0.00000000000E+00  0.00000000000E+00 -0.38110633577E+03  0.38110633581E+03  0.50400001928E-02 0. -1.
    10030    2    1    2    0    0  0.00000000000E+00  0.00000000000E+00  0.16704429568E+04  0.24326556284E+04  0.17684551830E+04 0.  0.
        2    1    3    3  502    0  0.72718117152E+03  0.50233880540E+03  0.79826713196E+03  0.11909522012E+04  0.25500000920E-02 0. -1.
       -2    1    3    3    0  502 -0.72718117152E+03 -0.50233880540E+03  0.87217582487E+03  0.12417034272E+04  0.25500000920E-02 0.  1.
</event>
<event>
 5   0  0.1818778E-04  0.1810760E+04  0.7818609E-02  0.8700598E-01
       -1   -1    0    0    0  501  0.00000000000E+00  0.00000000000E+00  0.11983745281E+04  0.11983745282E+04  0.50400001928E-02 0.  1.
        1   -1    0    0  501    0  0.00000000000E+00  0.00000000000E+00 -0.68402077954E+03  0.68402077955E+03  0.50400001928E-02 0. -1.
    10030    2    1    2    0    0  0.00000000000E+00  0.00000000000E+00  0.51435374861E+03  0.18823953077E+04  0.18107601486E+04 0.  0.
        3    1    3    3  502    0 -0.16168142107E+03 -0.37006932540E+03 -0.58520157651E+03  0.71102256144E+03  0.10100000352E+00 0. -1.
       -3    1    3    3    0  502  0.16168142107E+03  0.37006932540E+03  0.10995553251E+04  0.11713727463E+04  0.10100000352E+00 0.  1.
</event>
<event>
 5   0  0.3568870E-04  0.1793441E+04  0.7818609E-02  0.8709795E-01
       -2   -1    0    0    0  501  0.00000000000E+00  0.00000000000E+00  0.61758696138E+03  0.61758696139E+03  0.25500000920E-02 0. -1.
        2   -1    0    0  501    0  0.00000000000E+00  0.00000000000E+00 -0.13020156970E+04  0.13020156970E+04  0.25500000920E-02 0.  1.
    10030    2    1    2    0    0  0.00000000000E+00  0.00000000000E+00 -0.68442873561E+03  0.19196026584E+04  0.17934412931E+04 0.  0.
        1    1    3    3  502    0 -0.64719961149E+03  0.14607346785E+03  0.30346523775E+03  0.72958614684E+03  0.50400001928E-02 0. -1.
       -1    1    3    3    0  502  0.64719961149E+03 -0.14607346785E+03 -0.98789397335E+03  0.11900165115E+04  0.50400001928E-02 0.  1.
</event>
<event>
 5   0  0.3582186E-04  0.1823068E+04  0.7818609E-02  0.8694128E-01
        2   -1    0    0  501    0  0.00000000000E+00  0.00000000000E+00  0.47240179041E+03  0.47240179042E+03  0.25500000920E-02 0. -1.
       -2   -1    0    0    0  501  0.00000000000E+00  0.00000000000E+00 -0.17588715793E+04  0.17588715793E+04  0.25500000920E-02 0.  1.
    10030    2    1    2    0    0  0.00000000000E+00  0.00000000000E+00 -0.12864697889E+04  0.22312733697E+04  0.18230678355E+04 0.  0.
        4    1    3    3  502    0  0.23815579657E+03 -0.81087117175E+03 -0.10612722478E+04  0.13566615781E+04  0.12699999809E+01 0.  1.
       -4    1    3    3    0  502 -0.23815579657E+03  0.81087117175E+03 -0.22519754106E+03  0.87461179160E+03  0.12699999809E+01 0. -1.
</event>
<event>
 5   0  0.1837313E-04  0.1780085E+04  0.7818609E-02  0.8716962E-01
        1   -1    0    0  501    0  0.00000000000E+00  0.00000000000E+00  0.81808124654E+03  0.81808124656E+03  0.50400001928E-02 0. -1.
       -1   -1    0    0    0  501  0.00000000000E+00  0.00000000000E+00 -0.96833374196E+03  0.96833374197E+03  0.50400001928E-02 0.  1.
    10030    2    1    2    0    0  0.00000000000E+00  0.00000000000E+00 -0.15025249542E+03  0.17864149885E+04  0.17800850257E+04 0.  0.
        1    1    3    3  502    0 -0.85587118758E+03 -0.10602462170E+03  0.14569932018E+03  0.87463421043E+03  0.50400001928E-02 0. -1.
       -1    1    3    3    0  502  0.85587118758E+03  0.10602462170E+03 -0.29595181560E+03  0.91178077810E+03  0.50400001928E-02 0.  1.
</event>
<event>
 5   0  0.3568870E-04  0.1845948E+04  0.7818609E-02  0.8682240E-01
        2   -1    0    0  501    0  0.00000000000E+00  0.00000000000E+00  0.12973708793E+04  0.12973708793E+04  0.25500000920E-02 0. -1.
       -2   -1    0    0    0  501  0.00000000000E+00  0.00000000000E+00 -0.65662070840E+03  0.65662070840E+03  0.25500000920E-02 0.  1.
    10030    2    1    2    0    0  0.00000000000E+00  0.00000000000E+00  0.64075017090E+03  0.19539915877E+04  0.18459475462E+04 0.  0.
        1    1    3    3  502    0 -0.47895778813E+03 -0.32758016058E+03  0.10801398484E+04  0.12261367854E+04  0.50400001928E-02 0. -1.
       -1    1    3    3    0  502  0.47895778813E+03  0.32758016058E+03 -0.43938967753E+03  0.72785480226E+03  0.50400001928E-02 0.  1.
</event>
<event>
 5   0  0.3582186E-04  0.1828396E+04  0.7818609E-02  0.8691343E-01
        2   -1    0    0  501    0  0.00000000000E+00  0.00000000000E+00  0.64101033599E+03  0.64101033600E+03  0.25500000920E-02 0. -1.
       -2   -1    0    0    0  501  0.00000000000E+00  0.00000000000E+00 -0.13038142228E+04  0.13038142228E+04  0.25500000920E-02 0.  1.
    10030    2    1    2    0    0  0.00000000000E+00  0.00000000000E+00 -0.66280388679E+03  0.19448245588E+04  0.18283964483E+04 0.  0.
        4    1    3    3  502    0  0.59549475571E+03 -0.54575829788E+03 -0.78678851940E+03  0.11276098221E+04  0.12699999809E+01 0. -1.
       -4    1    3    3    0  502 -0.59549475571E+03  0.54575829788E+03  0.12398463261E+03  0.81721473666E+03  0.12699999809E+01 0.  1.
</event>
<event>
 5   0  0.3575091E-04  0.1755424E+04  0.7818609E-02  0.8730370E-01
        2   -1    0    0  501    0  0.00000000000E+00  0.00000000000E+00  0.14716476301E+04  0.14716476301E+04  0.25500000920E-02 0.  1.
       -2   -1    0    0    0  501  0.00000000000E+00  0.00000000000E+00 -0.52348022095E+03  0.52348022095E+03  0.25500000920E-02 0. -1.
    10030    2    1    2    0    0  0.00000000000E+00  0.00000000000E+00  0.94816740918E+03  0.19951278511E+04  0.17554240816E+04 0.  0.
        5    1    3    3  502    0 -0.41180766202E+03 -0.53609775473E+03 -0.16215103204E+03  0.69519882070E+03  0.46999998093E+01 0. -1.
       -5    1    3    3    0  502  0.41180766202E+03  0.53609775473E+03  0.11103184412E+04  0.12999290304E+04  0.46999998093E+01 0.  1.
</event>
<event>
 5   0  0.3568870E-04  0.1785967E+04  0.7818609E-02  0.8713798E-01
        2   -1    0    0  501    0  0.00000000000E+00  0.00000000000E+00  0.21662158713E+04  0.21662158713E+04  0.25500000920E-02 0. -1.
       -2   -1    0    0    0  501  0.00000000000E+00  0.00000000000E+00 -0.36811626746E+03  0.36811626747E+03  0.25500000920E-02 0.  1.
    10030    2    1    2    0    0  0.00000000000E+00  0.00000000000E+00  0.17980996039E+04  0.25343321388E+04  0.17859667422E+04 0.  0.
        1    1    3    3  502    0 -0.36990736056E+03  0.47109078443E+03 -0.40792164625E+02  0.60035154975E+03  0.50400001928E-02 0.  1.
       -1    1    3    3    0  502  0.36990736056E+03 -0.47109078443E+03  0.18388917685E+04  0.19339805890E+04  0.50400001928E-02 0. -1.
</event>
<event>
 5   0  0.3575091E-04  0.1794070E+04  0.7818609E-02  0.8709459E-01
       -2   -1    0    0    0  501  0.00000000000E+00  0.00000000000E+00  0.62089892868E+03  0.62089892869E+03  0.25500000920E-02 0.  1.
        2   -1    0    0  501    0  0.00000000000E+00  0.00000000000E+00 -0.12959784625E+04  0.12959784625E+04  0.25500000920E-02 0. -1.
    10030    2    1    2    0    0  0.00000000000E+00  0.00000000000E+00 -0.67507953381E+03  0.19168773912E+04  0.17940698303E+04 0.  0.
        5    1    3    3  502    0  0.42010561455E+03  0.56769369072E+03 -0.92846681067E+03  0.11665494256E+04  0.46999998093E+01 0.  1.
       -5    1    3    3    0  502 -0.42010561455E+03 -0.56769369072E+03  0.25338727686E+03  0.75032796558E+03  0.46999998093E+01 0. -1.
</event>
<event>
 5   0  0.3568870E-04  0.1765954E+04  0.7818609E-02  0.8724617E-01
       -2   -1    0    0    0  501  0.00000000000E+00  0.00000000000E+00  0.82700754604E+03  0.82700754604E+03  0.25500000920E-02 0.  1.
        2   -1    0    0  501    0  0.00000000000E+00  0.00000000000E+00 -0.94273429007E+03  0.94273429007E+03  0.25500000920E-02 0. -1.
    10030    2    1    2    0    0  0.00000000000E+00  0.00000000000E+00 -0.11572674402E+03  0.17697418361E+04  0.17659539879E+04 0.  0.
        1    1    3    3  502    0 -0.79404085488E+03 -0.30918539367E+03 -0.28977253829E+03  0.90003589420E+03  0.50400001928E-02 0. -1.
       -1    1    3    3    0  502  0.79404085488E+03  0.30918539367E+03  0.17404579427E+03  0.86970594191E+03  0.50400001928E-02 0.  1.
</event>
<event>
 5   0  0.1825253E-04  0.1602565E+04  0.7818609E-02  0.8818974E-01
        1   -1    0    0  501    0  0.00000000000E+00  0.00000000000E+00  0.10686350949E+04  0.10686350949E+04  0.50400001928E-02 0.  1.
       -1   -1    0    0    0  501  0.00000000000E+00  0.00000000000E+00 -0.60081627955E+03  0.60081627957E+03  0.50400001928E-02 0. -1.
    10030    2    1    2    0    0  0.00000000000E+00  0.00000000000E+00  0.46781881531E+03  0.16694513744E+04  0.16025646470E+04 0.  0.
        4    1    3    3  502    0 -0.36242215504E+03  0.22916094593E+03  0.93905644952E+03  0.10323241671E+04  0.12699999809E+01 0.  1.
       -4    1    3    3    0  502  0.36242215504E+03 -0.22916094593E+03 -0.47123763421E+03  0.63712720739E+03  0.12699999809E+01 0. -1.
</event>
<event>
 5   0  0.1818778E-04  0.1705992E+04  0.7818609E-02  0.8757954E-01
        1   -1    0    0  501    0  0.00000000000E+00  0.00000000000E+00  0.69667682715E+03  0.69667682717E+03  0.50400001928E-02 0.  1.
       -1   -1    0    0    0  501  0.00000000000E+00  0.00000000000E+00 -0.10443894230E+04  0.10443894230E+04  0.50400001928E-02 0. -1.
    10030    2    1    2    0    0  0.00000000000E+00  0.00000000000E+00 -0.34771259585E+03  0.17410662502E+04  0.17059916876E+04 0.  0.
        3    1    3    3  502    0 -0.80923617560E+02  0.57106277964E+02 -0.10385011012E+04  0.10432134519E+04  0.10100000352E+00 0. -1.
       -3    1    3    3    0  502  0.80923617560E+02 -0.57106277964E+02  0.69078850530E+03  0.69785279832E+03  0.10100000352E+00 0.  1.
</event>
<event>
 5   0  0.3568870E-04  0.1798412E+04  0.7818609E-02  0.8707144E-01
        2   -1    0    0  501    0  0.00000000000E+00  0.00000000000E+00  0.92024527478E+03  0.92024527478E+03  0.25500000920E-02 0. -1.
       -2   -1    0    0    0  501  0.00000000000E+00  0.00000000000E+00 -0.87864775092E+03  0.87864775092E+03  0.25500000920E-02 0.  1.
    10030    2    1    2    0    0  0.00000000000E+00  0.00000000000E+00  0.41597523857E+02  0.17988930257E+04  0.17984120117E+04 0.  0.
        1    1    3    3  502    0  0.89590670887E+03 -0.30269964952E+02 -0.49975651476E+02  0.89780992840E+03  0.50400001928E-02 0. -1.
       -1    1    3    3    0  502 -0.89590670887E+03  0.30269964952E+02  0.91573175332E+02  0.90108309730E+03  0.50400001928E-02 0.  1.
</event>
<event>
 5   0  0.1835421E-04  0.1825646E+04  0.7818609E-02  0.8692779E-01
       -1   -1    0    0    0  501  0.00000000000E+00  0.00000000000E+00  0.57506896295E+03  0.57506896297E+03  0.50400001928E-02 0.  1.
        1   -1    0    0  501    0  0.00000000000E+00  0.00000000000E+00 -0.14489486454E+04  0.14489486454E+04  0.50400001928E-02 0. -1.
    10030    2    1    2    0    0  0.00000000000E+00  0.00000000000E+00 -0.87387968249E+03  0.20240176084E+04  0.18256455241E+04 0.  0.
        2    1    3    3  502    0  0.65709281804E+03  0.13609217863E+03  0.24913384371E+03  0.71579307393E+03  0.25500000920E-02 0.  1.
       -2    1    3    3    0  502 -0.65709281804E+03 -0.13609217863E+03 -0.11230135262E+04  0.13082245345E+04  0.25500000920E-02 0. -1.
</event>
<event>
 5   0  0.3628581E-04  0.1779196E+04  0.7818609E-02  0.8717442E-01
        2   -1    0    0  501    0  0.00000000000E+00  0.00000000000E+00  0.84024516661E+03  0.84024516661E+03  0.25500000920E-02 0.  1.
       -2   -1    0    0    0  501  0.00000000000E+00  0.00000000000E+00 -0.94184957849E+03  0.94184957850E+03  0.25500000920E-02 0. -1.
    10030    2    1    2    0    0  0.00000000000E+00  0.00000000000E+00 -0.10160441188E+03  0.17820947451E+04  0.17791959487E+04 0.  0.
        2    1    3    3  502    0 -0.67459803550E+03 -0.57906708440E+03 -0.82211841374E+02  0.89283816260E+03  0.25500000920E-02 0. -1.
       -2    1    3    3    0  502  0.67459803550E+03  0.57906708440E+03 -0.19392570510E+02  0.88925658251E+03  0.25500000920E-02 0.  1.
</event>
<event>
 5   0  0.1825253E-04  0.1803835E+04  0.7818609E-02  0.8704263E-01
        1   -1    0    0  501    0  0.00000000000E+00  0.00000000000E+00  0.29058874024E+03  0.29058874029E+03  0.50400001928E-02 0. -1.
       -1   -1    0    0    0  501  0.00000000000E+00  0.00000000000E+00 -0.27993333347E+04  0.27993333347E+04  0.50400001928E-02 0.  1.
    10030    2    1    2    0    0  0.00000000000E+00  0.00000000000E+00 -0.25087445944E+04  0.30899220750E+04  0.18038345238E+04 0.  0.
        4    1    3    3  502    0  0.85598068435E+03 -0.20474984280E+03 -0.15919095328E+04  0.18190115458E+04  0.12699999809E+01 0.  1.
       -4    1    3    3    0  502 -0.85598068435E+03  0.20474984280E+03 -0.91683506163E+03  0.12709105292E+04  0.12699999809E+01 0. -1.
</event>
<event>
 5   0  0.3575091E-04  0.1792744E+04  0.7818609E-02  0.8710168E-01
       -2   -1    0    0    0  501  0.00000000000E+00  0.00000000000E+00  0.70541108972E+03  0.70541108972E+03  0.25500000920E-02 0.  1.
        2   -1    0    0  501    0  0.00000000000E+00  0.00000000000E+00 -0.11390278776E+04  0.11390278776E+04  0.25500000920E-02 0. -1.
    10030    2    1    2    0    0  0.00000000000E+00  0.00000000000E+00 -0.43361678793E+03  0.18444389674E+04  0.17927441495E+04 0.  0.
        5    1    3    3  502    0  0.83155149039E+02  0.81336014103E+03 -0.59481455531E+03  0.10110865161E+04  0.46999998093E+01 0.  1.
       -5    1    3    3    0  502 -0.83155149039E+02 -0.81336014103E+03  0.16119776738E+03  0.83335245127E+03  0.46999998093E+01 0. -1.
</event>
<event>
 5   0  0.1825253E-04  0.1879467E+04  0.7818609E-02  0.8665145E-01
        1   -1    0    0  501    0  0.00000000000E+00  0.00000000000E+00  0.49032412330E+03  0.49032412333E+03  0.50400001928E-02 0. -1.
       -1   -1    0    0    0  501  0.00000000000E+00  0.00000000000E+00 -0.18010512652E+04  0.18010512652E+04  0.50400001928E-02 0.  1.
    10030    2    1    2    0    0  0.00000000000E+00  0.00000000000E+00 -0.13107271419E+04  0.22913753885E+04  0.18794668208E+04 0.  0.
        4    1    3    3  502    0  0.71428539100E+03  0.48319534689E+03 -0.20014733381E+03  0.88529200334E+03  0.12699999809E+01 0.  1.
       -4    1    3    3    0  502 -0.71428539100E+03 -0.48319534689E+03 -0.11105798080E+04  0.14060833851E+04  0.12699999809E+01 0. -1.
</event>
<event>
 5   0  0.3568870E-04  0.1792540E+04  0.7818609E-02  0.8710277E-01
       -2   -1    0    0    0  501  0.00000000000E+00  0.00000000000E+00  0.11504762117E+04  0.11504762117E+04  0.25500000920E-02 0.  1.
        2   -1    0    0  501    0  0.00000000000E+00  0.00000000000E+00 -0.69823280180E+03  0.69823280180E+03  0.25500000920E-02 0. -1.
    10030    2    1    2    0    0  0.00000000000E+00  0.00000000000E+00  0.45224340986E+03  0.18487090135E+04  0.17925403523E+04 0.  0.
        1    1    3    3  502    0  0.23638245090E+03  0.29609650875E+03 -0.61158011002E+03  0.71943035562E+03  0.50400001928E-02 0. -1.
       -1    1    3    3    0  502 -0.23638245090E+03 -0.29609650875E+03  0.10638235199E+04  0.11292786578E+04  0.50400001928E-02 0.  1.
</event>
<event>
 5   0  0.1835421E-04  0.1802207E+04  0.7818609E-02  0.8705127E-01
        1   -1    0    0  501    0  0.00000000000E+00  0.00000000000E+00  0.11378399958E+04  0.11378399958E+04  0.50400001928E-02 0.  1.
       -1   -1    0    0    0  501  0.00000000000E+00  0.00000000000E+00 -0.71362191414E+03  0.71362191416E+03  0.50400001928E-02 0. -1.
    10030    2    1    2    0    0  0.00000000000E+00  0.00000000000E+00  0.42421808163E+03  0.18514619099E+04  0.18022070423E+04 0.  0.
        2    1    3    3  502    0 -0.71041637135E+02  0.89401009618E+03  0.30217837318E+03  0.94636818179E+03  0.25500000920E-02 0. -1.
       -2    1    3    3    0  502  0.71041637135E+02 -0.89401009618E+03  0.12203970846E+03  0.90509372815E+03  0.25500000920E-02 0.  1.
</event>
<event>
 5   0  0.1835421E-04  0.1774246E+04  0.7818609E-02  0.8720116E-01
        1   -1    0    0  501    0  0.00000000000E+00  0.00000000000E+00  0.20664156824E+04  0.20664156824E+04  0.50400001928E-02 0. -1.
       -1   -1    0    0    0  501  0.00000000000E+00  0.00000000000E+00 -0.38084639871E+03  0.38084639875E+03  0.50400001928E-02 0.  1.
    10030    2    1    2    0    0  0.00000000000E+00  0.00000000000E+00  0.16855692836E+04  0.24472620811E+04  0.17742457225E+04 0.  0.
        2    1    3    3  502    0  0.82775178768E+03  0.12714678273E+03  0.12464527377E+04  0.15016603323E+04  0.25500000920E-02 0. -1.
       -2    1    3    3    0  502 -0.82775178768E+03 -0.12714678273E+03  0.43911654593E+03  0.94560174877E+03  0.25500000920E-02 0.  1.
</event>
<event>
 5   0  0.1818778E-04  0.1805090E+04  0.7818609E-02  0.8703598E-01
        1   -1    0    0  501    0  0.00000000000E+00  0.00000000000E+00  0.95036453742E+03  0.95036453743E+03  0.50400001928E-02 0. -1.
       -1   -1    0    0    0  501  0.00000000000E+00  0.00000000000E+00 -0.85713130054E+03  0.85713130055E+03  0.50400001928E-02 0.  1.
    10030    2    1    2    0    0  0.00000000000E+00  0.00000000000E+00  0.93233236881E+02  0.18074958380E+04  0.18050896842E+04 0.  0.
        3    1    3    3  502    0 -0.50110850725E+03  0.33810841571E+03  0.71770408569E+03  0.93836357646E+03  0.10100000352E+00 0. -1.
       -3    1    3    3    0  502  0.50110850725E+03 -0.33810841571E+03 -0.62447084881E+03  0.86913226152E+03  0.10100000352E+00 0.  1.
</event>
<event>
 5   0  0.1883959E-04  0.1537504E+04  0.7818609E-02  0.8859889E-01
       -1   -1    0    0    0  501  0.00000000000E+00  0.00000000000E+00  0.98204821648E+03  0.98204821649E+03  0.50400001928E-02 0. -1.
        1   -1    0    0  501    0  0.00000000000E+00  0.00000000000E+00 -0.60178261850E+03  0.60178261852E+03  0.50400001928E-02 0.  1.
    10030    2    1    2    0    0  0.00000000000E+00  0.00000000000E+00  0.38026559798E+03  0.15838308350E+04  0.15375038826E+04 0.  0.
        5    1    3    3  502    0 -0.62895494487E+03 -0.28833263449E+03  0.53524588139E+03  0.87477441340E+03  0.46999998093E+01 0. -1.
       -5    1    3    3    0  502  0.62895494487E+03  0.28833263449E+03 -0.15498028341E+03  0.70905642161E+03  0.46999998093E+01 0.  1.
</event>
<event>
 5   0  0.1825253E-04  0.1780689E+04  0.7818609E-02  0.8716637E-01
       -1   -1    0    0    0  501  0.00000000000E+00  0.00000000000E+00  0.65161068331E+03  0.65161068333E+03  0.50400001928E-02 0.  1.
        1   -1    0    0  501    0  0.00000000000E+00  0.00000000000E+00 -0.12165437207E+04  0.12165437207E+04  0.50400001928E-02 0. -1.
    10030    2    1    2    0    0  0.00000000000E+00  0.00000000000E+00 -0.56493303741E+03  0.18681544041E+04  0.17806885019E+04 0.  0.
        4    1    3    3  502    0  0.64501816568E+03 -0.88731534674E+02 -0.91957607397E+03  0.11267402043E+04  0.12699999809E+01 0. -1.
       -4    1    3    3    0  502 -0.64501816568E+03  0.88731534674E+02  0.35464303656E+03  0.74141419975E+03  0.12699999809E+01 0.  1.
</event>
<event>
 5   0  0.3582186E-04  0.1811198E+04  0.7818609E-02  0.8700367E-01
       -2   -1    0    0    0  501  0.00000000000E+00  0.00000000000E+00  0.36282573774E+03  0.36282573775E+03  0.25500000920E-02 0. -1.
        2   -1    0    0  501    0  0.00000000000E+00  0.00000000000E+00 -0.22603391969E+04  0.22603391969E+04  0.25500000920E-02 0.  1.
    10030    2    1    2    0    0  0.00000000000E+00  0.00000000000E+00 -0.18975134592E+04  0.26231649347E+04  0.18111976554E+04 0.  0.
        4    1    3    3  502    0  0.74128508596E+03  0.38304068268E+03 -0.43899508961E+03  0.94283723136E+03  0.12699999809E+01 0. -1.
       -4    1    3    3    0  502 -0.74128508596E+03 -0.38304068268E+03 -0.14585183696E+04  0.16803277033E+04  0.12699999809E+01 0.  1.
</event>
<event>
 5   0  0.3568870E-04  0.1929239E+04  0.7818609E-02  0.8640437E-01
        2   -1    0    0  501    0  0.00000000000E+00  0.00000000000E+00  0.19242644680E+04  0.19242644680E+04  0.25500000920E-02 0. -1.
       -2   -1    0    0    0  501  0.00000000000E+00  0.00000000000E+00 -0.48355676856E+03  0.48355676857E+03  0.25500000920E-02 0.  1.
    10030    2    1    2    0    0  0.00000000000E+00  0.00000000000E+00  0.14407076994E+04  0.24078212366E+04  0.19292393403E+04 0.  0.
        1    1    3    3  502    0  0.66429497145E+03  0.42564105991E+03  0.14130403836E+04  0.16183761141E+04  0.50400001928E-02 0. -1.
       -1    1    3    3    0  502 -0.66429497145E+03 -0.42564105991E+03  0.27667315809E+02  0.78944512245E+03  0.50400001928E-02 0.  1.
</event>
<event>
 5   0  0.3575091E-04  0.1788763E+04  0.7818609E-02  0.8712298E-01
        2   -1    0    0  501    0  0.00000000000E+00  0.00000000000E+00  0.22130339328E+04  0.22130339328E+04  0.25500000920E-02 0. -1.
       -2   -1    0    0    0  501  0.00000000000E+00  0.00000000000E+00 -0.36145789489E+03  0.36145789490E+03  0.25500000920E-02 0.  1.
    10030    2    1    2    0    0  0.00000000000E+00  0.00000000000E+00  0.18515760379E+04  0.25744918277E+04  0.17887633569E+04 0.  0.
        5    1    3    3  502    0  0.21725328915E+03  0.86398095179E+03  0.81214659783E+03  0.12055149369E+04  0.46999998093E+01 0. -1.
       -5    1    3    3    0  502 -0.21725328915E+03 -0.86398095179E+03  0.10394294401E+04  0.13689768908E+04  0.46999998093E+01 0.  1.
</event>
<event>
 5   0  0.3628581E-04  0.1953387E+04  0.7818609E-02  0.8628729E-01
        2   -1    0    0  501    0  0.00000000000E+00  0.00000000000E+00  0.84264606598E+03  0.84264606598E+03  0.25500000920E-02 0. -1.
       -2   -1    0    0    0  501  0.00000000000E+00  0.00000000000E+00 -0.11320652837E+04  0.11320652837E+04  0.25500000920E-02 0.  1.
    10030    2    1    2    0    0  0.00000000000E+00  0.00000000000E+00 -0.28941921775E+03  0.19747113497E+04  0.19533871688E+04 0.  0.
        2    1    3    3  502    0 -0.91796843118E+02  0.18153993623E+03 -0.11104110963E+04  0.11288915855E+04  0.25500000920E-02 0.  1.
       -2    1    3    3    0  502  0.91796843118E+02 -0.18153993623E+03  0.82099187860E+03  0.84581976424E+03  0.25500000920E-02 0. -1.
</event>
<event>
 5   0  0.1835421E-04  0.1617028E+04  0.7818609E-02  0.8810155E-01
        1   -1    0    0  501    0  0.00000000000E+00  0.00000000000E+00  0.15439793143E+04  0.15439793143E+04  0.50400001928E-02 0.  1.
       -1   -1    0    0    0  501  0.00000000000E+00  0.00000000000E+00 -0.42338336071E+03  0.42338336074E+03  0.50400001928E-02 0. -1.
    10030    2    1    2    0    0  0.00000000000E+00  0.00000000000E+00  0.11205959535E+04  0.19673626750E+04  0.16170283250E+04 0.  0.
        2    1    3    3  502    0  0.15806796026E+03 -0.60390420796E+03 -0.64840856204E+02  0.62760665157E+03  0.25500000920E-02 0. -1.
       -2    1    3    3    0  502 -0.15806796026E+03  0.60390420796E+03  0.11854368097E+04  0.13397560234E+04  0.25500000920E-02 0.  1.
</event>
<event>
 5   0  0.1837313E-04  0.1808706E+04  0.7818609E-02  0.8701683E-01
       -1   -1    0    0    0  501  0.00000000000E+00  0.00000000000E+00  0.60737461181E+03  0.60737461183E+03  0.50400001928E-02 0.  1.
        1   -1    0    0  501    0  0.00000000000E+00  0.00000000000E+00 -0.13465407811E+04  0.13465407811E+04  0.50400001928E-02 0. -1.
    10030    2    1    2    0    0  0.00000000000E+00  0.00000000000E+00 -0.73916616925E+03  0.19539153929E+04  0.18087063711E+04 0.  0.
        1    1    3    3  502    0 -0.58273887519E+03  0.69091418864E+03 -0.40212941476E+03  0.98926997274E+03  0.50400001928E-02 0. -1.
       -1    1    3    3    0  502  0.58273887519E+03 -0.69091418864E+03 -0.33703675448E+03  0.96464542015E+03  0.50400001928E-02 0.  1.
</event>
<event>
 5   0  0.3575091E-04  0.1772638E+04  0.7818609E-02  0.8720987E-01
        2   -1    0    0  501    0  0.00000000000E+00  0.00000000000E+00  0.15505127040E+04  0.15505127040E+04  0.25500000920E-02 0.  1.
       -2   -1    0    0    0  501  0.00000000000E+00  0.00000000000E+00 -0.50664608572E+03  0.50664608573E+03  0.25500000920E-02 0. -1.
    10030    2    1    2    0    0  0.00000000000E+00  0.00000000000E+00  0.10438666183E+04  0.20571587898E+04  0.17726377999E+04 0.  0.
        5    1    3    3  502    0 -0.69162903388E+03 -0.31587025807E+03  0.10504603625E+04  0.12967705285E+04  0.46999998093E+01 0.  1.
       -5    1    3    3    0  502  0.69162903388E+03  0.31587025807E+03 -0.65937441447E+01  0.76038826128E+03  0.46999998093E+01 0. -1.
</event>
<event>
 5   0  0.3568870E-04  0.1798307E+04  0.7818609E-02  0.8707200E-01
        2   -1    0    0  501    0  0.00000000000E+00  0.00000000000E+00  0.13829026892E+04  0.13829026892E+04  0.25500000920E-02 0.  1.
       -2   -1    0    0    0  501  0.00000000000E+00  0.00000000000E+00 -0.58462351705E+03  0.58462351705E+03  0.25500000920E-02 0. -1.
    10030    2    1    2    0    0  0.00000000000E+00  0.00000000000E+00  0.79827917217E+03  0.19675262063E+04  0.17983074642E+04 0.  0.
        1    1    3    3  502    0  0.49580301339E+03  0.66068072490E+03  0.10529912407E+02  0.82609353431E+03  0.50400001928E-02 0.  1.
       -1    1    3    3    0  502 -0.49580301339E+03 -0.66068072490E+03  0.78774925976E+03  0.11414326720E+04  0.50400001928E-02 0. -1.
</event>
<event>
 5   0  0.1883959E-04  0.1778417E+04  0.7818609E-02  0.8717862E-01
       -1   -1    0    0    0  501  0.00000000000E+00  0.00000000000E+00  0.69145021518E+03  0.69145021520E+03  0.50400001928E-02 0. -1.
        1   -1    0    0  501    0  0.00000000000E+00  0.00000000000E+00 -0.11435261416E+04  0.11435261416E+04  0.50400001928E-02 0.  1.
    10030    2    1    2    0    0  0.00000000000E+00  0.00000000000E+00 -0.45207592639E+03  0.18349763568E+04  0.17784165954E+04 0.  0.
        5    1    3    3  502    0 -0.10367955003E+03 -0.42779009918E+03 -0.10232124567E+04  0.11138849310E+04  0.46999998093E+01 0.  1.
       -5    1    3    3    0  502  0.10367955003E+03  0.42779009918E+03  0.57113653031E+03  0.72109142575E+03  0.46999998093E+01 0. -1.
</event>
<event>
 5   0  0.1818778E-04  0.1809025E+04  0.7818609E-02  0.8701515E-01
        1   -1    0    0  501    0  0.00000000000E+00  0.00000000000E+00  0.10776205755E+04  0.10776205755E+04  0.50400001928E-02 0.  1.
       -1   -1    0    0    0  501  0.00000000000E+00  0.00000000000E+00 -0.75921232984E+03  0.75921232986E+03  0.50400001928E-02 0. -1.
    10030    2    1    2    0    0  0.00000000000E+00  0.00000000000E+00  0.31840824562E+03  0.18368329053E+04  0.18090249615E+04 0.  0.
        3    1    3    3  502    0 -0.70247512065E+03 -0.31905134224E+03  0.63856044755E+03  0.10015111130E+04  0.10100000352E+00 0.  1.
       -3    1    3    3    0  502  0.70247512065E+03  0.31905134224E+03 -0.32015220193E+03  0.83532179232E+03  0.10100000352E+00 0. -1.
</event>
<event>
 5   0  0.3575091E-04  0.1790923E+04  0.7818609E-02  0.8711142E-01
       -2   -1    0    0    0  501  0.00000000000E+00  0.00000000000E+00  0.60754269511E+03  0.60754269512E+03  0.25500000920E-02 0. -1.
        2   -1    0    0  501    0  0.00000000000E+00  0.00000000000E+00 -0.13198265494E+04  0.13198265494E+04  0.25500000920E-02 0.  1.
    10030    2    1    2    0    0  0.00000000000E+00  0.00000000000E+00 -0.71228385427E+03  0.19273692445E+04  0.17909226437E+04 0.  0.
        5    1    3    3  502    0 -0.74178974435E+03 -0.14318130360E+03 -0.87346934628E+03  0.11548695595E+04  0.46999998093E+01 0.  1.
       -5    1    3    3    0  502  0.74178974435E+03  0.14318130360E+03  0.16118549202E+03  0.77249968502E+03  0.46999998093E+01 0. -1.
</event>
<event>
 5   0  0.1818778E-04  0.1802335E+04  0.7818609E-02  0.8705059E-01
       -1   -1    0    0    0  501  0.00000000000E+00  0.00000000000E+00  0.40048422770E+03  0.40048422773E+03  0.50400001928E-02 0. -1.
        1   -1    0    0  501    0  0.00000000000E+00  0.00000000000E+00 -0.20278025083E+04  0.20278025083E+04  0.50400001928E-02 0.  1.
    10030    2    1    2    0    0  0.00000000000E+00  0.00000000000E+00 -0.16273182806E+04  0.24282867361E+04  0.18023350649E+04 0.  0.
        3    1    3    3  502    0  0.21442778012E+03  0.18368660041E+03 -0.19666703375E+04  0.19868347356E+04  0.10100000352E+00 0.  1.
       -3    1    3    3    0  502 -0.21442778012E+03 -0.18368660041E+03  0.33935205683E+03  0.44145200049E+03  0.10100000352E+00 0. -1.
</event>
<event>
 5   0  0.3531266E-04  0.1828947E+04  0.7818609E-02  0.8691056E-01
       -2   -1    0    0    0  501  0.00000000000E+00  0.00000000000E+00  0.31208211328E+03  0.31208211329E+03  0.25500000920E-02 0. -1.
        2   -1    0    0  501    0  0.00000000000E+00  0.00000000000E+00 -0.26796209046E+04  0.26796209046E+04  0.25500000920E-02 0.  1.
    10030    2    1    2    0    0  0.00000000000E+00  0.00000000000E+00 -0.23675387914E+04  0.29917030179E+04  0.18289469699E+04 0.  0.
        3    1    3    3  502    0  0.33066439003E+03 -0.19739239903E+03  0.17297694571E+03  0.42216552675E+03  0.10100000352E+00 0. -1.
       -3    1    3    3    0  502 -0.33066439003E+03  0.19739239903E+03 -0.25405157371E+04  0.25695374912E+04  0.10100000352E+00 0.  1.
</event>
<event>
 5   0  0.1835421E-04  0.1854797E+04  0.7818609E-02  0.8677690E-01
       -1   -1    0    0    0  501  0.00000000000E+00  0.00000000000E+00  0.48519425594E+03  0.48519425596E+03  0.50400001928E-02 0.  1.
        1   -1    0    0  501    0  0.00000000000E+00  0.00000000000E+00 -0.17726253631E+04  0.17726253631E+04  0.50400001928E-02 0. -1.
    10030    2    1    2    0    0  0.00000000000E+00  0.00000000000E+00 -0.12874311071E+04  0.22578196190E+04  0.18547966402E+04 0.  0.
        2    1    3    3  502    0  0.46202241477E+02 -0.70619832281E+03  0.85861788332E+02  0.71289758378E+03  0.25500000920E-02 0.  1.
       -2    1    3    3    0  502 -0.46202241477E+02  0.70619832281E+03 -0.13732928955E+04  0.15449220352E+04  0.25500000920E-02 0. -1.
</event>
<event>
 5   0  0.3568870E-04  0.1851759E+04  0.7818609E-02  0.8679249E-01
       -2   -1    0    0    0  501  0.00000000000E+00  0.00000000000E+00  0.11072825938E+04  0.11072825938E+04  0.25500000920E-02 0. -1.
        2   -1    0    0  501    0  0.00000000000E+00  0.00000000000E+00 -0.77419511185E+03  0.77419511185E+03  0.25500000920E-02 0.  1.
    10030    2    1    2    0    0  0.00000000000E+00  0.00000000000E+00  0.33308748196E+03  0.18814777057E+04  0.18517589169E+04 0.  0.
        1    1    3    3  502    0  0.89652491537E+03 -0.23098892660E+03  0.15452325672E+03  0.93861080591E+03  0.50400001928E-02 0. -1.
       -1    1    3    3    0  502 -0.89652491537E+03  0.23098892660E+03  0.17856422524E+03  0.94286689975E+03  0.50400001928E-02 0.  1.
</event>
<event>
 5   0  0.1835421E-04  0.1774988E+04  0.7818609E-02  0.8719715E-01
       -1   -1    0    0    0  501  0.00000000000E+00  0.00000000000E+00  0.11498257351E+04  0.11498257351E+04  0.50400001928E-02 0.  1.
        1   -1    0    0  501    0  0.00000000000E+00  0.00000000000E+00 -0.68501282849E+03  0.68501282851E+03  0.50400001928E-02 0. -1.
    10030    2    1    2    0    0  0.00000000000E+00  0.00000000000E+00  0.46481290661E+03  0.18348385636E+04  0.17749877511E+04 0.  0.
        2    1    3    3  502    0 -0.37497663440E+03 -0.79984722880E+03  0.32062038509E+03  0.93976619279E+03  0.25500000920E-02 0. -1.
       -2    1    3    3    0  502  0.37497663440E+03  0.79984722880E+03  0.14419252152E+03  0.89507237083E+03  0.25500000920E-02 0.  1.
</event>
<event>
 5   0  0.3582186E-04  0.1792114E+04  0.7818609E-02  0.8710504E-01
       -2   -1    0    0    0  501  0.00000000000E+00  0.00000000000E+00  0.75819405092E+03  0.75819405093E+03  0.25500000920E-02 0. -1.
        2   -1    0    0  501    0  0.00000000000E+00  0.00000000000E+00 -0.10589882251E+04  0.10589882251E+04  0.25500000920E-02 0.  1.
    10030    2    1    2    0    0  0.00000000000E+00  0.00000000000E+00 -0.30079417415E+03  0.18171822760E+04  0.17921144743E+04 0.  0.
        4    1    3    3  502    0 -0.49053500940E+02 -0.36274798330E+03  0.67892137398E+03  0.77131588230E+03  0.12699999809E+01 0. -1.
       -4    1    3    3    0  502  0.49053500940E+02  0.36274798330E+03 -0.97971554813E+03  0.10458663937E+04  0.12699999809E+01 0.  1.
</event>
<event>
 5   0  0.1825253E-04  0.1821610E+04  0.7818609E-02  0.8694891E-01
        1   -1    0    0  501    0  0.00000000000E+00  0.00000000000E+00  0.19094875773E+04  0.19094875773E+04  0.50400001928E-02 0. -1.
       -1   -1    0    0    0  501  0.00000000000E+00  0.00000000000E+00 -0.43444435602E+03  0.43444435605E+03  0.50400001928E-02 0.  1.
    10030    2    1    2    0    0  0.00000000000E+00  0.00000000000E+00  0.14750432213E+04  0.23439319334E+04  0.18216103874E+04 0.  0.
        4    1    3    3  502    0 -0.40441311638E+03 -0.59495027405E+03  0.18733832365E+02  0.71963071548E+03  0.12699999809E+01 0. -1.
       -4    1    3    3    0  502  0.40441311638E+03  0.59495027405E+03  0.14563093889E+04  0.16243012179E+04  0.12699999809E+01 0.  1.
</event>
<event>
 5   0  0.1330125E-04  0.1827243E+04  0.7818609E-02  0.8691945E-01
        4   -1    0    0  501    0  0.00000000000E+00  0.00000000000E+00  0.77315493555E+03  0.77315597862E+03  0.12699999809E+01 0.  1.
       -4   -1    0    0    0  501  0.00000000000E+00  0.00000000000E+00 -0.10796057976E+04  0.10796065446E+04  0.12699999809E+01 0. -1.
    10030    2    1    2    0    0  0.00000000000E+00  0.00000000000E+00 -0.30645086202E+03  0.18527625232E+04  0.18272429604E+04 0.  0.
        2    1    3    3  502    0 -0.79170759339E+02  0.42655935723E+03 -0.96849666749E+03  0.10612288581E+04  0.25500000920E-02 0. -1.
       -2    1    3    3    0  502  0.79170759339E+02 -0.42655935723E+03  0.66204580547E+03  0.79153366506E+03  0.25500000920E-02 0.  1.
</event>
<event>
 5   0  0.1818778E-04  0.1782136E+04  0.7818609E-02  0.8715857E-01
        1   -1    0    0  501    0  0.00000000000E+00  0.00000000000E+00  0.10346339526E+04  0.10346339526E+04  0.50400001928E-02 0. -1.
       -1   -1    0    0    0  501  0.00000000000E+00  0.00000000000E+00 -0.76742365314E+03  0.76742365315E+03  0.50400001928E-02 0.  1.
    10030    2    1    2    0    0  0.00000000000E+00  0.00000000000E+00  0.26721029947E+03  0.18020576058E+04  0.17821364343E+04 0.  0.
        3    1    3    3  502    0 -0.18735842121E+03  0.83819815098E+03  0.37358320637E+03  0.93661290862E+03  0.10100000352E+00 0. -1.
       -3    1    3    3    0  502  0.18735842121E+03 -0.83819815098E+03 -0.10637290690E+03  0.86544469715E+03  0.10100000352E+00 0.  1.
</event>
<event>
 5   0  0.1835421E-04  0.1795785E+04  0.7818609E-02  0.8708544E-01
       -1   -1    0    0    0  501  0.00000000000E+00  0.00000000000E+00  0.90592709451E+03  0.90592709452E+03  0.50400001928E-02 0. -1.
        1   -1    0    0  501    0  0.00000000000E+00  0.00000000000E+00 -0.88992944633E+03  0.88992944635E+03  0.50400001928E-02 0.  1.
    10030    2    1    2    0    0  0.00000000000E+00  0.00000000000E+00  0.15997648172E+02  0.17958565409E+04  0.17957852852E+04 0.  0.
        2    1    3    3  502    0 -0.61674380463E+03  0.29315929733E+03  0.59102787803E+03  0.90312194458E+03  0.25500000920E-02 0. -1.
       -2    1    3    3    0  502  0.61674380463E+03 -0.29315929733E+03 -0.57503022985E+03  0.89273459629E+03  0.25500000920E-02 0.  1.
</event>
<event>
 5   0  0.1818778E-04  0.1834474E+04  0.7818609E-02  0.8688178E-01
        1   -1    0    0  501    0  0.00000000000E+00  0.00000000000E+00  0.92685982601E+03  0.92685982602E+03  0.50400001928E-02 0. -1.
       -1   -1    0    0    0  501  0.00000000000E+00  0.00000000000E+00 -0.90771432125E+03  0.90771432126E+03  0.50400001928E-02 0.  1.
    10030    2    1    2    0    0  0.00000000000E+00  0.00000000000E+00  0.19145504758E+02  0.18345741473E+04  0.18344742439E+04 0.  0.
        3    1    3    3  502    0  0.16177540762E+03 -0.51214648415E+03 -0.73401237502E+03  0.90952706426E+03  0.10100000352E+00 0.  1.
       -3    1    3    3    0  502 -0.16177540762E+03  0.51214648415E+03  0.75315787978E+03  0.92504708303E+03  0.10100000352E+00 0. -1.
</event>
<event>
 5   0  0.1883959E-04  0.1775981E+04  0.7818609E-02  0.8719178E-01
        1   -1    0    0  501    0  0.00000000000E+00  0.00000000000E+00  0.16759540754E+04  0.16759540754E+04  0.50400001928E-02 0.  1.
       -1   -1    0    0    0  501  0.00000000000E+00  0.00000000000E+00 -0.47049460999E+03  0.47049461002E+03  0.50400001928E-02 0. -1.
    10030    2    1    2    0    0  0.00000000000E+00  0.00000000000E+00  0.12054594654E+04  0.21464486854E+04  0.17759812602E+04 0.  0.
        5    1    3    3  502    0  0.16741857336E+03  0.39170553310E+03 -0.33892541042E+03  0.54438472351E+03  0.46999998093E+01 0. -1.
       -5    1    3    3    0  502 -0.16741857336E+03 -0.39170553310E+03  0.15443848758E+04  0.16020639619E+04  0.46999998093E+01 0.  1.
</event>
<event>
 5   0  0.1883959E-04  0.1792114E+04  0.7818609E-02  0.8710504E-01
       -1   -1    0    0    0  501  0.00000000000E+00  0.00000000000E+00  0.72323920278E+03  0.72323920280E+03  0.50400001928E-02 0.  1.
        1   -1    0    0  501    0  0.00000000000E+00  0.00000000000E+00 -0.11101700168E+04  0.11101700168E+04  0.50400001928E-02 0. -1.
    10030    2    1    2    0    0  0.00000000000E+00  0.00000000000E+00 -0.38693081404E+03  0.18334092196E+04  0.17921143691E+04 0.  0.
        5    1    3    3  502    0  0.81358454775E+00  0.70580348018E+03 -0.75821562395E+03  0.10358920006E+04  0.46999998093E+01 0. -1.
       -5    1    3    3    0  502 -0.81358454775E+00 -0.70580348018E+03  0.37128480991E+03  0.79751721901E+03  0.46999998093E+01 0.  1.
</event>
<event>
 5   0  0.1883959E-04  0.1828381E+04  0.7818609E-02  0.8691351E-01
       -1   -1    0    0    0  501  0.00000000000E+00  0.00000000000E+00  0.75948179076E+03  0.75948179077E+03  0.50400001928E-02 0. -1.
        1   -1    0    0  501    0  0.00000000000E+00  0.00000000000E+00 -0.11004139189E+04  0.11004139189E+04  0.50400001928E-02 0.  1.
    10030    2    1    2    0    0  0.00000000000E+00  0.00000000000E+00 -0.34093212812E+03  0.18598957097E+04  0.18283810694E+04 0.  0.
        5    1    3    3  502    0  0.15490673042E+03 -0.45565259486E+03  0.62017389663E+03  0.78501791979E+03  0.46999998093E+01 0. -1.
       -5    1    3    3    0  502 -0.15490673042E+03  0.45565259486E+03 -0.96110602475E+03  0.10748777899E+04  0.46999998093E+01 0.  1.
</event>
<event>
 5   0  0.3582186E-04  0.1799215E+04  0.7818609E-02  0.8706717E-01
        2   -1    0    0  501    0  0.00000000000E+00  0.00000000000E+00  0.93792487612E+03  0.93792487613E+03  0.25500000920E-02 0. -1.
       -2   -1    0    0    0  501  0.00000000000E+00  0.00000000000E+00 -0.86285525127E+03  0.86285525127E+03  0.25500000920E-02 0.  1.
    10030    2    1    2    0    0  0.00000000000E+00  0.00000000000E+00  0.75069624853E+02  0.18007801274E+04  0.17992147228E+04 0.  0.
        4    1    3    3  502    0 -0.40128887798E+03 -0.18224072456E+03  0.82246669131E+03  0.93311173848E+03  0.12699999809E+01 0. -1.
       -4    1    3    3    0  502  0.40128887798E+03  0.18224072456E+03 -0.74739706646E+03  0.86766838892E+03  0.12699999809E+01 0.  1.
</event>
<event>
 5   0  0.1825253E-04  0.1752798E+04  0.7818609E-02  0.8731812E-01
       -1   -1    0    0    0  501  0.00000000000E+00  0.00000000000E+00  0.79538858741E+03  0.79538858743E+03  0.50400001928E-02 0. -1.
        1   -1    0    0  501    0  0.00000000000E+00  0.00000000000E+00 -0.96566057176E+03  0.96566057178E+03  0.50400001928E-02 0.  1.
    10030    2    1    2    0    0  0.00000000000E+00  0.00000000000E+00 -0.17027198435E+03  0.17610491592E+04  0.17527982178E+04 0.  0.
        4    1    3    3  502    0 -0.69528712281E+03 -0.38785935839E+03  0.28294181379E+03  0.84493594309E+03  0.12699999809E+01 0.  1.
       -4    1    3    3    0  502  0.69528712281E+03  0.38785935839E+03 -0.45321379814E+03  0.91611321612E+03  0.12699999809E+01 0. -1.
</event>
<event>
 5   0  0.3531266E-04  0.1832599E+04  0.7818609E-02  0.8689153E-01
        2   -1    0    0  501    0  0.00000000000E+00  0.00000000000E+00  0.82025217314E+03  0.82025217315E+03  0.25500000920E-02 0.  1.
       -2   -1    0    0    0  501  0.00000000000E+00  0.00000000000E+00 -0.10235931095E+04  0.10235931095E+04  0.25500000920E-02 0. -1.
    10030    2    1    2    0    0  0.00000000000E+00  0.00000000000E+00 -0.20334093634E+03  0.18438452826E+04  0.18325986713E+04 0.  0.
        3    1    3    3  502    0 -0.21231458293E+03  0.83081095716E+03  0.22323565690E+03  0.88609169806E+03  0.10100000352E+00 0. -1.
       -3    1    3    3    0  502  0.21231458293E+03 -0.83081095716E+03 -0.42657659324E+03  0.95775358458E+03  0.10100000352E+00 0.  1.
</event>
<event>
 5   0  0.3568870E-04  0.1810875E+04  0.7818609E-02  0.8700538E-01
        2   -1    0    0  501    0  0.00000000000E+00  0.00000000000E+00  0.13211552624E+04  0.13211552624E+04  0.25500000920E-02 0.  1.
       -2   -1    0    0    0  501  0.00000000000E+00  0.00000000000E+00 -0.62053022968E+03  0.62053022969E+03  0.25500000920E-02 0. -1.
    10030    2    1    2    0    0  0.00000000000E+00  0.00000000000E+00  0.70062503269E+03  0.19416854921E+04  0.18108746819E+04 0.  0.
        1    1    3    3  502    0 -0.42913587552E+02 -0.76690995770E+03  0.86434253261E+03  0.11563219590E+04  0.50400001928E-02 0.  1.
       -1    1    3    3    0  502  0.42913587552E+02  0.76690995770E+03 -0.16371749992E+03  0.78536353304E+03  0.50400001928E-02 0. -1.
</event>
<event>
 5   0  0.1825253E-04  0.1641445E+04  0.7818609E-02  0.8795484E-01
        1   -1    0    0  501    0  0.00000000000E+00  0.00000000000E+00  0.83568587701E+03  0.83568587703E+03  0.50400001928E-02 0.  1.
       -1   -1    0    0    0  501  0.00000000000E+00  0.00000000000E+00 -0.80602659342E+03  0.80602659344E+03  0.50400001928E-02 0. -1.
    10030    2    1    2    0    0  0.00000000000E+00  0.00000000000E+00  0.29659283591E+02  0.16417124705E+04  0.16414445353E+04 0.  0.
        4    1    3    3  502    0  0.44606493521E+03  0.60240688203E+03  0.34912281209E+03  0.82689559725E+03  0.12699999809E+01 0.  1.
       -4    1    3    3    0  502 -0.44606493521E+03 -0.60240688203E+03 -0.31946352850E+03  0.81481687321E+03  0.12699999809E+01 0. -1.
</event>
<event>
 5   0  0.3568870E-04  0.1801091E+04  0.7818609E-02  0.8705719E-01
       -2   -1    0    0    0  501  0.00000000000E+00  0.00000000000E+00  0.28604414812E+03  0.28604414814E+03  0.25500000920E-02 0. -1.
        2   -1    0    0  501    0  0.00000000000E+00  0.00000000000E+00 -0.28351653136E+04  0.28351653136E+04  0.25500000920E-02 0.  1.
    10030    2    1    2    0    0  0.00000000000E+00  0.00000000000E+00 -0.25491211654E+04  0.31212094617E+04  0.18010912769E+04 0.  0.
        1    1    3    3  502    0  0.32068610221E+03  0.46590457695E+03 -0.60161427212E+02  0.56879350236E+03  0.50400001928E-02 0. -1.
       -1    1    3    3    0  502 -0.32068610221E+03 -0.46590457695E+03 -0.24889597382E+04  0.25524159593E+04  0.50400001928E-02 0.  1.
</event>
<event>
 5   0  0.3568870E-04  0.1772158E+04  0.7818609E-02  0.8721247E-01
       -2   -1    0    0    0  501  0.00000000000E+00  0.00000000000E+00  0.39025619879E+03  0.39025619880E+03  0.25500000920E-02 0.  1.
        2   -1    0    0  501    0  0.00000000000E+00  0.00000000000E+00 -0.20118468684E+04  0.20118468684E+04  0.25500000920E-02 0. -1.
    10030    2    1    2    0    0  0.00000000000E+00  0.00000000000E+00 -0.16215906696E+04  0.24021030672E+04  0.17721576808E+04 0.  0.
        1    1    3    3  502    0  0.57582495748E+02 -0.69193920085E+03 -0.64622672232E+02  0.69733183728E+03  0.50400001928E-02 0.  1.
       -1    1    3    3    0  502 -0.57582495748E+02  0.69193920085E+03 -0.15569679973E+04  0.17047712299E+04  0.50400001928E-02 0. -1.
</event>
<event>
 5   0  0.1835421E-04  0.1810709E+04  0.7818609E-02  0.8700625E-01
       -1   -1    0    0    0  501  0.00000000000E+00  0.00000000000E+00  0.92977818780E+03  0.92977818782E+03  0.50400001928E-02 0. -1.
        1   -1    0    0  501    0  0.00000000000E+00  0.00000000000E+00 -0.88157197473E+03  0.88157197475E+03  0.50400001928E-02 0.  1.
    10030    2    1    2    0    0  0.00000000000E+00  0.00000000000E+00  0.48206213072E+02  0.18113501626E+04  0.18107085830E+04 0.  0.
        2    1    3    3  502    0 -0.12345093293E+03 -0.64449347875E+01 -0.87308965511E+03  0.88179771824E+03  0.25500000920E-02 0.  1.
       -2    1    3    3    0  502  0.12345093293E+03  0.64449347875E+01  0.92129586818E+03  0.92955244433E+03  0.25500000920E-02 0. -1.
</event>
<event>
 5   0  0.3568870E-04  0.1936623E+04  0.7818609E-02  0.8636838E-01
       -2   -1    0    0    0  501  0.00000000000E+00  0.00000000000E+00  0.64495491753E+03  0.64495491753E+03  0.25500000920E-02 0.  1.
        2   -1    0    0  501    0  0.00000000000E+00  0.00000000000E+00 -0.14537872421E+04  0.14537872421E+04  0.25500000920E-02 0. -1.
    10030    2    1    2    0    0  0.00000000000E+00  0.00000000000E+00 -0.80883232461E+03  0.20987421597E+04  0.19366230721E+04 0.  0.
        1    1    3    3  502    0 -0.55569385387E+03  0.79153395321E+02 -0.12594962506E+04  0.13789096143E+04  0.50400001928E-02 0. -1.
       -1    1    3    3    0  502  0.55569385387E+03 -0.79153395321E+02  0.45066392594E+03  0.71983254538E+03  0.50400001928E-02 0.  1.
</event>
<event>
 5   0  0.1825253E-04  0.1749962E+04  0.7818609E-02  0.8733371E-01
       -1   -1    0    0    0  501  0.00000000000E+00  0.00000000000E+00  0.68778426457E+03  0.68778426459E+03  0.50400001928E-02 0. -1.
        1   -1    0    0  501    0  0.00000000000E+00  0.00000000000E+00 -0.11131279829E+04  0.11131279829E+04  0.50400001928E-02 0.  1.
    10030    2    1    2    0    0  0.00000000000E+00  0.00000000000E+00 -0.42534371833E+03  0.18009122475E+04  0.17499621837E+04 0.  0.
        4    1    3    3  502    0 -0.32046924119E+03  0.53304316623E+03  0.42067690857E+03  0.75087031231E+03  0.12699999809E+01 0. -1.
       -4    1    3    3    0  502  0.32046924119E+03 -0.53304316623E+03 -0.84602062690E+03  0.10500419352E+04  0.12699999809E+01 0.  1.
</event>
<event>
 5   0  0.1330125E-04  0.1767777E+04  0.7818609E-02  0.8723625E-01
        4   -1    0    0  501    0  0.00000000000E+00  0.00000000000E+00  0.12006172541E+04  0.12006179258E+04  0.12699999809E+01 0.  1.
       -4   -1    0    0    0  501  0.00000000000E+00  0.00000000000E+00 -0.65071315994E+03  0.65071439928E+03  0.12699999809E+01 0. -1.
    10030    2    1    2    0    0  0.00000000000E+00  0.00000000000E+00  0.54990409417E+03  0.18513323251E+04  0.17677773800E+04 0.  0.
        3    1    3    3  502    0 -0.21060057460E+03 -0.38427016271E+03  0.10788557788E+04  0.11644509271E+04  0.10100000352E+00 0.  1.
       -3    1    3    3    0  502  0.21060057460E+03  0.38427016271E+03 -0.52895168465E+03  0.68688139797E+03  0.10100000352E+00 0. -1.
</event>
<event>
 5   0  0.1825253E-04  0.1809217E+04  0.7818609E-02  0.8701413E-01
       -1   -1    0    0    0  501  0.00000000000E+00  0.00000000000E+00  0.74583746280E+03  0.74583746282E+03  0.50400001928E-02 0.  1.
        1   -1    0    0  501    0  0.00000000000E+00  0.00000000000E+00 -0.10971786085E+04  0.10971786085E+04  0.50400001928E-02 0. -1.
    10030    2    1    2    0    0  0.00000000000E+00  0.00000000000E+00 -0.35134114570E+03  0.18430160713E+04  0.18092174105E+04 0.  0.
        4    1    3    3  502    0 -0.10979512763E+03  0.71843187636E+03 -0.72435695142E+03  0.10261062016E+04  0.12699999809E+01 0. -1.
       -4    1    3    3    0  502  0.10979512763E+03 -0.71843187636E+03  0.37301580572E+03  0.81690986972E+03  0.12699999809E+01 0.  1.
</event>
<event>
 5   0  0.3568870E-04  0.1788040E+04  0.7818609E-02  0.8712685E-01
       -2   -1    0    0    0  501  0.00000000000E+00  0.00000000000E+00  0.78568285231E+03  0.78568285231E+03  0.25500000920E-02 0. -1.
        2   -1    0    0  501    0  0.00000000000E+00  0.00000000000E+00 -0.10172959562E+04  0.10172959562E+04  0.25500000920E-02 0.  1.
    10030    2    1    2    0    0  0.00000000000E+00  0.00000000000E+00 -0.23161310387E+03  0.18029788085E+04  0.17880402551E+04 0.  0.
        1    1    3    3  502    0 -0.19107755018E+03 -0.81673137218E+03 -0.42776357350E+03  0.94156382647E+03  0.50400001928E-02 0.  1.
       -1    1    3    3    0  502  0.19107755018E+03  0.81673137218E+03  0.19615046963E+03  0.86141498202E+03  0.50400001928E-02 0. -1.
</event>
<event>
 5   0  0.1837313E-04  0.1766154E+04  0.7818609E-02  0.8724508E-01
       -1   -1    0    0    0  501  0.00000000000E+00  0.00000000000E+00  0.37079723799E+03  0.37079723802E+03  0.50400001928E-02 0.  1.
        1   -1    0    0  501    0  0.00000000000E+00  0.00000000000E+00 -0.21031044718E+04  0.21031044718E+04  0.50400001928E-02 0. -1.
    10030    2    1    2    0    0  0.00000000000E+00  0.00000000000E+00 -0.17323072338E+04  0.24739017098E+04  0.17661543867E+04 0.  0.
        1    1    3    3  502    0 -0.52345179294E+03 -0.37652755584E+02 -0.18609720433E+04  0.19335553924E+04  0.50400001928E-02 0. -1.
       -1    1    3    3    0  502  0.52345179294E+03  0.37652755584E+02  0.12866480948E+03  0.54034631743E+03  0.50400001928E-02 0.  1.
</event>
<event>
 5   0  0.1835421E-04  0.1775870E+04  0.7818609E-02  0.8719238E-01
       -1   -1    0    0    0  501  0.00000000000E+00  0.00000000000E+00  0.10033489680E+04  0.10033489680E+04  0.50400001928E-02 0. -1.
        1   -1    0    0  501    0  0.00000000000E+00  0.00000000000E+00 -0.78579702275E+03  0.78579702276E+03  0.50400001928E-02 0.  1.
    10030    2    1    2    0    0  0.00000000000E+00  0.00000000000E+00  0.21755194523E+03  0.17891459908E+04  0.17758700762E+04 0.  0.
        2    1    3    3  502    0 -0.60415120935E+03 -0.52682879974E+03 -0.27602352617E+03  0.84778314149E+03  0.25500000920E-02 0.  1.
       -2    1    3    3    0  502  0.60415120935E+03  0.52682879974E+03  0.49357547141E+03  0.94136284926E+03  0.25500000920E-02 0. -1.
</event>
<event>
 5   0  0.3628581E-04  0.1775376E+04  0.7818609E-02  0.8719505E-01
        2   -1    0    0  501    0  0.00000000000E+00  0.00000000000E+00  0.13673554835E+04  0.13673554835E+04  0.25500000920E-02 0. -1.
       -2   -1    0    0    0  501  0.00000000000E+00  0.00000000000E+00 -0.57628737583E+03  0.57628737583E+03  0.25500000920E-02 0.  1.
    10030    2    1    2    0    0  0.00000000000E+00  0.00000000000E+00  0.79106810768E+03  0.19436428593E+04  0.17753756824E+04 0.  0.
        2    1    3    3  502    0  0.16557890135E+03 -0.74371964076E+03 -0.10310645081E+03  0.76887334251E+03  0.25500000920E-02 0.  1.
       -2    1    3    3    0  502 -0.16557890135E+03  0.74371964076E+03  0.89417455848E+03  0.11747695168E+04  0.25500000920E-02 0. -1.
</event>
<event>
 5   0  0.3628581E-04  0.1812095E+04  0.7818609E-02  0.8699894E-01
       -2   -1    0    0    0  501  0.00000000000E+00  0.00000000000E+00  0.11405850910E+04  0.11405850910E+04  0.25500000920E-02 0. -1.
        2   -1    0    0  501    0  0.00000000000E+00  0.00000000000E+00 -0.71973790135E+03  0.71973790135E+03  0.25500000920E-02 0.  1.
    10030    2    1    2    0    0  0.00000000000E+00  0.00000000000E+00  0.42084718965E+03  0.18603229923E+04  0.18120952731E+04 0.  0.
        2    1    3    3  502    0  0.33995128920E+03 -0.44511329071E+03 -0.52073168505E+03  0.76475761416E+03  0.25500000920E-02 0.  1.
       -2    1    3    3    0  502 -0.33995128920E+03  0.44511329071E+03  0.94157887470E+03  0.10955653782E+04  0.25500000920E-02 0. -1.
</event>
<event>
 5   0  0.3575091E-04  0.1772193E+04  0.7818609E-02  0.8721228E-01
        2   -1    0    0  501    0  0.00000000000E+00  0.00000000000E+00  0.10563486078E+04  0.10563486078E+04  0.25500000920E-02 0.  1.
       -2   -1    0    0    0  501  0.00000000000E+00  0.00000000000E+00 -0.74328366145E+03  0.74328366145E+03  0.25500000920E-02 0. -1.
    10030    2    1    2    0    0  0.00000000000E+00  0.00000000000E+00  0.31306494637E+03  0.17996322693E+04  0.17721926092E+04 0.  0.
        5    1    3    3  502    0 -0.80453902981E+03 -0.22669196684E+03 -0.14208229865E+03  0.84786895680E+03  0.46999998093E+01 0.  1.
       -5    1    3    3    0  502  0.80453902981E+03  0.22669196684E+03  0.45514724502E+03  0.95176331247E+03  0.46999998093E+01 0. -1.
</event>
<event>
 5   0  0.3568870E-04  0.1796760E+04  0.7818609E-02  0.8708024E-01
        2   -1    0    0  501    0  0.00000000000E+00  0.00000000000E+00  0.18486979248E+04  0.18486979248E+04  0.25500000920E-02 0.  1.
       -2   -1    0    0    0  501  0.00000000000E+00  0.00000000000E+00 -0.43657020307E+03  0.43657020308E+03  0.25500000920E-02 0. -1.
    10030    2    1    2    0    0  0.00000000000E+00  0.00000000000E+00  0.14121277217E+04  0.22852681278E+04  0.17967597819E+04 0.  0.
        1    1    3    3  502    0  0.51463110585E+03 -0.72736986144E+03  0.85204997376E+03  0.12328427508E+04  0.50400001928E-02 0.  1.
       -1    1    3    3    0  502 -0.51463110585E+03  0.72736986144E+03  0.56007774793E+03  0.10524253770E+04  0.50400001928E-02 0. -1.
</event>
<event>
 5   0  0.1818778E-04  0.1773329E+04  0.7818609E-02  0.8720613E-01
       -1   -1    0    0    0  501  0.00000000000E+00  0.00000000000E+00  0.15399099625E+04  0.15399099625E+04  0.50400001928E-02 0. -1.
        1   -1    0    0  501    0  0.00000000000E+00  0.00000000000E+00 -0.51053232035E+03  0.51053232037E+03  0.50400001928E-02 0.  1.
    10030    2    1    2    0    0  0.00000000000E+00  0.00000000000E+00  0.10293776421E+04  0.20504422828E+04  0.17733288542E+04 0.  0.
        3    1    3    3  502    0 -0.17872176557E+02 -0.88263686425E+03  0.61008296177E+03  0.10731115875E+04  0.10100000352E+00 0.  1.
       -3    1    3    3    0  502  0.17872176557E+02  0.88263686425E+03  0.41929468034E+03  0.97733069531E+03  0.10100000352E+00 0. -1.
</event>
<event>
 5   0  0.3582186E-04  0.1791562E+04  0.7818609E-02  0.8710800E-01
       -2   -1    0    0    0  501  0.00000000000E+00  0.00000000000E+00  0.57404600234E+03  0.57404600234E+03  0.25500000920E-02 0.  1.
        2   -1    0    0  501    0  0.00000000000E+00  0.00000000000E+00 -0.13978378378E+04  0.13978378378E+04  0.25500000920E-02 0. -1.
    10030    2    1    2    0    0  0.00000000000E+00  0.00000000000E+00 -0.82379183545E+03  0.19718838401E+04  0.17915615788E+04 0.  0.
        4    1    3    3  502    0  0.68921539884E+03  0.53462787624E+03 -0.18746897063E+03  0.89218331070E+03  0.12699999809E+01 0.  1.
       -4    1    3    3    0  502 -0.68921539884E+03 -0.53462787624E+03 -0.63632286482E+03  0.10797005294E+04  0.12699999809E+01 0. -1.
</event>
<event>
 5   0  0.3575091E-04  0.1820363E+04  0.7818609E-02  0.8695545E-01
        2   -1    0    0  501    0  0.00000000000E+00  0.00000000000E+00  0.12714879892E+04  0.12714879892E+04  0.25500000920E-02 0. -1.
       -2   -1    0    0    0  501  0.00000000000E+00  0.00000000000E+00 -0.65154377818E+03  0.65154377818E+03  0.25500000920E-02 0.  1.
    10030    2    1    2    0    0  0.00000000000E+00  0.00000000000E+00  0.61994421100E+03  0.19230317674E+04  0.18203626983E+04 0.  0.
        5    1    3    3  502    0  0.67997142462E+03  0.50689757588E+01  0.94909096148E+03  0.11675540998E+04  0.46999998093E+01 0. -1.
       -5    1    3    3    0  502 -0.67997142462E+03 -0.50689757588E+01 -0.32914675048E+03  0.75547766755E+03  0.46999998093E+01 0.  1.
</event>
<event>
 5   0  0.3568870E-04  0.1688937E+04  0.7818609E-02  0.8767699E-01
        2   -1    0    0  501    0  0.00000000000E+00  0.00000000000E+00  0.78408652837E+03  0.78408652838E+03  0.25500000920E-02 0.  1.
       -2   -1    0    0    0  501  0.00000000000E+00  0.00000000000E+00 -0.90950056398E+03  0.90950056398E+03  0.25500000920E-02 0. -1.
    10030    2    1    2    0    0  0.00000000000E+00  0.00000000000E+00 -0.12541403560E+03  0.16935870924E+04  0.16889371093E+04 0.  0.
        1    1    3    3  502    0  0.53621349725E+03 -0.62071517733E+03  0.13863147662E+03  0.83188396567E+03  0.50400001928E-02 0.  1.
       -1    1    3    3    0  502 -0.53621349725E+03  0.62071517733E+03 -0.26404551223E+03  0.86170312669E+03  0.50400001928E-02 0. -1.
</event>
<event>
 5   0  0.1837313E-04  0.1807900E+04  0.7818609E-02  0.8702110E-01
        1   -1    0    0  501    0  0.00000000000E+00  0.00000000000E+00  0.13815373927E+04  0.13815373927E+04  0.50400001928E-02 0.  1.
       -1   -1    0    0    0  501  0.00000000000E+00  0.00000000000E+00 -0.59146084213E+03  0.59146084215E+03  0.50400001928E-02 0. -1.
    10030    2    1    2    0    0  0.00000000000E+00  0.00000000000E+00  0.79007655054E+03  0.19729982348E+04  0.18078996319E+04 0.  0.
        1    1    3    3  502    0  0.20001434271E+03 -0.87777512853E+03  0.48390124219E+03  0.10220838154E+04  0.50400001928E-02 0.  1.
       -1    1    3    3    0  502 -0.20001434271E+03  0.87777512853E+03  0.30617530836E+03  0.95091441940E+03  0.50400001928E-02 0. -1.
</event>
<event>
 5   0  0.1330125E-04  0.1818526E+04  0.7818609E-02  0.8696509E-01
       -4   -1    0    0    0  501  0.00000000000E+00  0.00000000000E+00  0.96260108632E+03  0.96260192410E+03  0.12699999809E+01 0. -1.
        4   -1    0    0  501    0  0.00000000000E+00  0.00000000000E+00 -0.85887895435E+03  0.85887989331E+03  0.12699999809E+01 0.  1.
    10030    2    1    2    0    0  0.00000000000E+00  0.00000000000E+00  0.10372213197E+03  0.18214818174E+04  0.18185262524E+04 0.  0.
        2    1    3    3  502    0  0.18330577641E+03 -0.75574952664E+03  0.52379673970E+03  0.93761472856E+03  0.25500000920E-02 0. -1.
       -2    1    3    3    0  502 -0.18330577641E+03  0.75574952664E+03 -0.42007460773E+03  0.88386708885E+03  0.25500000920E-02 0.  1.
</event>
<event>
 5   0  0.1835421E-04  0.1817009E+04  0.7818609E-02  0.8697306E-01
        1   -1    0    0  501    0  0.00000000000E+00  0.00000000000E+00  0.25435286353E+04  0.25435286353E+04  0.50400001928E-02 0.  1.
       -1   -1    0    0    0  501  0.00000000000E+00  0.00000000000E+00 -0.32450226782E+03  0.32450226786E+03  0.50400001928E-02 0. -1.
    10030    2    1    2    0    0  0.00000000000E+00  0.00000000000E+00  0.22190263675E+04  0.28680309032E+04  0.18170094227E+04 0.  0.
        2    1    3    3  502    0  0.18240959514E+03 -0.76208193755E+03  0.38388167495E+03  0.87258654603E+03  0.25500000920E-02 0. -1.
       -2    1    3    3    0  502 -0.18240959514E+03  0.76208193755E+03  0.18351446926E+04  0.19954443572E+04  0.25500000920E-02 0.  1.
</event>
<event>
 5   0  0.3628581E-04  0.1817201E+04  0.7818609E-02  0.8697205E-01
        2   -1    0    0  501    0  0.00000000000E+00  0.00000000000E+00  0.35073828435E+03  0.35073828436E+03  0.25500000920E-02 0. -1.
       -2   -1    0    0    0  501  0.00000000000E+00  0.00000000000E+00 -0.23537632293E+04  0.23537632293E+04  0.25500000920E-02 0.  1.
    10030    2    1    2    0    0  0.00000000000E+00  0.00000000000E+00 -0.20030249450E+04  0.27045015137E+04  0.18172010091E+04 0.  0.
        2    1    3    3  502    0  0.38070546347E+03  0.31037167979E+03  0.13610855787E+03  0.50969870420E+03  0.25500000920E-02 0. -1.
       -2    1    3    3    0  502 -0.38070546347E+03 -0.31037167979E+03 -0.21391335029E+04  0.21948028095E+04  0.25500000920E-02 0.  1.
</event>
<event>
 5   0  0.3582186E-04  0.1890788E+04  0.7818609E-02  0.8659455E-01
       -2   -1    0    0    0  501  0.00000000000E+00  0.00000000000E+00  0.13382412238E+04  0.13382412238E+04  0.25500000920E-02 0. -1.
        2   -1    0    0  501    0  0.00000000000E+00  0.00000000000E+00 -0.66786926014E+03  0.66786926015E+03  0.25500000920E-02 0.  1.
    10030    2    1    2    0    0  0.00000000000E+00  0.00000000000E+00  0.67037196362E+03  0.20061104839E+04  0.18907883816E+04 0.  0.
        4    1    3    3  502    0  0.42684553895E+03  0.83352144352E+03  0.19761071334E+03  0.95708239868E+03  0.12699999809E+01 0.  1.
       -4    1    3    3    0  502 -0.42684553895E+03 -0.83352144352E+03  0.47276125027E+03  0.10490280852E+04  0.12699999809E+01 0. -1.
</event>
<event>
 5   0  0.3575091E-04  0.1794122E+04  0.7818609E-02  0.8709432E-01
        2   -1    0    0  501    0  0.00000000000E+00  0.00000000000E+00  0.20947398001E+04  0.20947398001E+04  0.25500000920E-02 0. -1.
       -2   -1    0    0    0  501  0.00000000000E+00  0.00000000000E+00 -0.38416134545E+03  0.38416134546E+03  0.25500000920E-02 0.  1.
    10030    2    1    2    0    0  0.00000000000E+00  0.00000000000E+00  0.17105784546E+04  0.24789011456E+04  0.17941215789E+04 0.  0.
        5    1    3    3  502    0 -0.34880774247E+03 -0.82636284010E+03  0.87241231732E+03  0.12512664489E+04  0.46999998093E+01 0. -1.
       -5    1    3    3    0  502  0.34880774247E+03  0.82636284010E+03  0.83816613733E+03  0.12276346967E+04  0.46999998093E+01 0.  1.
</event>
<event>
 5   0  0.1825253E-04  0.1769649E+04  0.7818609E-02  0.8722608E-01
       -1   -1    0    0    0  501  0.00000000000E+00  0.00000000000E+00  0.56666170072E+03  0.56666170074E+03  0.50400001928E-02 0.  1.
        1   -1    0    0  501    0  0.00000000000E+00  0.00000000000E+00 -0.13816261457E+04  0.13816261457E+04  0.50400001928E-02 0. -1.
    10030    2    1    2    0    0  0.00000000000E+00  0.00000000000E+00 -0.81496444494E+03  0.19482878464E+04  0.17696492551E+04 0.  0.
        4    1    3    3  502    0 -0.56285270478E+03  0.84008672929E+02  0.33844601420E+03  0.66212381155E+03  0.12699999809E+01 0.  1.
       -4    1    3    3    0  502  0.56285270478E+03 -0.84008672929E+02 -0.11534104591E+04  0.12861640349E+04  0.12699999809E+01 0. -1.
</event>
<event>
 5   0  0.1825253E-04  0.1775520E+04  0.7818609E-02  0.8719427E-01
       -1   -1    0    0    0  501  0.00000000000E+00  0.00000000000E+00  0.47340301146E+03  0.47340301148E+03  0.50400001928E-02 0.  1.
        1   -1    0    0  501    0  0.00000000000E+00  0.00000000000E+00 -0.16647925635E+04  0.16647925635E+04  0.50400001928E-02 0. -1.
    10030    2    1    2    0    0  0.00000000000E+00  0.00000000000E+00 -0.11913895520E+04  0.21381955750E+04  0.17755199949E+04 0.  0.
        4    1    3    3  502    0 -0.16407206220E+02  0.78868231799E+03 -0.10529558010E+03  0.79585034223E+03  0.12699999809E+01 0.  1.
       -4    1    3    3    0  502  0.16407206220E+02 -0.78868231799E+03 -0.10860939719E+04  0.13423452327E+04  0.12699999809E+01 0. -1.
</event>
<event>
 5   0  0.3628581E-04  0.1793645E+04  0.7818609E-02  0.8709687E-01
       -2   -1    0    0    0  501  0.00000000000E+00  0.00000000000E+00  0.14263619893E+04  0.14263619893E+04  0.25500000920E-02 0.  1.
        2   -1    0    0  501    0  0.00000000000E+00  0.00000000000E+00 -0.56387524868E+03  0.56387524868E+03  0.25500000920E-02 0. -1.
    10030    2    1    2    0    0  0.00000000000E+00  0.00000000000E+00  0.86248674058E+03  0.19902372379E+04  0.17936445817E+04 0.  0.
        2    1    3    3  502    0  0.50914024811E+03 -0.19313995132E+03  0.12219204499E+04  0.13377654574E+04  0.25500000920E-02 0.  1.
       -2    1    3    3    0  502 -0.50914024811E+03  0.19313995132E+03 -0.35943370932E+03  0.65247178057E+03  0.25500000920E-02 0. -1.
</event>
<event>
 5   0  0.3568870E-04  0.1809022E+04  0.7818609E-02  0.8701516E-01
        2   -1    0    0  501    0  0.00000000000E+00  0.00000000000E+00  0.17750566889E+04  0.17750566889E+04  0.25500000920E-02 0.  1.
       -2   -1    0    0    0  501  0.00000000000E+00  0.00000000000E+00 -0.46090940931E+03  0.46090940931E+03  0.25500000920E-02 0. -1.
    10030    2    1    2    0    0  0.00000000000E+00  0.00000000000E+00  0.13141472796E+04  0.22359660982E+04  0.18090221999E+04 0.  0.
        1    1    3    3  502    0  0.12043814310E+03  0.10050480532E+03 -0.44396871111E+03  0.47086598802E+03  0.50400001928E-02 0. -1.
       -1    1    3    3    0  502 -0.12043814310E+03 -0.10050480532E+03  0.17581159907E+04  0.17651001102E+04  0.50400001928E-02 0.  1.
</event>
<event>
 5   0  0.3568870E-04  0.1790431E+04  0.7818609E-02  0.8711405E-01
        2   -1    0    0  501    0  0.00000000000E+00  0.00000000000E+00  0.12356763411E+04  0.12356763411E+04  0.25500000920E-02 0.  1.
       -2   -1    0    0    0  501  0.00000000000E+00  0.00000000000E+00 -0.64856031784E+03  0.64856031784E+03  0.25500000920E-02 0. -1.
    10030    2    1    2    0    0  0.00000000000E+00  0.00000000000E+00  0.58711602323E+03  0.18842366589E+04  0.17904308314E+04 0.  0.
        1    1    3    3  502    0 -0.19470923728E+03 -0.40271202771E+03 -0.52251955422E+03  0.68783380908E+03  0.50400001928E-02 0.  1.
       -1    1    3    3    0  502  0.19470923728E+03  0.40271202771E+03  0.11096355774E+04  0.11964028498E+04  0.50400001928E-02 0. -1.
</event>
<event>
 5   0  0.1835421E-04  0.1780711E+04  0.7818609E-02  0.8716625E-01
        1   -1    0    0  501    0  0.00000000000E+00  0.00000000000E+00  0.11151268041E+04  0.11151268041E+04  0.50400001928E-02 0.  1.
       -1   -1    0    0    0  501  0.00000000000E+00  0.00000000000E+00 -0.71089058665E+03  0.71089058667E+03  0.50400001928E-02 0. -1.
    10030    2    1    2    0    0  0.00000000000E+00  0.00000000000E+00  0.40423621740E+03  0.18260173907E+04  0.17807112601E+04 0.  0.
        2    1    3    3  502    0 -0.77917314318E+03 -0.16360240563E+03 -0.20659075354E+03  0.82253040895E+03  0.25500000920E-02 0. -1.
       -2    1    3    3    0  502  0.77917314318E+03  0.16360240563E+03  0.61082697094E+03  0.10034869818E+04  0.25500000920E-02 0.  1.
</event>
<event>
 5   0  0.3575091E-04  0.1751862E+04  0.7818609E-02  0.8732326E-01
        2   -1    0    0  501    0  0.00000000000E+00  0.00000000000E+00  0.20302437728E+04  0.20302437728E+04  0.25500000920E-02 0.  1.
       -2   -1    0    0    0  501  0.00000000000E+00  0.00000000000E+00 -0.37791272220E+03  0.37791272221E+03  0.25500000920E-02 0. -1.
    10030    2    1    2    0    0  0.00000000000E+00  0.00000000000E+00  0.16523310506E+04  0.24081564950E+04  0.17518618107E+04 0.  0.
        5    1    3    3  502    0  0.95930860348E+02 -0.40775274493E+03  0.18836172185E+04  0.19296375169E+04  0.46999998093E+01 0.  1.
       -5    1    3    3    0  502 -0.95930860348E+02  0.40775274493E+03 -0.23128616786E+03  0.47851897811E+03  0.46999998093E+01 0. -1.
</event>
<event>
 5   0  0.1825253E-04  0.1768390E+04  0.7818609E-02  0.8723292E-01
       -1   -1    0    0    0  501  0.00000000000E+00  0.00000000000E+00  0.10357702921E+04  0.10357702921E+04  0.50400001928E-02 0. -1.
        1   -1    0    0  501    0  0.00000000000E+00  0.00000000000E+00 -0.75480134931E+03  0.75480134933E+03  0.50400001928E-02 0.  1.
    10030    2    1    2    0    0  0.00000000000E+00  0.00000000000E+00  0.28096894276E+03  0.17905716414E+04  0.17683900181E+04 0.  0.
        4    1    3    3  502    0 -0.43894794865E+03 -0.76612949489E+03  0.18764657119E+03  0.90268629830E+03  0.12699999809E+01 0. -1.
       -4    1    3    3    0  502  0.43894794865E+03  0.76612949489E+03  0.93322371564E+02  0.88788534310E+03  0.12699999809E+01 0.  1.
</event>
<event>
 5   0  0.1837313E-04  0.1506176E+04  0.7818609E-02  0.8880356E-01
       -1   -1    0    0    0  501  0.00000000000E+00  0.00000000000E+00  0.54354790279E+03  0.54354790282E+03  0.50400001928E-02 0. -1.
        1   -1    0    0  501    0  0.00000000000E+00  0.00000000000E+00 -0.10434068010E+04  0.10434068010E+04  0.50400001928E-02 0.  1.
    10030    2    1    2    0    0  0.00000000000E+00  0.00000000000E+00 -0.49985889820E+03  0.15869547038E+04  0.15061760567E+04 0.  0.
        1    1    3    3  502    0 -0.53147610112E+03 -0.43539876967E+03  0.74997016463E+02  0.69113203312E+03  0.50400001928E-02 0. -1.
       -1    1    3    3    0  502  0.53147610112E+03  0.43539876967E+03 -0.57485591466E+03  0.89582267070E+03  0.50400001928E-02 0.  1.
</event>
<event>
 5   0  0.1837313E-04  0.1821272E+04  0.7818609E-02  0.8695068E-01
       -1   -1    0    0    0  501  0.00000000000E+00  0.00000000000E+00  0.12574376485E+04  0.12574376485E+04  0.50400001928E-02 0. -1.
        1   -1    0    0  501    0  0.00000000000E+00  0.00000000000E+00 -0.65948223629E+03  0.65948223631E+03  0.50400001928E-02 0.  1.
    10030    2    1    2    0    0  0.00000000000E+00  0.00000000000E+00  0.59795541218E+03  0.19169198848E+04  0.18212718550E+04 0.  0.
        1    1    3    3  502    0  0.39833253698E+03  0.90536136386E+01 -0.56287063293E+03  0.68961882760E+03  0.50400001928E-02 0.  1.
       -1    1    3    3    0  502 -0.39833253698E+03 -0.90536136386E+01  0.11608260451E+04  0.12273010572E+04  0.50400001928E-02 0. -1.
</event>
<event>
 5   0  0.1835421E-04  0.1798205E+04  0.7818609E-02  0.8707254E-01
       -1   -1    0    0    0  501  0.00000000000E+00  0.00000000000E+00  0.76498658976E+03  0.76498658977E+03  0.50400001928E-02 0. -1.
        1   -1    0    0  501    0  0.00000000000E+00  0.00000000000E+00 -0.10567318943E+04  0.10567318943E+04  0.50400001928E-02 0.  1.
    10030    2    1    2    0    0  0.00000000000E+00  0.00000000000E+00 -0.29174530458E+03  0.18217184841E+04  0.17982054701E+04 0.  0.
        2    1    3    3  502    0 -0.83437779662E+03 -0.33426216030E+03 -0.16779419113E+03  0.91436994148E+03  0.25500000920E-02 0.  1.
       -2    1    3    3    0  502  0.83437779662E+03  0.33426216030E+03 -0.12395111345E+03  0.90734854264E+03  0.25500000920E-02 0. -1.
</event>
<event>
 5   0  0.1837313E-04  0.1799556E+04  0.7818609E-02  0.8706535E-01
       -1   -1    0    0    0  501  0.00000000000E+00  0.00000000000E+00  0.42972518268E+03  0.42972518271E+03  0.50400001928E-02 0.  1.
        1   -1    0    0  501    0  0.00000000000E+00  0.00000000000E+00 -0.18839965852E+04  0.18839965852E+04  0.50400001928E-02 0. -1.
    10030    2    1    2    0    0  0.00000000000E+00  0.00000000000E+00 -0.14542714025E+04  0.23137217679E+04  0.17995563640E+04 0.  0.
        1    1    3    3  502    0 -0.19558860012E+03  0.82282538261E+03 -0.11219667963E+04  0.14050288263E+04  0.50400001928E-02 0.  1.
       -1    1    3    3    0  502  0.19558860012E+03 -0.82282538261E+03 -0.33230460620E+03  0.90869294159E+03  0.50400001928E-02 0. -1.
</event>
<event>
 5   0  0.3568870E-04  0.1794041E+04  0.7818609E-02  0.8709475E-01
       -2   -1    0    0    0  501  0.00000000000E+00  0.00000000000E+00  0.85340835108E+03  0.85340835108E+03  0.25500000920E-02 0. -1.
        2   -1    0    0  501    0  0.00000000000E+00  0.00000000000E+00 -0.94286176233E+03  0.94286176233E+03  0.25500000920E-02 0.  1.
    10030    2    1    2    0    0  0.00000000000E+00  0.00000000000E+00 -0.89453411244E+02  0.17962701134E+04  0.17940413617E+04 0.  0.
        1    1    3    3  502    0 -0.45351336241E+03  0.45148798122E+03 -0.67410154755E+03  0.92947762938E+03  0.50400001928E-02 0.  1.
       -1    1    3    3    0  502  0.45351336241E+03 -0.45148798122E+03  0.58464813631E+03  0.86679248404E+03  0.50400001928E-02 0. -1.
</event>
<event>
 5   0  0.1818778E-04  0.1787425E+04  0.7818609E-02  0.8713015E-01
       -1   -1    0    0    0  501  0.00000000000E+00  0.00000000000E+00  0.87064195718E+03  0.87064195719E+03  0.50400001928E-02 0.  1.
        1   -1    0    0  501    0  0.00000000000E+00  0.00000000000E+00 -0.91739477094E+03  0.91739477095E+03  0.50400001928E-02 0. -1.
    10030    2    1    2    0    0  0.00000000000E+00  0.00000000000E+00 -0.46752813756E+02  0.17880367281E+04  0.17874253874E+04 0.  0.
        3    1    3    3  502    0 -0.59347608899E+03  0.62599769402E+03 -0.25719849114E+03  0.90013224316E+03  0.10100000352E+00 0. -1.
       -3    1    3    3    0  502  0.59347608899E+03 -0.62599769402E+03  0.21044567739E+03  0.88790448499E+03  0.10100000352E+00 0.  1.
</event>
<event>
 5   0  0.3582186E-04  0.1682652E+04  0.7818609E-02  0.8771321E-01
        2   -1    0    0  501    0  0.00000000000E+00  0.00000000000E+00  0.91832606160E+03  0.91832606160E+03  0.25500000920E-02 0.  1.
       -2   -1    0    0    0  501  0.00000000000E+00  0.00000000000E+00 -0.77078265861E+03  0.77078265861E+03  0.25500000920E-02 0. -1.
    10030    2    1    2    0    0  0.00000000000E+00  0.00000000000E+00  0.14754340299E+03  0.16891087202E+04  0.16826524338E+04 0.  0.
        4    1    3    3  502    0 -0.78885182438E+02  0.56964859218E+02  0.91265773634E+03  0.91783093421E+03  0.12699999809E+01 0.  1.
       -4    1    3    3    0  502  0.78885182438E+02 -0.56964859218E+02 -0.76511433335E+03  0.77127778601E+03  0.12699999809E+01 0. -1.
</event>
<event>
 5   0  0.3531266E-04  0.1754844E+04  0.7818609E-02  0.8730689E-01
        2   -1    0    0  501    0  0.00000000000E+00  0.00000000000E+00  0.84921933291E+03  0.84921933291E+03  0.25500000920E-02 0. -1.
       -2   -1    0    0    0  501  0.00000000000E+00  0.00000000000E+00 -0.90656112746E+03  0.90656112746E+03  0.25500000920E-02 0.  1.
    10030    2    1    2    0    0  0.00000000000E+00  0.00000000000E+00 -0.57341794549E+02  0.17557804604E+04  0.17548438516E+04 0.  0.
        3    1    3    3  502    0  0.34569260224E+03  0.71175270158E+03 -0.40804861865E+03  0.89028027544E+03  0.10100000352E+00 0.  1.
       -3    1    3    3    0  502 -0.34569260224E+03 -0.71175270158E+03  0.35070682411E+03  0.86550018494E+03  0.10100000352E+00 0. -1.
</event>
<event>
 5   0  0.3628581E-04  0.1765459E+04  0.7818609E-02  0.8724887E-01
       -2   -1    0    0    0  501  0.00000000000E+00  0.00000000000E+00  0.46609054518E+03  0.46609054519E+03  0.25500000920E-02 0. -1.
        2   -1    0    0  501    0  0.00000000000E+00  0.00000000000E+00 -0.16718023313E+04  0.16718023313E+04  0.25500000920E-02 0.  1.
    10030    2    1    2    0    0  0.00000000000E+00  0.00000000000E+00 -0.12057117861E+04  0.21378928765E+04  0.17654588752E+04 0.  0.
        2    1    3    3  502    0  0.53008106661E+03 -0.67322682378E+03 -0.34599913512E+03  0.92408641097E+03  0.25500000920E-02 0. -1.
       -2    1    3    3    0  502 -0.53008106661E+03  0.67322682378E+03 -0.85971265099E+03  0.12138064655E+04  0.25500000920E-02 0.  1.
</event>
<event>
 5   0  0.1883959E-04  0.1779705E+04  0.7818609E-02  0.8717167E-01
        1   -1    0    0  501    0  0.00000000000E+00  0.00000000000E+00  0.17723272578E+04  0.17723272579E+04  0.50400001928E-02 0.  1.
       -1   -1    0    0    0  501  0.00000000000E+00  0.00000000000E+00 -0.44677813885E+03  0.44677813888E+03  0.50400001928E-02 0. -1.
    10030    2    1    2    0    0  0.00000000000E+00  0.00000000000E+00  0.13255491190E+04  0.22191053967E+04  0.17797045527E+04 0.  0.
        5    1    3    3  502    0 -0.29506050559E+03  0.56568715582E+03 -0.11065478192E+03  0.64755635352E+03  0.46999998093E+01 0. -1.
       -5    1    3    3    0  502  0.29506050559E+03 -0.56568715582E+03  0.14362039009E+04  0.15715490432E+04  0.46999998093E+01 0.  1.
</event>
<event>
 5   0  0.1837313E-04  0.1811033E+04  0.7818609E-02  0.8700454E-01
       -1   -1    0    0    0  501  0.00000000000E+00  0.00000000000E+00  0.42126741478E+03  0.42126741481E+03  0.50400001928E-02 0.  1.
        1   -1    0    0  501    0  0.00000000000E+00  0.00000000000E+00 -0.19464122805E+04  0.19464122805E+04  0.50400001928E-02 0. -1.
    10030    2    1    2    0    0  0.00000000000E+00  0.00000000000E+00 -0.15251448657E+04  0.23676796953E+04  0.18110329313E+04 0.  0.
        1    1    3    3  502    0 -0.26456420114E+03 -0.72986525457E+03 -0.13719536329E+04  0.15763737746E+04  0.50400001928E-02 0. -1.
       -1    1    3    3    0  502  0.26456420114E+03  0.72986525457E+03 -0.15319123284E+03  0.79130592074E+03  0.50400001928E-02 0.  1.
</event>
<event>
 5   0  0.3582186E-04  0.1637877E+04  0.7818609E-02  0.8797611E-01
       -2   -1    0    0    0  501  0.00000000000E+00  0.00000000000E+00  0.82408326645E+03  0.82408326645E+03  0.25500000920E-02 0. -1.
        2   -1    0    0  501    0  0.00000000000E+00  0.00000000000E+00 -0.81382536214E+03  0.81382536214E+03  0.25500000920E-02 0.  1.
    10030    2    1    2    0    0  0.00000000000E+00  0.00000000000E+00  0.10257904313E+02  0.16379086286E+04  0.16378765066E+04 0.  0.
        4    1    3    3  502    0  0.23533261517E+02 -0.60873732245E+02  0.82147750712E+03  0.82406694709E+03  0.12699999809E+01 0. -1.
       -4    1    3    3    0  502 -0.23533261517E+02  0.60873732245E+02 -0.81121960281E+03  0.81384168151E+03  0.12699999809E+01 0.  1.
</event>
<event>
 5   0  0.3582186E-04  0.1812934E+04  0.7818609E-02  0.8699451E-01
        2   -1    0    0  501    0  0.00000000000E+00  0.00000000000E+00  0.13424402783E+04  0.13424402783E+04  0.25500000920E-02 0.  1.
       -2   -1    0    0    0  501  0.00000000000E+00  0.00000000000E+00 -0.61208126988E+03  0.61208126989E+03  0.25500000920E-02 0. -1.
    10030    2    1    2    0    0  0.00000000000E+00  0.00000000000E+00  0.73035900839E+03  0.19545215482E+04  0.18129341414E+04 0.  0.
        4    1    3    3  502    0  0.29928352389E+02 -0.51678775645E+03  0.11674149238E+04  0.12770373952E+04  0.12699999809E+01 0.  1.
       -4    1    3    3    0  502 -0.29928352389E+02  0.51678775645E+03 -0.43705591538E+03  0.67748415300E+03  0.12699999809E+01 0. -1.
</event>
<event>
 5   0  0.3575091E-04  0.1808561E+04  0.7818609E-02  0.8701760E-01
       -2   -1    0    0    0  501  0.00000000000E+00  0.00000000000E+00  0.84547602260E+03  0.84547602260E+03  0.25500000920E-02 0. -1.
        2   -1    0    0  501    0  0.00000000000E+00  0.00000000000E+00 -0.96717513412E+03  0.96717513412E+03  0.25500000920E-02 0.  1.
    10030    2    1    2    0    0  0.00000000000E+00  0.00000000000E+00 -0.12169911152E+03  0.18126511567E+04  0.18085611801E+04 0.  0.
        5    1    3    3  502    0  0.34554616792E+03 -0.36869578243E+03  0.69075469566E+03  0.85586381727E+03  0.46999998093E+01 0. -1.
       -5    1    3    3    0  502 -0.34554616792E+03  0.36869578243E+03 -0.81245380718E+03  0.95678733946E+03  0.46999998093E+01 0.  1.
</event>
<event>
 5   0  0.3531266E-04  0.1799419E+04  0.7818609E-02  0.8706609E-01
        2   -1    0    0  501    0  0.00000000000E+00  0.00000000000E+00  0.70725310739E+03  0.70725310740E+03  0.25500000920E-02 0.  1.
       -2   -1    0    0    0  501  0.00000000000E+00  0.00000000000E+00 -0.11445366827E+04  0.11445366827E+04  0.25500000920E-02 0. -1.
    10030    2    1    2    0    0  0.00000000000E+00  0.00000000000E+00 -0.43728357528E+03  0.18517897901E+04  0.17994189344E+04 0.  0.
        3    1    3    3  502    0 -0.35397266560E+03  0.30363081571E+03  0.57315938847E+03  0.73891813825E+03  0.10100000352E+00 0.  1.
       -3    1    3    3    0  502  0.35397266560E+03 -0.30363081571E+03 -0.10104429638E+04  0.11128716518E+04  0.10100000352E+00 0. -1.
</event>
<event>
 5   0  0.3582186E-04  0.1770075E+04  0.7818609E-02  0.8722377E-01
        2   -1    0    0  501    0  0.00000000000E+00  0.00000000000E+00  0.85997309627E+03  0.85997309628E+03  0.25500000920E-02 0.  1.
       -2   -1    0    0    0  501  0.00000000000E+00  0.00000000000E+00 -0.91083291453E+03  0.91083291454E+03  0.25500000920E-02 0. -1.
    10030    2    1    2    0    0  0.00000000000E+00  0.00000000000E+00 -0.50859818260E+02  0.17708060108E+04  0.17700754805E+04 0.  0.
        4    1    3    3  502    0  0.53164722588E+03 -0.39909697823E+03  0.55907402151E+03  0.86861530336E+03  0.12699999809E+01 0.  1.
       -4    1    3    3    0  502 -0.53164722588E+03  0.39909697823E+03 -0.60993383977E+03  0.90219070745E+03  0.12699999809E+01 0. -1.
</event>
<event>
 5   0  0.1883959E-04  0.1816041E+04  0.7818609E-02  0.8697815E-01
        1   -1    0    0  501    0  0.00000000000E+00  0.00000000000E+00  0.11902823829E+04  0.11902823829E+04  0.50400001928E-02 0.  1.
       -1   -1    0    0    0  501  0.00000000000E+00  0.00000000000E+00 -0.69269408019E+03  0.69269408021E+03  0.50400001928E-02 0. -1.
    10030    2    1    2    0    0  0.00000000000E+00  0.00000000000E+00  0.49758830268E+03  0.18829764631E+04  0.18160413656E+04 0.  0.
        5    1    3    3  502    0  0.60495258037E+03  0.40101223502E+03  0.81452430290E+03  0.10909859610E+04  0.46999998093E+01 0.  1.
       -5    1    3    3    0  502 -0.60495258037E+03 -0.40101223502E+03 -0.31693600022E+03  0.79199050207E+03  0.46999998093E+01 0. -1.
</event>
<event>
 5   0  0.1835421E-04  0.1809573E+04  0.7818609E-02  0.8701225E-01
        1   -1    0    0  501    0  0.00000000000E+00  0.00000000000E+00  0.12941426485E+04  0.12941426485E+04  0.50400001928E-02 0. -1.
       -1   -1    0    0    0  501  0.00000000000E+00  0.00000000000E+00 -0.63257238771E+03  0.63257238773E+03  0.50400001928E-02 0.  1.
    10030    2    1    2    0    0  0.00000000000E+00  0.00000000000E+00  0.66157026077E+03  0.19267150362E+04  0.18095733256E+04 0.  0.
        2    1    3    3  502    0  0.84200640093E+03 -0.29511143465E+03  0.17081478835E+03  0.90842899007E+03  0.25500000920E-02 0. -1.
       -2    1    3    3    0  502 -0.84200640093E+03  0.29511143465E+03  0.49075547242E+03  0.10182860462E+04  0.25500000920E-02 0.  1.
</event>
<event>
 5   0  0.3582186E-04  0.1792761E+04  0.7818609E-02  0.8710159E-01
        2   -1    0    0  501    0  0.00000000000E+00  0.00000000000E+00  0.57532350975E+03  0.57532350976E+03  0.25500000920E-02 0. -1.
       -2   -1    0    0    0  501  0.00000000000E+00  0.00000000000E+00 -0.13966015445E+04  0.13966015445E+04  0.25500000920E-02 0.  1.
    10030    2    1    2    0    0  0.00000000000E+00  0.00000000000E+00 -0.82127803475E+03  0.19719250543E+04  0.17927606670E+04 0.  0.
        4    1    3    3  502    0 -0.34633850534E+03 -0.81389609358E+03 -0.25079237793E+03  0.91938873234E+03  0.12699999809E+01 0. -1.
       -4    1    3    3    0  502  0.34633850534E+03  0.81389609358E+03 -0.57048565682E+03  0.10525363219E+04  0.12699999809E+01 0.  1.
</event>
<event>
 5   0  0.3531266E-04  0.1792364E+04  0.7818609E-02  0.8710371E-01
       -2   -1    0    0    0  501  0.00000000000E+00  0.00000000000E+00  0.11944816341E+04  0.11944816341E+04  0.25500000920E-02 0. -1.
        2   -1    0    0  501    0  0.00000000000E+00  0.00000000000E+00 -0.67237727546E+03  0.67237727546E+03  0.25500000920E-02 0.  1.
    10030    2    1    2    0    0  0.00000000000E+00  0.00000000000E+00  0.52210435865E+03  0.18668589096E+04  0.17923641446E+04 0.  0.
        3    1    3    3  502    0  0.21478769018E+03  0.52566780206E+03  0.98318009962E+03  0.11353869422E+04  0.10100000352E+00 0. -1.
       -3    1    3    3    0  502 -0.21478769018E+03 -0.52566780206E+03 -0.46107574097E+03  0.73147196740E+03  0.10100000352E+00 0.  1.
</event>
<event>
 5   0  0.1883959E-04  0.1793915E+04  0.7818609E-02  0.8709542E-01
       -1   -1    0    0    0  501  0.00000000000E+00  0.00000000000E+00  0.68619497184E+03  0.68619497186E+03  0.50400001928E-02 0. -1.
        1   -1    0    0  501    0  0.00000000000E+00  0.00000000000E+00 -0.11724546639E+04  0.11724546639E+04  0.50400001928E-02 0.  1.
    10030    2    1    2    0    0  0.00000000000E+00  0.00000000000E+00 -0.48625969207E+03  0.18586496358E+04  0.17939147082E+04 0.  0.
        5    1    3    3  502    0 -0.43453008876E+03 -0.25289386457E+03 -0.10127252476E+04  0.11306662734E+04  0.46999998093E+01 0.  1.
       -5    1    3    3    0  502  0.43453008876E+03  0.25289386457E+03  0.52646555549E+03  0.72798336237E+03  0.46999998093E+01 0. -1.
</event>
<event>
 5   0  0.3628581E-04  0.1801465E+04  0.7818609E-02  0.8705521E-01
       -2   -1    0    0    0  501  0.00000000000E+00  0.00000000000E+00  0.37187954868E+03  0.37187954869E+03  0.25500000920E-02 0.  1.
        2   -1    0    0  501    0  0.00000000000E+00  0.00000000000E+00 -0.21816708245E+04  0.21816708245E+04  0.25500000920E-02 0. -1.
    10030    2    1    2    0    0  0.00000000000E+00  0.00000000000E+00 -0.18097912759E+04  0.25535503732E+04  0.18014646948E+04 0.  0.
        2    1    3    3  502    0 -0.76721436265E+03  0.13441046411E+03 -0.26367376989E+03  0.82231861711E+03  0.25500000920E-02 0.  1.
       -2    1    3    3    0  502  0.76721436265E+03 -0.13441046411E+03 -0.15461175060E+04  0.17312317561E+04  0.25500000920E-02 0. -1.
</event>
<event>
 5   0  0.3582186E-04  0.1791608E+04  0.7818609E-02  0.8710775E-01
       -2   -1    0    0    0  501  0.00000000000E+00  0.00000000000E+00  0.79600879769E+03  0.79600879769E+03  0.25500000920E-02 0.  1.
        2   -1    0    0  501    0  0.00000000000E+00  0.00000000000E+00 -0.10081104983E+04  0.10081104983E+04  0.25500000920E-02 0. -1.
    10030    2    1    2    0    0  0.00000000000E+00  0.00000000000E+00 -0.21210170059E+03  0.18041192960E+04  0.17916080215E+04 0.  0.
        4    1    3    3  502    0  0.36788075534E+03 -0.30956036073E+03 -0.86717257229E+03  0.99154109855E+03  0.12699999809E+01 0. -1.
       -4    1    3    3    0  502 -0.36788075534E+03  0.30956036073E+03  0.65507087170E+03  0.81257819742E+03  0.12699999809E+01 0.  1.
</event>
<event>
 5   0  0.1837313E-04  0.1805984E+04  0.7818609E-02  0.8703124E-01
       -1   -1    0    0    0  501  0.00000000000E+00  0.00000000000E+00  0.19381619822E+04  0.19381619822E+04  0.50400001928E-02 0. -1.
        1   -1    0    0  501    0  0.00000000000E+00  0.00000000000E+00 -0.42070497258E+03  0.42070497261E+03  0.50400001928E-02 0.  1.
    10030    2    1    2    0    0  0.00000000000E+00  0.00000000000E+00  0.15174570097E+04  0.23588669549E+04  0.18059838135E+04 0.  0.
        1    1    3    3  502    0  0.67242375122E+03 -0.24439332800E+03  0.39150394250E+02  0.71652952024E+03  0.50400001928E-02 0.  1.
       -1    1    3    3    0  502 -0.67242375122E+03  0.24439332800E+03  0.14783066154E+04  0.16423374346E+04  0.50400001928E-02 0. -1.
</event>
<event>
 5   0  0.3628581E-04  0.1778682E+04  0.7818609E-02  0.8717719E-01
       -2   -1    0    0    0  501  0.00000000000E+00  0.00000000000E+00  0.73044384653E+03  0.73044384654E+03  0.25500000920E-02 0.  1.
        2   -1    0    0  501    0  0.00000000000E+00  0.00000000000E+00 -0.10828043908E+04  0.10828043908E+04  0.25500000920E-02 0. -1.
    10030    2    1    2    0    0  0.00000000000E+00  0.00000000000E+00 -0.35236054431E+03  0.18132482374E+04  0.17786824385E+04 0.  0.
        2    1    3    3  502    0 -0.13239524489E+03 -0.51511208549E+03 -0.90281450477E+03  0.10478277490E+04  0.25500000920E-02 0. -1.
       -2    1    3    3    0  502  0.13239524489E+03  0.51511208549E+03  0.55045396046E+03  0.76542048841E+03  0.25500000920E-02 0.  1.
</event>
<event>
 5   0  0.1883959E-04  0.1744836E+04  0.7818609E-02  0.8736198E-01
       -1   -1    0    0    0  501  0.00000000000E+00  0.00000000000E+00  0.38130180064E+03  0.38130180068E+03  0.50400001928E-02 0. -1.
        1   -1    0    0  501    0  0.00000000000E+00  0.00000000000E+00 -0.19960921316E+04  0.19960921316E+04  0.50400001928E-02 0.  1.
    10030    2    1    2    0    0  0.00000000000E+00  0.00000000000E+00 -0.16147903309E+04  0.23773939322E+04  0.17448364096E+04 0.  0.
        5    1    3    3  502    0 -0.44196763595E+03 -0.26547652024E+03 -0.17662901950E+04  0.18400044340E+04  0.46999998093E+01 0.  1.
       -5    1    3    3    0  502  0.44196763595E+03  0.26547652024E+03  0.15149986410E+03  0.53738949827E+03  0.46999998093E+01 0. -1.
</event>
<event>
 5   0  0.1330125E-04  0.1742118E+04  0.7818609E-02  0.8737701E-01
       -3   -1    0    0    0  501  0.00000000000E+00  0.00000000000E+00  0.15807007036E+04  0.15807007068E+04  0.10100000352E+00 0.  1.
        3   -1    0    0  501    0  0.00000000000E+00  0.00000000000E+00 -0.48000476660E+03  0.48000477722E+03  0.10100000352E+00 0. -1.
    10030    2    1    2    0    0  0.00000000000E+00  0.00000000000E+00  0.11006959370E+04  0.20607054840E+04  0.17421181206E+04 0.  0.
        3    1    3    3  502    0 -0.59775675898E+03  0.40901294833E+03 -0.22020024176E+02  0.72463068281E+03  0.10100000352E+00 0. -1.
       -3    1    3    3    0  502  0.59775675898E+03 -0.40901294833E+03  0.11227159612E+04  0.13360748012E+04  0.10100000352E+00 0.  1.
</event>
<event>
 5   0  0.1837313E-04  0.1847579E+04  0.7818609E-02  0.8681399E-01
        1   -1    0    0  501    0  0.00000000000E+00  0.00000000000E+00  0.18851013907E+04  0.18851013907E+04  0.50400001928E-02 0. -1.
       -1   -1    0    0    0  501  0.00000000000E+00  0.00000000000E+00 -0.45270091914E+03  0.45270091917E+03  0.50400001928E-02 0.  1.
    10030    2    1    2    0    0  0.00000000000E+00  0.00000000000E+00  0.14324004715E+04  0.23378023098E+04  0.18475790995E+04 0.  0.
        1    1    3    3  502    0  0.62845953114E+03  0.47474444497E+03  0.10536623333E+03  0.79463558532E+03  0.50400001928E-02 0.  1.
       -1    1    3    3    0  502 -0.62845953114E+03 -0.47474444497E+03  0.13270342382E+04  0.15431667245E+04  0.50400001928E-02 0. -1.
</event>
<event>
 5   0  0.3575091E-04  0.1893324E+04  0.7818609E-02  0.8658187E-01
        2   -1    0    0  501    0  0.00000000000E+00  0.00000000000E+00  0.71458517430E+03  0.71458517430E+03  0.25500000920E-02 0.  1.
       -2   -1    0    0    0  501  0.00000000000E+00  0.00000000000E+00 -0.12541109423E+04  0.12541109423E+04  0.25500000920E-02 0. -1.
    10030    2    1    2    0    0  0.00000000000E+00  0.00000000000E+00 -0.53952576803E+03  0.19686961166E+04  0.18933241522E+04 0.  0.
        5    1    3    3  502    0  0.27680229026E+03  0.12895253059E+03  0.66195427975E+03  0.72900879386E+03  0.46999998093E+01 0.  1.
       -5    1    3    3    0  502 -0.27680229026E+03 -0.12895253059E+03 -0.12014800478E+04  0.12396873228E+04  0.46999998093E+01 0. -1.
</event>
<event>
 5   0  0.1883959E-04  0.1481760E+04  0.7818609E-02  0.8896674E-01
       -1   -1    0    0    0  501  0.00000000000E+00  0.00000000000E+00  0.89770708548E+03  0.89770708549E+03  0.50400001928E-02 0. -1.
        1   -1    0    0  501    0  0.00000000000E+00  0.00000000000E+00 -0.61145035294E+03  0.61145035296E+03  0.50400001928E-02 0.  1.
    10030    2    1    2    0    0  0.00000000000E+00  0.00000000000E+00  0.28625673254E+03  0.15091574384E+04  0.14817601888E+04 0.  0.
        5    1    3    3  502    0  0.69198439543E+03 -0.84675511317E+01 -0.12627537928E+03  0.70347826146E+03  0.46999998093E+01 0.  1.
       -5    1    3    3    0  502 -0.69198439543E+03  0.84675511317E+01  0.41253211182E+03  0.80567917698E+03  0.46999998093E+01 0. -1.
</event>
<event>
 5   0  0.3531266E-04  0.1804492E+04  0.7818609E-02  0.8703914E-01
       -2   -1    0    0    0  501  0.00000000000E+00  0.00000000000E+00  0.46765144131E+03  0.46765144132E+03  0.25500000920E-02 0.  1.
        2   -1    0    0  501    0  0.00000000000E+00  0.00000000000E+00 -0.17407156884E+04  0.17407156884E+04  0.25500000920E-02 0. -1.
    10030    2    1    2    0    0  0.00000000000E+00  0.00000000000E+00 -0.12730642471E+04  0.22083671297E+04  0.18044923947E+04 0.  0.
        3    1    3    3  502    0 -0.61408575045E+03  0.64186032475E+03 -0.44317610659E+03  0.99271902220E+03  0.10100000352E+00 0.  1.
       -3    1    3    3    0  502  0.61408575045E+03 -0.64186032475E+03 -0.82988814052E+03  0.12156481075E+04  0.10100000352E+00 0. -1.
</event>
<event>
 5   0  0.1837313E-04  0.1793890E+04  0.7818609E-02  0.8709556E-01
        1   -1    0    0  501    0  0.00000000000E+00  0.00000000000E+00  0.63787337304E+03  0.63787337306E+03  0.50400001928E-02 0. -1.
       -1   -1    0    0    0  501  0.00000000000E+00  0.00000000000E+00 -0.12612380511E+04  0.12612380511E+04  0.50400001928E-02 0.  1.
    10030    2    1    2    0    0  0.00000000000E+00  0.00000000000E+00 -0.62336467806E+03  0.18991114242E+04  0.17938898181E+04 0.  0.
        1    1    3    3  502    0 -0.34998414464E+03  0.39295137883E+03 -0.10806558664E+04  0.12019637221E+04  0.50400001928E-02 0.  1.
       -1    1    3    3    0  502  0.34998414464E+03 -0.39295137883E+03  0.45729118830E+03  0.69714770210E+03  0.50400001928E-02 0. -1.
</event>
<event>
 5   0  0.1818778E-04  0.1804345E+04  0.7818609E-02  0.8703992E-01
        1   -1    0    0  501    0  0.00000000000E+00  0.00000000000E+00  0.86144948028E+03  0.86144948030E+03  0.50400001928E-02 0.  1.
       -1   -1    0    0    0  501  0.00000000000E+00  0.00000000000E+00 -0.94482110131E+03  0.94482110132E+03  0.50400001928E-02 0. -1.
    10030    2    1    2    0    0  0.00000000000E+00  0.00000000000E+00 -0.83371621025E+02  0.18062705816E+04  0.18043454732E+04 0.  0.
        3    1    3    3  502    0 -0.65302279340E+03  0.29668823155E+03  0.50612099119E+03  0.87785029667E+03  0.10100000352E+00 0.  1.
       -3    1    3    3    0  502  0.65302279340E+03 -0.29668823155E+03 -0.58949261221E+03  0.92842028495E+03  0.10100000352E+00 0. -1.
</event>
<event>
 5   0  0.3531266E-04  0.1741931E+04  0.7818609E-02  0.8737804E-01
       -2   -1    0    0    0  501  0.00000000000E+00  0.00000000000E+00  0.86329049879E+03  0.86329049879E+03  0.25500000920E-02 0.  1.
        2   -1    0    0  501    0  0.00000000000E+00  0.00000000000E+00 -0.87870860221E+03  0.87870860221E+03  0.25500000920E-02 0. -1.
    10030    2    1    2    0    0  0.00000000000E+00  0.00000000000E+00 -0.15418103423E+02  0.17419991010E+04  0.17419308683E+04 0.  0.
        3    1    3    3  502    0  0.71959198273E+02 -0.47579481241E+03 -0.73370026105E+03  0.87742516091E+03  0.10100000352E+00 0. -1.
       -3    1    3    3    0  502 -0.71959198273E+02  0.47579481241E+03  0.71828215763E+03  0.86457394010E+03  0.10100000352E+00 0.  1.
</event>
<event>
 5   0  0.3575091E-04  0.1778068E+04  0.7818609E-02  0.8718050E-01
        2   -1    0    0  501    0  0.00000000000E+00  0.00000000000E+00  0.10781667276E+04  0.10781667276E+04  0.25500000920E-02 0. -1.
       -2   -1    0    0    0  501  0.00000000000E+00  0.00000000000E+00 -0.73307933672E+03  0.73307933672E+03  0.25500000920E-02 0.  1.
    10030    2    1    2    0    0  0.00000000000E+00  0.00000000000E+00  0.34508739092E+03  0.18112460644E+04  0.17780683334E+04 0.  0.
        5    1    3    3  502    0 -0.67176627670E+03 -0.44744294608E+03 -0.20708231270E+03  0.83329484262E+03  0.46999998093E+01 0. -1.
       -5    1    3    3    0  502  0.67176627670E+03  0.44744294608E+03  0.55216970362E+03  0.97795122174E+03  0.46999998093E+01 0.  1.
</event>
<event>
 5   0  0.3575091E-04  0.1797180E+04  0.7818609E-02  0.8707801E-01
       -2   -1    0    0    0  501  0.00000000000E+00  0.00000000000E+00  0.50060285935E+03  0.50060285935E+03  0.25500000920E-02 0. -1.
        2   -1    0    0  501    0  0.00000000000E+00  0.00000000000E+00 -0.16129830412E+04  0.16129830412E+04  0.25500000920E-02 0.  1.
    10030    2    1    2    0    0  0.00000000000E+00  0.00000000000E+00 -0.11123801819E+04  0.21135859006E+04  0.17971799270E+04 0.  0.
        5    1    3    3  502    0 -0.49528546536E+03  0.21785529857E+03  0.28752171265E+03  0.61274745904E+03  0.46999998093E+01 0. -1.
       -5    1    3    3    0  502  0.49528546536E+03 -0.21785529857E+03 -0.13999018945E+04  0.15008384415E+04  0.46999998093E+01 0.  1.
</event>
<event>
 5   0  0.1825253E-04  0.1817732E+04  0.7818609E-02  0.8696926E-01
        1   -1    0    0  501    0  0.00000000000E+00  0.00000000000E+00  0.12139792949E+04  0.12139792949E+04  0.50400001928E-02 0.  1.
       -1   -1    0    0    0  501  0.00000000000E+00  0.00000000000E+00 -0.68043812755E+03  0.68043812757E+03  0.50400001928E-02 0. -1.
    10030    2    1    2    0    0  0.00000000000E+00  0.00000000000E+00  0.53354116737E+03  0.18944174225E+04  0.18177324317E+04 0.  0.
        4    1    3    3  502    0 -0.47620462274E+03 -0.70844537570E+03  0.59197722516E+03  0.10387994711E+04  0.12699999809E+01 0.  1.
       -4    1    3    3    0  502  0.47620462274E+03  0.70844537570E+03 -0.58436057783E+02  0.85561795144E+03  0.12699999809E+01 0. -1.
</event>
<event>
 5   0  0.1883959E-04  0.1849888E+04  0.7818609E-02  0.8680210E-01
        1   -1    0    0  501    0  0.00000000000E+00  0.00000000000E+00  0.64284448690E+03  0.64284448692E+03  0.50400001928E-02 0. -1.
       -1   -1    0    0    0  501  0.00000000000E+00  0.00000000000E+00 -0.13308370347E+04  0.13308370347E+04  0.50400001928E-02 0.  1.
    10030    2    1    2    0    0  0.00000000000E+00  0.00000000000E+00 -0.68799254777E+03  0.19736815216E+04  0.18498878352E+04 0.  0.
        5    1    3    3  502    0 -0.86132600616E+03 -0.10163553068E+03 -0.68688584833E+03  0.11063663627E+04  0.46999998093E+01 0.  1.
       -5    1    3    3    0  502  0.86132600616E+03  0.10163553068E+03 -0.11066994364E+01  0.86731515885E+03  0.46999998093E+01 0. -1.
</event>
<event>
 5   0  0.1825253E-04  0.1809377E+04  0.7818609E-02  0.8701329E-01
        1   -1    0    0  501    0  0.00000000000E+00  0.00000000000E+00  0.12874095801E+04  0.12874095801E+04  0.50400001928E-02 0.  1.
       -1   -1    0    0    0  501  0.00000000000E+00  0.00000000000E+00 -0.63574295058E+03  0.63574295060E+03  0.50400001928E-02 0. -1.
    10030    2    1    2    0    0  0.00000000000E+00  0.00000000000E+00  0.65166662953E+03  0.19231525307E+04  0.18093773129E+04 0.  0.
        4    1    3    3  502    0 -0.65447928264E+03 -0.19879445891E+03  0.95517869653E+03  0.11748320405E+04  0.12699999809E+01 0.  1.
       -4    1    3    3    0  502  0.65447928264E+03  0.19879445891E+03 -0.30351206700E+03  0.74832049017E+03  0.12699999809E+01 0. -1.
</event>
<event>
 5   0  0.1837313E-04  0.1774302E+04  0.7818609E-02  0.8720086E-01
        1   -1    0    0  501    0  0.00000000000E+00  0.00000000000E+00  0.16613811054E+04  0.16613811054E+04  0.50400001928E-02 0. -1.
       -1   -1    0    0    0  501  0.00000000000E+00  0.00000000000E+00 -0.47372472259E+03  0.47372472262E+03  0.50400001928E-02 0.  1.
    10030    2    1    2    0    0  0.00000000000E+00  0.00000000000E+00  0.11876563828E+04  0.21351058281E+04  0.17743024582E+04 0.  0.
        1    1    3    3  502    0 -0.44525436521E+03  0.43038339951E+03 -0.17061223656E+03  0.64233157762E+03  0.50400001928E-02 0.  1.
       -1    1    3    3    0  502  0.44525436521E+03 -0.43038339951E+03  0.13582686194E+04  0.14927742504E+04  0.50400001928E-02 0. -1.
</event>
<event>
 5   0  0.1825253E-04  0.1415324E+04  0.7818609E-02  0.8942801E-01
       -1   -1    0    0    0  501  0.00000000000E+00  0.00000000000E+00  0.12412866971E+04  0.12412866971E+04  0.50400001928E-02 0.  1.
        1   -1    0    0  501    0  0.00000000000E+00  0.00000000000E+00 -0.40344045694E+03  0.40344045697E+03  0.50400001928E-02 0. -1.
    10030    2    1    2    0    0  0.00000000000E+00  0.00000000000E+00  0.83784624013E+03  0.16447271540E+04  0.14153236694E+04 0.  0.
        4    1    3    3  502    0 -0.82553382603E+02  0.32935890852E+03 -0.30259191890E+03  0.45481406518E+03  0.12699999809E+01 0. -1.
       -4    1    3    3    0  502  0.82553382603E+02 -0.32935890852E+03  0.11404381590E+04  0.11899130889E+04  0.12699999809E+01 0.  1.
</event>
<event>
 5   0  0.3531266E-04  0.1892787E+04  0.7818609E-02  0.8658455E-01
        2   -1    0    0  501    0  0.00000000000E+00  0.00000000000E+00  0.99638354424E+03  0.99638354424E+03  0.25500000920E-02 0.  1.
       -2   -1    0    0    0  501  0.00000000000E+00  0.00000000000E+00 -0.89891188073E+03  0.89891188073E+03  0.25500000920E-02 0. -1.
    10030    2    1    2    0    0  0.00000000000E+00  0.00000000000E+00  0.97471663510E+02  0.18952954250E+04  0.18927873686E+04 0.  0.
        3    1    3    3  502    0 -0.28045592044E+03 -0.25097325786E+03 -0.82075681195E+03  0.90293125653E+03  0.10100000352E+00 0. -1.
       -3    1    3    3    0  502  0.28045592044E+03  0.25097325786E+03  0.91822847546E+03  0.99236416844E+03  0.10100000352E+00 0.  1.
</event>
<event>
 5   0  0.3575091E-04  0.1741164E+04  0.7818609E-02  0.8738229E-01
        2   -1    0    0  501    0  0.00000000000E+00  0.00000000000E+00  0.73288290512E+03  0.73288290512E+03  0.25500000920E-02 0.  1.
       -2   -1    0    0    0  501  0.00000000000E+00  0.00000000000E+00 -0.10341535076E+04  0.10341535076E+04  0.25500000920E-02 0. -1.
    10030    2    1    2    0    0  0.00000000000E+00  0.00000000000E+00 -0.30127060250E+03  0.17670364127E+04  0.17411644690E+04 0.  0.
        5    1    3    3  502    0  0.63011217264E+03  0.59504381530E+02  0.45600018490E+03  0.78008998209E+03  0.46999998093E+01 0.  1.
       -5    1    3    3    0  502 -0.63011217264E+03 -0.59504381530E+02 -0.75727078740E+03  0.98694643065E+03  0.46999998093E+01 0. -1.
</event>
<event>
 5   0  0.3575091E-04  0.1809639E+04  0.7818609E-02  0.8701190E-01
        2   -1    0    0  501    0  0.00000000000E+00  0.00000000000E+00  0.18950062781E+04  0.18950062781E+04  0.25500000920E-02 0. -1.
       -2   -1    0    0    0  501  0.00000000000E+00  0.00000000000E+00 -0.43202954327E+03  0.43202954328E+03  0.25500000920E-02 0.  1.
    10030    2    1    2    0    0  0.00000000000E+00  0.00000000000E+00  0.14629767348E+04  0.23270358214E+04  0.18096394081E+04 0.  0.
        5    1    3    3  502    0 -0.73277988813E+03 -0.84284654757E+02  0.14053431311E+04  0.15871615146E+04  0.46999998093E+01 0. -1.
       -5    1    3    3    0  502  0.73277988813E+03  0.84284654757E+02  0.57633603732E+02  0.73987430672E+03  0.46999998093E+01 0.  1.
</event>
<event>
 5   0  0.1837313E-04  0.1802610E+04  0.7818609E-02  0.8704913E-01
       -1   -1    0    0    0  501  0.00000000000E+00  0.00000000000E+00  0.45614213206E+03  0.45614213209E+03  0.50400001928E-02 0. -1.
        1   -1    0    0  501    0  0.00000000000E+00  0.00000000000E+00 -0.17809162828E+04  0.17809162828E+04  0.50400001928E-02 0.  1.
    10030    2    1    2    0    0  0.00000000000E+00  0.00000000000E+00 -0.13247741507E+04  0.22370584149E+04  0.18026102743E+04 0.  0.
        1    1    3    3  502    0 -0.35102262668E+03 -0.72675879598E+03 -0.16450248168E+03  0.82368458677E+03  0.50400001928E-02 0.  1.
       -1    1    3    3    0  502  0.35102262668E+03  0.72675879598E+03 -0.11602716690E+04  0.14133738281E+04  0.50400001928E-02 0. -1.
</event>
<event>
 5   0  0.3568870E-04  0.1782324E+04  0.7818609E-02  0.8715756E-01
        2   -1    0    0  501    0  0.00000000000E+00  0.00000000000E+00  0.21715109089E+04  0.21715109089E+04  0.25500000920E-02 0.  1.
       -2   -1    0    0    0  501  0.00000000000E+00  0.00000000000E+00 -0.36572224912E+03  0.36572224913E+03  0.25500000920E-02 0. -1.
    10030    2    1    2    0    0  0.00000000000E+00  0.00000000000E+00  0.18057886598E+04  0.25372331580E+04  0.17823241609E+04 0.  0.
        1    1    3    3  502    0 -0.53617281789E+03  0.64472741339E+03  0.13323619938E+04  0.15742754558E+04  0.50400001928E-02 0.  1.
       -1    1    3    3    0  502  0.53617281789E+03 -0.64472741339E+03  0.47342666603E+03  0.96295770226E+03  0.50400001928E-02 0. -1.
</event>
<event>
 5   0  0.3568870E-04  0.1780862E+04  0.7818609E-02  0.8716544E-01
        2   -1    0    0  501    0  0.00000000000E+00  0.00000000000E+00  0.11511700542E+04  0.11511700542E+04  0.25500000920E-02 0. -1.
       -2   -1    0    0    0  501  0.00000000000E+00  0.00000000000E+00 -0.68874908277E+03  0.68874908277E+03  0.25500000920E-02 0.  1.
    10030    2    1    2    0    0  0.00000000000E+00  0.00000000000E+00  0.46242097146E+03  0.18399191370E+04  0.17808619474E+04 0.  0.
        1    1    3    3  502    0  0.72601731957E+02  0.87750490548E+03  0.94218296340E+02  0.88552976122E+03  0.50400001928E-02 0. -1.
       -1    1    3    3    0  502 -0.72601731957E+02 -0.87750490548E+03  0.36820267512E+03  0.95438937578E+03  0.50400001928E-02 0.  1.
</event>
<event>
 5   0  0.1818778E-04  0.1816273E+04  0.7818609E-02  0.8697693E-01
       -1   -1    0    0    0  501  0.00000000000E+00  0.00000000000E+00  0.39770257555E+03  0.39770257558E+03  0.50400001928E-02 0.  1.
        1   -1    0    0  501    0  0.00000000000E+00  0.00000000000E+00 -0.20736891068E+04  0.20736891068E+04  0.50400001928E-02 0. -1.
    10030    2    1    2    0    0  0.00000000000E+00  0.00000000000E+00 -0.16759865312E+04  0.24713916824E+04  0.18162725552E+04 0.  0.
        3    1    3    3  502    0  0.27721614091E+02 -0.33545054046E+03 -0.19856773383E+04  0.20140034893E+04  0.10100000352E+00 0. -1.
       -3    1    3    3    0  502 -0.27721614091E+02  0.33545054046E+03  0.30969080704E+03  0.45738819306E+03  0.10100000352E+00 0.  1.
</event>
<event>
 5   0  0.3582186E-04  0.1820155E+04  0.7818609E-02  0.8695654E-01
       -2   -1    0    0    0  501  0.00000000000E+00  0.00000000000E+00  0.10496353990E+04  0.10496353990E+04  0.25500000920E-02 0. -1.
        2   -1    0    0  501    0  0.00000000000E+00  0.00000000000E+00 -0.78907457137E+03  0.78907457138E+03  0.25500000920E-02 0.  1.
    10030    2    1    2    0    0  0.00000000000E+00  0.00000000000E+00  0.26056082758E+03  0.18387099703E+04  0.18201545017E+04 0.  0.
        4    1    3    3  502    0 -0.82278993208E+03  0.29059934375E+03  0.39138732241E+03  0.95635605292E+03  0.12699999809E+01 0.  1.
       -4    1    3    3    0  502  0.82278993208E+03 -0.29059934375E+03 -0.13082649483E+03  0.88235391741E+03  0.12699999809E+01 0. -1.
</event>
<event>
 5   0  0.1835421E-04  0.1818736E+04  0.7818609E-02  0.8696399E-01
       -1   -1    0    0    0  501  0.00000000000E+00  0.00000000000E+00  0.56460034990E+03  0.56460034992E+03  0.50400001928E-02 0. -1.
        1   -1    0    0  501    0  0.00000000000E+00  0.00000000000E+00 -0.14646652384E+04  0.14646652384E+04  0.50400001928E-02 0.  1.
    10030    2    1    2    0    0  0.00000000000E+00  0.00000000000E+00 -0.90006488846E+03  0.20292655883E+04  0.18187363812E+04 0.  0.
        2    1    3    3  502    0  0.74987894146E+03 -0.47996089395E+03 -0.65658176816E+03  0.11062461321E+04  0.25500000920E-02 0. -1.
       -2    1    3    3    0  502 -0.74987894146E+03  0.47996089395E+03 -0.24348312030E+03  0.92301945616E+03  0.25500000920E-02 0.  1.
</event>
<event>
 5   0  0.3628581E-04  0.1806458E+04  0.7818609E-02  0.8702873E-01
       -2   -1    0    0    0  501  0.00000000000E+00  0.00000000000E+00  0.80539275008E+03  0.80539275009E+03  0.25500000920E-02 0.  1.
        2   -1    0    0  501    0  0.00000000000E+00  0.00000000000E+00 -0.10129497151E+04  0.10129497151E+04  0.25500000920E-02 0. -1.
    10030    2    1    2    0    0  0.00000000000E+00  0.00000000000E+00 -0.20755696500E+03  0.18183424652E+04  0.18064577014E+04 0.  0.
        2    1    3    3  502    0 -0.10794169177E+03  0.59150812043E+03 -0.78222253333E+03  0.98661307361E+03  0.25500000920E-02 0. -1.
       -2    1    3    3    0  502  0.10794169177E+03 -0.59150812043E+03  0.57466556833E+03  0.83172939156E+03  0.25500000920E-02 0.  1.
</event>
<event>
 5   0  0.1837313E-04  0.1808576E+04  0.7818609E-02  0.8701752E-01
       -1   -1    0    0    0  501  0.00000000000E+00  0.00000000000E+00  0.58192896410E+03  0.58192896412E+03  0.50400001928E-02 0. -1.
        1   -1    0    0  501    0  0.00000000000E+00  0.00000000000E+00 -0.14052178762E+04  0.14052178762E+04  0.50400001928E-02 0.  1.
    10030    2    1    2    0    0  0.00000000000E+00  0.00000000000E+00 -0.82328891212E+03  0.19871468403E+04  0.18085762169E+04 0.  0.
        1    1    3    3  502    0 -0.64470512446E+03 -0.42305963627E+03  0.10734127454E+03  0.77855398181E+03  0.50400001928E-02 0. -1.
       -1    1    3    3    0  502  0.64470512446E+03  0.42305963627E+03 -0.93063018666E+03  0.12085928585E+04  0.50400001928E-02 0.  1.
</event>
<event>
 5   0  0.3628581E-04  0.1809734E+04  0.7818609E-02  0.8701140E-01
       -2   -1    0    0    0  501  0.00000000000E+00  0.00000000000E+00  0.65349026006E+03  0.65349026007E+03  0.25500000920E-02 0. -1.
        2   -1    0    0  501    0  0.00000000000E+00  0.00000000000E+00 -0.12529401201E+04  0.12529401201E+04  0.25500000920E-02 0.  1.
    10030    2    1    2    0    0  0.00000000000E+00  0.00000000000E+00 -0.59944986005E+03  0.19064303802E+04  0.18097338643E+04 0.  0.
        2    1    3    3  502    0 -0.27948486979E+03 -0.53805296448E+03 -0.10073073076E+04  0.11757043833E+04  0.25500000920E-02 0.  1.
       -2    1    3    3    0  502  0.27948486979E+03  0.53805296448E+03  0.40785744751E+03  0.73072599689E+03  0.25500000920E-02 0. -1.
</event>
<event>
 5   0  0.3575091E-04  0.1758185E+04  0.7818609E-02  0.8728858E-01
        2   -1    0    0  501    0  0.00000000000E+00  0.00000000000E+00  0.62710862239E+03  0.62710862239E+03  0.25500000920E-02 0. -1.
       -2   -1    0    0    0  501  0.00000000000E+00  0.00000000000E+00 -0.12323287093E+04  0.12323287093E+04  0.25500000920E-02 0.  1.
    10030    2    1    2    0    0  0.00000000000E+00  0.00000000000E+00 -0.60522008687E+03  0.18594373317E+04  0.17581853818E+04 0.  0.
        5    1    3    3  502    0  0.11144011792E+03 -0.55845102456E+03 -0.10108752188E+04  0.11602487857E+04  0.46999998093E+01 0.  1.
       -5    1    3    3    0  502 -0.11144011792E+03  0.55845102456E+03  0.40565513194E+03  0.69918854595E+03  0.46999998093E+01 0. -1.
</event>
<event>
 5   0  0.3575091E-04  0.1809469E+04  0.7818609E-02  0.8701280E-01
        2   -1    0    0  501    0  0.00000000000E+00  0.00000000000E+00  0.18240677179E+04  0.18240677179E+04  0.25500000920E-02 0.  1.
       -2   -1    0    0    0  501  0.00000000000E+00  0.00000000000E+00 -0.44874701466E+03  0.44874701467E+03  0.25500000920E-02 0. -1.
    10030    2    1    2    0    0  0.00000000000E+00  0.00000000000E+00  0.13753207033E+04  0.22728147326E+04  0.18094694725E+04 0.  0.
        5    1    3    3  502    0 -0.39454814640E+03  0.56589816559E+03  0.14228768625E+04  0.15812999808E+04  0.46999998093E+01 0.  1.
       -5    1    3    3    0  502  0.39454814640E+03 -0.56589816559E+03 -0.47556159189E+02  0.69151475177E+03  0.46999998093E+01 0. -1.
</event>
<event>
 5   0  0.3575091E-04  0.1811631E+04  0.7818609E-02  0.8700139E-01
        2   -1    0    0  501    0  0.00000000000E+00  0.00000000000E+00  0.12141614727E+04  0.12141614727E+04  0.25500000920E-02 0.  1.
       -2   -1    0    0    0  501  0.00000000000E+00  0.00000000000E+00 -0.67577619059E+03  0.67577619060E+03  0.25500000920E-02 0. -1.
    10030    2    1    2    0    0  0.00000000000E+00  0.00000000000E+00  0.53838528213E+03  0.18899376633E+04  0.18116306630E+04 0.  0.
        5    1    3    3  502    0  0.43639910722E+03 -0.73004429928E+02  0.10937397645E+04  0.11798570210E+04  0.46999998093E+01 0.  1.
       -5    1    3    3    0  502 -0.43639910722E+03  0.73004429928E+02 -0.55535448235E+03  0.71008064234E+03  0.46999998093E+01 0. -1.
</event>
<event>
 5   0  0.1837313E-04  0.1551126E+04  0.7818609E-02  0.8851149E-01
        1   -1    0    0  501    0  0.00000000000E+00  0.00000000000E+00  0.75526208766E+03  0.75526208768E+03  0.50400001928E-02 0. -1.
       -1   -1    0    0    0  501  0.00000000000E+00  0.00000000000E+00 -0.79641000107E+03  0.79641000108E+03  0.50400001928E-02 0.  1.
    10030    2    1    2    0    0  0.00000000000E+00  0.00000000000E+00 -0.41147913406E+02  0.15516720888E+04  0.15511264037E+04 0.  0.
        1    1    3    3  502    0 -0.13347371367E+03  0.55867577966E+03  0.50072780517E+03  0.76201193817E+03  0.50400001928E-02 0. -1.
       -1    1    3    3    0  502  0.13347371367E+03 -0.55867577966E+03 -0.54187571858E+03  0.78966015059E+03  0.50400001928E-02 0.  1.
</event>
<event>
 5   0  0.1837313E-04  0.1785102E+04  0.7818609E-02  0.8714262E-01
        1   -1    0    0  501    0  0.00000000000E+00  0.00000000000E+00  0.15287264632E+04  0.15287264632E+04  0.50400001928E-02 0. -1.
       -1   -1    0    0    0  501  0.00000000000E+00  0.00000000000E+00 -0.52111842278E+03  0.52111842281E+03  0.50400001928E-02 0.  1.
    10030    2    1    2    0    0  0.00000000000E+00  0.00000000000E+00  0.10076080404E+04  0.20498448860E+04  0.17851022642E+04 0.  0.
        1    1    3    3  502    0 -0.59837275343E+03  0.16515726778E+03 -0.23265426725E+03  0.66291393352E+03  0.50400001928E-02 0.  1.
       -1    1    3    3    0  502  0.59837275343E+03 -0.16515726778E+03  0.12402623077E+04  0.13869309525E+04  0.50400001928E-02 0. -1.
</event>
<event>
 5   0  0.1818778E-04  0.1817501E+04  0.7818609E-02  0.8697048E-01
       -1   -1    0    0    0  501  0.00000000000E+00  0.00000000000E+00  0.76462263350E+03  0.76462263352E+03  0.50400001928E-02 0.  1.
        1   -1    0    0  501    0  0.00000000000E+00  0.00000000000E+00 -0.10800457884E+04  0.10800457884E+04  0.50400001928E-02 0. -1.
    10030    2    1    2    0    0  0.00000000000E+00  0.00000000000E+00 -0.31542315492E+03  0.18446684220E+04  0.18175009822E+04 0.  0.
        3    1    3    3  502    0  0.55716830858E+03  0.18143420173E+03 -0.86269671999E+03  0.10428808822E+04  0.10100000352E+00 0. -1.
       -3    1    3    3    0  502 -0.55716830858E+03 -0.18143420173E+03  0.54727356507E+03  0.80178753973E+03  0.10100000352E+00 0.  1.
</event>
<event>
 5   0  0.3568870E-04  0.1812020E+04  0.7818609E-02  0.8699933E-01
       -2   -1    0    0    0  501  0.00000000000E+00  0.00000000000E+00  0.47725006670E+03  0.47725006671E+03  0.25500000920E-02 0.  1.
        2   -1    0    0  501    0  0.00000000000E+00  0.00000000000E+00 -0.17199669257E+04  0.17199669257E+04  0.25500000920E-02 0. -1.
    10030    2    1    2    0    0  0.00000000000E+00  0.00000000000E+00 -0.12427168590E+04  0.21972169924E+04  0.18120202317E+04 0.  0.
        1    1    3    3  502    0 -0.67218303638E+03 -0.48318892323E+03 -0.10677994468E+04  0.13511096286E+04  0.50400001928E-02 0.  1.
       -1    1    3    3    0  502  0.67218303638E+03  0.48318892323E+03 -0.17491741216E+03  0.84610736377E+03  0.50400001928E-02 0. -1.
</event>
<event>
 5   0  0.1883959E-04  0.1797010E+04  0.7818609E-02  0.8707891E-01
       -1   -1    0    0    0  501  0.00000000000E+00  0.00000000000E+00  0.69583018732E+03  0.69583018734E+03  0.50400001928E-02 0. -1.
        1   -1    0    0  501    0  0.00000000000E+00  0.00000000000E+00 -0.11602134163E+04  0.11602134163E+04  0.50400001928E-02 0.  1.
    10030    2    1    2    0    0  0.00000000000E+00  0.00000000000E+00 -0.46438322898E+03  0.18560436037E+04  0.17970103159E+04 0.  0.
        5    1    3    3  502    0  0.60078224738E+02 -0.80997602971E+03  0.16464207837E+03  0.82873377255E+03  0.46999998093E+01 0. -1.
       -5    1    3    3    0  502 -0.60078224738E+02  0.80997602971E+03 -0.62902530735E+03  0.10273098311E+04  0.46999998093E+01 0.  1.
</event>
<event>
 5   0  0.3568870E-04  0.1699585E+04  0.7818609E-02  0.8761601E-01
       -2   -1    0    0    0  501  0.00000000000E+00  0.00000000000E+00  0.61169362746E+03  0.61169362747E+03  0.25500000920E-02 0.  1.
        2   -1    0    0  501    0  0.00000000000E+00  0.00000000000E+00 -0.11805707126E+04  0.11805707126E+04  0.25500000920E-02 0. -1.
    10030    2    1    2    0    0  0.00000000000E+00  0.00000000000E+00 -0.56887708515E+03  0.17922643401E+04  0.16995853396E+04 0.  0.
        1    1    3    3  502    0 -0.48204574633E+02 -0.24735745905E+03 -0.11402587593E+04  0.11677754201E+04  0.50400001928E-02 0. -1.
       -1    1    3    3    0  502  0.48204574633E+02  0.24735745905E+03  0.57138167417E+03  0.62448891997E+03  0.50400001928E-02 0.  1.
</event>
<event>
 5   0  0.3531266E-04  0.1789227E+04  0.7818609E-02  0.8712050E-01
        2   -1    0    0  501    0  0.00000000000E+00  0.00000000000E+00  0.12193377093E+04  0.12193377093E+04  0.25500000920E-02 0. -1.
       -2   -1    0    0    0  501  0.00000000000E+00  0.00000000000E+00 -0.65636706547E+03  0.65636706548E+03  0.25500000920E-02 0.  1.
    10030    2    1    2    0    0  0.00000000000E+00  0.00000000000E+00  0.56297064381E+03  0.18757047748E+04  0.17892267761E+04 0.  0.
        3    1    3    3  502    0  0.18439688183E+03  0.36060002372E+03 -0.55475200769E+03  0.68686562542E+03  0.10100000352E+00 0.  1.
       -3    1    3    3    0  502 -0.18439688183E+03 -0.36060002372E+03  0.11177226515E+04  0.11888391493E+04  0.10100000352E+00 0. -1.
</event>
<event>
 5   0  0.3628581E-04  0.1859731E+04  0.7818609E-02  0.8675164E-01
       -2   -1    0    0    0  501  0.00000000000E+00  0.00000000000E+00  0.82347943961E+03  0.82347943961E+03  0.25500000920E-02 0. -1.
        2   -1    0    0  501    0  0.00000000000E+00  0.00000000000E+00 -0.10499959098E+04  0.10499959098E+04  0.25500000920E-02 0.  1.
    10030    2    1    2    0    0  0.00000000000E+00  0.00000000000E+00 -0.22651647017E+03  0.18734753494E+04  0.18597312100E+04 0.  0.
        2    1    3    3  502    0 -0.52852969674E+03  0.25524390447E+02 -0.88353642962E+03  0.10298697769E+04  0.25500000920E-02 0.  1.
       -2    1    3    3    0  502  0.52852969674E+03 -0.25524390447E+02  0.65701995946E+03  0.84360557251E+03  0.25500000920E-02 0. -1.
</event>
<event>
 5   0  0.1835421E-04  0.1760425E+04  0.7818609E-02  0.8727633E-01
        1   -1    0    0  501    0  0.00000000000E+00  0.00000000000E+00  0.16634242211E+04  0.16634242211E+04  0.50400001928E-02 0.  1.
       -1   -1    0    0    0  501  0.00000000000E+00  0.00000000000E+00 -0.46577065135E+03  0.46577065137E+03  0.50400001928E-02 0. -1.
    10030    2    1    2    0    0  0.00000000000E+00  0.00000000000E+00  0.11976535697E+04  0.21291948724E+04  0.17604251565E+04 0.  0.
        2    1    3    3  502    0  0.76229565560E+03  0.22571047672E+03  0.10557697715E+04  0.13216238860E+04  0.25500000920E-02 0.  1.
       -2    1    3    3    0  502 -0.76229565560E+03 -0.22571047672E+03  0.14188379825E+03  0.80757098639E+03  0.25500000920E-02 0. -1.
</event>
<event>
 5   0  0.3575091E-04  0.1800893E+04  0.7818609E-02  0.8705825E-01
        2   -1    0    0  501    0  0.00000000000E+00  0.00000000000E+00  0.81946386313E+03  0.81946386314E+03  0.25500000920E-02 0.  1.
       -2   -1    0    0    0  501  0.00000000000E+00  0.00000000000E+00 -0.98943242821E+03  0.98943242822E+03  0.25500000920E-02 0. -1.
    10030    2    1    2    0    0  0.00000000000E+00  0.00000000000E+00 -0.16996856508E+03  0.18088962914E+04  0.18008932450E+04 0.  0.
        5    1    3    3  502    0 -0.38419545039E+02 -0.71792985200E+03 -0.62950286722E+03  0.95561251753E+03  0.46999998093E+01 0.  1.
       -5    1    3    3    0  502  0.38419545039E+02  0.71792985200E+03  0.45953430214E+03  0.85328377382E+03  0.46999998093E+01 0. -1.
</event>
<event>
 5   0  0.1330125E-04  0.1781498E+04  0.7818609E-02  0.8716201E-01
       -3   -1    0    0    0  501  0.00000000000E+00  0.00000000000E+00  0.15561444297E+04  0.15561444330E+04  0.10100000352E+00 0. -1.
        3   -1    0    0  501    0  0.00000000000E+00  0.00000000000E+00 -0.50987178663E+03  0.50987179663E+03  0.10100000352E+00 0.  1.
    10030    2    1    2    0    0  0.00000000000E+00  0.00000000000E+00  0.10462726431E+04  0.20660162297E+04  0.17814984192E+04 0.  0.
        4    1    3    3  502    0  0.86866975460E+03  0.41326080064E+02  0.74662469553E+03  0.11461871733E+04  0.12699999809E+01 0. -1.
       -4    1    3    3    0  502 -0.86866975460E+03 -0.41326080064E+02  0.29964794759E+03  0.91982905632E+03  0.12699999809E+01 0.  1.
</event>
<event>
 5   0  0.3575091E-04  0.1799714E+04  0.7818609E-02  0.8706452E-01
        2   -1    0    0  501    0  0.00000000000E+00  0.00000000000E+00  0.15281623021E+04  0.15281623021E+04  0.25500000920E-02 0. -1.
       -2   -1    0    0    0  501  0.00000000000E+00  0.00000000000E+00 -0.52987975450E+03  0.52987975450E+03  0.25500000920E-02 0.  1.
    10030    2    1    2    0    0  0.00000000000E+00  0.00000000000E+00  0.99828254764E+03  0.20580420566E+04  0.17997136055E+04 0.  0.
        5    1    3    3  502    0  0.48196922734E+03  0.19100961543E+02  0.13678250385E+04  0.14503884338E+04  0.46999998093E+01 0. -1.
       -5    1    3    3    0  502 -0.48196922734E+03 -0.19100961543E+02 -0.36954249087E+03  0.60765362287E+03  0.46999998093E+01 0.  1.
</event>
<event>
 5   0  0.3568870E-04  0.1801255E+04  0.7818609E-02  0.8705633E-01
        2   -1    0    0  501    0  0.00000000000E+00  0.00000000000E+00  0.75466652681E+03  0.75466652682E+03  0.25500000920E-02 0.  1.
       -2   -1    0    0    0  501  0.00000000000E+00  0.00000000000E+00 -0.10748183982E+04  0.10748183982E+04  0.25500000920E-02 0. -1.
    10030    2    1    2    0    0  0.00000000000E+00  0.00000000000E+00 -0.32015187135E+03  0.18294849250E+04  0.18012545267E+04 0.  0.
        1    1    3    3  502    0 -0.83577447451E+03 -0.67420769805E+02 -0.49396035126E+03  0.97317077694E+03  0.50400001928E-02 0. -1.
       -1    1    3    3    0  502  0.83577447451E+03  0.67420769805E+02  0.17380847991E+03  0.85631414805E+03  0.50400001928E-02 0.  1.
</event>
<event>
 5   0  0.3582186E-04  0.1802587E+04  0.7818609E-02  0.8704925E-01
       -2   -1    0    0    0  501  0.00000000000E+00  0.00000000000E+00  0.79468814626E+03  0.79468814627E+03  0.25500000920E-02 0.  1.
        2   -1    0    0  501    0  0.00000000000E+00  0.00000000000E+00 -0.10221998982E+04  0.10221998982E+04  0.25500000920E-02 0. -1.
    10030    2    1    2    0    0  0.00000000000E+00  0.00000000000E+00 -0.22751175195E+03  0.18168880445E+04  0.18025871876E+04 0.  0.
        4    1    3    3  502    0 -0.66060341930E+03 -0.11279130076E+03  0.49369428415E+03  0.83237876848E+03  0.12699999809E+01 0.  1.
       -4    1    3    3    0  502  0.66060341930E+03  0.11279130076E+03 -0.72120603610E+03  0.98450927600E+03  0.12699999809E+01 0. -1.
</event>
<event>
 5   0  0.1835421E-04  0.1804986E+04  0.7818609E-02  0.8703652E-01
        1   -1    0    0  501    0  0.00000000000E+00  0.00000000000E+00  0.15499932584E+04  0.15499932585E+04  0.50400001928E-02 0.  1.
       -1   -1    0    0    0  501  0.00000000000E+00  0.00000000000E+00 -0.52548219368E+03  0.52548219370E+03  0.50400001928E-02 0. -1.
    10030    2    1    2    0    0  0.00000000000E+00  0.00000000000E+00  0.10245110648E+04  0.20754754522E+04  0.18049862688E+04 0.  0.
        2    1    3    3  502    0 -0.72325487172E+03  0.18252568426E+03 -0.71890454889E+02  0.74938739807E+03  0.25500000920E-02 0. -1.
       -2    1    3    3    0  502  0.72325487172E+03 -0.18252568426E+03  0.10964015197E+04  0.13260880541E+04  0.25500000920E-02 0.  1.
</event>
<event>
 5   0  0.1835421E-04  0.1808515E+04  0.7818609E-02  0.8701785E-01
       -1   -1    0    0    0  501  0.00000000000E+00  0.00000000000E+00  0.86793062033E+03  0.86793062034E+03  0.50400001928E-02 0.  1.
        1   -1    0    0  501    0  0.00000000000E+00  0.00000000000E+00 -0.94210431528E+03  0.94210431529E+03  0.50400001928E-02 0. -1.
    10030    2    1    2    0    0  0.00000000000E+00  0.00000000000E+00 -0.74173694951E+02  0.18100349356E+04  0.18085145095E+04 0.  0.
        2    1    3    3  502    0 -0.46688780640E+03  0.66486460252E+03  0.36030113456E+03  0.88873284569E+03  0.25500000920E-02 0.  1.
       -2    1    3    3    0  502  0.46688780640E+03 -0.66486460252E+03 -0.43447482951E+03  0.92130208994E+03  0.25500000920E-02 0. -1.
</event>
<event>
 5   0  0.3575091E-04  0.1793411E+04  0.7818609E-02  0.8709811E-01
       -2   -1    0    0    0  501  0.00000000000E+00  0.00000000000E+00  0.49574704020E+03  0.49574704021E+03  0.25500000920E-02 0. -1.
        2   -1    0    0  501    0  0.00000000000E+00  0.00000000000E+00 -0.16219570295E+04  0.16219570295E+04  0.25500000920E-02 0.  1.
    10030    2    1    2    0    0  0.00000000000E+00  0.00000000000E+00 -0.11262099893E+04  0.21177040697E+04  0.17934106019E+04 0.  0.
        5    1    3    3  502    0  0.49212456340E+03 -0.61436425094E+03 -0.10702116447E+04  0.13285349349E+04  0.46999998093E+01 0.  1.
       -5    1    3    3    0  502 -0.49212456340E+03  0.61436425094E+03 -0.55998344562E+02  0.78916913480E+03  0.46999998093E+01 0. -1.
</event>
<event>
 5   0  0.3531266E-04  0.1843661E+04  0.7818609E-02  0.8683419E-01
       -2   -1    0    0    0  501  0.00000000000E+00  0.00000000000E+00  0.69424960708E+03  0.69424960709E+03  0.25500000920E-02 0.  1.
        2   -1    0    0  501    0  0.00000000000E+00  0.00000000000E+00 -0.12240148288E+04  0.12240148288E+04  0.25500000920E-02 0. -1.
    10030    2    1    2    0    0  0.00000000000E+00  0.00000000000E+00 -0.52976522167E+03  0.19182644358E+04  0.18436613723E+04 0.  0.
        3    1    3    3  502    0  0.25995498879E+03 -0.67494498681E+03  0.32977225258E+03  0.79490696323E+03  0.10100000352E+00 0.  1.
       -3    1    3    3    0  502 -0.25995498879E+03  0.67494498681E+03 -0.85953747426E+03  0.11233574726E+04  0.10100000352E+00 0. -1.
</event>
<event>
 5   0  0.1835421E-04  0.1810605E+04  0.7818609E-02  0.8700680E-01
       -1   -1    0    0    0  501  0.00000000000E+00  0.00000000000E+00  0.17513446519E+04  0.17513446520E+04  0.50400001928E-02 0.  1.
        1   -1    0    0  501    0  0.00000000000E+00  0.00000000000E+00 -0.46796776102E+03  0.46796776105E+03  0.50400001928E-02 0. -1.
    10030    2    1    2    0    0  0.00000000000E+00  0.00000000000E+00  0.12833768909E+04  0.22193124130E+04  0.18106052420E+04 0.  0.
        2    1    3    3  502    0 -0.65212312637E+03 -0.20200282296E+03 -0.87082913604E+02  0.68822463359E+03  0.25500000920E-02 0. -1.
       -2    1    3    3    0  502  0.65212312637E+03  0.20200282296E+03  0.13704598045E+04  0.15310877794E+04  0.25500000920E-02 0.  1.
</event>
<event>
 5   0  0.3582186E-04  0.1815037E+04  0.7818609E-02  0.8698344E-01
       -2   -1    0    0    0  501  0.00000000000E+00  0.00000000000E+00  0.63702938737E+03  0.63702938738E+03  0.25500000920E-02 0.  1.
        2   -1    0    0  501    0  0.00000000000E+00  0.00000000000E+00 -0.12928602090E+04  0.12928602090E+04  0.25500000920E-02 0. -1.
    10030    2    1    2    0    0  0.00000000000E+00  0.00000000000E+00 -0.65583082161E+03  0.19298895964E+04  0.18150371312E+04 0.  0.
        4    1    3    3  502    0 -0.12134392908E+03 -0.89924237351E+03 -0.31189061938E+03  0.95949912287E+03  0.12699999809E+01 0.  1.
       -4    1    3    3    0  502  0.12134392908E+03  0.89924237351E+03 -0.34394020223E+03  0.97039047349E+03  0.12699999809E+01 0. -1.
</event>
<event>
 5   0  0.1835421E-04  0.1821739E+04  0.7818609E-02  0.8694824E-01
       -1   -1    0    0    0  501  0.00000000000E+00  0.00000000000E+00  0.61660343328E+03  0.61660343330E+03  0.50400001928E-02 0.  1.
        1   -1    0    0  501    0  0.00000000000E+00  0.00000000000E+00 -0.13455701373E+04  0.13455701373E+04  0.50400001928E-02 0. -1.
    10030    2    1    2    0    0  0.00000000000E+00  0.00000000000E+00 -0.72896670403E+03  0.19621735706E+04  0.18217389126E+04 0.  0.
        2    1    3    3  502    0  0.10164675148E+03  0.89913990051E+03 -0.47692715358E+03  0.10228607592E+04  0.25500000920E-02 0.  1.
       -2    1    3    3    0  502 -0.10164675148E+03 -0.89913990051E+03 -0.25203955044E+03  0.93931281146E+03  0.25500000920E-02 0. -1.
</event>
<event>
 5   0  0.1818778E-04  0.1785373E+04  0.7818609E-02  0.8714117E-01
        1   -1    0    0  501    0  0.00000000000E+00  0.00000000000E+00  0.15191290296E+04  0.15191290296E+04  0.50400001928E-02 0.  1.
       -1   -1    0    0    0  501  0.00000000000E+00  0.00000000000E+00 -0.52456990422E+03  0.52456990425E+03  0.50400001928E-02 0. -1.
    10030    2    1    2    0    0  0.00000000000E+00  0.00000000000E+00  0.99455912533E+03  0.20436989338E+04  0.17853732042E+04 0.  0.
        3    1    3    3  502    0  0.23693097989E+03  0.70994947577E+03  0.10542213396E+04  0.12928832857E+04  0.10100000352E+00 0.  1.
       -3    1    3    3    0  502 -0.23693097989E+03 -0.70994947577E+03 -0.59662214307E+02  0.75081564807E+03  0.10100000352E+00 0. -1.
</event>
<event>
 5   0  0.3568870E-04  0.1830289E+04  0.7818609E-02  0.8690356E-01
       -2   -1    0    0    0  501  0.00000000000E+00  0.00000000000E+00  0.45687314158E+03  0.45687314158E+03  0.25500000920E-02 0. -1.
        2   -1    0    0  501    0  0.00000000000E+00  0.00000000000E+00 -0.18330904848E+04  0.18330904848E+04  0.25500000920E-02 0.  1.
    10030    2    1    2    0    0  0.00000000000E+00  0.00000000000E+00 -0.13762173432E+04  0.22899636264E+04  0.18302893854E+04 0.  0.
        1    1    3    3  502    0  0.12640386176E+02  0.89334928122E+03 -0.93600373596E+03  0.12939612480E+04  0.50400001928E-02 0.  1.
       -1    1    3    3    0  502 -0.12640386176E+02 -0.89334928122E+03 -0.44021360724E+03  0.99600237834E+03  0.50400001928E-02 0. -1.
</event>
<event>
 5   0  0.1835421E-04  0.1777730E+04  0.7818609E-02  0.8718233E-01
       -1   -1    0    0    0  501  0.00000000000E+00  0.00000000000E+00  0.14268370128E+04  0.14268370128E+04  0.50400001928E-02 0. -1.
        1   -1    0    0  501    0  0.00000000000E+00  0.00000000000E+00 -0.55372884932E+03  0.55372884934E+03  0.50400001928E-02 0.  1.
    10030    2    1    2    0    0  0.00000000000E+00  0.00000000000E+00  0.87310816351E+03  0.19805658622E+04  0.17777298077E+04 0.  0.
        2    1    3    3  502    0  0.22037611521E+03  0.75331324740E+03  0.90132720465E+03  0.11951724607E+04  0.25500000920E-02 0. -1.
       -2    1    3    3    0  502 -0.22037611521E+03 -0.75331324740E+03 -0.28219041140E+02  0.78539340152E+03  0.25500000920E-02 0.  1.
</event>
<event>
 5   0  0.3568870E-04  0.1729579E+04  0.7818609E-02  0.8744672E-01
       -2   -1    0    0    0  501  0.00000000000E+00  0.00000000000E+00  0.11802715187E+04  0.11802715187E+04  0.25500000920E-02 0.  1.
        2   -1    0    0  501    0  0.00000000000E+00  0.00000000000E+00 -0.63363445596E+03  0.63363445597E+03  0.25500000920E-02 0. -1.
    10030    2    1    2    0    0  0.00000000000E+00  0.00000000000E+00  0.54663706273E+03  0.18139059747E+04  0.17295787945E+04 0.  0.
        1    1    3    3  502    0 -0.25581102656E+03 -0.41695499018E+03 -0.47459220861E+03  0.68156328367E+03  0.50400001928E-02 0. -1.
       -1    1    3    3    0  502  0.25581102656E+03  0.41695499018E+03  0.10212292713E+04  0.11323426910E+04  0.50400001928E-02 0.  1.
</event>
<event>
 5   0  0.3531266E-04  0.1776862E+04  0.7818609E-02  0.8718702E-01
        2   -1    0    0  501    0  0.00000000000E+00  0.00000000000E+00  0.21694636473E+04  0.21694636473E+04  0.25500000920E-02 0.  1.
       -2   -1    0    0    0  501  0.00000000000E+00  0.00000000000E+00 -0.36382707205E+03  0.36382707206E+03  0.25500000920E-02 0. -1.
    10030    2    1    2    0    0  0.00000000000E+00  0.00000000000E+00  0.18056365753E+04  0.25332907194E+04  0.17768619606E+04 0.  0.
        3    1    3    3  502    0 -0.85343828963E+02  0.66673012900E+03  0.17310775025E+04  0.18569981055E+04  0.10100000352E+00 0.  1.
       -3    1    3    3    0  502  0.85343828963E+02 -0.66673012900E+03  0.74559072799E+02  0.67629261389E+03  0.10100000352E+00 0. -1.
</event>
<event>
 5   0  0.1837313E-04  0.1801524E+04  0.7818609E-02  0.8705489E-01
        1   -1    0    0  501    0  0.00000000000E+00  0.00000000000E+00  0.94869876486E+03  0.94869876488E+03  0.50400001928E-02 0. -1.
       -1   -1    0    0    0  501  0.00000000000E+00  0.00000000000E+00 -0.85524785529E+03  0.85524785531E+03  0.50400001928E-02 0.  1.
    10030    2    1    2    0    0  0.00000000000E+00  0.00000000000E+00  0.93450909570E+02  0.18039466202E+04  0.18015244478E+04 0.  0.
        1    1    3    3  502    0 -0.41364125498E+03 -0.79998174853E+03  0.29303839506E+02  0.90107080789E+03  0.50400001928E-02 0.  1.
       -1    1    3    3    0  502  0.41364125498E+03  0.79998174853E+03  0.64147070063E+02  0.90287581229E+03  0.50400001928E-02 0. -1.
</event>
<event>
 5   0  0.1837313E-04  0.1794129E+04  0.7818609E-02  0.8709428E-01
       -1   -1    0    0    0  501  0.00000000000E+00  0.00000000000E+00  0.41833141778E+03  0.41833141781E+03  0.50400001928E-02 0.  1.
        1   -1    0    0  501    0  0.00000000000E+00  0.00000000000E+00 -0.19236533538E+04  0.19236533538E+04  0.50400001928E-02 0. -1.
    10030    2    1    2    0    0  0.00000000000E+00  0.00000000000E+00 -0.15053219360E+04  0.23419847716E+04  0.17941289083E+04 0.  0.
        1    1    3    3  502    0  0.31212069653E+03  0.84101401624E+03 -0.75154557119E+03  0.11702754592E+04  0.50400001928E-02 0.  1.
       -1    1    3    3    0  502 -0.31212069653E+03 -0.84101401624E+03 -0.75377636483E+03  0.11717093125E+04  0.50400001928E-02 0. -1.
</event>
<event>
 5   0  0.3568870E-04  0.1791577E+04  0.7818609E-02  0.8710791E-01
        2   -1    0    0  501    0  0.00000000000E+00  0.00000000000E+00  0.10018729504E+04  0.10018729504E+04  0.25500000920E-02 0.  1.
       -2   -1    0    0    0  501  0.00000000000E+00  0.00000000000E+00 -0.80093723490E+03  0.80093723491E+03  0.25500000920E-02 0. -1.
    10030    2    1    2    0    0  0.00000000000E+00  0.00000000000E+00  0.20093571551E+03  0.18028101853E+04  0.17915773504E+04 0.  0.
        1    1    3    3  502    0  0.45443520658E+03 -0.15299252620E+03 -0.66092622639E+03  0.81654243417E+03  0.50400001928E-02 0. -1.
       -1    1    3    3    0  502 -0.45443520658E+03  0.15299252620E+03  0.86186194190E+03  0.98626775115E+03  0.50400001928E-02 0.  1.
</event>
<event>
 5   0  0.1835421E-04  0.1815383E+04  0.7818609E-02  0.8698162E-01
       -1   -1    0    0    0  501  0.00000000000E+00  0.00000000000E+00  0.36760916629E+03  0.36760916633E+03  0.50400001928E-02 0.  1.
        1   -1    0    0  501    0  0.00000000000E+00  0.00000000000E+00 -0.22412482945E+04  0.22412482945E+04  0.50400001928E-02 0. -1.
    10030    2    1    2    0    0  0.00000000000E+00  0.00000000000E+00 -0.18736391282E+04  0.26088574608E+04  0.18153825129E+04 0.  0.
        2    1    3    3  502    0 -0.11025493018E+03  0.69869004132E+03 -0.11934791611E+03  0.71733384736E+03  0.25500000920E-02 0.  1.
       -2    1    3    3    0  502  0.11025493018E+03 -0.69869004132E+03 -0.17542912121E+04  0.18915236135E+04  0.25500000920E-02 0. -1.
</event>
<event>
 5   0  0.1837313E-04  0.1787619E+04  0.7818609E-02  0.8712912E-01
       -1   -1    0    0    0  501  0.00000000000E+00  0.00000000000E+00  0.68863903190E+03  0.68863903192E+03  0.50400001928E-02 0. -1.
        1   -1    0    0  501    0  0.00000000000E+00  0.00000000000E+00 -0.11601073307E+04  0.11601073307E+04  0.50400001928E-02 0.  1.
    10030    2    1    2    0    0  0.00000000000E+00  0.00000000000E+00 -0.47146829875E+03  0.18487463626E+04  0.17876187391E+04 0.  0.
        1    1    3    3  502    0  0.19489513403E+03 -0.58384304249E+03 -0.90599973298E+03  0.10953046735E+04  0.50400001928E-02 0.  1.
       -1    1    3    3    0  502 -0.19489513403E+03  0.58384304249E+03  0.43453143423E+03  0.75344168912E+03  0.50400001928E-02 0. -1.
</event>
<event>
 5   0  0.3531266E-04  0.1810142E+04  0.7818609E-02  0.8700924E-01
        2   -1    0    0  501    0  0.00000000000E+00  0.00000000000E+00  0.10904207913E+04  0.10904207913E+04  0.25500000920E-02 0. -1.
       -2   -1    0    0    0  501  0.00000000000E+00  0.00000000000E+00 -0.75122717639E+03  0.75122717639E+03  0.25500000920E-02 0.  1.
    10030    2    1    2    0    0  0.00000000000E+00  0.00000000000E+00  0.33919361491E+03  0.18416479677E+04  0.18101422399E+04 0.  0.
        3    1    3    3  502    0 -0.56844857034E+03 -0.16335504420E+02 -0.54675544843E+03  0.78888665626E+03  0.10100000352E+00 0.  1.
       -3    1    3    3    0  502  0.56844857034E+03  0.16335504420E+02  0.88594906334E+03  0.10527613114E+04  0.10100000352E+00 0. -1.
</event>
<event>
 5   0  0.1825253E-04  0.1783853E+04  0.7818609E-02  0.8714934E-01
        1   -1    0    0  501    0  0.00000000000E+00  0.00000000000E+00  0.10666316280E+04  0.10666316280E+04  0.50400001928E-02 0. -1.
       -1   -1    0    0    0  501  0.00000000000E+00  0.00000000000E+00 -0.74583646376E+03  0.74583646377E+03  0.50400001928E-02 0.  1.
    10030    2    1    2    0    0  0.00000000000E+00  0.00000000000E+00  0.32079516424E+03  0.18124680918E+04  0.17838528657E+04 0.  0.
        4    1    3    3  502    0 -0.10124772682E+03 -0.52762712241E+03  0.88378018179E+03  0.10342681012E+04  0.12699999809E+01 0. -1.
       -4    1    3    3    0  502  0.10124772682E+03  0.52762712241E+03 -0.56298501755E+03  0.77819999060E+03  0.12699999809E+01 0.  1.
</event>
<event>
 5   0  0.1825253E-04  0.1777040E+04  0.7818609E-02  0.8718605E-01
        1   -1    0    0  501    0  0.00000000000E+00  0.00000000000E+00  0.76543797137E+03  0.76543797139E+03  0.50400001928E-02 0.  1.
       -1   -1    0    0    0  501  0.00000000000E+00  0.00000000000E+00 -0.10313940857E+04  0.10313940857E+04  0.50400001928E-02 0. -1.
    10030    2    1    2    0    0  0.00000000000E+00  0.00000000000E+00 -0.26595611436E+03  0.17968320571E+04  0.17770404573E+04 0.  0.
        4    1    3    3  502    0  0.30492266179E+03  0.67733495091E+03  0.36000313644E+03  0.82544796113E+03  0.12699999809E+01 0.  1.
       -4    1    3    3    0  502 -0.30492266179E+03 -0.67733495091E+03 -0.62595925080E+03  0.97138409599E+03  0.12699999809E+01 0. -1.
</event>
<event>
 5   0  0.1825253E-04  0.1789558E+04  0.7818609E-02  0.8711872E-01
       -1   -1    0    0    0  501  0.00000000000E+00  0.00000000000E+00  0.73199297017E+03  0.73199297019E+03  0.50400001928E-02 0. -1.
        1   -1    0    0  501    0  0.00000000000E+00  0.00000000000E+00 -0.10937667164E+04  0.10937667164E+04  0.50400001928E-02 0.  1.
    10030    2    1    2    0    0  0.00000000000E+00  0.00000000000E+00 -0.36177374619E+03  0.18257596866E+04  0.17895580990E+04 0.  0.
        4    1    3    3  502    0 -0.15981956661E+03 -0.19407572708E+03  0.69521647784E+03  0.73928022135E+03  0.12699999809E+01 0. -1.
       -4    1    3    3    0  502  0.15981956661E+03  0.19407572708E+03 -0.10569902240E+04  0.10864794652E+04  0.12699999809E+01 0.  1.
</event>
<event>
 5   0  0.3628581E-04  0.1794575E+04  0.7818609E-02  0.8709190E-01
        2   -1    0    0  501    0  0.00000000000E+00  0.00000000000E+00  0.79477828848E+03  0.79477828849E+03  0.25500000920E-02 0.  1.
       -2   -1    0    0    0  501  0.00000000000E+00  0.00000000000E+00 -0.10130176288E+04  0.10130176288E+04  0.25500000920E-02 0. -1.
    10030    2    1    2    0    0  0.00000000000E+00  0.00000000000E+00 -0.21823934034E+03  0.18077959173E+04  0.17945745092E+04 0.  0.
        2    1    3    3  502    0  0.13579567410E+03  0.46740829329E+03  0.65023323258E+03  0.81222794492E+03  0.25500000920E-02 0.  1.
       -2    1    3    3    0  502 -0.13579567410E+03 -0.46740829329E+03 -0.86847257292E+03  0.99556797240E+03  0.25500000920E-02 0. -1.
</event>
<event>
 5   0  0.3582186E-04  0.1809508E+04  0.7818609E-02  0.8701260E-01
       -2   -1    0    0    0  501  0.00000000000E+00  0.00000000000E+00  0.17001519009E+04  0.17001519009E+04  0.25500000920E-02 0.  1.
        2   -1    0    0  501    0  0.00000000000E+00  0.00000000000E+00 -0.48147439658E+03  0.48147439659E+03  0.25500000920E-02 0. -1.
    10030    2    1    2    0    0  0.00000000000E+00  0.00000000000E+00  0.12186775043E+04  0.21816262975E+04  0.18095077901E+04 0.  0.
        4    1    3    3  502    0 -0.39903476922E+03  0.27032505420E+03  0.15324840839E+04  0.16064910402E+04  0.12699999809E+01 0.  1.
       -4    1    3    3    0  502  0.39903476922E+03 -0.27032505420E+03 -0.31380657952E+03  0.57513525733E+03  0.12699999809E+01 0. -1.
</event>
<event>
 5   0  0.3531266E-04  0.1786904E+04  0.7818609E-02  0.8713295E-01
       -2   -1    0    0    0  501  0.00000000000E+00  0.00000000000E+00  0.78069007264E+03  0.78069007264E+03  0.25500000920E-02 0. -1.
        2   -1    0    0  501    0  0.00000000000E+00  0.00000000000E+00 -0.10225006670E+04  0.10225006670E+04  0.25500000920E-02 0.  1.
    10030    2    1    2    0    0  0.00000000000E+00  0.00000000000E+00 -0.24181059437E+03  0.18031907396E+04  0.17869036012E+04 0.  0.
        3    1    3    3  502    0 -0.31431901527E+03 -0.59745657627E+03 -0.71147912436E+03  0.98079220964E+03  0.10100000352E+00 0.  1.
       -3    1    3    3    0  502  0.31431901527E+03  0.59745657627E+03  0.46966853000E+03  0.82239853001E+03  0.10100000352E+00 0. -1.
</event>
<event>
 5   0  0.1818778E-04  0.1810678E+04  0.7818609E-02  0.8700642E-01
        1   -1    0    0  501    0  0.00000000000E+00  0.00000000000E+00  0.88587535735E+03  0.88587535737E+03  0.50400001928E-02 0.  1.
       -1   -1    0    0    0  501  0.00000000000E+00  0.00000000000E+00 -0.92523034428E+03  0.92523034430E+03  0.50400001928E-02 0. -1.
    10030    2    1    2    0    0  0.00000000000E+00  0.00000000000E+00 -0.39354986932E+02  0.18111057017E+04  0.18106780629E+04 0.  0.
        3    1    3    3  502    0  0.43105982883E+03 -0.62407591093E+03  0.47476246090E+03  0.89480876343E+03  0.10100000352E+00 0.  1.
       -3    1    3    3    0  502 -0.43105982883E+03  0.62407591093E+03 -0.51411744783E+03  0.91629693823E+03  0.10100000352E+00 0. -1.
</event>
<event>
 5   0  0.3531266E-04  0.1799248E+04  0.7818609E-02  0.8706700E-01
       -2   -1    0    0    0  501  0.00000000000E+00  0.00000000000E+00  0.63065147219E+03  0.63065147219E+03  0.25500000920E-02 0.  1.
        2   -1    0    0  501    0  0.00000000000E+00  0.00000000000E+00 -0.12833129665E+04  0.12833129665E+04  0.25500000920E-02 0. -1.
    10030    2    1    2    0    0  0.00000000000E+00  0.00000000000E+00 -0.65266149428E+03  0.19139644387E+04  0.17992478557E+04 0.  0.
        3    1    3    3  502    0  0.38940406865E+03 -0.25476075994E+03  0.49268327460E+03  0.67769860023E+03  0.10100000352E+00 0.  1.
       -3    1    3    3    0  502 -0.38940406865E+03  0.25476075994E+03 -0.11453447689E+04  0.12362658384E+04  0.10100000352E+00 0. -1.
</event>
<event>
 5   0  0.3628581E-04  0.1909327E+04  0.7818609E-02  0.8650228E-01
       -2   -1    0    0    0  501  0.00000000000E+00  0.00000000000E+00  0.95622633268E+03  0.95622633268E+03  0.25500000920E-02 0. -1.
        2   -1    0    0  501    0  0.00000000000E+00  0.00000000000E+00 -0.95310318039E+03  0.95310318039E+03  0.25500000920E-02 0.  1.
    10030    2    1    2    0    0  0.00000000000E+00  0.00000000000E+00  0.31231522924E+01  0.19093295131E+04  0.19093269587E+04 0.  0.
        2    1    3    3  502    0  0.23773932876E+03  0.50116111579E+03 -0.77542074135E+03  0.95339382133E+03  0.25500000920E-02 0.  1.
       -2    1    3    3    0  502 -0.23773932876E+03 -0.50116111579E+03  0.77854389364E+03  0.95593569175E+03  0.25500000920E-02 0. -1.
</event>
<event>
 5   0  0.1818778E-04  0.1816723E+04  0.7818609E-02  0.8697457E-01
        1   -1    0    0  501    0  0.00000000000E+00  0.00000000000E+00  0.11012767689E+04  0.11012767689E+04  0.50400001928E-02 0.  1.
       -1   -1    0    0    0  501  0.00000000000E+00  0.00000000000E+00 -0.74924008731E+03  0.74924008732E+03  0.50400001928E-02 0. -1.
    10030    2    1    2    0    0  0.00000000000E+00  0.00000000000E+00  0.35203668161E+03  0.18505168563E+04  0.18167230967E+04 0.  0.
        3    1    3    3  502    0 -0.19088478594E+02  0.14850310806E+03 -0.73658444728E+03  0.75164765768E+03  0.10100000352E+00 0. -1.
       -3    1    3    3    0  502  0.19088478594E+02 -0.14850310806E+03  0.10886211289E+04  0.10988691986E+04  0.10100000352E+00 0.  1.
</event>
<event>
 5   0  0.3575091E-04  0.1642727E+04  0.7818609E-02  0.8794721E-01
        2   -1    0    0  501    0  0.00000000000E+00  0.00000000000E+00  0.36777053905E+03  0.36777053906E+03  0.25500000920E-02 0.  1.
       -2   -1    0    0    0  501  0.00000000000E+00  0.00000000000E+00 -0.18343994357E+04  0.18343994357E+04  0.25500000920E-02 0. -1.
    10030    2    1    2    0    0  0.00000000000E+00  0.00000000000E+00 -0.14666288967E+04  0.22021699748E+04  0.16427270855E+04 0.  0.
        5    1    3    3  502    0  0.23006894411E+03  0.30866379434E+03  0.23931600872E+03  0.45332030509E+03  0.46999998093E+01 0.  1.
       -5    1    3    3    0  502 -0.23006894411E+03 -0.30866379434E+03 -0.17059449054E+04  0.17488496697E+04  0.46999998093E+01 0. -1.
</event>
<event>
 5   0  0.1883959E-04  0.1800441E+04  0.7818609E-02  0.8706065E-01
        1   -1    0    0  501    0  0.00000000000E+00  0.00000000000E+00  0.13500086973E+04  0.13500086973E+04  0.50400001928E-02 0.  1.
       -1   -1    0    0    0  501  0.00000000000E+00  0.00000000000E+00 -0.60028997704E+03  0.60028997707E+03  0.50400001928E-02 0. -1.
    10030    2    1    2    0    0  0.00000000000E+00  0.00000000000E+00  0.74971872023E+03  0.19502986744E+04  0.18004407126E+04 0.  0.
        5    1    3    3  502    0 -0.59745458089E+03 -0.53511284216E+03 -0.67912962689E+02  0.80494222809E+03  0.46999998093E+01 0. -1.
       -5    1    3    3    0  502  0.59745458089E+03  0.53511284216E+03  0.81763168292E+03  0.11453564463E+04  0.46999998093E+01 0.  1.
</event>
<event>
 5   0  0.3575091E-04  0.1807174E+04  0.7818609E-02  0.8702494E-01
       -2   -1    0    0    0  501  0.00000000000E+00  0.00000000000E+00  0.10681419719E+04  0.10681419719E+04  0.25500000920E-02 0.  1.
        2   -1    0    0  501    0  0.00000000000E+00  0.00000000000E+00 -0.76438273905E+03  0.76438273905E+03  0.25500000920E-02 0. -1.
    10030    2    1    2    0    0  0.00000000000E+00  0.00000000000E+00  0.30375923287E+03  0.18325247110E+04  0.18071738004E+04 0.  0.
        5    1    3    3  502    0 -0.18048164163E+03 -0.52563812093E+03  0.87431893197E+03  0.10360138715E+04  0.46999998093E+01 0.  1.
       -5    1    3    3    0  502  0.18048164163E+03  0.52563812093E+03 -0.57055969911E+03  0.79651083946E+03  0.46999998093E+01 0. -1.
</event>
<event>
 5   0  0.3568870E-04  0.1789121E+04  0.7818609E-02  0.8712106E-01
       -2   -1    0    0    0  501  0.00000000000E+00  0.00000000000E+00  0.76765127748E+03  0.76765127749E+03  0.25500000920E-02 0.  1.
        2   -1    0    0  501    0  0.00000000000E+00  0.00000000000E+00 -0.10424509362E+04  0.10424509362E+04  0.25500000920E-02 0. -1.
    10030    2    1    2    0    0  0.00000000000E+00  0.00000000000E+00 -0.27479965874E+03  0.18101022137E+04  0.17891213407E+04 0.  0.
        1    1    3    3  502    0  0.38383132858E+02 -0.76725223818E+03 -0.60113016757E+03  0.97545206970E+03  0.50400001928E-02 0. -1.
       -1    1    3    3    0  502 -0.38383132858E+02  0.76725223818E+03  0.32633050883E+03  0.83465014402E+03  0.50400001928E-02 0.  1.
</event>
<event>
 5   0  0.3582186E-04  0.1800041E+04  0.7818609E-02  0.8706278E-01
       -2   -1    0    0    0  501  0.00000000000E+00  0.00000000000E+00  0.39465733451E+03  0.39465733452E+03  0.25500000920E-02 0. -1.
        2   -1    0    0  501    0  0.00000000000E+00  0.00000000000E+00 -0.20525062334E+04  0.20525062334E+04  0.25500000920E-02 0.  1.
    10030    2    1    2    0    0  0.00000000000E+00  0.00000000000E+00 -0.16578488989E+04  0.24471635679E+04  0.18000407097E+04 0.  0.
        4    1    3    3  502    0 -0.15095139203E+03 -0.24490950871E+03 -0.19883101015E+04  0.20090160932E+04  0.12699999809E+01 0.  1.
       -4    1    3    3    0  502  0.15095139203E+03  0.24490950871E+03  0.33046120263E+03  0.43814747467E+03  0.12699999809E+01 0. -1.
</event>
<event>
 5   0  0.1818778E-04  0.1837363E+04  0.7818609E-02  0.8686679E-01
        1   -1    0    0  501    0  0.00000000000E+00  0.00000000000E+00  0.11211382170E+04  0.11211382170E+04  0.50400001928E-02 0. -1.
       -1   -1    0    0    0  501  0.00000000000E+00  0.00000000000E+00 -0.75278432853E+03  0.75278432855E+03  0.50400001928E-02 0.  1.
    10030    2    1    2    0    0  0.00000000000E+00  0.00000000000E+00  0.36835388846E+03  0.18739225456E+04  0.18373625444E+04 0.  0.
        3    1    3    3  502    0 -0.88296642920E+03 -0.91801969134E+00 -0.74533050826E+02  0.88610707238E+03  0.10100000352E+00 0. -1.
       -3    1    3    3    0  502  0.88296642920E+03  0.91801969134E+00  0.44288693929E+03  0.98781547318E+03  0.10100000352E+00 0.  1.
</event>
<event>
 5   0  0.1825253E-04  0.1699022E+04  0.7818609E-02  0.8761922E-01
       -1   -1    0    0    0  501  0.00000000000E+00  0.00000000000E+00  0.58257368236E+03  0.58257368238E+03  0.50400001928E-02 0.  1.
        1   -1    0    0  501    0  0.00000000000E+00  0.00000000000E+00 -0.12387605085E+04  0.12387605085E+04  0.50400001928E-02 0. -1.
    10030    2    1    2    0    0  0.00000000000E+00  0.00000000000E+00 -0.65618682610E+03  0.18213341908E+04  0.16990223907E+04 0.  0.
        4    1    3    3  502    0  0.16905096114E+03 -0.79983214052E+03 -0.80470847770E+02  0.82145410749E+03  0.12699999809E+01 0.  1.
       -4    1    3    3    0  502 -0.16905096114E+03  0.79983214052E+03 -0.57571597833E+03  0.99988008335E+03  0.12699999809E+01 0. -1.
</event>
<event>
 5   0  0.3568870E-04  0.1782373E+04  0.7818609E-02  0.8715730E-01
       -2   -1    0    0    0  501  0.00000000000E+00  0.00000000000E+00  0.79523180124E+03  0.79523180124E+03  0.25500000920E-02 0.  1.
        2   -1    0    0  501    0  0.00000000000E+00  0.00000000000E+00 -0.99871963412E+03  0.99871963412E+03  0.25500000920E-02 0. -1.
    10030    2    1    2    0    0  0.00000000000E+00  0.00000000000E+00 -0.20348783288E+03  0.17939514354E+04  0.17823732646E+04 0.  0.
        1    1    3    3  502    0 -0.64200197773E+03  0.25541873363E+03  0.46476966882E+03  0.83271610647E+03  0.50400001928E-02 0.  1.
       -1    1    3    3    0  502  0.64200197773E+03 -0.25541873363E+03 -0.66825750170E+03  0.96123532889E+03  0.50400001928E-02 0. -1.
</event>
<event>
 5   0  0.1825253E-04  0.1826739E+04  0.7818609E-02  0.8692208E-01
        1   -1    0    0  501    0  0.00000000000E+00  0.00000000000E+00  0.12600194521E+04  0.12600194521E+04  0.50400001928E-02 0. -1.
       -1   -1    0    0    0  501  0.00000000000E+00  0.00000000000E+00 -0.66208821913E+03  0.66208821915E+03  0.50400001928E-02 0.  1.
    10030    2    1    2    0    0  0.00000000000E+00  0.00000000000E+00  0.59793123300E+03  0.19221076713E+04  0.18267392098E+04 0.  0.
        4    1    3    3  502    0  0.46367884163E+03 -0.37829808280E+03 -0.42708379186E+03  0.73519363830E+03  0.12699999809E+01 0.  1.
       -4    1    3    3    0  502 -0.46367884163E+03  0.37829808280E+03  0.10250150249E+04  0.11869140330E+04  0.12699999809E+01 0. -1.
</event>
<event>
 5   0  0.3582186E-04  0.1777043E+04  0.7818609E-02  0.8718604E-01
        2   -1    0    0  501    0  0.00000000000E+00  0.00000000000E+00  0.10956549546E+04  0.10956549546E+04  0.25500000920E-02 0. -1.
       -2   -1    0    0    0  501  0.00000000000E+00  0.00000000000E+00 -0.72054619883E+03  0.72054619883E+03  0.25500000920E-02 0.  1.
    10030    2    1    2    0    0  0.00000000000E+00  0.00000000000E+00  0.37510875577E+03  0.18162011534E+04  0.17770425012E+04 0.  0.
        4    1    3    3  502    0 -0.25868613397E+03 -0.80895731295E+03 -0.79230164782E+02  0.85300028253E+03  0.12699999809E+01 0.  1.
       -4    1    3    3    0  502  0.25868613397E+03  0.80895731295E+03  0.45433892055E+03  0.96320087090E+03  0.12699999809E+01 0. -1.
</event>
<event>
 5   0  0.3531266E-04  0.1862101E+04  0.7818609E-02  0.8673955E-01
        2   -1    0    0  501    0  0.00000000000E+00  0.00000000000E+00  0.26264391242E+04  0.26264391242E+04  0.25500000920E-02 0.  1.
       -2   -1    0    0    0  501  0.00000000000E+00  0.00000000000E+00 -0.33004950660E+03  0.33004950661E+03  0.25500000920E-02 0. -1.
    10030    2    1    2    0    0  0.00000000000E+00  0.00000000000E+00  0.22963896176E+04  0.29564886308E+04  0.18621008964E+04 0.  0.
        3    1    3    3  502    0  0.43146201850E+03  0.66068984273E+03  0.19327652616E+04  0.20876427157E+04  0.10100000352E+00 0. -1.
       -3    1    3    3    0  502 -0.43146201850E+03 -0.66068984273E+03  0.36362435592E+03  0.86884591506E+03  0.10100000352E+00 0.  1.
</event>
<event>
 5   0  0.3575091E-04  0.1707488E+04  0.7818609E-02  0.8757105E-01
        2   -1    0    0  501    0  0.00000000000E+00  0.00000000000E+00  0.80668791582E+03  0.80668791582E+03  0.25500000920E-02 0. -1.
       -2   -1    0    0    0  501  0.00000000000E+00  0.00000000000E+00 -0.90354543903E+03  0.90354543903E+03  0.25500000920E-02 0.  1.
    10030    2    1    2    0    0  0.00000000000E+00  0.00000000000E+00 -0.96857523209E+02  0.17102333549E+04  0.17074884328E+04 0.  0.
        5    1    3    3  502    0  0.59159497849E+03  0.47942604230E+03 -0.43508450830E+03  0.87701457683E+03  0.46999998093E+01 0.  1.
       -5    1    3    3    0  502 -0.59159497849E+03 -0.47942604230E+03  0.33822698509E+03  0.83321877802E+03  0.46999998093E+01 0. -1.
</event>
<event>
 5   0  0.1825253E-04  0.1841243E+04  0.7818609E-02  0.8684669E-01
       -1   -1    0    0    0  501  0.00000000000E+00  0.00000000000E+00  0.52363671773E+03  0.52363671776E+03  0.50400001928E-02 0. -1.
        1   -1    0    0  501    0  0.00000000000E+00  0.00000000000E+00 -0.16185720660E+04  0.16185720660E+04  0.50400001928E-02 0.  1.
    10030    2    1    2    0    0  0.00000000000E+00  0.00000000000E+00 -0.10949353482E+04  0.21422087837E+04  0.18412428021E+04 0.  0.
        4    1    3    3  502    0  0.89489945763E+03 -0.91491257637E+01 -0.29627547407E+03  0.94271390952E+03  0.12699999809E+01 0.  1.
       -4    1    3    3    0  502 -0.89489945763E+03  0.91491257637E+01 -0.79865987417E+03  0.11994948742E+04  0.12699999809E+01 0. -1.
</event>
<event>
 5   0  0.1825253E-04  0.1779504E+04  0.7818609E-02  0.8717276E-01
       -1   -1    0    0    0  501  0.00000000000E+00  0.00000000000E+00  0.43835186219E+03  0.43835186222E+03  0.50400001928E-02 0. -1.
        1   -1    0    0  501    0  0.00000000000E+00  0.00000000000E+00 -0.18059887043E+04  0.18059887043E+04  0.50400001928E-02 0.  1.
    10030    2    1    2    0    0  0.00000000000E+00  0.00000000000E+00 -0.13676368421E+04  0.22443405665E+04  0.17795038765E+04 0.  0.
        4    1    3    3  502    0 -0.20139474744E+03 -0.70368674727E+03 -0.13218521609E+04  0.15109697650E+04  0.12699999809E+01 0.  1.
       -4    1    3    3    0  502  0.20139474744E+03  0.70368674727E+03 -0.45784681197E+02  0.73337080152E+03  0.12699999809E+01 0. -1.
</event>
<event>
 5   0  0.1837313E-04  0.1824291E+04  0.7818609E-02  0.8693487E-01
        1   -1    0    0  501    0  0.00000000000E+00  0.00000000000E+00  0.11118078587E+04  0.11118078587E+04  0.50400001928E-02 0. -1.
       -1   -1    0    0    0  501  0.00000000000E+00  0.00000000000E+00 -0.74833950445E+03  0.74833950446E+03  0.50400001928E-02 0.  1.
    10030    2    1    2    0    0  0.00000000000E+00  0.00000000000E+00  0.36346835428E+03  0.18601473632E+04  0.18242913606E+04 0.  0.
        1    1    3    3  502    0 -0.20933060531E+03  0.88343238161E+03  0.92041257184E+02  0.91254789915E+03  0.50400001928E-02 0.  1.
       -1    1    3    3    0  502  0.20933060531E+03 -0.88343238161E+03  0.27142709710E+03  0.94759946405E+03  0.50400001928E-02 0. -1.
</event>
<event>
 5   0  0.3575091E-04  0.1829777E+04  0.7818609E-02  0.8690623E-01
       -2   -1    0    0    0  501  0.00000000000E+00  0.00000000000E+00  0.91750948811E+03  0.91750948811E+03  0.25500000920E-02 0. -1.
        2   -1    0    0  501    0  0.00000000000E+00  0.00000000000E+00 -0.91227501715E+03  0.91227501715E+03  0.25500000920E-02 0.  1.
    10030    2    1    2    0    0  0.00000000000E+00  0.00000000000E+00  0.52344709630E+01  0.18297845053E+04  0.18297770181E+04 0.  0.
        5    1    3    3  502    0  0.44631530903E+03 -0.64567140774E+03  0.47262976724E+03  0.91623681913E+03  0.46999998093E+01 0. -1.
       -5    1    3    3    0  502 -0.44631530903E+03  0.64567140774E+03 -0.46739529628E+03  0.91354768613E+03  0.46999998093E+01 0.  1.
</event>
<event>
 5   0  0.3582186E-04  0.1819662E+04  0.7818609E-02  0.8695913E-01
       -2   -1    0    0    0  501  0.00000000000E+00  0.00000000000E+00  0.50630935614E+03  0.50630935614E+03  0.25500000920E-02 0.  1.
        2   -1    0    0  501    0  0.00000000000E+00  0.00000000000E+00 -0.16349538193E+04  0.16349538193E+04  0.25500000920E-02 0. -1.
    10030    2    1    2    0    0  0.00000000000E+00  0.00000000000E+00 -0.11286444632E+04  0.21412631755E+04  0.18196619638E+04 0.  0.
        4    1    3    3  502    0 -0.20822069341E+03  0.72855287101E+03 -0.11569650809E+04  0.13830093833E+04  0.12699999809E+01 0. -1.
       -4    1    3    3    0  502  0.20822069341E+03 -0.72855287101E+03  0.28320617710E+02  0.75825379215E+03  0.12699999809E+01 0.  1.
</event>
<event>
 5   0  0.3568870E-04  0.1816691E+04  0.7818609E-02  0.8697474E-01
        2   -1    0    0  501    0  0.00000000000E+00  0.00000000000E+00  0.12167398127E+04  0.12167398127E+04  0.25500000920E-02 0.  1.
       -2   -1    0    0    0  501  0.00000000000E+00  0.00000000000E+00 -0.67811647498E+03  0.67811647498E+03  0.25500000920E-02 0. -1.
    10030    2    1    2    0    0  0.00000000000E+00  0.00000000000E+00  0.53862333771E+03  0.18948562877E+04  0.18166907417E+04 0.  0.
        1    1    3    3  502    0  0.19842535341E+03  0.82906770317E+03 -0.57815438646E+02  0.85444046153E+03  0.50400001928E-02 0. -1.
       -1    1    3    3    0  502 -0.19842535341E+03 -0.82906770317E+03  0.59643877636E+03  0.10404158261E+04  0.50400001928E-02 0.  1.
</event>
<event>
 5   0  0.3568870E-04  0.1759627E+04  0.7818609E-02  0.8728069E-01
       -2   -1    0    0    0  501  0.00000000000E+00  0.00000000000E+00  0.50134173507E+03  0.50134173507E+03  0.25500000920E-02 0. -1.
        2   -1    0    0  501    0  0.00000000000E+00  0.00000000000E+00 -0.15440008967E+04  0.15440008967E+04  0.25500000920E-02 0.  1.
    10030    2    1    2    0    0  0.00000000000E+00  0.00000000000E+00 -0.10426591616E+04  0.20453426318E+04  0.17596273338E+04 0.  0.
        1    1    3    3  502    0 -0.77794592645E+03  0.40006966760E+03 -0.41218727898E+03  0.96703358597E+03  0.50400001928E-02 0.  1.
       -1    1    3    3    0  502  0.77794592645E+03 -0.40006966760E+03 -0.63047188265E+03  0.10783090458E+04  0.50400001928E-02 0. -1.
</event>
<event>
 5   0  0.1835421E-04  0.1857190E+04  0.7818609E-02  0.8676464E-01
       -1   -1    0    0    0  501  0.00000000000E+00  0.00000000000E+00  0.40267582445E+03  0.40267582448E+03  0.50400001928E-02 0.  1.
        1   -1    0    0  501    0  0.00000000000E+00  0.00000000000E+00 -0.21413977276E+04  0.21413977276E+04  0.50400001928E-02 0. -1.
    10030    2    1    2    0    0  0.00000000000E+00  0.00000000000E+00 -0.17387219031E+04  0.25440735521E+04  0.18571904539E+04 0.  0.
        2    1    3    3  502    0 -0.68281660670E+03  0.62134226963E+03 -0.10062388596E+04  0.13655846283E+04  0.25500000920E-02 0. -1.
       -2    1    3    3    0  502  0.68281660670E+03 -0.62134226963E+03 -0.73248304356E+03  0.11784889238E+04  0.25500000920E-02 0.  1.
</event>
<event>
 5   0  0.1883959E-04  0.1772836E+04  0.7818609E-02  0.8720880E-01
       -1   -1    0    0    0  501  0.00000000000E+00  0.00000000000E+00  0.45493365856E+03  0.45493365859E+03  0.50400001928E-02 0.  1.
        1   -1    0    0  501    0  0.00000000000E+00  0.00000000000E+00 -0.17271468288E+04  0.17271468288E+04  0.50400001928E-02 0. -1.
    10030    2    1    2    0    0  0.00000000000E+00  0.00000000000E+00 -0.12722131702E+04  0.21820804874E+04  0.17728364005E+04 0.  0.
        5    1    3    3  502    0  0.34595572121E+02 -0.37856577022E+03 -0.16217072221E+04  0.16656726269E+04  0.46999998093E+01 0. -1.
       -5    1    3    3    0  502 -0.34595572121E+02  0.37856577022E+03  0.34949405189E+03  0.51640786041E+03  0.46999998093E+01 0.  1.
</event>
<event>
 5   0  0.3575091E-04  0.1764497E+04  0.7818609E-02  0.8725411E-01
       -2   -1    0    0    0  501  0.00000000000E+00  0.00000000000E+00  0.10949487454E+04  0.10949487454E+04  0.25500000920E-02 0.  1.
        2   -1    0    0  501    0  0.00000000000E+00  0.00000000000E+00 -0.71086622231E+03  0.71086622232E+03  0.25500000920E-02 0. -1.
    10030    2    1    2    0    0  0.00000000000E+00  0.00000000000E+00  0.38408252312E+03  0.18058149678E+04  0.17644966175E+04 0.  0.
        5    1    3    3  502    0 -0.32299163077E+03  0.81812793110E+03  0.12200574266E+03  0.88801148441E+03  0.46999998093E+01 0.  1.
       -5    1    3    3    0  502  0.32299163077E+03 -0.81812793110E+03  0.26207678047E+03  0.91780348335E+03  0.46999998093E+01 0. -1.
</event>
<event>
 5   0  0.1825253E-04  0.1786414E+04  0.7818609E-02  0.8713558E-01
        1   -1    0    0  501    0  0.00000000000E+00  0.00000000000E+00  0.10876563516E+04  0.10876563516E+04  0.50400001928E-02 0. -1.
       -1   -1    0    0    0  501  0.00000000000E+00  0.00000000000E+00 -0.73352096598E+03  0.73352096600E+03  0.50400001928E-02 0.  1.
    10030    2    1    2    0    0  0.00000000000E+00  0.00000000000E+00  0.35413538563E+03  0.18211773176E+04  0.17864139920E+04 0.  0.
        4    1    3    3  502    0 -0.66230232040E+03 -0.38832075484E+03  0.64243715364E+03  0.10010816558E+04  0.12699999809E+01 0. -1.
       -4    1    3    3    0  502  0.66230232040E+03  0.38832075484E+03 -0.28830176801E+03  0.82009566185E+03  0.12699999809E+01 0.  1.
</event>
<event>
 5   0  0.3628581E-04  0.1777605E+04  0.7818609E-02  0.8718301E-01
        2   -1    0    0  501    0  0.00000000000E+00  0.00000000000E+00  0.78457343543E+03  0.78457343543E+03  0.25500000920E-02 0.  1.
       -2   -1    0    0    0  501  0.00000000000E+00  0.00000000000E+00 -0.10068777461E+04  0.10068777461E+04  0.25500000920E-02 0. -1.
    10030    2    1    2    0    0  0.00000000000E+00  0.00000000000E+00 -0.22230431064E+03  0.17914511815E+04  0.17776046043E+04 0.  0.
        2    1    3    3  502    0 -0.84024554140E+03 -0.28593205872E+03 -0.63884570930E+02  0.88986007352E+03  0.25500000920E-02 0. -1.
       -2    1    3    3    0  502  0.84024554140E+03  0.28593205872E+03 -0.15841973971E+03  0.90159110798E+03  0.25500000920E-02 0.  1.
</event>
<event>
 5   0  0.1837313E-04  0.1798067E+04  0.7818609E-02  0.8707328E-01
        1   -1    0    0  501    0  0.00000000000E+00  0.00000000000E+00  0.21960983267E+04  0.21960983267E+04  0.50400001928E-02 0.  1.
       -1   -1    0    0    0  501  0.00000000000E+00  0.00000000000E+00 -0.36804399338E+03  0.36804399341E+03  0.50400001928E-02 0. -1.
    10030    2    1    2    0    0  0.00000000000E+00  0.00000000000E+00  0.18280543334E+04  0.25641423202E+04  0.17980665150E+04 0.  0.
        1    1    3    3  502    0  0.53727760254E+02  0.28577974266E+03  0.21271838054E+04  0.21469670877E+04  0.50400001928E-02 0.  1.
       -1    1    3    3    0  502 -0.53727760254E+02 -0.28577974266E+03 -0.29912947204E+03  0.41717523249E+03  0.50400001928E-02 0. -1.
</event>
<event>
 5   0  0.3531266E-04  0.1812272E+04  0.7818609E-02  0.8699800E-01
       -2   -1    0    0    0  501  0.00000000000E+00  0.00000000000E+00  0.48553529876E+03  0.48553529876E+03  0.25500000920E-02 0. -1.
        2   -1    0    0  501    0  0.00000000000E+00  0.00000000000E+00 -0.16910870178E+04  0.16910870178E+04  0.25500000920E-02 0.  1.
    10030    2    1    2    0    0  0.00000000000E+00  0.00000000000E+00 -0.12055517190E+04  0.21766223165E+04  0.18122719889E+04 0.  0.
        3    1    3    3  502    0 -0.20421568551E+03 -0.23977435314E+03 -0.16232316702E+04  0.16535044154E+04  0.10100000352E+00 0.  1.
       -3    1    3    3    0  502  0.20421568551E+03  0.23977435314E+03  0.41767995117E+03  0.52311790109E+03  0.10100000352E+00 0. -1.
</event>
<event>
 5   0  0.3575091E-04  0.1845230E+04  0.7818609E-02  0.8682610E-01
        2   -1    0    0  501    0  0.00000000000E+00  0.00000000000E+00  0.54879691839E+03  0.54879691840E+03  0.25500000920E-02 0.  1.
       -2   -1    0    0    0  501  0.00000000000E+00  0.00000000000E+00 -0.15510630540E+04  0.15510630540E+04  0.25500000920E-02 0. -1.
    10030    2    1    2    0    0  0.00000000000E+00  0.00000000000E+00 -0.10022661356E+04  0.20998599724E+04  0.18452302017E+04 0.  0.
        5    1    3    3  502    0  0.31077239510E+03 -0.57505781567E+03  0.23980956259E+03  0.69627702046E+03  0.46999998093E+01 0.  1.
       -5    1    3    3    0  502 -0.31077239510E+03  0.57505781567E+03 -0.12420756982E+04  0.14035829520E+04  0.46999998093E+01 0. -1.
</event>
<event>
 5   0  0.1837313E-04  0.1767191E+04  0.7818609E-02  0.8723944E-01
       -1   -1    0    0    0  501  0.00000000000E+00  0.00000000000E+00  0.48480398513E+03  0.48480398515E+03  0.50400001928E-02 0.  1.
        1   -1    0    0  501    0  0.00000000000E+00  0.00000000000E+00 -0.16104257683E+04  0.16104257683E+04  0.50400001928E-02 0. -1.
    10030    2    1    2    0    0  0.00000000000E+00  0.00000000000E+00 -0.11256217831E+04  0.20952297534E+04  0.17671907993E+04 0.  0.
        1    1    3    3  502    0  0.41568784834E+03  0.49728513356E+03 -0.12748311438E+04  0.14301340275E+04  0.50400001928E-02 0. -1.
       -1    1    3    3    0  502 -0.41568784834E+03 -0.49728513356E+03  0.14920936068E+03  0.66509572594E+03  0.50400001928E-02 0.  1.
</event>
<event>
 5   0  0.1825253E-04  0.1794850E+04  0.7818609E-02  0.8709043E-01
        1   -1    0    0  501    0  0.00000000000E+00  0.00000000000E+00  0.23489984627E+04  0.23489984627E+04  0.50400001928E-02 0.  1.
       -1   -1    0    0    0  501  0.00000000000E+00  0.00000000000E+00 -0.34285740782E+03  0.34285740786E+03  0.50400001928E-02 0. -1.
    10030    2    1    2    0    0  0.00000000000E+00  0.00000000000E+00  0.20061410548E+04  0.26918558705E+04  0.17948498811E+04 0.  0.
        4    1    3    3  502    0  0.78989735022E+03 -0.40479201228E+03  0.80424246097E+03  0.11977486990E+04  0.12699999809E+01 0.  1.
       -4    1    3    3    0  502 -0.78989735022E+03  0.40479201228E+03  0.12018985939E+04  0.14941071715E+04  0.12699999809E+01 0. -1.
</event>
<event>
 5   0  0.1883959E-04  0.1801631E+04  0.7818609E-02  0.8705433E-01
        1   -1    0    0  501    0  0.00000000000E+00  0.00000000000E+00  0.10792637437E+04  0.10792637437E+04  0.50400001928E-02 0. -1.
       -1   -1    0    0    0  501  0.00000000000E+00  0.00000000000E+00 -0.75187195489E+03  0.75187195491E+03  0.50400001928E-02 0.  1.
    10030    2    1    2    0    0  0.00000000000E+00  0.00000000000E+00  0.32739178879E+03  0.18311356986E+04  0.18016305291E+04 0.  0.
        5    1    3    3  502    0 -0.52827244116E+03 -0.51063209374E+03  0.69341175804E+03  0.10102766272E+04  0.46999998093E+01 0. -1.
       -5    1    3    3    0  502  0.52827244116E+03  0.51063209374E+03 -0.36601996925E+03  0.82085907142E+03  0.46999998093E+01 0.  1.
</event>
<event>
 5   0  0.1883959E-04  0.1828450E+04  0.7818609E-02  0.8691314E-01
        1   -1    0    0  501    0  0.00000000000E+00  0.00000000000E+00  0.21211903474E+04  0.21211903474E+04  0.50400001928E-02 0. -1.
       -1   -1    0    0    0  501  0.00000000000E+00  0.00000000000E+00 -0.39402770436E+03  0.39402770440E+03  0.50400001928E-02 0.  1.
    10030    2    1    2    0    0  0.00000000000E+00  0.00000000000E+00  0.17271626430E+04  0.25152180518E+04  0.18284504512E+04 0.  0.
        5    1    3    3  502    0 -0.84910566728E+03  0.26366215428E+03  0.57084160084E+03  0.10565890351E+04  0.46999998093E+01 0. -1.
       -5    1    3    3    0  502  0.84910566728E+03 -0.26366215428E+03  0.11563210422E+04  0.14586290167E+04  0.46999998093E+01 0.  1.
</event>
<event>
 5   0  0.3575091E-04  0.1774486E+04  0.7818609E-02  0.8719986E-01
        2   -1    0    0  501    0  0.00000000000E+00  0.00000000000E+00  0.14544953065E+04  0.14544953065E+04  0.25500000920E-02 0.  1.
       -2   -1    0    0    0  501  0.00000000000E+00  0.00000000000E+00 -0.54121895446E+03  0.54121895446E+03  0.25500000920E-02 0. -1.
    10030    2    1    2    0    0  0.00000000000E+00  0.00000000000E+00  0.91327635203E+03  0.19957142609E+04  0.17744863246E+04 0.  0.
        5    1    3    3  502    0 -0.45193445956E+03 -0.53906564834E+03  0.10647328082E+04  0.12761326623E+04  0.46999998093E+01 0.  1.
       -5    1    3    3    0  502  0.45193445956E+03  0.53906564834E+03 -0.15145645619E+03  0.71958159862E+03  0.46999998093E+01 0. -1.
</event>
<event>
 5   0  0.3575091E-04  0.1520382E+04  0.7818609E-02  0.8871011E-01
        2   -1    0    0  501    0  0.00000000000E+00  0.00000000000E+00  0.69751383227E+03  0.69751383228E+03  0.25500000920E-02 0.  1.
       -2   -1    0    0    0  501  0.00000000000E+00  0.00000000000E+00 -0.82850021167E+03  0.82850021167E+03  0.25500000920E-02 0. -1.
    10030    2    1    2    0    0  0.00000000000E+00  0.00000000000E+00 -0.13098637940E+03  0.15260140439E+04  0.15203820016E+04 0.  0.
        5    1    3    3  502    0 -0.57496965841E+03  0.14761209393E+03 -0.54210887048E+03  0.80391763000E+03  0.46999998093E+01 0. -1.
       -5    1    3    3    0  502  0.57496965841E+03 -0.14761209393E+03  0.41112249108E+03  0.72209641395E+03  0.46999998093E+01 0.  1.
</event>
<event>
 5   0  0.3531266E-04  0.1800638E+04  0.7818609E-02  0.8705960E-01
        2   -1    0    0  501    0  0.00000000000E+00  0.00000000000E+00  0.65823339411E+03  0.65823339411E+03  0.25500000920E-02 0. -1.
       -2   -1    0    0    0  501  0.00000000000E+00  0.00000000000E+00 -0.12314394285E+04  0.12314394285E+04  0.25500000920E-02 0.  1.
    10030    2    1    2    0    0  0.00000000000E+00  0.00000000000E+00 -0.57320603438E+03  0.18896728226E+04  0.18006382809E+04 0.  0.
        3    1    3    3  502    0  0.13374113524E+03  0.45327714353E+03  0.51759574284E+03  0.70089387449E+03  0.10100000352E+00 0. -1.
       -3    1    3    3    0  502 -0.13374113524E+03 -0.45327714353E+03 -0.10908017772E+04  0.11887789481E+04  0.10100000352E+00 0.  1.
</event>
<event>
 5   0  0.3575091E-04  0.1670222E+04  0.7818609E-02  0.8778533E-01
       -2   -1    0    0    0  501  0.00000000000E+00  0.00000000000E+00  0.92873260882E+03  0.92873260883E+03  0.25500000920E-02 0.  1.
        2   -1    0    0  501    0  0.00000000000E+00  0.00000000000E+00 -0.75092657221E+03  0.75092657221E+03  0.25500000920E-02 0. -1.
    10030    2    1    2    0    0  0.00000000000E+00  0.00000000000E+00  0.17780603662E+03  0.16796591810E+04  0.16702215355E+04 0.  0.
        5    1    3    3  502    0  0.80123781112E+03 -0.22672380118E+03  0.15252337123E+03  0.84656433941E+03  0.46999998093E+01 0. -1.
       -5    1    3    3    0  502 -0.80123781112E+03  0.22672380118E+03  0.25282665386E+02  0.83309484163E+03  0.46999998093E+01 0.  1.
</event>
<event>
 5   0  0.1835421E-04  0.1834131E+04  0.7818609E-02  0.8688357E-01
       -1   -1    0    0    0  501  0.00000000000E+00  0.00000000000E+00  0.88027496902E+03  0.88027496904E+03  0.50400001928E-02 0. -1.
        1   -1    0    0  501    0  0.00000000000E+00  0.00000000000E+00 -0.95539347184E+03  0.95539347185E+03  0.50400001928E-02 0.  1.
    10030    2    1    2    0    0  0.00000000000E+00  0.00000000000E+00 -0.75118502814E+02  0.18356684409E+04  0.18341308120E+04 0.  0.
        2    1    3    3  502    0 -0.42039340398E+03  0.36261784468E+03 -0.76809353038E+03  0.94772885722E+03  0.25500000920E-02 0.  1.
       -2    1    3    3    0  502  0.42039340398E+03 -0.36261784468E+03  0.69297502757E+03  0.88793958366E+03  0.25500000920E-02 0. -1.
</event>
<event>
 5   0  0.3531266E-04  0.1803148E+04  0.7818609E-02  0.8704627E-01
       -2   -1    0    0    0  501  0.00000000000E+00  0.00000000000E+00  0.85152231188E+03  0.85152231189E+03  0.25500000920E-02 0. -1.
        2   -1    0    0  501    0  0.00000000000E+00  0.00000000000E+00 -0.95456769351E+03  0.95456769351E+03  0.25500000920E-02 0.  1.
    10030    2    1    2    0    0  0.00000000000E+00  0.00000000000E+00 -0.10304538163E+03  0.18060900054E+04  0.18031480130E+04 0.  0.
        3    1    3    3  502    0 -0.37077391727E+03 -0.42631976515E+03  0.65220019553E+03  0.86289451564E+03  0.10100000352E+00 0. -1.
       -3    1    3    3    0  502  0.37077391727E+03  0.42631976515E+03 -0.75524557715E+03  0.94319548975E+03  0.10100000352E+00 0.  1.
</event>
<event>
 5   0  0.3582186E-04  0.1793357E+04  0.7818609E-02  0.8709840E-01
       -2   -1    0    0    0  501  0.00000000000E+00  0.00000000000E+00  0.75448859341E+03  0.75448859341E+03  0.25500000920E-02 0.  1.
        2   -1    0    0  501    0  0.00000000000E+00  0.00000000000E+00 -0.10656653603E+04  0.10656653603E+04  0.25500000920E-02 0. -1.
    10030    2    1    2    0    0  0.00000000000E+00  0.00000000000E+00 -0.31117676691E+03  0.18201539537E+04  0.17933570294E+04 0.  0.
        4    1    3    3  502    0  0.61815562914E+03 -0.62002107828E+03  0.40923497060E+02  0.87648095522E+03  0.12699999809E+01 0.  1.
       -4    1    3    3    0  502 -0.61815562914E+03  0.62002107828E+03 -0.35210026397E+03  0.94367299852E+03  0.12699999809E+01 0. -1.
</event>
<event>
 5   0  0.3531266E-04  0.1694074E+04  0.7818609E-02  0.8764752E-01
        2   -1    0    0  501    0  0.00000000000E+00  0.00000000000E+00  0.54308398967E+03  0.54308398967E+03  0.25500000920E-02 0.  1.
       -2   -1    0    0    0  501  0.00000000000E+00  0.00000000000E+00 -0.13211057771E+04  0.13211057771E+04  0.25500000920E-02 0. -1.
    10030    2    1    2    0    0  0.00000000000E+00  0.00000000000E+00 -0.77802178740E+03  0.18641897667E+04  0.16940736657E+04 0.  0.
        3    1    3    3  502    0  0.37142326223E+03  0.74250376409E+02  0.44469893193E+03  0.58414510901E+03  0.10100000352E+00 0.  1.
       -3    1    3    3    0  502 -0.37142326223E+03 -0.74250376409E+02 -0.12227207193E+04  0.12800446577E+04  0.10100000352E+00 0. -1.
</event>
<event>
 5   0  0.1835421E-04  0.1922440E+04  0.7818609E-02  0.8643766E-01
       -1   -1    0    0    0  501  0.00000000000E+00  0.00000000000E+00  0.94081529006E+03  0.94081529008E+03  0.50400001928E-02 0. -1.
        1   -1    0    0  501    0  0.00000000000E+00  0.00000000000E+00 -0.98206725478E+03  0.98206725479E+03  0.50400001928E-02 0.  1.
    10030    2    1    2    0    0  0.00000000000E+00  0.00000000000E+00 -0.41251964711E+02  0.19228825449E+04  0.19224400008E+04 0.  0.
        2    1    3    3  502    0  0.16105500214E+03 -0.89747467846E+03  0.28365511987E+03  0.95491347211E+03  0.25500000920E-02 0. -1.
       -2    1    3    3    0  502 -0.16105500214E+03  0.89747467846E+03 -0.32490708459E+03  0.96796907275E+03  0.25500000920E-02 0.  1.
</event>
<event>
 5   0  0.3628581E-04  0.1813869E+04  0.7818609E-02  0.8698959E-01
       -2   -1    0    0    0  501  0.00000000000E+00  0.00000000000E+00  0.47367937601E+03  0.47367937602E+03  0.25500000920E-02 0.  1.
        2   -1    0    0  501    0  0.00000000000E+00  0.00000000000E+00 -0.17364694400E+04  0.17364694400E+04  0.25500000920E-02 0. -1.
    10030    2    1    2    0    0  0.00000000000E+00  0.00000000000E+00 -0.12627900640E+04  0.22101488160E+04  0.18138685298E+04 0.  0.
        2    1    3    3  502    0  0.64378521860E+03 -0.23644831701E+03 -0.13544766046E+04  0.15182141110E+04  0.25500000920E-02 0.  1.
       -2    1    3    3    0  502 -0.64378521860E+03  0.23644831701E+03  0.91686540635E+02  0.69193470504E+03  0.25500000920E-02 0. -1.
</event>
<event>
 5   0  0.1825253E-04  0.1793811E+04  0.7818609E-02  0.8709598E-01
        1   -1    0    0  501    0  0.00000000000E+00  0.00000000000E+00  0.93500371174E+03  0.93500371175E+03  0.50400001928E-02 0.  1.
       -1   -1    0    0    0  501  0.00000000000E+00  0.00000000000E+00 -0.86035981565E+03  0.86035981566E+03  0.50400001928E-02 0. -1.
    10030    2    1    2    0    0  0.00000000000E+00  0.00000000000E+00  0.74643896092E+02  0.17953635274E+04  0.17938111618E+04 0.  0.
        4    1    3    3  502    0  0.34912315477E+03  0.44244647626E+03  0.73563065615E+03  0.92671459291E+03  0.12699999809E+01 0.  1.
       -4    1    3    3    0  502 -0.34912315477E+03 -0.44244647626E+03 -0.66098676006E+03  0.86864893451E+03  0.12699999809E+01 0. -1.
</event>
<event>
 5   0  0.1825253E-04  0.1860942E+04  0.7818609E-02  0.8674546E-01
       -1   -1    0    0    0  501  0.00000000000E+00  0.00000000000E+00  0.89423094473E+03  0.89423094474E+03  0.50400001928E-02 0.  1.
        1   -1    0    0  501    0  0.00000000000E+00  0.00000000000E+00 -0.96818008592E+03  0.96818008593E+03  0.50400001928E-02 0. -1.
    10030    2    1    2    0    0  0.00000000000E+00  0.00000000000E+00 -0.73949141189E+02  0.18624110307E+04  0.18609423343E+04 0.  0.
        4    1    3    3  502    0  0.38387943369E+03  0.84698288895E+03 -0.48315290946E+01  0.92992923944E+03  0.12699999809E+01 0.  1.
       -4    1    3    3    0  502 -0.38387943369E+03 -0.84698288895E+03 -0.69117612094E+02  0.93248179124E+03  0.12699999809E+01 0. -1.
</event>
<event>
 5   0  0.3582186E-04  0.1791346E+04  0.7818609E-02  0.8710915E-01
        2   -1    0    0  501    0  0.00000000000E+00  0.00000000000E+00  0.13351211650E+04  0.13351211650E+04  0.25500000920E-02 0. -1.
       -2   -1    0    0    0  501  0.00000000000E+00  0.00000000000E+00 -0.60086721071E+03  0.60086721072E+03  0.25500000920E-02 0.  1.
    10030    2    1    2    0    0  0.00000000000E+00  0.00000000000E+00  0.73425395428E+03  0.19359883757E+04  0.17913464549E+04 0.  0.
        4    1    3    3  502    0 -0.33603906874E+03  0.44648523024E+03 -0.38936165548E+03  0.68108400965E+03  0.12699999809E+01 0.  1.
       -4    1    3    3    0  502  0.33603906874E+03 -0.44648523024E+03  0.11236156098E+04  0.12549043661E+04  0.12699999809E+01 0. -1.
</event>
<event>
 5   0  0.1818778E-04  0.1747904E+04  0.7818609E-02  0.8734505E-01
        1   -1    0    0  501    0  0.00000000000E+00  0.00000000000E+00  0.16711003831E+04  0.16711003831E+04  0.50400001928E-02 0. -1.
       -1   -1    0    0    0  501  0.00000000000E+00  0.00000000000E+00 -0.45705933067E+03  0.45705933070E+03  0.50400001928E-02 0.  1.
    10030    2    1    2    0    0  0.00000000000E+00  0.00000000000E+00  0.12140410524E+04  0.21281597138E+04  0.17479039134E+04 0.  0.
        3    1    3    3  502    0 -0.12665154603E+03 -0.81491149306E+03  0.25483358226E+03  0.86316946220E+03  0.10100000352E+00 0.  1.
       -3    1    3    3    0  502  0.12665154603E+03  0.81491149306E+03  0.95920747016E+03  0.12649902516E+04  0.10100000352E+00 0. -1.
</event>
<event>
 5   0  0.1330125E-04  0.1782919E+04  0.7818609E-02  0.8715436E-01
       -4   -1    0    0    0  501  0.00000000000E+00  0.00000000000E+00  0.14055669578E+04  0.14055675315E+04  0.12699999809E+01 0. -1.
        4   -1    0    0  501    0  0.00000000000E+00  0.00000000000E+00 -0.56539351610E+03  0.56539494245E+03  0.12699999809E+01 0.  1.
    10030    2    1    2    0    0  0.00000000000E+00  0.00000000000E+00  0.84017344166E+03  0.19709624740E+04  0.17829194210E+04 0.  0.
        4    1    3    3  502    0  0.77361746028E+03 -0.64561804513E+02 -0.64364386095E+02  0.77897149406E+03  0.12699999809E+01 0.  1.
       -4    1    3    3    0  502 -0.77361746028E+03  0.64561804513E+02  0.90453782775E+03  0.11919909799E+04  0.12699999809E+01 0. -1.
</event>
<event>
 5   0  0.3568870E-04  0.1814139E+04  0.7818609E-02  0.8698816E-01
        2   -1    0    0  501    0  0.00000000000E+00  0.00000000000E+00  0.77866185497E+03  0.77866185497E+03  0.25500000920E-02 0.  1.
       -2   -1    0    0    0  501  0.00000000000E+00  0.00000000000E+00 -0.10566525896E+04  0.10566525896E+04  0.25500000920E-02 0. -1.
    10030    2    1    2    0    0  0.00000000000E+00  0.00000000000E+00 -0.27799073466E+03  0.18353144446E+04  0.18141389864E+04 0.  0.
        1    1    3    3  502    0 -0.12299851521E+03  0.49393181195E+02 -0.10468025781E+04  0.10551606317E+04  0.50400001928E-02 0. -1.
       -1    1    3    3    0  502  0.12299851521E+03 -0.49393181195E+02  0.76881184347E+03  0.78015381290E+03  0.50400001928E-02 0.  1.
</event>
<event>
 5   0  0.3531266E-04  0.1370344E+04  0.7818609E-02  0.8975570E-01
       -2   -1    0    0    0  501  0.00000000000E+00  0.00000000000E+00  0.99735380876E+03  0.99735380877E+03  0.25500000920E-02 0.  1.
        2   -1    0    0  501    0  0.00000000000E+00  0.00000000000E+00 -0.47070593147E+03  0.47070593147E+03  0.25500000920E-02 0. -1.
    10030    2    1    2    0    0  0.00000000000E+00  0.00000000000E+00  0.52664787730E+03  0.14680597402E+04  0.13703435388E+04 0.  0.
        3    1    3    3  502    0 -0.10792892283E+03 -0.63326374929E+03  0.51862069242E+03  0.82561435389E+03  0.10100000352E+00 0.  1.
       -3    1    3    3    0  502  0.10792892283E+03  0.63326374929E+03  0.80271848761E+01  0.64244538635E+03  0.10100000352E+00 0. -1.
</event>
<event>
 5   0  0.3582186E-04  0.1821958E+04  0.7818609E-02  0.8694709E-01
       -2   -1    0    0    0  501  0.00000000000E+00  0.00000000000E+00  0.92858303138E+03  0.92858303139E+03  0.25500000920E-02 0.  1.
        2   -1    0    0  501    0  0.00000000000E+00  0.00000000000E+00 -0.89370822143E+03  0.89370822144E+03  0.25500000920E-02 0. -1.
    10030    2    1    2    0    0  0.00000000000E+00  0.00000000000E+00  0.34874809949E+02  0.18222912528E+04  0.18219575071E+04 0.  0.
        4    1    3    3  502    0  0.30904297447E+03 -0.64492483717E+03  0.58185015015E+03  0.92194729557E+03  0.12699999809E+01 0.  1.
       -4    1    3    3    0  502 -0.30904297447E+03  0.64492483717E+03 -0.54697534020E+03  0.90034395725E+03  0.12699999809E+01 0. -1.
</event>
<event>
 5   0  0.1837313E-04  0.1796736E+04  0.7818609E-02  0.8708037E-01
        1   -1    0    0  501    0  0.00000000000E+00  0.00000000000E+00  0.12415929004E+04  0.12415929004E+04  0.50400001928E-02 0. -1.
       -1   -1    0    0    0  501  0.00000000000E+00  0.00000000000E+00 -0.65002408700E+03  0.65002408702E+03  0.50400001928E-02 0.  1.
    10030    2    1    2    0    0  0.00000000000E+00  0.00000000000E+00  0.59156881336E+03  0.18916169874E+04  0.17967362539E+04 0.  0.
        1    1    3    3  502    0  0.75430686553E+03  0.25774934767E+03  0.73197164149E+03  0.10822181192E+04  0.50400001928E-02 0.  1.
       -1    1    3    3    0  502 -0.75430686553E+03 -0.25774934767E+03 -0.14040282812E+03  0.80939886816E+03  0.50400001928E-02 0. -1.
</event>
<event>
 5   0  0.3582186E-04  0.1819729E+04  0.7818609E-02  0.8695877E-01
        2   -1    0    0  501    0  0.00000000000E+00  0.00000000000E+00  0.21838434485E+04  0.21838434485E+04  0.25500000920E-02 0. -1.
       -2   -1    0    0    0  501  0.00000000000E+00  0.00000000000E+00 -0.37908105203E+03  0.37908105204E+03  0.25500000920E-02 0.  1.
    10030    2    1    2    0    0  0.00000000000E+00  0.00000000000E+00  0.18047623964E+04  0.25629245005E+04  0.18197292897E+04 0.  0.
        4    1    3    3  502    0  0.87349994897E+03 -0.17501596963E+02  0.54456862769E+03  0.10294974842E+04  0.12699999809E+01 0.  1.
       -4    1    3    3    0  502 -0.87349994897E+03  0.17501596963E+02  0.12601937688E+04  0.15334270163E+04  0.12699999809E+01 0. -1.
</event>
<event>
 5   0  0.1818778E-04  0.1654135E+04  0.7818609E-02  0.8787964E-01
       -1   -1    0    0    0  501  0.00000000000E+00  0.00000000000E+00  0.61428620031E+03  0.61428620033E+03  0.50400001928E-02 0. -1.
        1   -1    0    0  501    0  0.00000000000E+00  0.00000000000E+00 -0.11135533607E+04  0.11135533607E+04  0.50400001928E-02 0.  1.
    10030    2    1    2    0    0  0.00000000000E+00  0.00000000000E+00 -0.49926716036E+03  0.17278395610E+04  0.16541347742E+04 0.  0.
        3    1    3    3  502    0  0.46467562801E+03  0.20429051797E+03 -0.93170861747E+03  0.10610084887E+04  0.10100000352E+00 0.  1.
       -3    1    3    3    0  502 -0.46467562801E+03 -0.20429051797E+03  0.43244145711E+03  0.66683107233E+03  0.10100000352E+00 0. -1.
</event>
<event>
 5   0  0.3531266E-04  0.1813722E+04  0.7818609E-02  0.8699036E-01
       -2   -1    0    0    0  501  0.00000000000E+00  0.00000000000E+00  0.11615291723E+04  0.11615291723E+04  0.25500000920E-02 0.  1.
        2   -1    0    0  501    0  0.00000000000E+00  0.00000000000E+00 -0.70802929749E+03  0.70802929750E+03  0.25500000920E-02 0. -1.
    10030    2    1    2    0    0  0.00000000000E+00  0.00000000000E+00  0.45349987482E+03  0.18695584698E+04  0.18137217911E+04 0.  0.
        3    1    3    3  502    0 -0.63516387005E+03 -0.51065184757E+01 -0.44042999718E+03  0.77294101390E+03  0.10100000352E+00 0. -1.
       -3    1    3    3    0  502  0.63516387005E+03  0.51065184757E+01  0.89392987200E+03  0.10966174559E+04  0.10100000352E+00 0.  1.
</event>
<event>
 5   0  0.3531266E-04  0.1814893E+04  0.7818609E-02  0.8698420E-01
        2   -1    0    0  501    0  0.00000000000E+00  0.00000000000E+00  0.96330254071E+03  0.96330254071E+03  0.25500000920E-02 0. -1.
       -2   -1    0    0    0  501  0.00000000000E+00  0.00000000000E+00 -0.85482882558E+03  0.85482882558E+03  0.25500000920E-02 0.  1.
    10030    2    1    2    0    0  0.00000000000E+00  0.00000000000E+00  0.10847371513E+03  0.18181313663E+04  0.18148925914E+04 0.  0.
        3    1    3    3  502    0  0.69568237112E+03 -0.61305942829E+02 -0.52621615737E+03  0.87443457994E+03  0.10100000352E+00 0.  1.
       -3    1    3    3    0  502 -0.69568237112E+03  0.61305942829E+02  0.63468987250E+03  0.94369678635E+03  0.10100000352E+00 0. -1.
</event>
<event>
 5   0  0.1825253E-04  0.1839761E+04  0.7818609E-02  0.8685436E-01
       -1   -1    0    0    0  501  0.00000000000E+00  0.00000000000E+00  0.47593820220E+03  0.47593820223E+03  0.50400001928E-02 0.  1.
        1   -1    0    0  501    0  0.00000000000E+00  0.00000000000E+00 -0.17779204979E+04  0.17779204979E+04  0.50400001928E-02 0. -1.
    10030    2    1    2    0    0  0.00000000000E+00  0.00000000000E+00 -0.13019822957E+04  0.22538587002E+04  0.18397611644E+04 0.  0.
        4    1    3    3  502    0 -0.71916061246E+02 -0.67635506398E+03  0.10772016639E+03  0.68864601908E+03  0.12699999809E+01 0.  1.
       -4    1    3    3    0  502  0.71916061246E+02  0.67635506398E+03 -0.14097024621E+04  0.15652126811E+04  0.12699999809E+01 0. -1.
</event>
<event>
 5   0  0.1837313E-04  0.1803512E+04  0.7818609E-02  0.8704434E-01
        1   -1    0    0  501    0  0.00000000000E+00  0.00000000000E+00  0.11401437891E+04  0.11401437891E+04  0.50400001928E-02 0. -1.
       -1   -1    0    0    0  501  0.00000000000E+00  0.00000000000E+00 -0.71321160388E+03  0.71321160390E+03  0.50400001928E-02 0.  1.
    10030    2    1    2    0    0  0.00000000000E+00  0.00000000000E+00  0.42693218520E+03  0.18533553930E+04  0.18035118857E+04 0.  0.
        1    1    3    3  502    0  0.44818631599E+03 -0.22750485391E+03  0.98284595041E+03  0.11039092330E+04  0.50400001928E-02 0. -1.
       -1    1    3    3    0  502 -0.44818631599E+03  0.22750485391E+03 -0.55591376521E+03  0.74944616002E+03  0.50400001928E-02 0.  1.
</event>
<event>
 5   0  0.3568870E-04  0.1802044E+04  0.7818609E-02  0.8705213E-01
       -2   -1    0    0    0  501  0.00000000000E+00  0.00000000000E+00  0.61350764192E+03  0.61350764192E+03  0.25500000920E-02 0. -1.
        2   -1    0    0  501    0  0.00000000000E+00  0.00000000000E+00 -0.13232778112E+04  0.13232778112E+04  0.25500000920E-02 0.  1.
    10030    2    1    2    0    0  0.00000000000E+00  0.00000000000E+00 -0.70977016929E+03  0.19367854531E+04  0.18020444496E+04 0.  0.
        1    1    3    3  502    0 -0.54334008676E+03  0.39228489875E+03 -0.10021928858E+04  0.12056104147E+04  0.50400001928E-02 0.  1.
       -1    1    3    3    0  502  0.54334008676E+03 -0.39228489875E+03  0.29242271651E+03  0.73117503843E+03  0.50400001928E-02 0. -1.
</event>
<event>
 5   0  0.1825253E-04  0.1795048E+04  0.7818609E-02  0.8708937E-01
       -1   -1    0    0    0  501  0.00000000000E+00  0.00000000000E+00  0.71944987651E+03  0.71944987653E+03  0.50400001928E-02 0. -1.
        1   -1    0    0  501    0  0.00000000000E+00  0.00000000000E+00 -0.11196739076E+04  0.11196739076E+04  0.50400001928E-02 0.  1.
    10030    2    1    2    0    0  0.00000000000E+00  0.00000000000E+00 -0.40022403106E+03  0.18391237841E+04  0.17950479153E+04 0.  0.
        4    1    3    3  502    0  0.74280234626E+03 -0.49354715545E+03 -0.30360477214E+03  0.94208364323E+03  0.12699999809E+01 0.  1.
       -4    1    3    3    0  502 -0.74280234626E+03  0.49354715545E+03 -0.96619258915E+02  0.89704014089E+03  0.12699999809E+01 0. -1.
</event>
<event>
 5   0  0.3575091E-04  0.1814286E+04  0.7818609E-02  0.8698739E-01
       -2   -1    0    0    0  501  0.00000000000E+00  0.00000000000E+00  0.58225798447E+03  0.58225798447E+03  0.25500000920E-02 0.  1.
        2   -1    0    0  501    0  0.00000000000E+00  0.00000000000E+00 -0.14133047779E+04  0.14133047779E+04  0.25500000920E-02 0. -1.
    10030    2    1    2    0    0  0.00000000000E+00  0.00000000000E+00 -0.83104679344E+03  0.19955627624E+04  0.18142855249E+04 0.  0.
        5    1    3    3  502    0 -0.19015024403E+03 -0.84278650413E+03 -0.71962536235E+03  0.11244238342E+04  0.46999998093E+01 0. -1.
       -5    1    3    3    0  502  0.19015024403E+03  0.84278650413E+03 -0.11142143109E+03  0.87113892816E+03  0.46999998093E+01 0.  1.
</event>
<event>
 5   0  0.1835421E-04  0.1777486E+04  0.7818609E-02  0.8718365E-01
       -1   -1    0    0    0  501  0.00000000000E+00  0.00000000000E+00  0.80064130090E+03  0.80064130092E+03  0.50400001928E-02 0.  1.
        1   -1    0    0  501    0  0.00000000000E+00  0.00000000000E+00 -0.98653894231E+03  0.98653894233E+03  0.50400001928E-02 0. -1.
    10030    2    1    2    0    0  0.00000000000E+00  0.00000000000E+00 -0.18589764141E+03  0.17871802432E+04  0.17774856649E+04 0.  0.
        2    1    3    3  502    0 -0.16633354099E+03  0.57662444567E+03  0.56614242508E+03  0.82503323793E+03  0.25500000920E-02 0.  1.
       -2    1    3    3    0  502  0.16633354099E+03 -0.57662444567E+03 -0.75204006650E+03  0.96214700531E+03  0.25500000920E-02 0. -1.
</event>
<event>
 5   0  0.1883959E-04  0.1371319E+04  0.7818609E-02  0.8974845E-01
        1   -1    0    0  501    0  0.00000000000E+00  0.00000000000E+00  0.21708609871E+04  0.21708609871E+04  0.50400001928E-02 0. -1.
       -1   -1    0    0    0  501  0.00000000000E+00  0.00000000000E+00 -0.21656324825E+03  0.21656324831E+03  0.50400001928E-02 0.  1.
    10030    2    1    2    0    0  0.00000000000E+00  0.00000000000E+00  0.19542977389E+04  0.23874242354E+04  0.13713186456E+04 0.  0.
        5    1    3    3  502    0 -0.56548061299E+03  0.38316353235E+03  0.87379917100E+03  0.11091121212E+04  0.46999998093E+01 0.  1.
       -5    1    3    3    0  502  0.56548061299E+03 -0.38316353235E+03  0.10804985679E+04  0.12783121142E+04  0.46999998093E+01 0. -1.
</event>
<event>
 5   0  0.1837313E-04  0.1758849E+04  0.7818609E-02  0.8728494E-01
        1   -1    0    0  501    0  0.00000000000E+00  0.00000000000E+00  0.12149247026E+04  0.12149247026E+04  0.50400001928E-02 0.  1.
       -1   -1    0    0    0  501  0.00000000000E+00  0.00000000000E+00 -0.63657256907E+03  0.63657256909E+03  0.50400001928E-02 0. -1.
    10030    2    1    2    0    0  0.00000000000E+00  0.00000000000E+00  0.57835213355E+03  0.18514972717E+04  0.17588493275E+04 0.  0.
        1    1    3    3  502    0 -0.89984068985E+02 -0.69845986064E+02 -0.62877379679E+03  0.63900867130E+03  0.50400001928E-02 0. -1.
       -1    1    3    3    0  502  0.89984068985E+02  0.69845986064E+02  0.12071259303E+04  0.12124886004E+04  0.50400001928E-02 0.  1.
</event>
<event>
 5   0  0.3575091E-04  0.1623509E+04  0.7818609E-02  0.8806234E-01
        2   -1    0    0  501    0  0.00000000000E+00  0.00000000000E+00  0.90651554198E+03  0.90651554199E+03  0.25500000920E-02 0.  1.
       -2   -1    0    0    0  501  0.00000000000E+00  0.00000000000E+00 -0.72689901240E+03  0.72689901241E+03  0.25500000920E-02 0. -1.
    10030    2    1    2    0    0  0.00000000000E+00  0.00000000000E+00  0.17961652958E+03  0.16334145544E+04  0.16235088570E+04 0.  0.
        5    1    3    3  502    0 -0.66485025728E+03  0.22687390555E+03 -0.31939870695E+03  0.77170930902E+03  0.46999998093E+01 0.  1.
       -5    1    3    3    0  502  0.66485025728E+03 -0.22687390555E+03  0.49901523653E+03  0.86170524538E+03  0.46999998093E+01 0. -1.
</event>
<event>
 5   0  0.1835421E-04  0.1803420E+04  0.7818609E-02  0.8704483E-01
        1   -1    0    0  501    0  0.00000000000E+00  0.00000000000E+00  0.47585840905E+03  0.47585840908E+03  0.50400001928E-02 0.  1.
       -1   -1    0    0    0  501  0.00000000000E+00  0.00000000000E+00 -0.17086610463E+04  0.17086610463E+04  0.50400001928E-02 0. -1.
    10030    2    1    2    0    0  0.00000000000E+00  0.00000000000E+00 -0.12328026372E+04  0.21845194554E+04  0.18034197816E+04 0.  0.
        2    1    3    3  502    0  0.36024806568E+03 -0.46880511785E+03  0.20829701339E+03  0.62685289594E+03  0.25500000920E-02 0.  1.
       -2    1    3    3    0  502 -0.36024806568E+03  0.46880511785E+03 -0.14410996506E+04  0.15576665594E+04  0.25500000920E-02 0. -1.
</event>
<event>
 5   0  0.1818778E-04  0.1779771E+04  0.7818609E-02  0.8717132E-01
        1   -1    0    0  501    0  0.00000000000E+00  0.00000000000E+00  0.10620041913E+04  0.10620041913E+04  0.50400001928E-02 0.  1.
       -1   -1    0    0    0  501  0.00000000000E+00  0.00000000000E+00 -0.74566196598E+03  0.74566196600E+03  0.50400001928E-02 0. -1.
    10030    2    1    2    0    0  0.00000000000E+00  0.00000000000E+00  0.31634222531E+03  0.18076661573E+04  0.17797709214E+04 0.  0.
        3    1    3    3  502    0  0.64627718214E+03  0.60990704014E+03  0.11015081274E+03  0.89542950896E+03  0.10100000352E+00 0. -1.
       -3    1    3    3    0  502 -0.64627718214E+03 -0.60990704014E+03  0.20619141258E+03  0.91223664835E+03  0.10100000352E+00 0.  1.
</event>
<event>
 5   0  0.3531266E-04  0.1796502E+04  0.7818609E-02  0.8708162E-01
       -2   -1    0    0    0  501  0.00000000000E+00  0.00000000000E+00  0.35302770724E+03  0.35302770725E+03  0.25500000920E-02 0. -1.
        2   -1    0    0  501    0  0.00000000000E+00  0.00000000000E+00 -0.22855287778E+04  0.22855287778E+04  0.25500000920E-02 0.  1.
    10030    2    1    2    0    0  0.00000000000E+00  0.00000000000E+00 -0.19325010706E+04  0.26385564850E+04  0.17965021395E+04 0.  0.
        3    1    3    3  502    0  0.73810959506E+03 -0.44254535170E+03 -0.58835055126E+03  0.10425011002E+04  0.10100000352E+00 0.  1.
       -3    1    3    3    0  502 -0.73810959506E+03  0.44254535170E+03 -0.13441505193E+04  0.15960553848E+04  0.10100000352E+00 0. -1.
</event>
<event>
 5   0  0.3575091E-04  0.1713885E+04  0.7818609E-02  0.8753484E-01
       -2   -1    0    0    0  501  0.00000000000E+00  0.00000000000E+00  0.45570976442E+03  0.45570976442E+03  0.25500000920E-02 0.  1.
        2   -1    0    0  501    0  0.00000000000E+00  0.00000000000E+00 -0.16114440288E+04  0.16114440288E+04  0.25500000920E-02 0. -1.
    10030    2    1    2    0    0  0.00000000000E+00  0.00000000000E+00 -0.11557342644E+04  0.20671537932E+04  0.17138853856E+04 0.  0.
        5    1    3    3  502    0 -0.37542864234E+03  0.42469959642E+03 -0.13529934691E+04  0.14669457489E+04  0.46999998093E+01 0. -1.
       -5    1    3    3    0  502  0.37542864234E+03 -0.42469959642E+03  0.19725920470E+03  0.60020804437E+03  0.46999998093E+01 0.  1.
</event>
<event>
 5   0  0.3568870E-04  0.1816041E+04  0.7818609E-02  0.8697815E-01
        2   -1    0    0  501    0  0.00000000000E+00  0.00000000000E+00  0.96083897528E+03  0.96083897529E+03  0.25500000920E-02 0. -1.
       -2   -1    0    0    0  501  0.00000000000E+00  0.00000000000E+00 -0.85810587943E+03  0.85810587943E+03  0.25500000920E-02 0.  1.
    10030    2    1    2    0    0  0.00000000000E+00  0.00000000000E+00  0.10273309586E+03  0.18189448547E+04  0.18160413805E+04 0.  0.
        1    1    3    3  502    0 -0.89569024240E+03  0.14809873889E+03  0.68925321977E+02  0.91046413814E+03  0.50400001928E-02 0.  1.
       -1    1    3    3    0  502  0.89569024240E+03 -0.14809873889E+03  0.33807773881E+02  0.90848071658E+03  0.50400001928E-02 0. -1.
</event>
<event>
 5   0  0.1825253E-04  0.1804466E+04  0.7818609E-02  0.8703928E-01
        1   -1    0    0  501    0  0.00000000000E+00  0.00000000000E+00  0.71200185986E+03  0.71200185987E+03  0.50400001928E-02 0.  1.
       -1   -1    0    0    0  501  0.00000000000E+00  0.00000000000E+00 -0.11432890589E+04  0.11432890589E+04  0.50400001928E-02 0. -1.
    10030    2    1    2    0    0  0.00000000000E+00  0.00000000000E+00 -0.43128719903E+03  0.18552909188E+04  0.18044655013E+04 0.  0.
        4    1    3    3  502    0 -0.30002356000E+03  0.83186724987E+03 -0.31705033984E+02  0.88488647861E+03  0.12699999809E+01 0. -1.
       -4    1    3    3    0  502  0.30002356000E+03 -0.83186724987E+03 -0.39958216505E+03  0.97040444016E+03  0.12699999809E+01 0.  1.
</event>
<event>
 5   0  0.1818778E-04  0.1788807E+04  0.7818609E-02  0.8712275E-01
       -1   -1    0    0    0  501  0.00000000000E+00  0.00000000000E+00  0.10108598811E+04  0.10108598811E+04  0.50400001928E-02 0. -1.
        1   -1    0    0  501    0  0.00000000000E+00  0.00000000000E+00 -0.79136337925E+03  0.79136337926E+03  0.50400001928E-02 0.  1.
    10030    2    1    2    0    0  0.00000000000E+00  0.00000000000E+00  0.21949650182E+03  0.18022232603E+04  0.17888068554E+04 0.  0.
        3    1    3    3  502    0 -0.69994618818E+03  0.53306027962E+03  0.27182604865E+03  0.92085142069E+03  0.10100000352E+00 0. -1.
       -3    1    3    3    0  502  0.69994618818E+03 -0.53306027962E+03 -0.52329546828E+02  0.88137183965E+03  0.10100000352E+00 0.  1.
</event>
<event>
 5   0  0.1837313E-04  0.1446589E+04  0.7818609E-02  0.8920769E-01
       -1   -1    0    0    0  501  0.00000000000E+00  0.00000000000E+00  0.41674026308E+03  0.41674026311E+03  0.50400001928E-02 0.  1.
        1   -1    0    0  501    0  0.00000000000E+00  0.00000000000E+00 -0.12553504336E+04  0.12553504336E+04  0.50400001928E-02 0. -1.
    10030    2    1    2    0    0  0.00000000000E+00  0.00000000000E+00 -0.83861017050E+03  0.16720906967E+04  0.14465891884E+04 0.  0.
        1    1    3    3  502    0 -0.18477219488E+03  0.44098577846E+03  0.20801771017E+03  0.52142169937E+03  0.50400001928E-02 0.  1.
       -1    1    3    3    0  502  0.18477219488E+03 -0.44098577846E+03 -0.10466278807E+04  0.11506689973E+04  0.50400001928E-02 0. -1.
</event>
<event>
 5   0  0.3628581E-04  0.1797886E+04  0.7818609E-02  0.8707424E-01
        2   -1    0    0  501    0  0.00000000000E+00  0.00000000000E+00  0.11541344646E+04  0.11541344647E+04  0.25500000920E-02 0. -1.
       -2   -1    0    0    0  501  0.00000000000E+00  0.00000000000E+00 -0.70017731731E+03  0.70017731731E+03  0.25500000920E-02 0.  1.
    10030    2    1    2    0    0  0.00000000000E+00  0.00000000000E+00  0.45395714734E+03  0.18543117820E+04  0.17978862848E+04 0.  0.
        2    1    3    3  502    0  0.70929716771E+03 -0.14194526877E+03 -0.32348299701E+03  0.79239647955E+03  0.25500000920E-02 0.  1.
       -2    1    3    3    0  502 -0.70929716771E+03  0.14194526877E+03  0.77744014435E+03  0.10619153024E+04  0.25500000920E-02 0. -1.
</event>
<event>
 5   0  0.1837313E-04  0.1601262E+04  0.7818609E-02  0.8819773E-01
       -1   -1    0    0    0  501  0.00000000000E+00  0.00000000000E+00  0.44338504681E+03  0.44338504683E+03  0.50400001928E-02 0. -1.
        1   -1    0    0  501    0  0.00000000000E+00  0.00000000000E+00 -0.14457192520E+04  0.14457192520E+04  0.50400001928E-02 0.  1.
    10030    2    1    2    0    0  0.00000000000E+00  0.00000000000E+00 -0.10023342052E+04  0.18891042989E+04  0.16012623748E+04 0.  0.
        1    1    3    3  502    0  0.60952840813E+03 -0.31671890592E+03 -0.98641197570E+03  0.12020167767E+04  0.50400001928E-02 0.  1.
       -1    1    3    3    0  502 -0.60952840813E+03  0.31671890592E+03 -0.15922229523E+02  0.68708752215E+03  0.50400001928E-02 0. -1.
</event>
<event>
 5   0  0.1330125E-04  0.1786747E+04  0.7818609E-02  0.8713379E-01
        4   -1    0    0  501    0  0.00000000000E+00  0.00000000000E+00  0.40178264735E+03  0.40178465452E+03  0.12699999809E+01 0. -1.
       -4   -1    0    0    0  501  0.00000000000E+00  0.00000000000E+00 -0.19864316362E+04  0.19864320422E+04  0.12699999809E+01 0.  1.
    10030    2    1    2    0    0  0.00000000000E+00  0.00000000000E+00 -0.15846489889E+04  0.23882166967E+04  0.17867474843E+04 0.  0.
        2    1    3    3  502    0  0.73172634011E+03 -0.17126607720E+03 -0.14663336929E+03  0.76567411541E+03  0.25500000920E-02 0. -1.
       -2    1    3    3    0  502 -0.73172634011E+03  0.17126607720E+03 -0.14380156196E+04  0.16225425813E+04  0.25500000920E-02 0.  1.
</event>
<event>
 5   0  0.1825253E-04  0.1772302E+04  0.7818609E-02  0.8721169E-01
        1   -1    0    0  501    0  0.00000000000E+00  0.00000000000E+00  0.55213515496E+03  0.55213515499E+03  0.50400001928E-02 0. -1.
       -1   -1    0    0    0  501  0.00000000000E+00  0.00000000000E+00 -0.14222300520E+04  0.14222300520E+04  0.50400001928E-02 0.  1.
    10030    2    1    2    0    0  0.00000000000E+00  0.00000000000E+00 -0.87009489705E+03  0.19743652070E+04  0.17723015660E+04 0.  0.
        4    1    3    3  502    0 -0.50760611650E+02  0.38924036858E+03 -0.13200925721E+04  0.13772184707E+04  0.12699999809E+01 0.  1.
       -4    1    3    3    0  502  0.50760611650E+02 -0.38924036858E+03  0.44999767505E+03  0.59714673630E+03  0.12699999809E+01 0. -1.
</event>
<event>
 5   0  0.3568870E-04  0.1725160E+04  0.7818609E-02  0.8747143E-01
       -2   -1    0    0    0  501  0.00000000000E+00  0.00000000000E+00  0.62505269233E+03  0.62505269234E+03  0.25500000920E-02 0.  1.
        2   -1    0    0  501    0  0.00000000000E+00  0.00000000000E+00 -0.11903703375E+04  0.11903703375E+04  0.25500000920E-02 0. -1.
    10030    2    1    2    0    0  0.00000000000E+00  0.00000000000E+00 -0.56531764519E+03  0.18154230299E+04  0.17251599165E+04 0.  0.
        1    1    3    3  502    0  0.70628111958E+02  0.78997311187E+03  0.74198210892E+02  0.79658723452E+03  0.50400001928E-02 0.  1.
       -1    1    3    3    0  502 -0.70628111958E+02 -0.78997311187E+03 -0.63951585608E+03  0.10188357953E+04  0.50400001928E-02 0. -1.
</event>
<event>
 5   0  0.3531266E-04  0.1864170E+04  0.7818609E-02  0.8672900E-01
        2   -1    0    0  501    0  0.00000000000E+00  0.00000000000E+00  0.88615119579E+03  0.88615119579E+03  0.25500000920E-02 0. -1.
       -2   -1    0    0    0  501  0.00000000000E+00  0.00000000000E+00 -0.98040011931E+03  0.98040011932E+03  0.25500000920E-02 0.  1.
    10030    2    1    2    0    0  0.00000000000E+00  0.00000000000E+00 -0.94248923526E+02  0.18665513151E+04  0.18641703121E+04 0.  0.
        3    1    3    3  502    0 -0.57576983482E+03  0.48641115973E+03  0.50191522126E+03  0.90555265917E+03  0.10100000352E+00 0. -1.
       -3    1    3    3    0  502  0.57576983482E+03 -0.48641115973E+03 -0.59616414478E+03  0.96099865594E+03  0.10100000352E+00 0.  1.
</event>
<event>
 5   0  0.1835421E-04  0.1816725E+04  0.7818609E-02  0.8697456E-01
        1   -1    0    0  501    0  0.00000000000E+00  0.00000000000E+00  0.68435186296E+03  0.68435186298E+03  0.50400001928E-02 0.  1.
       -1   -1    0    0    0  501  0.00000000000E+00  0.00000000000E+00 -0.12056988190E+04  0.12056988190E+04  0.50400001928E-02 0. -1.
    10030    2    1    2    0    0  0.00000000000E+00  0.00000000000E+00 -0.52134695604E+03  0.18900506820E+04  0.18167247816E+04 0.  0.
        2    1    3    3  502    0  0.35545876520E+03  0.78079036421E+02  0.60518926885E+03  0.70618787927E+03  0.25500000920E-02 0.  1.
       -2    1    3    3    0  502 -0.35545876520E+03 -0.78079036421E+02 -0.11265362249E+04  0.11838628027E+04  0.25500000920E-02 0. -1.
</event>
<event>
 5   0  0.1330125E-04  0.1817984E+04  0.7818609E-02  0.8696794E-01
       -3   -1    0    0    0  501  0.00000000000E+00  0.00000000000E+00  0.11014756737E+04  0.11014756783E+04  0.10100000352E+00 0.  1.
        3   -1    0    0  501    0  0.00000000000E+00  0.00000000000E+00 -0.75014519870E+03  0.75014520550E+03  0.10100000352E+00 0. -1.
    10030    2    1    2    0    0  0.00000000000E+00  0.00000000000E+00  0.35133047497E+03  0.18516208838E+04  0.18179842669E+04 0.  0.
        1    1    3    3  502    0 -0.63667685320E+03 -0.15538521375E+03 -0.46588175475E+03  0.80408195446E+03  0.50400001928E-02 0. -1.
       -1    1    3    3    0  502  0.63667685320E+03  0.15538521375E+03  0.81721222973E+03  0.10475389293E+04  0.50400001928E-02 0.  1.
</event>
<event>
 5   0  0.1883959E-04  0.1749772E+04  0.7818609E-02  0.8733476E-01
       -1   -1    0    0    0  501  0.00000000000E+00  0.00000000000E+00  0.87742600912E+03  0.87742600913E+03  0.50400001928E-02 0.  1.
        1   -1    0    0  501    0  0.00000000000E+00  0.00000000000E+00 -0.87235288793E+03  0.87235288794E+03  0.50400001928E-02 0. -1.
    10030    2    1    2    0    0  0.00000000000E+00  0.00000000000E+00  0.50731211885E+01  0.17497788971E+04  0.17497715428E+04 0.  0.
        5    1    3    3  502    0 -0.18266802011E+03 -0.43455347417E+03  0.73955980422E+03  0.87702629465E+03  0.46999998093E+01 0.  1.
       -5    1    3    3    0  502  0.18266802011E+03  0.43455347417E+03 -0.73448668304E+03  0.87275260243E+03  0.46999998093E+01 0. -1.
</event>
<event>
 5   0  0.3575091E-04  0.1809849E+04  0.7818609E-02  0.8701079E-01
        2   -1    0    0  501    0  0.00000000000E+00  0.00000000000E+00  0.23383596909E+04  0.23383596909E+04  0.25500000920E-02 0. -1.
       -2   -1    0    0    0  501  0.00000000000E+00  0.00000000000E+00 -0.35019776832E+03  0.35019776833E+03  0.25500000920E-02 0.  1.
    10030    2    1    2    0    0  0.00000000000E+00  0.00000000000E+00  0.19881619226E+04  0.26885574592E+04  0.18098489940E+04 0.  0.
        5    1    3    3  502    0  0.42847235537E+03 -0.46344765811E+03  0.19573705467E+04  0.20566219483E+04  0.46999998093E+01 0. -1.
       -5    1    3    3    0  502 -0.42847235537E+03  0.46344765811E+03  0.30791375853E+02  0.63193551091E+03  0.46999998093E+01 0.  1.
</event>
<event>
 5   0  0.3568870E-04  0.1806303E+04  0.7818609E-02  0.8702955E-01
        2   -1    0    0  501    0  0.00000000000E+00  0.00000000000E+00  0.88288389918E+03  0.88288389919E+03  0.25500000920E-02 0.  1.
       -2   -1    0    0    0  501  0.00000000000E+00  0.00000000000E+00 -0.92388449926E+03  0.92388449926E+03  0.25500000920E-02 0. -1.
    10030    2    1    2    0    0  0.00000000000E+00  0.00000000000E+00 -0.41000600075E+02  0.18067683984E+04  0.18063031297E+04 0.  0.
        1    1    3    3  502    0 -0.38383676526E+03 -0.71108263442E+02 -0.83513976008E+03  0.92187063431E+03  0.50400001928E-02 0. -1.
       -1    1    3    3    0  502  0.38383676526E+03  0.71108263442E+02  0.79413916001E+03  0.88489776414E+03  0.50400001928E-02 0.  1.
</event>
<event>
 5   0  0.1883959E-04  0.1818724E+04  0.7818609E-02  0.8696405E-01
        1   -1    0    0  501    0  0.00000000000E+00  0.00000000000E+00  0.10191796150E+04  0.10191796150E+04  0.50400001928E-02 0.  1.
       -1   -1    0    0    0  501  0.00000000000E+00  0.00000000000E+00 -0.81137734226E+03  0.81137734228E+03  0.50400001928E-02 0. -1.
    10030    2    1    2    0    0  0.00000000000E+00  0.00000000000E+00  0.20780227271E+03  0.18305569573E+04  0.18187240003E+04 0.  0.
        5    1    3    3  502    0 -0.85832330025E+03  0.12052979703E+03  0.38077420814E+03  0.94670872358E+03  0.46999998093E+01 0.  1.
       -5    1    3    3    0  502  0.85832330025E+03 -0.12052979703E+03 -0.17297193544E+03  0.88384823367E+03  0.46999998093E+01 0. -1.
</event>
<event>
 5   0  0.1825253E-04  0.1779343E+04  0.7818609E-02  0.8717362E-01
        1   -1    0    0  501    0  0.00000000000E+00  0.00000000000E+00  0.12505277212E+04  0.12505277212E+04  0.50400001928E-02 0.  1.
       -1   -1    0    0    0  501  0.00000000000E+00  0.00000000000E+00 -0.63294529450E+03  0.63294529452E+03  0.50400001928E-02 0. -1.
    10030    2    1    2    0    0  0.00000000000E+00  0.00000000000E+00  0.61758242665E+03  0.18834730157E+04  0.17793432910E+04 0.  0.
        4    1    3    3  502    0  0.29522744899E+03  0.79969523673E+03  0.39247701985E+02  0.85335438904E+03  0.12699999809E+01 0. -1.
       -4    1    3    3    0  502 -0.29522744899E+03 -0.79969523673E+03  0.57833472467E+03  0.10301186266E+04  0.12699999809E+01 0.  1.
</event>
<event>
 5   0  0.3582186E-04  0.1807198E+04  0.7818609E-02  0.8702481E-01
       -2   -1    0    0    0  501  0.00000000000E+00  0.00000000000E+00  0.73672670414E+03  0.73672670414E+03  0.25500000920E-02 0. -1.
        2   -1    0    0  501    0  0.00000000000E+00  0.00000000000E+00 -0.11082689193E+04  0.11082689193E+04  0.25500000920E-02 0.  1.
    10030    2    1    2    0    0  0.00000000000E+00  0.00000000000E+00 -0.37154221519E+03  0.18449956235E+04  0.18071981720E+04 0.  0.
        4    1    3    3  502    0 -0.19380669338E+03  0.48288976376E+03 -0.93996827477E+03  0.10743768095E+04  0.12699999809E+01 0.  1.
       -4    1    3    3    0  502  0.19380669338E+03 -0.48288976376E+03  0.56842605957E+03  0.77061881397E+03  0.12699999809E+01 0. -1.
</event>
<event>
 5   0  0.3568870E-04  0.1833334E+04  0.7818609E-02  0.8688771E-01
        2   -1    0    0  501    0  0.00000000000E+00  0.00000000000E+00  0.12523774988E+04  0.12523774988E+04  0.25500000920E-02 0. -1.
       -2   -1    0    0    0  501  0.00000000000E+00  0.00000000000E+00 -0.67094669655E+03  0.67094669656E+03  0.25500000920E-02 0.  1.
    10030    2    1    2    0    0  0.00000000000E+00  0.00000000000E+00  0.58143080221E+03  0.19233241953E+04  0.18333341710E+04 0.  0.
        1    1    3    3  502    0  0.38382014427E+03 -0.73678492094E+03 -0.11574073280E+03  0.83878831664E+03  0.50400001928E-02 0.  1.
       -1    1    3    3    0  502 -0.38382014427E+03  0.73678492094E+03  0.69717153501E+03  0.10845358787E+04  0.50400001928E-02 0. -1.
</event>
<event>
 5   0  0.3575091E-04  0.1821092E+04  0.7818609E-02  0.8695163E-01
       -2   -1    0    0    0  501  0.00000000000E+00  0.00000000000E+00  0.95985266499E+03  0.95985266500E+03  0.25500000920E-02 0.  1.
        2   -1    0    0  501    0  0.00000000000E+00  0.00000000000E+00 -0.86377242796E+03  0.86377242796E+03  0.25500000920E-02 0. -1.
    10030    2    1    2    0    0  0.00000000000E+00  0.00000000000E+00  0.96080237037E+02  0.18236250930E+04  0.18210922733E+04 0.  0.
        5    1    3    3  502    0  0.46775498185E+02  0.39441290137E+03  0.86852252272E+03  0.95504080879E+03  0.46999998093E+01 0.  1.
       -5    1    3    3    0  502 -0.46775498185E+02 -0.39441290137E+03 -0.77244228568E+03  0.86858428416E+03  0.46999998093E+01 0. -1.
</event>
<event>
 5   0  0.3575091E-04  0.1797471E+04  0.7818609E-02  0.8707645E-01
        2   -1    0    0  501    0  0.00000000000E+00  0.00000000000E+00  0.13314105679E+04  0.13314105679E+04  0.25500000920E-02 0.  1.
       -2   -1    0    0    0  501  0.00000000000E+00  0.00000000000E+00 -0.60666914146E+03  0.60666914147E+03  0.25500000920E-02 0. -1.
    10030    2    1    2    0    0  0.00000000000E+00  0.00000000000E+00  0.72474142641E+03  0.19380797093E+04  0.17974712305E+04 0.  0.
        5    1    3    3  502    0 -0.59230662636E+03 -0.67588375104E+03  0.35418531040E+03  0.96597893799E+03  0.46999998093E+01 0. -1.
       -5    1    3    3    0  502  0.59230662636E+03  0.67588375104E+03  0.37055611601E+03  0.97210077135E+03  0.46999998093E+01 0.  1.
</event>
<event>
 5   0  0.3575091E-04  0.1789901E+04  0.7818609E-02  0.8711688E-01
        2   -1    0    0  501    0  0.00000000000E+00  0.00000000000E+00  0.75589036314E+03  0.75589036314E+03  0.25500000920E-02 0. -1.
       -2   -1    0    0    0  501  0.00000000000E+00  0.00000000000E+00 -0.10595938936E+04  0.10595938936E+04  0.25500000920E-02 0.  1.
    10030    2    1    2    0    0  0.00000000000E+00  0.00000000000E+00 -0.30370353046E+03  0.18154842567E+04  0.17899014643E+04 0.  0.
        5    1    3    3  502    0 -0.26065263177E+03  0.49978729749E+03 -0.85690392574E+03  0.10256868748E+04  0.46999998093E+01 0.  1.
       -5    1    3    3    0  502  0.26065263177E+03 -0.49978729749E+03  0.55320039528E+03  0.78979738194E+03  0.46999998093E+01 0. -1.
</event>
<event>
 5   0  0.1883959E-04  0.1797198E+04  0.7818609E-02  0.8707791E-01
       -1   -1    0    0    0  501  0.00000000000E+00  0.00000000000E+00  0.11845360385E+04  0.11845360385E+04  0.50400001928E-02 0. -1.
        1   -1    0    0  501    0  0.00000000000E+00  0.00000000000E+00 -0.68168488639E+03  0.68168488640E+03  0.50400001928E-02 0.  1.
    10030    2    1    2    0    0  0.00000000000E+00  0.00000000000E+00  0.50285115207E+03  0.18662209249E+04  0.17971981692E+04 0.  0.
        5    1    3    3  502    0  0.85010354074E+03  0.41552346682E+02  0.55068755265E+03  0.10137462691E+04  0.46999998093E+01 0. -1.
       -5    1    3    3    0  502 -0.85010354074E+03 -0.41552346682E+02 -0.47836400583E+02  0.85247465576E+03  0.46999998093E+01 0.  1.
</event>
<event>
 5   0  0.3568870E-04  0.1823406E+04  0.7818609E-02  0.8693951E-01
        2   -1    0    0  501    0  0.00000000000E+00  0.00000000000E+00  0.93874940193E+03  0.93874940193E+03  0.25500000920E-02 0. -1.
       -2   -1    0    0    0  501  0.00000000000E+00  0.00000000000E+00 -0.88543566342E+03  0.88543566342E+03  0.25500000920E-02 0.  1.
    10030    2    1    2    0    0  0.00000000000E+00  0.00000000000E+00  0.53313738507E+02  0.18241850654E+04  0.18234058237E+04 0.  0.
        1    1    3    3  502    0 -0.81441101486E+03 -0.14498621416E+03  0.41011676725E+03  0.92329955389E+03  0.50400001928E-02 0. -1.
       -1    1    3    3    0  502  0.81441101486E+03  0.14498621416E+03 -0.35680302874E+03  0.90088551146E+03  0.50400001928E-02 0.  1.
</event>
<event>
 5   0  0.1835421E-04  0.1805759E+04  0.7818609E-02  0.8703243E-01
       -1   -1    0    0    0  501  0.00000000000E+00  0.00000000000E+00  0.36593580967E+03  0.36593580970E+03  0.50400001928E-02 0.  1.
        1   -1    0    0  501    0  0.00000000000E+00  0.00000000000E+00 -0.22276908037E+04  0.22276908037E+04  0.50400001928E-02 0. -1.
    10030    2    1    2    0    0  0.00000000000E+00  0.00000000000E+00 -0.18617549940E+04  0.25936266134E+04  0.18057594945E+04 0.  0.
        2    1    3    3  502    0 -0.42105435199E+03 -0.32283128862E+03  0.11839927079E+03  0.54362229128E+03  0.25500000920E-02 0.  1.
       -2    1    3    3    0  502  0.42105435199E+03  0.32283128862E+03 -0.19801542648E+04  0.20500043221E+04  0.25500000920E-02 0. -1.
</event>
<event>
 5   0  0.1835421E-04  0.1759343E+04  0.7818609E-02  0.8728224E-01
        1   -1    0    0  501    0  0.00000000000E+00  0.00000000000E+00  0.18808912897E+04  0.18808912897E+04  0.50400001928E-02 0. -1.
       -1   -1    0    0    0  501  0.00000000000E+00  0.00000000000E+00 -0.41141243224E+03  0.41141243227E+03  0.50400001928E-02 0.  1.
    10030    2    1    2    0    0  0.00000000000E+00  0.00000000000E+00  0.14694788574E+04  0.22923037220E+04  0.17593431278E+04 0.  0.
        2    1    3    3  502    0  0.11507450270E+03 -0.44766422843E+03 -0.24043906436E+03  0.52101472749E+03  0.25500000920E-02 0.  1.
       -2    1    3    3    0  502 -0.11507450270E+03  0.44766422843E+03  0.17099179218E+04  0.17712889945E+04  0.25500000920E-02 0. -1.
</event>
<event>
 5   0  0.1818778E-04  0.1789909E+04  0.7818609E-02  0.8711684E-01
       -1   -1    0    0    0  501  0.00000000000E+00  0.00000000000E+00  0.73950405787E+03  0.73950405789E+03  0.50400001928E-02 0.  1.
        1   -1    0    0  501    0  0.00000000000E+00  0.00000000000E+00 -0.10830815108E+04  0.10830815108E+04  0.50400001928E-02 0. -1.
    10030    2    1    2    0    0  0.00000000000E+00  0.00000000000E+00 -0.34357745290E+03  0.18225855687E+04  0.17899085700E+04 0.  0.
        3    1    3    3  502    0 -0.85305663762E+03  0.56593911744E+02  0.97683248376E+02  0.86049434923E+03  0.10100000352E+00 0.  1.
       -3    1    3    3    0  502  0.85305663762E+03 -0.56593911744E+02 -0.44126070127E+03  0.96209121944E+03  0.10100000352E+00 0. -1.
</event>
<event>
 5   0  0.3568870E-04  0.1698827E+04  0.7818609E-02  0.8762034E-01
       -2   -1    0    0    0  501  0.00000000000E+00  0.00000000000E+00  0.83230979495E+03  0.83230979495E+03  0.25500000920E-02 0.  1.
        2   -1    0    0  501    0  0.00000000000E+00  0.00000000000E+00 -0.86686843052E+03  0.86686843052E+03  0.25500000920E-02 0. -1.
    10030    2    1    2    0    0  0.00000000000E+00  0.00000000000E+00 -0.34558635574E+02  0.16991782255E+04  0.16988267547E+04 0.  0.
        1    1    3    3  502    0  0.47529246400E+03  0.46279583312E+03 -0.54787957635E+03  0.86038069463E+03  0.50400001928E-02 0. -1.
       -1    1    3    3    0  502 -0.47529246400E+03 -0.46279583312E+03  0.51332094078E+03  0.83879753084E+03  0.50400001928E-02 0.  1.
</event>
<event>
 5   0  0.1825253E-04  0.1807619E+04  0.7818609E-02  0.8702258E-01
        1   -1    0    0  501    0  0.00000000000E+00  0.00000000000E+00  0.16698664088E+04  0.16698664088E+04  0.50400001928E-02 0. -1.
       -1   -1    0    0    0  501  0.00000000000E+00  0.00000000000E+00 -0.48918385527E+03  0.48918385529E+03  0.50400001928E-02 0.  1.
    10030    2    1    2    0    0  0.00000000000E+00  0.00000000000E+00  0.11806825535E+04  0.21590502641E+04  0.18076190834E+04 0.  0.
        4    1    3    3  502    0  0.14355458554E+03 -0.36695702293E+03 -0.38118628551E+03  0.54824262227E+03  0.12699999809E+01 0.  1.
       -4    1    3    3    0  502 -0.14355458554E+03  0.36695702293E+03  0.15618688390E+04  0.16108076418E+04  0.12699999809E+01 0. -1.
</event>
<event>
 5   0  0.1825253E-04  0.1691318E+04  0.7818609E-02  0.8766332E-01
       -1   -1    0    0    0  501  0.00000000000E+00  0.00000000000E+00  0.82829352860E+03  0.82829352862E+03  0.50400001928E-02 0. -1.
        1   -1    0    0  501    0  0.00000000000E+00  0.00000000000E+00 -0.86338846109E+03  0.86338846111E+03  0.50400001928E-02 0.  1.
    10030    2    1    2    0    0  0.00000000000E+00  0.00000000000E+00 -0.35094932492E+02  0.16916819897E+04  0.16913179181E+04 0.  0.
        4    1    3    3  502    0 -0.49119319679E+03 -0.11738706407E+03  0.66089566320E+03  0.83176629526E+03  0.12699999809E+01 0. -1.
       -4    1    3    3    0  502  0.49119319679E+03  0.11738706407E+03 -0.69599059570E+03  0.85991569446E+03  0.12699999809E+01 0.  1.
</event>
<event>
 5   0  0.1883959E-04  0.1837069E+04  0.7818609E-02  0.8686831E-01
       -1   -1    0    0    0  501  0.00000000000E+00  0.00000000000E+00  0.17088093897E+04  0.17088093897E+04  0.50400001928E-02 0. -1.
        1   -1    0    0  501    0  0.00000000000E+00  0.00000000000E+00 -0.49373865977E+03  0.49373865980E+03  0.50400001928E-02 0.  1.
    10030    2    1    2    0    0  0.00000000000E+00  0.00000000000E+00  0.12150707299E+04  0.22025480495E+04  0.18370685974E+04 0.  0.
        5    1    3    3  502    0  0.61494458554E+03 -0.41088491689E+03 -0.45533117779E+02  0.74099838935E+03  0.46999998093E+01 0.  1.
       -5    1    3    3    0  502 -0.61494458554E+03  0.41088491689E+03  0.12606038477E+04  0.14615496601E+04  0.46999998093E+01 0. -1.
</event>
<event>
 5   0  0.3628581E-04  0.1817043E+04  0.7818609E-02  0.8697288E-01
       -2   -1    0    0    0  501  0.00000000000E+00  0.00000000000E+00  0.56522999582E+03  0.56522999582E+03  0.25500000920E-02 0. -1.
        2   -1    0    0  501    0  0.00000000000E+00  0.00000000000E+00 -0.14603109122E+04  0.14603109123E+04  0.25500000920E-02 0.  1.
    10030    2    1    2    0    0  0.00000000000E+00  0.00000000000E+00 -0.89508091643E+03  0.20255409081E+04  0.18170432365E+04 0.  0.
        2    1    3    3  502    0  0.16199638931E+03 -0.37091137068E+03  0.45917570497E+03  0.61209509318E+03  0.25500000920E-02 0. -1.
       -2    1    3    3    0  502 -0.16199638931E+03  0.37091137068E+03 -0.13542566214E+04  0.14134458149E+04  0.25500000920E-02 0.  1.
</event>
<event>
 5   0  0.3582186E-04  0.1805474E+04  0.7818609E-02  0.8703394E-01
        2   -1    0    0  501    0  0.00000000000E+00  0.00000000000E+00  0.84594692005E+03  0.84594692006E+03  0.25500000920E-02 0. -1.
       -2   -1    0    0    0  501  0.00000000000E+00  0.00000000000E+00 -0.96333998302E+03  0.96333998302E+03  0.25500000920E-02 0.  1.
    10030    2    1    2    0    0  0.00000000000E+00  0.00000000000E+00 -0.11739306296E+03  0.18092869031E+04  0.18054744436E+04 0.  0.
        4    1    3    3  502    0 -0.88861489890E+03  0.14210123275E+03  0.12894365613E+02  0.89999837581E+03  0.12699999809E+01 0. -1.
       -4    1    3    3    0  502  0.88861489890E+03 -0.14210123275E+03 -0.13028742858E+03  0.90928852727E+03  0.12699999809E+01 0.  1.
</event>
<event>
 5   0  0.3575091E-04  0.1795882E+04  0.7818609E-02  0.8708492E-01
       -2   -1    0    0    0  501  0.00000000000E+00  0.00000000000E+00  0.32893405769E+03  0.32893405770E+03  0.25500000920E-02 0.  1.
        2   -1    0    0  501    0  0.00000000000E+00  0.00000000000E+00 -0.24512458607E+04  0.24512458607E+04  0.25500000920E-02 0. -1.
    10030    2    1    2    0    0  0.00000000000E+00  0.00000000000E+00 -0.21223118030E+04  0.27801799184E+04  0.17958822315E+04 0.  0.
        5    1    3    3  502    0  0.45594010034E+03 -0.71527173564E+03 -0.15172008927E+04  0.17382219851E+04  0.46999998093E+01 0. -1.
       -5    1    3    3    0  502 -0.45594010034E+03  0.71527173564E+03 -0.60511091035E+03  0.10419579333E+04  0.46999998093E+01 0.  1.
</event>
<event>
 5   0  0.3531266E-04  0.1718545E+04  0.7818609E-02  0.8750858E-01
       -2   -1    0    0    0  501  0.00000000000E+00  0.00000000000E+00  0.48529462024E+03  0.48529462024E+03  0.25500000920E-02 0. -1.
        2   -1    0    0  501    0  0.00000000000E+00  0.00000000000E+00 -0.15214455008E+04  0.15214455008E+04  0.25500000920E-02 0.  1.
    10030    2    1    2    0    0  0.00000000000E+00  0.00000000000E+00 -0.10361508805E+04  0.20067401210E+04  0.17185451016E+04 0.  0.
        3    1    3    3  502    0 -0.81407743816E+03 -0.36956445696E+02 -0.19986683648E+03  0.83906770688E+03  0.10100000352E+00 0.  1.
       -3    1    3    3    0  502  0.81407743816E+03  0.36956445696E+02 -0.83628404407E+03  0.11676724141E+04  0.10100000352E+00 0. -1.
</event>
<event>
 5   0  0.3575091E-04  0.2063900E+04  0.7818609E-02  0.8577315E-01
        2   -1    0    0  501    0  0.00000000000E+00  0.00000000000E+00  0.10969167620E+04  0.10969167620E+04  0.25500000920E-02 0.  1.
       -2   -1    0    0    0  501  0.00000000000E+00  0.00000000000E+00 -0.97083100387E+03  0.97083100387E+03  0.25500000920E-02 0. -1.
    10030    2    1    2    0    0  0.00000000000E+00  0.00000000000E+00  0.12608575809E+03  0.20677477658E+04  0.20638999987E+04 0.  0.
        5    1    3    3  502    0 -0.24458988133E+03  0.18010158359E+02  0.10672838741E+04  0.10951098273E+04  0.46999998093E+01 0.  1.
       -5    1    3    3    0  502  0.24458988133E+03 -0.18010158359E+02 -0.94119811604E+03  0.97263793854E+03  0.46999998093E+01 0. -1.
</event>
<event>
 5   0  0.3628581E-04  0.1797793E+04  0.7818609E-02  0.8707474E-01
       -2   -1    0    0    0  501  0.00000000000E+00  0.00000000000E+00  0.33865214953E+03  0.33865214954E+03  0.25500000920E-02 0.  1.
        2   -1    0    0  501    0  0.00000000000E+00  0.00000000000E+00 -0.23859723716E+04  0.23859723716E+04  0.25500000920E-02 0. -1.
    10030    2    1    2    0    0  0.00000000000E+00  0.00000000000E+00 -0.20473202221E+04  0.27246245211E+04  0.17977927271E+04 0.  0.
        2    1    3    3  502    0  0.25274294147E+03 -0.37187280205E+03  0.15597657553E+03  0.47591708048E+03  0.25500000920E-02 0.  1.
       -2    1    3    3    0  502 -0.25274294147E+03  0.37187280205E+03 -0.22032967976E+04  0.22487074407E+04  0.25500000920E-02 0. -1.
</event>
<event>
 5   0  0.1837313E-04  0.1799433E+04  0.7818609E-02  0.8706601E-01
       -1   -1    0    0    0  501  0.00000000000E+00  0.00000000000E+00  0.17153697405E+04  0.17153697405E+04  0.50400001928E-02 0.  1.
        1   -1    0    0  501    0  0.00000000000E+00  0.00000000000E+00 -0.47190412838E+03  0.47190412840E+03  0.50400001928E-02 0. -1.
    10030    2    1    2    0    0  0.00000000000E+00  0.00000000000E+00  0.12434656121E+04  0.21872738689E+04  0.17994333133E+04 0.  0.
        1    1    3    3  502    0  0.61156233507E+03  0.51940071313E+03  0.11165383107E+04  0.13749339583E+04  0.50400001928E-02 0.  1.
       -1    1    3    3    0  502 -0.61156233507E+03 -0.51940071313E+03  0.12692730144E+03  0.81233991059E+03  0.50400001928E-02 0. -1.
</event>
<event>
 5   0  0.1825253E-04  0.1795029E+04  0.7818609E-02  0.8708948E-01
       -1   -1    0    0    0  501  0.00000000000E+00  0.00000000000E+00  0.45648924105E+03  0.45648924107E+03  0.50400001928E-02 0. -1.
        1   -1    0    0  501    0  0.00000000000E+00  0.00000000000E+00 -0.17646243290E+04  0.17646243290E+04  0.50400001928E-02 0.  1.
    10030    2    1    2    0    0  0.00000000000E+00  0.00000000000E+00 -0.13081350879E+04  0.22211135700E+04  0.17950287136E+04 0.  0.
        4    1    3    3  502    0 -0.78369964438E+03 -0.43709335732E+03 -0.63282683845E+03  0.10980469735E+04  0.12699999809E+01 0.  1.
       -4    1    3    3    0  502  0.78369964438E+03  0.43709335732E+03 -0.67530824946E+03  0.11230665966E+04  0.12699999809E+01 0. -1.
</event>
<event>
 5   0  0.3582186E-04  0.1839359E+04  0.7818609E-02  0.8685645E-01
        2   -1    0    0  501    0  0.00000000000E+00  0.00000000000E+00  0.22988888910E+04  0.22988888910E+04  0.25500000920E-02 0. -1.
       -2   -1    0    0    0  501  0.00000000000E+00  0.00000000000E+00 -0.36792126604E+03  0.36792126605E+03  0.25500000920E-02 0.  1.
    10030    2    1    2    0    0  0.00000000000E+00  0.00000000000E+00  0.19309676250E+04  0.26668101571E+04  0.18393587049E+04 0.  0.
        4    1    3    3  502    0  0.46065872413E+03 -0.26408448085E+03  0.20541929324E+04  0.21217109345E+04  0.12699999809E+01 0. -1.
       -4    1    3    3    0  502 -0.46065872413E+03  0.26408448085E+03 -0.12322530744E+03  0.54509922256E+03  0.12699999809E+01 0.  1.
</event>
<event>
 5   0  0.3582186E-04  0.1794239E+04  0.7818609E-02  0.8709369E-01
        2   -1    0    0  501    0  0.00000000000E+00  0.00000000000E+00  0.56147661234E+03  0.56147661234E+03  0.25500000920E-02 0.  1.
       -2   -1    0    0    0  501  0.00000000000E+00  0.00000000000E+00 -0.14334050194E+04  0.14334050194E+04  0.25500000920E-02 0. -1.
    10030    2    1    2    0    0  0.00000000000E+00  0.00000000000E+00 -0.87192840710E+03  0.19948816318E+04  0.17942389968E+04 0.  0.
        4    1    3    3  502    0 -0.13642663020E+02  0.48044999721E+03 -0.12781703780E+04  0.13655546310E+04  0.12699999809E+01 0. -1.
       -4    1    3    3    0  502  0.13642663020E+02 -0.48044999721E+03  0.40624197093E+03  0.62932700078E+03  0.12699999809E+01 0.  1.
</event>
<event>
 5   0  0.1835421E-04  0.1796304E+04  0.7818609E-02  0.8708267E-01
        1   -1    0    0  501    0  0.00000000000E+00  0.00000000000E+00  0.93461172437E+03  0.93461172439E+03  0.50400001928E-02 0.  1.
       -1   -1    0    0    0  501  0.00000000000E+00  0.00000000000E+00 -0.86311498853E+03  0.86311498854E+03  0.50400001928E-02 0. -1.
    10030    2    1    2    0    0  0.00000000000E+00  0.00000000000E+00  0.71496735847E+02  0.17977267129E+04  0.17963044149E+04 0.  0.
        2    1    3    3  502    0 -0.54085181137E+03 -0.50593172370E+03 -0.47277776076E+03  0.87863894859E+03  0.25500000920E-02 0. -1.
       -2    1    3    3    0  502  0.54085181137E+03  0.50593172370E+03  0.54427449660E+03  0.91908776434E+03  0.25500000920E-02 0.  1.
</event>
<event>
 5   0  0.1330125E-04  0.1796340E+04  0.7818609E-02  0.8708248E-01
        4   -1    0    0  501    0  0.00000000000E+00  0.00000000000E+00  0.90120295564E+03  0.90120385050E+03  0.12699999809E+01 0. -1.
       -4   -1    0    0    0  501  0.00000000000E+00  0.00000000000E+00 -0.89514573381E+03  0.89514663473E+03  0.12699999809E+01 0.  1.
    10030    2    1    2    0    0  0.00000000000E+00  0.00000000000E+00  0.60572218327E+01  0.17963504852E+04  0.17963402728E+04 0.  0.
        5    1    3    3  502    0 -0.20388021948E+03  0.49265732172E+03  0.72581147136E+03  0.90061243745E+03  0.46999998093E+01 0. -1.
       -5    1    3    3    0  502  0.20388021948E+03 -0.49265732172E+03 -0.71975424952E+03  0.89573804778E+03  0.46999998093E+01 0.  1.
</event>
<event>
 5   0  0.3628581E-04  0.1734609E+04  0.7818609E-02  0.8741868E-01
       -2   -1    0    0    0  501  0.00000000000E+00  0.00000000000E+00  0.10470022346E+04  0.10470022346E+04  0.25500000920E-02 0. -1.
        2   -1    0    0  501    0  0.00000000000E+00  0.00000000000E+00 -0.71844837753E+03  0.71844837754E+03  0.25500000920E-02 0.  1.
    10030    2    1    2    0    0  0.00000000000E+00  0.00000000000E+00  0.32855385709E+03  0.17654506122E+04  0.17346089551E+04 0.  0.
        2    1    3    3  502    0  0.47683094237E+03 -0.72416639041E+03  0.18543961426E+03  0.88666372382E+03  0.25500000920E-02 0.  1.
       -2    1    3    3    0  502 -0.47683094237E+03  0.72416639041E+03  0.14311424283E+03  0.87878688834E+03  0.25500000920E-02 0. -1.
</event>
<event>
 5   0  0.3531266E-04  0.1789657E+04  0.7818609E-02  0.8711819E-01
        2   -1    0    0  501    0  0.00000000000E+00  0.00000000000E+00  0.90776306377E+03  0.90776306378E+03  0.25500000920E-02 0. -1.
       -2   -1    0    0    0  501  0.00000000000E+00  0.00000000000E+00 -0.88207857342E+03  0.88207857342E+03  0.25500000920E-02 0.  1.
    10030    2    1    2    0    0  0.00000000000E+00  0.00000000000E+00  0.25684490359E+02  0.17898416372E+04  0.17896573396E+04 0.  0.
        3    1    3    3  502    0 -0.16237911812E+03 -0.31884105914E+03 -0.80742008654E+03  0.88314993367E+03  0.10100000352E+00 0.  1.
       -3    1    3    3    0  502  0.16237911812E+03  0.31884105914E+03  0.83310457690E+03  0.90669170353E+03  0.10100000352E+00 0. -1.
</event>
<event>
 5   0  0.3628581E-04  0.1724568E+04  0.7818609E-02  0.8747475E-01
        2   -1    0    0  501    0  0.00000000000E+00  0.00000000000E+00  0.24752573441E+04  0.24752573441E+04  0.25500000920E-02 0.  1.
       -2   -1    0    0    0  501  0.00000000000E+00  0.00000000000E+00 -0.30038628708E+03  0.30038628709E+03  0.25500000920E-02 0. -1.
    10030    2    1    2    0    0  0.00000000000E+00  0.00000000000E+00  0.21748710570E+04  0.27756436312E+04  0.17245676132E+04 0.  0.
        2    1    3    3  502    0  0.81577803893E+03 -0.15074835928E+03  0.14659678100E+04  0.16844228972E+04  0.25500000920E-02 0.  1.
       -2    1    3    3    0  502 -0.81577803893E+03  0.15074835928E+03  0.70890324696E+03  0.10912207339E+04  0.25500000920E-02 0. -1.
</event>
<event>
 5   0  0.3568870E-04  0.1753101E+04  0.7818609E-02  0.8731645E-01
        2   -1    0    0  501    0  0.00000000000E+00  0.00000000000E+00  0.12439657350E+04  0.12439657350E+04  0.25500000920E-02 0.  1.
       -2   -1    0    0    0  501  0.00000000000E+00  0.00000000000E+00 -0.61765442188E+03  0.61765442189E+03  0.25500000920E-02 0. -1.
    10030    2    1    2    0    0  0.00000000000E+00  0.00000000000E+00  0.62631131311E+03  0.18616201569E+04  0.17531011801E+04 0.  0.
        1    1    3    3  502    0  0.77205588470E+03 -0.11931057215E+03  0.73530061180E+03  0.10728337669E+04  0.50400001928E-02 0.  1.
       -1    1    3    3    0  502 -0.77205588470E+03  0.11931057215E+03 -0.10898929869E+03  0.78878638995E+03  0.50400001928E-02 0. -1.
</event>
<event>
 5   0  0.1818778E-04  0.1798042E+04  0.7818609E-02  0.8707342E-01
       -1   -1    0    0    0  501  0.00000000000E+00  0.00000000000E+00  0.10396019747E+04  0.10396019747E+04  0.50400001928E-02 0.  1.
        1   -1    0    0  501    0  0.00000000000E+00  0.00000000000E+00 -0.77744991607E+03  0.77744991609E+03  0.50400001928E-02 0. -1.
    10030    2    1    2    0    0  0.00000000000E+00  0.00000000000E+00  0.26215205862E+03  0.18170518908E+04  0.17980416769E+04 0.  0.
        3    1    3    3  502    0 -0.79856805566E+03 -0.15068188872E+03 -0.25746584220E+03  0.85246973038E+03  0.10100000352E+00 0.  1.
       -3    1    3    3    0  502  0.79856805566E+03  0.15068188872E+03  0.51961790082E+03  0.96458216040E+03  0.10100000352E+00 0. -1.
</event>
<event>
 5   0  0.3575091E-04  0.1799216E+04  0.7818609E-02  0.8706716E-01
       -2   -1    0    0    0  501  0.00000000000E+00  0.00000000000E+00  0.35303649670E+03  0.35303649671E+03  0.25500000920E-02 0. -1.
        2   -1    0    0  501    0  0.00000000000E+00  0.00000000000E+00 -0.22923833272E+04  0.22923833272E+04  0.25500000920E-02 0.  1.
    10030    2    1    2    0    0  0.00000000000E+00  0.00000000000E+00 -0.19393468305E+04  0.26454198239E+04  0.17992164727E+04 0.  0.
        5    1    3    3  502    0 -0.38269274374E+03  0.62454346025E+03 -0.20177246818E+03  0.75976475883E+03  0.46999998093E+01 0. -1.
       -5    1    3    3    0  502  0.38269274374E+03 -0.62454346025E+03 -0.17375743624E+04  0.18856550651E+04  0.46999998093E+01 0.  1.
</event>
<event>
 5   0  0.3582186E-04  0.1802671E+04  0.7818609E-02  0.8704880E-01
       -2   -1    0    0    0  501  0.00000000000E+00  0.00000000000E+00  0.79576415468E+03  0.79576415468E+03  0.25500000920E-02 0.  1.
        2   -1    0    0  501    0  0.00000000000E+00  0.00000000000E+00 -0.10209125558E+04  0.10209125558E+04  0.25500000920E-02 0. -1.
    10030    2    1    2    0    0  0.00000000000E+00  0.00000000000E+00 -0.22514840111E+03  0.18166767105E+04  0.18026709261E+04 0.  0.
        4    1    3    3  502    0 -0.39612632470E+03 -0.53189899880E+03 -0.72770284007E+03  0.98457383999E+03  0.12699999809E+01 0. -1.
       -4    1    3    3    0  502  0.39612632470E+03  0.53189899880E+03  0.50255443896E+03  0.83210287048E+03  0.12699999809E+01 0.  1.
</event>
<event>
 5   0  0.3628581E-04  0.1768303E+04  0.7818609E-02  0.8723339E-01
        2   -1    0    0  501    0  0.00000000000E+00  0.00000000000E+00  0.81070356859E+03  0.81070356860E+03  0.25500000920E-02 0. -1.
       -2   -1    0    0    0  501  0.00000000000E+00  0.00000000000E+00 -0.96425388113E+03  0.96425388114E+03  0.25500000920E-02 0.  1.
    10030    2    1    2    0    0  0.00000000000E+00  0.00000000000E+00 -0.15355031254E+03  0.17749574497E+04  0.17683032121E+04 0.  0.
        2    1    3    3  502    0  0.58111893693E+03  0.45980343355E+03 -0.56088212759E+03  0.92935847627E+03  0.25500000920E-02 0.  1.
       -2    1    3    3    0  502 -0.58111893693E+03 -0.45980343355E+03  0.40733181505E+03  0.84559897346E+03  0.25500000920E-02 0. -1.
</event>
<event>
 5   0  0.1818778E-04  0.1803683E+04  0.7818609E-02  0.8704343E-01
       -1   -1    0    0    0  501  0.00000000000E+00  0.00000000000E+00  0.29811762214E+03  0.29811762219E+03  0.50400001928E-02 0. -1.
        1   -1    0    0  501    0  0.00000000000E+00  0.00000000000E+00 -0.27281783141E+04  0.27281783142E+04  0.50400001928E-02 0.  1.
    10030    2    1    2    0    0  0.00000000000E+00  0.00000000000E+00 -0.24300606920E+04  0.30262959363E+04  0.18036829343E+04 0.  0.
        3    1    3    3  502    0 -0.36841203111E+03 -0.16772319724E+03  0.13712703804E+03  0.42739013831E+03  0.10100000352E+00 0. -1.
       -3    1    3    3    0  502  0.36841203111E+03  0.16772319724E+03 -0.25671877300E+04  0.25989057980E+04  0.10100000352E+00 0.  1.
</event>
<event>
 5   0  0.1883959E-04  0.1813117E+04  0.7818609E-02  0.8699355E-01
       -1   -1    0    0    0  501  0.00000000000E+00  0.00000000000E+00  0.10089070252E+04  0.10089070252E+04  0.50400001928E-02 0. -1.
        1   -1    0    0  501    0  0.00000000000E+00  0.00000000000E+00 -0.81459311058E+03  0.81459311059E+03  0.50400001928E-02 0.  1.
    10030    2    1    2    0    0  0.00000000000E+00  0.00000000000E+00  0.19431391463E+03  0.18235001358E+04  0.18131174391E+04 0.  0.
        5    1    3    3  502    0 -0.44829391899E+03 -0.73115755656E+02  0.88619614912E+03  0.99583083716E+03  0.46999998093E+01 0. -1.
       -5    1    3    3    0  502  0.44829391899E+03  0.73115755656E+02 -0.69188223449E+03  0.82766929865E+03  0.46999998093E+01 0.  1.
</event>
<event>
 5   0  0.3568870E-04  0.1619397E+04  0.7818609E-02  0.8808720E-01
       -2   -1    0    0    0  501  0.00000000000E+00  0.00000000000E+00  0.41406907860E+03  0.41406907861E+03  0.25500000920E-02 0.  1.
        2   -1    0    0  501    0  0.00000000000E+00  0.00000000000E+00 -0.15833378960E+04  0.15833378960E+04  0.25500000920E-02 0. -1.
    10030    2    1    2    0    0  0.00000000000E+00  0.00000000000E+00 -0.11692688174E+04  0.19974069746E+04  0.16193965095E+04 0.  0.
        1    1    3    3  502    0 -0.29690178849E+03 -0.45939553507E+03  0.15172893759E+03  0.56764126011E+03  0.50400001928E-02 0.  1.
       -1    1    3    3    0  502  0.29690178849E+03  0.45939553507E+03 -0.13209977550E+04  0.14297657145E+04  0.50400001928E-02 0. -1.
</event>
<event>
 5   0  0.3575091E-04  0.1788268E+04  0.7818609E-02  0.8712563E-01
        2   -1    0    0  501    0  0.00000000000E+00  0.00000000000E+00  0.12615691998E+04  0.12615691998E+04  0.25500000920E-02 0.  1.
       -2   -1    0    0    0  501  0.00000000000E+00  0.00000000000E+00 -0.63371526373E+03  0.63371526373E+03  0.25500000920E-02 0. -1.
    10030    2    1    2    0    0  0.00000000000E+00  0.00000000000E+00  0.62785393608E+03  0.18952844635E+04  0.17882680539E+04 0.  0.
        5    1    3    3  502    0 -0.48723738568E+03  0.49724255314E+03  0.90857681723E+03  0.11446328448E+04  0.46999998093E+01 0.  1.
       -5    1    3    3    0  502  0.48723738568E+03 -0.49724255314E+03 -0.28072288116E+03  0.75065161870E+03  0.46999998093E+01 0. -1.
</event>
<event>
 5   0  0.3575091E-04  0.1401339E+04  0.7818609E-02  0.8952850E-01
        2   -1    0    0  501    0  0.00000000000E+00  0.00000000000E+00  0.41603150201E+03  0.41603150202E+03  0.25500000920E-02 0. -1.
       -2   -1    0    0    0  501  0.00000000000E+00  0.00000000000E+00 -0.11800498734E+04  0.11800498734E+04  0.25500000920E-02 0.  1.
    10030    2    1    2    0    0  0.00000000000E+00  0.00000000000E+00 -0.76401837137E+03  0.15960813754E+04  0.14013392470E+04 0.  0.
        5    1    3    3  502    0 -0.29583961676E+03 -0.59352837926E+03 -0.63952395086E+03  0.92130884591E+03  0.46999998093E+01 0.  1.
       -5    1    3    3    0  502  0.29583961676E+03  0.59352837926E+03 -0.12449442052E+03  0.67477252950E+03  0.46999998093E+01 0. -1.
</event>
<event>
 5   0  0.1825253E-04  0.1784478E+04  0.7818609E-02  0.8714598E-01
        1   -1    0    0  501    0  0.00000000000E+00  0.00000000000E+00  0.87863848657E+03  0.87863848658E+03  0.50400001928E-02 0.  1.
       -1   -1    0    0    0  501  0.00000000000E+00  0.00000000000E+00 -0.90605035714E+03  0.90605035715E+03  0.50400001928E-02 0. -1.
    10030    2    1    2    0    0  0.00000000000E+00  0.00000000000E+00 -0.27411870572E+02  0.17846888437E+04  0.17844783154E+04 0.  0.
        4    1    3    3  502    0  0.18522150557E+03  0.60412090235E+03 -0.64371678288E+03  0.90202105310E+03  0.12699999809E+01 0. -1.
       -4    1    3    3    0  502 -0.18522150557E+03 -0.60412090235E+03  0.61630491231E+03  0.88266779063E+03  0.12699999809E+01 0.  1.
</event>
<event>
 5   0  0.1825253E-04  0.1789063E+04  0.7818609E-02  0.8712138E-01
       -1   -1    0    0    0  501  0.00000000000E+00  0.00000000000E+00  0.68820881458E+03  0.68820881460E+03  0.50400001928E-02 0.  1.
        1   -1    0    0  501    0  0.00000000000E+00  0.00000000000E+00 -0.11627084112E+04  0.11627084112E+04  0.50400001928E-02 0. -1.
    10030    2    1    2    0    0  0.00000000000E+00  0.00000000000E+00 -0.47449959661E+03  0.18509172258E+04  0.17890625226E+04 0.  0.
        4    1    3    3  502    0  0.31178752390E+03  0.29333376216E+03  0.57535402935E+03  0.71714017324E+03  0.12699999809E+01 0.  1.
       -4    1    3    3    0  502 -0.31178752390E+03 -0.29333376216E+03 -0.10498536260E+04  0.11337770526E+04  0.12699999809E+01 0. -1.
</event>
<event>
 5   0  0.1835421E-04  0.1806735E+04  0.7818609E-02  0.8702726E-01
       -1   -1    0    0    0  501  0.00000000000E+00  0.00000000000E+00  0.53159737295E+03  0.53159737297E+03  0.50400001928E-02 0.  1.
        1   -1    0    0  501    0  0.00000000000E+00  0.00000000000E+00 -0.15351333603E+04  0.15351333603E+04  0.50400001928E-02 0. -1.
    10030    2    1    2    0    0  0.00000000000E+00  0.00000000000E+00 -0.10035359873E+04  0.20667307332E+04  0.18067350237E+04 0.  0.
        2    1    3    3  502    0 -0.68295171442E+03  0.25102941352E+03 -0.11141935774E+04  0.13307389446E+04  0.25500000920E-02 0. -1.
       -2    1    3    3    0  502  0.68295171442E+03 -0.25102941352E+03  0.11065759013E+03  0.73599178864E+03  0.25500000920E-02 0.  1.
</event>
<event>
 5   0  0.3568870E-04  0.1335382E+04  0.7818609E-02  0.9001968E-01
        2   -1    0    0  501    0  0.00000000000E+00  0.00000000000E+00  0.12009910200E+04  0.12009910200E+04  0.25500000920E-02 0. -1.
       -2   -1    0    0    0  501  0.00000000000E+00  0.00000000000E+00 -0.37120296872E+03  0.37120296873E+03  0.25500000920E-02 0.  1.
    10030    2    1    2    0    0  0.00000000000E+00  0.00000000000E+00  0.82978805129E+03  0.15721939887E+04  0.13353822405E+04 0.  0.
        1    1    3    3  502    0  0.62271829239E+02  0.64478524261E+03  0.60541033074E+03  0.88664956911E+03  0.50400001928E-02 0. -1.
       -1    1    3    3    0  502 -0.62271829239E+02 -0.64478524261E+03  0.22437772055E+03  0.68554441964E+03  0.50400001928E-02 0.  1.
</event>
<event>
 5   0  0.3575091E-04  0.1811798E+04  0.7818609E-02  0.8700051E-01
        2   -1    0    0  501    0  0.00000000000E+00  0.00000000000E+00  0.18173406194E+04  0.18173406194E+04  0.25500000920E-02 0.  1.
       -2   -1    0    0    0  501  0.00000000000E+00  0.00000000000E+00 -0.45156803387E+03  0.45156803388E+03  0.25500000920E-02 0. -1.
    10030    2    1    2    0    0  0.00000000000E+00  0.00000000000E+00  0.13657725856E+04  0.22689086533E+04  0.18117979252E+04 0.  0.
        5    1    3    3  502    0  0.94032204717E+02  0.52110638138E+03  0.16033345622E+04  0.16885193883E+04  0.46999998093E+01 0.  1.
       -5    1    3    3    0  502 -0.94032204717E+02 -0.52110638138E+03 -0.23756197663E+03  0.58038926504E+03  0.46999998093E+01 0. -1.
</event>
<event>
 5   0  0.3531266E-04  0.1801898E+04  0.7818609E-02  0.8705291E-01
        2   -1    0    0  501    0  0.00000000000E+00  0.00000000000E+00  0.16642419375E+04  0.16642419375E+04  0.25500000920E-02 0. -1.
       -2   -1    0    0    0  501  0.00000000000E+00  0.00000000000E+00 -0.48773512281E+03  0.48773512281E+03  0.25500000920E-02 0.  1.
    10030    2    1    2    0    0  0.00000000000E+00  0.00000000000E+00  0.11765068147E+04  0.21519770603E+04  0.18018981611E+04 0.  0.
        3    1    3    3  502    0  0.53690110260E+03 -0.14501876824E+03  0.14347771152E+04  0.15387912846E+04  0.10100000352E+00 0. -1.
       -3    1    3    3    0  502 -0.53690110260E+03  0.14501876824E+03 -0.25827030055E+03  0.61318577565E+03  0.10100000352E+00 0.  1.
</event>
<event>
 5   0  0.1825253E-04  0.1808368E+04  0.7818609E-02  0.8701862E-01
       -1   -1    0    0    0  501  0.00000000000E+00  0.00000000000E+00  0.55142662683E+03  0.55142662686E+03  0.50400001928E-02 0. -1.
        1   -1    0    0  501    0  0.00000000000E+00  0.00000000000E+00 -0.14826071783E+04  0.14826071783E+04  0.50400001928E-02 0.  1.
    10030    2    1    2    0    0  0.00000000000E+00  0.00000000000E+00 -0.93118055150E+03  0.20340338052E+04  0.18083684086E+04 0.  0.
        4    1    3    3  502    0  0.26410779974E+03 -0.44240573194E+01  0.50705999997E+03  0.57173766592E+03  0.12699999809E+01 0. -1.
       -4    1    3    3    0  502 -0.26410779974E+03  0.44240573194E+01 -0.14382405515E+04  0.14622961393E+04  0.12699999809E+01 0.  1.
</event>
<event>
 5   0  0.3568870E-04  0.1795257E+04  0.7818609E-02  0.8708826E-01
        2   -1    0    0  501    0  0.00000000000E+00  0.00000000000E+00  0.56808097541E+03  0.56808097541E+03  0.25500000920E-02 0. -1.
       -2   -1    0    0    0  501  0.00000000000E+00  0.00000000000E+00 -0.14183492773E+04  0.14183492773E+04  0.25500000920E-02 0.  1.
    10030    2    1    2    0    0  0.00000000000E+00  0.00000000000E+00 -0.85026830186E+03  0.19864302527E+04  0.17952573530E+04 0.  0.
        1    1    3    3  502    0 -0.49948895419E+03 -0.80246769026E+02 -0.12455845378E+04  0.13443993455E+04  0.50400001928E-02 0.  1.
       -1    1    3    3    0  502  0.49948895419E+03  0.80246769026E+02  0.39531623598E+03  0.64203090716E+03  0.50400001928E-02 0. -1.
</event>
<event>
 5   0  0.1825253E-04  0.1851004E+04  0.7818609E-02  0.8679637E-01
        1   -1    0    0  501    0  0.00000000000E+00  0.00000000000E+00  0.14253819137E+04  0.14253819137E+04  0.50400001928E-02 0. -1.
       -1   -1    0    0    0  501  0.00000000000E+00  0.00000000000E+00 -0.60092929700E+03  0.60092929702E+03  0.50400001928E-02 0.  1.
    10030    2    1    2    0    0  0.00000000000E+00  0.00000000000E+00  0.82445261673E+03  0.20263112108E+04  0.18510037832E+04 0.  0.
        4    1    3    3  502    0 -0.85265259439E+03 -0.66049541067E+02  0.79953249242E+03  0.11707402820E+04  0.12699999809E+01 0. -1.
       -4    1    3    3    0  502  0.85265259439E+03  0.66049541067E+02  0.24920124309E+02  0.85557092873E+03  0.12699999809E+01 0.  1.
</event>
<event>
 5   0  0.3531266E-04  0.1730988E+04  0.7818609E-02  0.8743886E-01
        2   -1    0    0  501    0  0.00000000000E+00  0.00000000000E+00  0.33511811851E+03  0.33511811851E+03  0.25500000920E-02 0. -1.
       -2   -1    0    0    0  501  0.00000000000E+00  0.00000000000E+00 -0.22352706542E+04  0.22352706542E+04  0.25500000920E-02 0.  1.
    10030    2    1    2    0    0  0.00000000000E+00  0.00000000000E+00 -0.19001525357E+04  0.25703887727E+04  0.17309878058E+04 0.  0.
        3    1    3    3  502    0  0.48274750163E+03 -0.22860625760E+03 -0.19613247256E+04  0.20327569114E+04  0.10100000352E+00 0.  1.
       -3    1    3    3    0  502 -0.48274750163E+03  0.22860625760E+03  0.61172189870E+02  0.53763186136E+03  0.10100000352E+00 0. -1.
</event>
<event>
 5   0  0.3582186E-04  0.1758294E+04  0.7818609E-02  0.8728798E-01
        2   -1    0    0  501    0  0.00000000000E+00  0.00000000000E+00  0.15136475228E+04  0.15136475228E+04  0.25500000920E-02 0.  1.
       -2   -1    0    0    0  501  0.00000000000E+00  0.00000000000E+00 -0.51062029112E+03  0.51062029113E+03  0.25500000920E-02 0. -1.
    10030    2    1    2    0    0  0.00000000000E+00  0.00000000000E+00  0.10030272317E+04  0.20242678139E+04  0.17582936487E+04 0.  0.
        4    1    3    3  502    0  0.28092484646E+03 -0.82943142175E+03  0.41217138639E+03  0.96786472061E+03  0.12699999809E+01 0. -1.
       -4    1    3    3    0  502 -0.28092484646E+03  0.82943142175E+03  0.59085584527E+03  0.10564030933E+04  0.12699999809E+01 0.  1.
</event>
<event>
 5   0  0.1837313E-04  0.1878990E+04  0.7818609E-02  0.8665386E-01
       -1   -1    0    0    0  501  0.00000000000E+00  0.00000000000E+00  0.77007642529E+03  0.77007642530E+03  0.50400001928E-02 0. -1.
        1   -1    0    0  501    0  0.00000000000E+00  0.00000000000E+00 -0.11461859514E+04  0.11461859514E+04  0.50400001928E-02 0.  1.
    10030    2    1    2    0    0  0.00000000000E+00  0.00000000000E+00 -0.37610952612E+03  0.19162623767E+04  0.18789899204E+04 0.  0.
        1    1    3    3  502    0  0.91837018381E+02  0.13184791316E+03  0.75595955598E+03  0.77284717794E+03  0.50400001928E-02 0. -1.
       -1    1    3    3    0  502 -0.91837018381E+02 -0.13184791316E+03 -0.11320690821E+04  0.11434151988E+04  0.50400001928E-02 0.  1.
</event>
<event>
 5   0  0.3568870E-04  0.1774597E+04  0.7818609E-02  0.8719926E-01
       -2   -1    0    0    0  501  0.00000000000E+00  0.00000000000E+00  0.92799603695E+03  0.92799603695E+03  0.25500000920E-02 0.  1.
        2   -1    0    0  501    0  0.00000000000E+00  0.00000000000E+00 -0.84838566168E+03  0.84838566169E+03  0.25500000920E-02 0. -1.
    10030    2    1    2    0    0  0.00000000000E+00  0.00000000000E+00  0.79610375266E+02  0.17763816986E+04  0.17745968915E+04 0.  0.
        1    1    3    3  502    0 -0.60653439726E+03  0.29686457234E+02  0.68739732550E+03  0.91721335791E+03  0.50400001928E-02 0.  1.
       -1    1    3    3    0  502  0.60653439726E+03 -0.29686457234E+02 -0.60778695024E+03  0.85916834073E+03  0.50400001928E-02 0. -1.
</event>
<event>
 5   0  0.1883959E-04  0.1865726E+04  0.7818609E-02  0.8672108E-01
       -1   -1    0    0    0  501  0.00000000000E+00  0.00000000000E+00  0.10111400053E+04  0.10111400053E+04  0.50400001928E-02 0. -1.
        1   -1    0    0  501    0  0.00000000000E+00  0.00000000000E+00 -0.86064547372E+03  0.86064547373E+03  0.50400001928E-02 0.  1.
    10030    2    1    2    0    0  0.00000000000E+00  0.00000000000E+00  0.15049453155E+03  0.18717854790E+04  0.18657256699E+04 0.  0.
        5    1    3    3  502    0  0.47593974904E+03  0.61475650671E+03  0.59244739808E+03  0.97747645330E+03  0.46999998093E+01 0. -1.
       -5    1    3    3    0  502 -0.47593974904E+03 -0.61475650671E+03 -0.44195286652E+03  0.89430902572E+03  0.46999998093E+01 0.  1.
</event>
<event>
 5   0  0.1883959E-04  0.1799705E+04  0.7818609E-02  0.8706456E-01
       -1   -1    0    0    0  501  0.00000000000E+00  0.00000000000E+00  0.59067003386E+03  0.59067003388E+03  0.50400001928E-02 0.  1.
        1   -1    0    0  501    0  0.00000000000E+00  0.00000000000E+00 -0.13708747662E+04  0.13708747662E+04  0.50400001928E-02 0. -1.
    10030    2    1    2    0    0  0.00000000000E+00  0.00000000000E+00 -0.78020473236E+03  0.19615448001E+04  0.17997051365E+04 0.  0.
        5    1    3    3  502    0  0.61490614217E+03 -0.41501242113E+03  0.16497664385E+03  0.75998964228E+03  0.46999998093E+01 0.  1.
       -5    1    3    3    0  502 -0.61490614217E+03  0.41501242113E+03 -0.94518137621E+03  0.12015551578E+04  0.46999998093E+01 0. -1.
</event>
<event>
 5   0  0.1825253E-04  0.1803295E+04  0.7818609E-02  0.8704549E-01
        1   -1    0    0  501    0  0.00000000000E+00  0.00000000000E+00  0.19458833239E+04  0.19458833240E+04  0.50400001928E-02 0. -1.
       -1   -1    0    0    0  501  0.00000000000E+00  0.00000000000E+00 -0.41778900291E+03  0.41778900294E+03  0.50400001928E-02 0.  1.
    10030    2    1    2    0    0  0.00000000000E+00  0.00000000000E+00  0.15280943210E+04  0.23636723269E+04  0.18032954874E+04 0.  0.
        4    1    3    3  502    0  0.28014342624E+03 -0.14040567848E+02  0.18872392929E+04  0.19079704501E+04  0.12699999809E+01 0. -1.
       -4    1    3    3    0  502 -0.28014342624E+03  0.14040567848E+02 -0.35914497186E+03  0.45570187681E+03  0.12699999809E+01 0.  1.
</event>
<event>
 5   0  0.1818778E-04  0.1789987E+04  0.7818609E-02  0.8711643E-01
       -1   -1    0    0    0  501  0.00000000000E+00  0.00000000000E+00  0.10334720183E+04  0.10334720184E+04  0.50400001928E-02 0. -1.
        1   -1    0    0  501    0  0.00000000000E+00  0.00000000000E+00 -0.77506977729E+03  0.77506977730E+03  0.50400001928E-02 0.  1.
    10030    2    1    2    0    0  0.00000000000E+00  0.00000000000E+00  0.25840224106E+03  0.18085417957E+04  0.17899865107E+04 0.  0.
        3    1    3    3  502    0 -0.29664180921E+03 -0.81971505800E+03  0.33399358703E+03  0.93353139511E+03  0.10100000352E+00 0. -1.
       -3    1    3    3    0  502  0.29664180921E+03  0.81971505800E+03 -0.75591345974E+02  0.87501040055E+03  0.10100000352E+00 0.  1.
</event>
<event>
 5   0  0.1818778E-04  0.1698204E+04  0.7818609E-02  0.8762389E-01
        1   -1    0    0  501    0  0.00000000000E+00  0.00000000000E+00  0.14833836209E+04  0.14833836209E+04  0.50400001928E-02 0.  1.
       -1   -1    0    0    0  501  0.00000000000E+00  0.00000000000E+00 -0.48603375031E+03  0.48603375034E+03  0.50400001928E-02 0. -1.
    10030    2    1    2    0    0  0.00000000000E+00  0.00000000000E+00  0.99734987060E+03  0.19694173713E+04  0.16982043510E+04 0.  0.
        3    1    3    3  502    0 -0.34544524385E+03  0.34905505223E+03  0.13019774664E+04  0.13915161441E+04  0.10100000352E+00 0.  1.
       -3    1    3    3    0  502  0.34544524385E+03 -0.34905505223E+03 -0.30462759585E+03  0.57790122715E+03  0.10100000352E+00 0. -1.
</event>
<event>
 5   0  0.1825253E-04  0.1780781E+04  0.7818609E-02  0.8716587E-01
        1   -1    0    0  501    0  0.00000000000E+00  0.00000000000E+00  0.10106497266E+04  0.10106497266E+04  0.50400001928E-02 0.  1.
       -1   -1    0    0    0  501  0.00000000000E+00  0.00000000000E+00 -0.78444142410E+03  0.78444142411E+03  0.50400001928E-02 0. -1.
    10030    2    1    2    0    0  0.00000000000E+00  0.00000000000E+00  0.22620830252E+03  0.17950911507E+04  0.17807813014E+04 0.  0.
        4    1    3    3  502    0 -0.88248059690E+03  0.33229708060E+02 -0.14651300872E+01  0.88310813433E+03  0.12699999809E+01 0.  1.
       -4    1    3    3    0  502  0.88248059690E+03 -0.33229708060E+02  0.22767343260E+03  0.91198301641E+03  0.12699999809E+01 0. -1.
</event>
<event>
 5   0  0.1818778E-04  0.1805568E+04  0.7818609E-02  0.8703344E-01
       -1   -1    0    0    0  501  0.00000000000E+00  0.00000000000E+00  0.58527523191E+03  0.58527523193E+03  0.50400001928E-02 0.  1.
        1   -1    0    0  501    0  0.00000000000E+00  0.00000000000E+00 -0.13925402683E+04  0.13925402683E+04  0.50400001928E-02 0. -1.
    10030    2    1    2    0    0  0.00000000000E+00  0.00000000000E+00 -0.80726503639E+03  0.19778155002E+04  0.18055684185E+04 0.  0.
        3    1    3    3  502    0 -0.54759540676E+03 -0.34620247513E+03  0.28507777068E+03  0.70780380673E+03  0.10100000352E+00 0.  1.
       -3    1    3    3    0  502  0.54759540676E+03  0.34620247513E+03 -0.10923428071E+04  0.12700116935E+04  0.10100000352E+00 0. -1.
</event>
<event>
 5   0  0.1837313E-04  0.1793654E+04  0.7818609E-02  0.8709682E-01
        1   -1    0    0  501    0  0.00000000000E+00  0.00000000000E+00  0.10961641709E+04  0.10961641709E+04  0.50400001928E-02 0. -1.
       -1   -1    0    0    0  501  0.00000000000E+00  0.00000000000E+00 -0.73373911019E+03  0.73373911021E+03  0.50400001928E-02 0.  1.
    10030    2    1    2    0    0  0.00000000000E+00  0.00000000000E+00  0.36242506068E+03  0.18299032811E+04  0.17936538388E+04 0.  0.
        1    1    3    3  502    0 -0.23024199595E+02  0.30915855920E+03 -0.67733474433E+03  0.74491038682E+03  0.50400001928E-02 0.  1.
       -1    1    3    3    0  502  0.23024199595E+02 -0.30915855920E+03  0.10397598050E+04  0.10849928943E+04  0.50400001928E-02 0. -1.
</event>
<event>
 5   0  0.1883959E-04  0.1783472E+04  0.7818609E-02  0.8715139E-01
        1   -1    0    0  501    0  0.00000000000E+00  0.00000000000E+00  0.37352443968E+03  0.37352443971E+03  0.50400001928E-02 0.  1.
       -1   -1    0    0    0  501  0.00000000000E+00  0.00000000000E+00 -0.21288907099E+04  0.21288907099E+04  0.50400001928E-02 0. -1.
    10030    2    1    2    0    0  0.00000000000E+00  0.00000000000E+00 -0.17553662702E+04  0.25024151496E+04  0.17834715693E+04 0.  0.
        5    1    3    3  502    0  0.60616013915E+03  0.59933503558E+03 -0.12450152916E+04  0.15088796391E+04  0.46999998093E+01 0.  1.
       -5    1    3    3    0  502 -0.60616013915E+03 -0.59933503558E+03 -0.51035097866E+03  0.99353551048E+03  0.46999998093E+01 0. -1.
</event>
<event>
 5   0  0.3531266E-04  0.2304780E+04  0.7818609E-02  0.8476039E-01
       -2   -1    0    0    0  501  0.00000000000E+00  0.00000000000E+00  0.98097436096E+03  0.98097436096E+03  0.25500000920E-02 0.  1.
        2   -1    0    0  501    0  0.00000000000E+00  0.00000000000E+00 -0.13537583355E+04  0.13537583355E+04  0.25500000920E-02 0. -1.
    10030    2    1    2    0    0  0.00000000000E+00  0.00000000000E+00 -0.37278397457E+03  0.23347326965E+04  0.23047795713E+04 0.  0.
        3    1    3    3  502    0  0.74585401512E+02 -0.89062249988E+03 -0.92332891657E+03  0.12850321855E+04  0.10100000352E+00 0.  1.
       -3    1    3    3    0  502 -0.74585401512E+02  0.89062249988E+03  0.55054494199E+03  0.10497005110E+04  0.10100000352E+00 0. -1.
</event>
<event>
 5   0  0.3628581E-04  0.1807734E+04  0.7818609E-02  0.8702197E-01
       -2   -1    0    0    0  501  0.00000000000E+00  0.00000000000E+00  0.67579229579E+03  0.67579229579E+03  0.25500000920E-02 0.  1.
        2   -1    0    0  501    0  0.00000000000E+00  0.00000000000E+00 -0.12089157909E+04  0.12089157909E+04  0.25500000920E-02 0. -1.
    10030    2    1    2    0    0  0.00000000000E+00  0.00000000000E+00 -0.53312349516E+03  0.18847080867E+04  0.18077344692E+04 0.  0.
        2    1    3    3  502    0  0.41710867518E+03  0.23082283650E+03 -0.10671907784E+04  0.11688263285E+04  0.25500000920E-02 0. -1.
       -2    1    3    3    0  502 -0.41710867518E+03 -0.23082283650E+03  0.53406728322E+03  0.71588175823E+03  0.25500000920E-02 0.  1.
</event>
<event>
 5   0  0.1883959E-04  0.1844923E+04  0.7818609E-02  0.8682768E-01
        1   -1    0    0  501    0  0.00000000000E+00  0.00000000000E+00  0.11330472676E+04  0.11330472676E+04  0.50400001928E-02 0. -1.
       -1   -1    0    0    0  501  0.00000000000E+00  0.00000000000E+00 -0.75101474051E+03  0.75101474053E+03  0.50400001928E-02 0.  1.
    10030    2    1    2    0    0  0.00000000000E+00  0.00000000000E+00  0.38203252707E+03  0.18840620081E+04  0.18449229791E+04 0.  0.
        5    1    3    3  502    0  0.22448630659E+03  0.22575758119E+02  0.11044235705E+04  0.11272432212E+04  0.46999998093E+01 0. -1.
       -5    1    3    3    0  502 -0.22448630659E+03 -0.22575758119E+02 -0.72239104339E+03  0.75681878694E+03  0.46999998093E+01 0.  1.
</event>
<event>
 5   0  0.3531266E-04  0.1813875E+04  0.7818609E-02  0.8698955E-01
       -2   -1    0    0    0  501  0.00000000000E+00  0.00000000000E+00  0.10305888151E+04  0.10305888151E+04  0.25500000920E-02 0. -1.
        2   -1    0    0  501    0  0.00000000000E+00  0.00000000000E+00 -0.79812219811E+03  0.79812219812E+03  0.25500000920E-02 0.  1.
    10030    2    1    2    0    0  0.00000000000E+00  0.00000000000E+00  0.23246661699E+03  0.18287110132E+04  0.18138752002E+04 0.  0.
        3    1    3    3  502    0 -0.33552571489E+03 -0.65231066832E+03  0.65393320062E+03  0.98270817359E+03  0.10100000352E+00 0. -1.
       -3    1    3    3    0  502  0.33552571489E+03  0.65231066832E+03 -0.42146658363E+03  0.84600283964E+03  0.10100000352E+00 0.  1.
</event>
<event>
 5   0  0.3568870E-04  0.1808748E+04  0.7818609E-02  0.8701661E-01
        2   -1    0    0  501    0  0.00000000000E+00  0.00000000000E+00  0.14116373414E+04  0.14116373414E+04  0.25500000920E-02 0.  1.
       -2   -1    0    0    0  501  0.00000000000E+00  0.00000000000E+00 -0.57939281967E+03  0.57939281968E+03  0.25500000920E-02 0. -1.
    10030    2    1    2    0    0  0.00000000000E+00  0.00000000000E+00  0.83224452172E+03  0.19910301611E+04  0.18087482297E+04 0.  0.
        1    1    3    3  502    0 -0.74468280264E+03 -0.10764900599E+03  0.96843616050E+03  0.12263806024E+04  0.50400001928E-02 0.  1.
       -1    1    3    3    0  502  0.74468280264E+03  0.10764900599E+03 -0.13619163878E+03  0.76464955865E+03  0.50400001928E-02 0. -1.
</event>
<event>
 5   0  0.3582186E-04  0.1862072E+04  0.7818609E-02  0.8673969E-01
       -2   -1    0    0    0  501  0.00000000000E+00  0.00000000000E+00  0.11894213305E+04  0.11894213305E+04  0.25500000920E-02 0.  1.
        2   -1    0    0  501    0  0.00000000000E+00  0.00000000000E+00 -0.72878148267E+03  0.72878148267E+03  0.25500000920E-02 0. -1.
    10030    2    1    2    0    0  0.00000000000E+00  0.00000000000E+00  0.46063984784E+03  0.19182028132E+04  0.18620722228E+04 0.  0.
        4    1    3    3  502    0 -0.11415783462E+03  0.90425002288E+03  0.34520674308E+02  0.91208190692E+03  0.12699999809E+01 0. -1.
       -4    1    3    3    0  502  0.11415783462E+03 -0.90425002288E+03  0.42611917353E+03  0.10061209063E+04  0.12699999809E+01 0.  1.
</event>
<event>
 5   0  0.3628581E-04  0.1756183E+04  0.7818609E-02  0.8729954E-01
       -2   -1    0    0    0  501  0.00000000000E+00  0.00000000000E+00  0.11057141021E+04  0.11057141022E+04  0.25500000920E-02 0.  1.
        2   -1    0    0  501    0  0.00000000000E+00  0.00000000000E+00 -0.69732755384E+03  0.69732755385E+03  0.25500000920E-02 0. -1.
    10030    2    1    2    0    0  0.00000000000E+00  0.00000000000E+00  0.40838654831E+03  0.18030416560E+04  0.17561832593E+04 0.  0.
        2    1    3    3  502    0 -0.56971930177E+02 -0.34828622591E+03  0.10296965216E+04  0.10884962208E+04  0.25500000920E-02 0.  1.
       -2    1    3    3    0  502  0.56971930177E+02  0.34828622591E+03 -0.62130997334E+03  0.71454543520E+03  0.25500000920E-02 0. -1.
</event>
<event>
 5   0  0.1883959E-04  0.1724930E+04  0.7818609E-02  0.8747272E-01
       -1   -1    0    0    0  501  0.00000000000E+00  0.00000000000E+00  0.69502837844E+03  0.69502837846E+03  0.50400001928E-02 0. -1.
        1   -1    0    0  501    0  0.00000000000E+00  0.00000000000E+00 -0.10702387304E+04  0.10702387304E+04  0.50400001928E-02 0.  1.
    10030    2    1    2    0    0  0.00000000000E+00  0.00000000000E+00 -0.37521035194E+03  0.17652671089E+04  0.17249304790E+04 0.  0.
        5    1    3    3  502    0 -0.42496643712E+03 -0.25100741403E+03 -0.91140865049E+03  0.10364791425E+04  0.46999998093E+01 0.  1.
       -5    1    3    3    0  502  0.42496643712E+03  0.25100741403E+03  0.53619829856E+03  0.72878796639E+03  0.46999998093E+01 0. -1.
</event>
<event>
 5   0  0.3628581E-04  0.1788915E+04  0.7818609E-02  0.8712217E-01
        2   -1    0    0  501    0  0.00000000000E+00  0.00000000000E+00  0.15348065502E+04  0.15348065502E+04  0.25500000920E-02 0. -1.
       -2   -1    0    0    0  501  0.00000000000E+00  0.00000000000E+00 -0.52127369973E+03  0.52127369973E+03  0.25500000920E-02 0.  1.
    10030    2    1    2    0    0  0.00000000000E+00  0.00000000000E+00  0.10135328505E+04  0.20560802500E+04  0.17889150777E+04 0.  0.
        2    1    3    3  502    0 -0.14972893130E+03 -0.86378585633E+03  0.30274710237E+03  0.92746998144E+03  0.25500000920E-02 0.  1.
       -2    1    3    3    0  502  0.14972893130E+03  0.86378585633E+03  0.71078574814E+03  0.11286102685E+04  0.25500000920E-02 0. -1.
</event>
<event>
 5   0  0.1883959E-04  0.1778639E+04  0.7818609E-02  0.8717742E-01
        1   -1    0    0  501    0  0.00000000000E+00  0.00000000000E+00  0.12198749492E+04  0.12198749492E+04  0.50400001928E-02 0. -1.
       -1   -1    0    0    0  501  0.00000000000E+00  0.00000000000E+00 -0.64833596134E+03  0.64833596136E+03  0.50400001928E-02 0.  1.
    10030    2    1    2    0    0  0.00000000000E+00  0.00000000000E+00  0.57153898789E+03  0.18682109106E+04  0.17786385782E+04 0.  0.
        5    1    3    3  502    0  0.83425160600E+03  0.30171685895E+03  0.22052951082E+03  0.91414668420E+03  0.46999998093E+01 0. -1.
       -5    1    3    3    0  502 -0.83425160600E+03 -0.30171685895E+03  0.35100947706E+03  0.95406422639E+03  0.46999998093E+01 0.  1.
</event>
<event>
 5   0  0.1835421E-04  0.1774491E+04  0.7818609E-02  0.8719984E-01
        1   -1    0    0  501    0  0.00000000000E+00  0.00000000000E+00  0.14885554219E+04  0.14885554219E+04  0.50400001928E-02 0. -1.
       -1   -1    0    0    0  501  0.00000000000E+00  0.00000000000E+00 -0.52883799139E+03  0.52883799141E+03  0.50400001928E-02 0.  1.
    10030    2    1    2    0    0  0.00000000000E+00  0.00000000000E+00  0.95971743053E+03  0.20173934133E+04  0.17744910926E+04 0.  0.
        2    1    3    3  502    0 -0.45060454859E+03  0.17624888106E+03  0.13253657837E+04  0.14109226016E+04  0.25500000920E-02 0. -1.
       -2    1    3    3    0  502  0.45060454859E+03 -0.17624888106E+03 -0.36564835314E+03  0.60647081170E+03  0.25500000920E-02 0.  1.
</event>
<event>
 5   0  0.1835421E-04  0.1537502E+04  0.7818609E-02  0.8859890E-01
       -1   -1    0    0    0  501  0.00000000000E+00  0.00000000000E+00  0.92005702173E+03  0.92005702175E+03  0.50400001928E-02 0.  1.
        1   -1    0    0  501    0  0.00000000000E+00  0.00000000000E+00 -0.64232771952E+03  0.64232771954E+03  0.50400001928E-02 0. -1.
    10030    2    1    2    0    0  0.00000000000E+00  0.00000000000E+00  0.27772930222E+03  0.15623847413E+04  0.15375020372E+04 0.  0.
        2    1    3    3  502    0  0.26988076431E+03 -0.55165733230E+03  0.60875128271E+03  0.86471935530E+03  0.25500000920E-02 0.  1.
       -2    1    3    3    0  502 -0.26988076431E+03  0.55165733230E+03 -0.33102198049E+03  0.69766538599E+03  0.25500000920E-02 0. -1.
</event>
<event>
 5   0  0.1835421E-04  0.1818037E+04  0.7818609E-02  0.8696766E-01
        1   -1    0    0  501    0  0.00000000000E+00  0.00000000000E+00  0.18934499518E+04  0.18934499518E+04  0.50400001928E-02 0. -1.
       -1   -1    0    0    0  501  0.00000000000E+00  0.00000000000E+00 -0.43640706738E+03  0.43640706741E+03  0.50400001928E-02 0.  1.
    10030    2    1    2    0    0  0.00000000000E+00  0.00000000000E+00  0.14570428844E+04  0.23298570192E+04  0.18180373382E+04 0.  0.
        2    1    3    3  502    0 -0.68368461417E+03  0.48852923689E+03  0.28416452570E+03  0.88703717207E+03  0.25500000920E-02 0.  1.
       -2    1    3    3    0  502  0.68368461417E+03 -0.48852923689E+03  0.11728783587E+04  0.14428198471E+04  0.25500000920E-02 0. -1.
</event>
<event>
 5   0  0.3568870E-04  0.1792124E+04  0.7818609E-02  0.8710499E-01
        2   -1    0    0  501    0  0.00000000000E+00  0.00000000000E+00  0.14690397999E+04  0.14690397999E+04  0.25500000920E-02 0.  1.
       -2   -1    0    0    0  501  0.00000000000E+00  0.00000000000E+00 -0.54656597893E+03  0.54656597894E+03  0.25500000920E-02 0. -1.
    10030    2    1    2    0    0  0.00000000000E+00  0.00000000000E+00  0.92247382096E+03  0.20156057788E+04  0.17921240764E+04 0.  0.
        1    1    3    3  502    0 -0.25738398339E+03 -0.48698023643E+03  0.12561482715E+04  0.13716066293E+04  0.50400001928E-02 0.  1.
       -1    1    3    3    0  502  0.25738398339E+03  0.48698023643E+03 -0.33367445055E+03  0.64399914950E+03  0.50400001928E-02 0. -1.
</event>
<event>
 5   0  0.3582186E-04  0.1750181E+04  0.7818609E-02  0.8733251E-01
        2   -1    0    0  501    0  0.00000000000E+00  0.00000000000E+00  0.14467988074E+04  0.14467988074E+04  0.25500000920E-02 0.  1.
       -2   -1    0    0    0  501  0.00000000000E+00  0.00000000000E+00 -0.52929496656E+03  0.52929496657E+03  0.25500000920E-02 0. -1.
    10030    2    1    2    0    0  0.00000000000E+00  0.00000000000E+00  0.91750384079E+03  0.19760937739E+04  0.17501809351E+04 0.  0.
        4    1    3    3  502    0  0.60629305042E+03  0.34838873967E+02  0.11701408647E+04  0.13183460344E+04  0.12699999809E+01 0.  1.
       -4    1    3    3    0  502 -0.60629305042E+03 -0.34838873967E+02 -0.25263702394E+03  0.65774773956E+03  0.12699999809E+01 0. -1.
</event>
<event>
 5   0  0.1818778E-04  0.1794754E+04  0.7818609E-02  0.8709094E-01
        1   -1    0    0  501    0  0.00000000000E+00  0.00000000000E+00  0.85998085288E+03  0.85998085289E+03  0.50400001928E-02 0. -1.
       -1   -1    0    0    0  501  0.00000000000E+00  0.00000000000E+00 -0.93639968299E+03  0.93639968300E+03  0.50400001928E-02 0.  1.
    10030    2    1    2    0    0  0.00000000000E+00  0.00000000000E+00 -0.76418830109E+02  0.17963805359E+04  0.17947543543E+04 0.  0.
        3    1    3    3  502    0  0.42825776729E+03  0.10281165271E+03 -0.82078153644E+03  0.93148123542E+03  0.10100000352E+00 0.  1.
       -3    1    3    3    0  502 -0.42825776729E+03 -0.10281165271E+03  0.74436270633E+03  0.86489930047E+03  0.10100000352E+00 0. -1.
</event>
<event>
 5   0  0.3531266E-04  0.1789009E+04  0.7818609E-02  0.8712166E-01
        2   -1    0    0  501    0  0.00000000000E+00  0.00000000000E+00  0.76614960828E+03  0.76614960828E+03  0.25500000920E-02 0.  1.
       -2   -1    0    0    0  501  0.00000000000E+00  0.00000000000E+00 -0.10443628572E+04  0.10443628572E+04  0.25500000920E-02 0. -1.
    10030    2    1    2    0    0  0.00000000000E+00  0.00000000000E+00 -0.27821324890E+03  0.18105124655E+04  0.17890088808E+04 0.  0.
        3    1    3    3  502    0  0.25912794757E+03 -0.48794923109E+03  0.57283795377E+03  0.79585493453E+03  0.10100000352E+00 0.  1.
       -3    1    3    3    0  502 -0.25912794757E+03  0.48794923109E+03 -0.85105120267E+03  0.10146575309E+04  0.10100000352E+00 0. -1.
</event>
<event>
 5   0  0.1818778E-04  0.1823532E+04  0.7818609E-02  0.8693885E-01
       -1   -1    0    0    0  501  0.00000000000E+00  0.00000000000E+00  0.13959280631E+04  0.13959280632E+04  0.50400001928E-02 0. -1.
        1   -1    0    0  501    0  0.00000000000E+00  0.00000000000E+00 -0.59553002393E+03  0.59553002395E+03  0.50400001928E-02 0.  1.
    10030    2    1    2    0    0  0.00000000000E+00  0.00000000000E+00  0.80039803922E+03  0.19914580871E+04  0.18235318181E+04 0.  0.
        3    1    3    3  502    0  0.60948030566E+03  0.25582109976E+02 -0.33984414332E+03  0.69829416387E+03  0.10100000352E+00 0.  1.
       -3    1    3    3    0  502 -0.60948030566E+03 -0.25582109976E+02  0.11402421825E+04  0.12931639232E+04  0.10100000352E+00 0. -1.
</event>
<event>
 5   0  0.1835421E-04  0.1415918E+04  0.7818609E-02  0.8942376E-01
        1   -1    0    0  501    0  0.00000000000E+00  0.00000000000E+00  0.80255210842E+03  0.80255210843E+03  0.50400001928E-02 0. -1.
       -1   -1    0    0    0  501  0.00000000000E+00  0.00000000000E+00 -0.62451512670E+03  0.62451512672E+03  0.50400001928E-02 0.  1.
    10030    2    1    2    0    0  0.00000000000E+00  0.00000000000E+00  0.17803698172E+03  0.14270672352E+04  0.14159179802E+04 0.  0.
        2    1    3    3  502    0 -0.25767361881E+03  0.31361941061E+03  0.67363167782E+03  0.78646835023E+03  0.25500000920E-02 0. -1.
       -2    1    3    3    0  502  0.25767361881E+03 -0.31361941061E+03 -0.49559469611E+03  0.64059888492E+03  0.25500000920E-02 0.  1.
</event>
<event>
 5   0  0.3628581E-04  0.1803967E+04  0.7818609E-02  0.8704193E-01
       -2   -1    0    0    0  501  0.00000000000E+00  0.00000000000E+00  0.39981065498E+03  0.39981065499E+03  0.25500000920E-02 0.  1.
        2   -1    0    0  501    0  0.00000000000E+00  0.00000000000E+00 -0.20348979207E+04  0.20348979207E+04  0.25500000920E-02 0. -1.
    10030    2    1    2    0    0  0.00000000000E+00  0.00000000000E+00 -0.16350872658E+04  0.24347085757E+04  0.18039665967E+04 0.  0.
        2    1    3    3  502    0  0.23306765174E+03 -0.86627388132E+03 -0.94431589505E+03  0.13024912581E+04  0.25500000920E-02 0. -1.
       -2    1    3    3    0  502 -0.23306765174E+03  0.86627388132E+03 -0.69077137071E+03  0.11322173176E+04  0.25500000920E-02 0.  1.
</event>
<event>
 5   0  0.1883959E-04  0.1717879E+04  0.7818609E-02  0.8751233E-01
        1   -1    0    0  501    0  0.00000000000E+00  0.00000000000E+00  0.20172591927E+04  0.20172591927E+04  0.50400001928E-02 0. -1.
       -1   -1    0    0    0  501  0.00000000000E+00  0.00000000000E+00 -0.36573228938E+03  0.36573228941E+03  0.50400001928E-02 0.  1.
    10030    2    1    2    0    0  0.00000000000E+00  0.00000000000E+00  0.16515269034E+04  0.23829914822E+04  0.17178787185E+04 0.  0.
        5    1    3    3  502    0 -0.23620700884E+03  0.31654805925E+03 -0.23227460089E+03  0.45822484116E+03  0.46999998093E+01 0.  1.
       -5    1    3    3    0  502  0.23620700884E+03 -0.31654805925E+03  0.18838015043E+04  0.19247666410E+04  0.46999998093E+01 0. -1.
</event>
<event>
 5   0  0.1837313E-04  0.1797362E+04  0.7818609E-02  0.8707704E-01
       -1   -1    0    0    0  501  0.00000000000E+00  0.00000000000E+00  0.11994858575E+04  0.11994858575E+04  0.50400001928E-02 0.  1.
        1   -1    0    0  501    0  0.00000000000E+00  0.00000000000E+00 -0.67331142926E+03  0.67331142928E+03  0.50400001928E-02 0. -1.
    10030    2    1    2    0    0  0.00000000000E+00  0.00000000000E+00  0.52617442827E+03  0.18727972868E+04  0.17973619971E+04 0.  0.
        1    1    3    3  502    0 -0.84214903203E+03  0.31369532765E+03  0.26599473492E+03  0.93721553005E+03  0.50400001928E-02 0.  1.
       -1    1    3    3    0  502  0.84214903203E+03 -0.31369532765E+03  0.26017969336E+03  0.93558175677E+03  0.50400001928E-02 0. -1.
</event>
<event>
 5   0  0.3582186E-04  0.1805011E+04  0.7818609E-02  0.8703639E-01
       -2   -1    0    0    0  501  0.00000000000E+00  0.00000000000E+00  0.11172848223E+04  0.11172848223E+04  0.25500000920E-02 0.  1.
        2   -1    0    0  501    0  0.00000000000E+00  0.00000000000E+00 -0.72901389664E+03  0.72901389665E+03  0.25500000920E-02 0. -1.
    10030    2    1    2    0    0  0.00000000000E+00  0.00000000000E+00  0.38827092565E+03  0.18462987189E+04  0.18050109828E+04 0.  0.
        4    1    3    3  502    0 -0.17891026180E+03  0.80603280365E+03 -0.17864110386E+03  0.84475559733E+03  0.12699999809E+01 0. -1.
       -4    1    3    3    0  502  0.17891026180E+03 -0.80603280365E+03  0.56691202951E+03  0.10015431216E+04  0.12699999809E+01 0.  1.
</event>
<event>
 5   0  0.1837313E-04  0.1989497E+04  0.7818609E-02  0.8611547E-01
       -1   -1    0    0    0  501  0.00000000000E+00  0.00000000000E+00  0.92001877029E+03  0.92001877031E+03  0.50400001928E-02 0.  1.
        1   -1    0    0  501    0  0.00000000000E+00  0.00000000000E+00 -0.10755485760E+04  0.10755485760E+04  0.50400001928E-02 0. -1.
    10030    2    1    2    0    0  0.00000000000E+00  0.00000000000E+00 -0.15552980568E+03  0.19955673463E+04  0.19894973016E+04 0.  0.
        1    1    3    3  502    0 -0.57736325649E+03  0.12224250486E+03  0.72544873635E+03  0.93518309920E+03  0.50400001928E-02 0.  1.
       -1    1    3    3    0  502  0.57736325649E+03 -0.12224250486E+03 -0.88097854202E+03  0.10603842471E+04  0.50400001928E-02 0. -1.
</event>
<event>
 5   0  0.3582186E-04  0.2223774E+04  0.7818609E-02  0.8508597E-01
       -2   -1    0    0    0  501  0.00000000000E+00  0.00000000000E+00  0.90467582754E+03  0.90467582754E+03  0.25500000920E-02 0. -1.
        2   -1    0    0  501    0  0.00000000000E+00  0.00000000000E+00 -0.13665589308E+04  0.13665589308E+04  0.25500000920E-02 0.  1.
    10030    2    1    2    0    0  0.00000000000E+00  0.00000000000E+00 -0.46188310323E+03  0.22712347583E+04  0.22237741176E+04 0.  0.
        4    1    3    3  502    0  0.11034072682E+04  0.93910541877E+02 -0.12898912459E+03  0.11148841180E+04  0.12699999809E+01 0. -1.
       -4    1    3    3    0  502 -0.11034072682E+04 -0.93910541877E+02 -0.33289397864E+03  0.11563506403E+04  0.12699999809E+01 0.  1.
</event>
<event>
 5   0  0.3575091E-04  0.1767690E+04  0.7818609E-02  0.8723673E-01
        2   -1    0    0  501    0  0.00000000000E+00  0.00000000000E+00  0.89287956794E+03  0.89287956795E+03  0.25500000920E-02 0. -1.
       -2   -1    0    0    0  501  0.00000000000E+00  0.00000000000E+00 -0.87490146282E+03  0.87490146283E+03  0.25500000920E-02 0.  1.
    10030    2    1    2    0    0  0.00000000000E+00  0.00000000000E+00  0.17978105118E+02  0.17677810308E+04  0.17676896109E+04 0.  0.
        5    1    3    3  502    0 -0.53993105058E+02 -0.12230118610E+03 -0.86471894596E+03  0.87500501771E+03  0.46999998093E+01 0.  1.
       -5    1    3    3    0  502  0.53993105058E+02  0.12230118610E+03  0.88269705108E+03  0.89277601306E+03  0.46999998093E+01 0. -1.
</event>
<event>
 5   0  0.1825253E-04  0.1798634E+04  0.7818609E-02  0.8707026E-01
       -1   -1    0    0    0  501  0.00000000000E+00  0.00000000000E+00  0.89094912344E+03  0.89094912345E+03  0.50400001928E-02 0.  1.
        1   -1    0    0  501    0  0.00000000000E+00  0.00000000000E+00 -0.90776396718E+03  0.90776396719E+03  0.50400001928E-02 0. -1.
    10030    2    1    2    0    0  0.00000000000E+00  0.00000000000E+00 -0.16814843741E+02  0.17987130906E+04  0.17986344941E+04 0.  0.
        4    1    3    3  502    0 -0.11305453518E+02 -0.78827087061E+03 -0.44117466450E+03  0.90340216750E+03  0.12699999809E+01 0. -1.
       -4    1    3    3    0  502  0.11305453518E+02  0.78827087061E+03  0.42435982076E+03  0.89531092315E+03  0.12699999809E+01 0.  1.
</event>
<event>
 5   0  0.3575091E-04  0.1797434E+04  0.7818609E-02  0.8707665E-01
       -2   -1    0    0    0  501  0.00000000000E+00  0.00000000000E+00  0.11034144788E+04  0.11034144788E+04  0.25500000920E-02 0.  1.
        2   -1    0    0  501    0  0.00000000000E+00  0.00000000000E+00 -0.73199340823E+03  0.73199340824E+03  0.25500000920E-02 0. -1.
    10030    2    1    2    0    0  0.00000000000E+00  0.00000000000E+00  0.37142107055E+03  0.18354078870E+04  0.17974338653E+04 0.  0.
        5    1    3    3  502    0 -0.35984507692E+03 -0.78293656579E+03  0.44643180250E+03  0.97046462569E+03  0.46999998093E+01 0.  1.
       -5    1    3    3    0  502  0.35984507692E+03  0.78293656579E+03 -0.75010731947E+02  0.86494326134E+03  0.46999998093E+01 0. -1.
</event>
<event>
 5   0  0.1330125E-04  0.1805215E+04  0.7818609E-02  0.8703531E-01
        4   -1    0    0  501    0  0.00000000000E+00  0.00000000000E+00  0.69888033838E+03  0.69888149230E+03  0.12699999809E+01 0. -1.
       -4   -1    0    0    0  501  0.00000000000E+00  0.00000000000E+00 -0.11657198747E+04  0.11657205665E+04  0.12699999809E+01 0.  1.
    10030    2    1    2    0    0  0.00000000000E+00  0.00000000000E+00 -0.46683953632E+03  0.18646020588E+04  0.18052151354E+04 0.  0.
        1    1    3    3  502    0 -0.45967523202E+03  0.60025847583E+03  0.27584041957E+03  0.80479779686E+03  0.50400001928E-02 0. -1.
       -1    1    3    3    0  502  0.45967523202E+03 -0.60025847583E+03 -0.74267995589E+03  0.10598042619E+04  0.50400001928E-02 0.  1.
</event>
<event>
 5   0  0.3628581E-04  0.1741527E+04  0.7818609E-02  0.8738028E-01
        2   -1    0    0  501    0  0.00000000000E+00  0.00000000000E+00  0.74505232542E+03  0.74505232542E+03  0.25500000920E-02 0. -1.
       -2   -1    0    0    0  501  0.00000000000E+00  0.00000000000E+00 -0.10176851988E+04  0.10176851988E+04  0.25500000920E-02 0.  1.
    10030    2    1    2    0    0  0.00000000000E+00  0.00000000000E+00 -0.27263287339E+03  0.17627375242E+04  0.17415265992E+04 0.  0.
        2    1    3    3  502    0 -0.63575254045E+03  0.36063844587E+03  0.34272080306E+03  0.80727871902E+03  0.25500000920E-02 0. -1.
       -2    1    3    3    0  502  0.63575254045E+03 -0.36063844587E+03 -0.61535367645E+03  0.95545880521E+03  0.25500000920E-02 0.  1.
</event>
<event>
 5   0  0.1818778E-04  0.1819052E+04  0.7818609E-02  0.8696233E-01
        1   -1    0    0  501    0  0.00000000000E+00  0.00000000000E+00  0.19010746896E+04  0.19010746896E+04  0.50400001928E-02 0.  1.
       -1   -1    0    0    0  501  0.00000000000E+00  0.00000000000E+00 -0.43514214970E+03  0.43514214972E+03  0.50400001928E-02 0. -1.
    10030    2    1    2    0    0  0.00000000000E+00  0.00000000000E+00  0.14659325399E+04  0.23362168394E+04  0.18190522007E+04 0.  0.
        3    1    3    3  502    0 -0.13152456621E+03  0.89996309832E+03  0.73595821890E+03  0.11699858119E+04  0.10100000352E+00 0. -1.
       -3    1    3    3    0  502  0.13152456621E+03 -0.89996309832E+03  0.72997432103E+03  0.11662310275E+04  0.10100000352E+00 0.  1.
</event>
</LesHouchesEvents>
