<LesHouchesEvents version="3.0">
<header>
<!--
#*********************************************************************
#                                                                    *
#                        MadGraph5_aMC@NLO                           *
#                                                                    *
#                           Going Beyond                             *
#                                                                    *
#                   http://madgraph.hep.uiuc.edu                     *
#                   http://madgraph.phys.ucl.ac.be                   *
#                   http://amcatnlo.cern.ch                          *
#                                                                    *
#                     The MadGraph5_aMC@NLO team                     *
#                                                                    *
#....................................................................*
#                                                                    *
# This file contains all the information necessary to reproduce      *
# the events generated:                                              *
#                                                                    *
# 1. software version                                                *
# 2. proc_card          : code generation info including model       *
# 3. param_card         : model primary parameters in the LH format  *
# 4. run_card           : running parameters (collider and cuts)     *
# 5. pythia_card        : present only if pythia has been run        *
# 6. pgs_card           : present only if pgs has been run           *
# 7. delphes_cards      : present only if delphes has been run       *
#                                                                    *
#                                                                    *
#*********************************************************************
-->
<MGVersion>
#5.2.2.3
</MGVersion>
<MG5ProcCard>
#************************************************************
#*                     MadGraph5_aMC@NLO                    *
#*                                                          *
#*                *                       *                 *
#*                  *        * *        *                   *
#*                    * * * * 5 * * * *                     *
#*                  *        * *        *                   *
#*                *                       *                 *
#*                                                          *
#*                                                          *
#*         VERSION 2.2.3                 2015-02-10         *
#*                                                          *
#*    The MadGraph5_aMC@NLO Development Team - Find us at   *
#*    https://server06.fynu.ucl.ac.be/projects/madgraph     *
#*                                                          *
#************************************************************
#*                                                          *
#*               Command File for MadGraph5_aMC@NLO         *
#*                                                          *
#*     run as ./bin/mg5_aMC  filename                       *
#*                                                          *
#************************************************************
set group_subprocesses Auto
set ignore_six_quark_processes False
set loop_optimized_output True
set gauge unitary
set complex_mass_scheme False
import model sm
define p = g u c d s u~ c~ d~ s~
define j = g u c d s u~ c~ d~ s~
define l+ = e+ mu+
define l- = e- mu-
define vl = ve vm vt
define vl~ = ve~ vm~ vt~
import model Zprime_UFO
generate p p > zph, zph > j j
add process p p > zph, zph > b b~
output Dijet_signal
</MG5ProcCard>
<MGProcCard>
#*********************************************************************
#                        MadGraph/MadEvent                           *
#                   http://madgraph.hep.uiuc.edu                     *
#                                                                    *
#                          proc_card.dat                             *
#*********************************************************************
#                                                                    *
#            This Files is generated by MADGRAPH 5                   *
#                                                                    *
# WARNING: This Files is generated for MADEVENT (compatibility issue)*
#          This files is NOT a valid MG4 proc_card.dat               *
#          Running this in MG4 will NEVER reproduce the result of MG5*
#                                                                    *
#*********************************************************************
#*********************************************************************
# Process(es) requested : mg2 input                                  *
#*********************************************************************
# Begin PROCESS # This is TAG. Do not modify this line
p p > zph , zph > j j           #Process
# Be carefull the coupling are here in MG5 convention
          
end_coup           # End the couplings input

done               # this tells MG there are no more procs
# End PROCESS  # This is TAG. Do not modify this line
#*********************************************************************
# Model information                                                  *
#*********************************************************************
# Begin MODEL  # This is TAG. Do not modify this line
Zprime_UFO
# End   MODEL  # This is TAG. Do not modify this line
#*********************************************************************
# Start multiparticle definitions                                    *
#*********************************************************************
# Begin MULTIPARTICLES # This is TAG. Do not modify this line

# End  MULTIPARTICLES # This is TAG. Do not modify this line
</MGProcCard>
<MGRunCard>
#*********************************************************************
#                       MadGraph5_aMC@NLO                            *
#                                                                    *
#                     run_card.dat MadEvent                          *
#                                                                    *
#  This file is used to set the parameters of the run.               *
#                                                                    *
#  Some notation/conventions:                                        *
#                                                                    *
#   Lines starting with a '# ' are info or comments                  *
#                                                                    *
#   mind the format:   value    = variable     ! comment             *
#*********************************************************************
#
#*******************                                                 
# Running parameters
#*******************                                                 
#                                                                    
#*********************************************************************
# Tag name for the run (one word)                                    *
#*********************************************************************
  tag_1     = run_tag ! name of the run 
#*********************************************************************
# Run to generate the grid pack                                      *
#*********************************************************************
  .false.     = gridpack  !True = setting up the grid pack
#*********************************************************************
# Number of events and rnd seed                                      *
# Warning: Do not generate more than 1M events in a single run       *
# If you want to run Pythia, avoid more than 50k events in a run.    *
#*********************************************************************
  2000 = nevents ! Number of unweighted events requested 
 2622 = iseed   ! rnd seed (0=assigned automatically=default))
#*********************************************************************
# Collider type and energy                                           *
# lpp: 0=No PDF, 1=proton, -1=antiproton, 2=photon from proton,      *
#                                         3=photon from electron     *
#*********************************************************************
        1     = lpp1    ! beam 1 type 
        1     = lpp2    ! beam 2 type
     4000     = ebeam1  ! beam 1 total energy in GeV
     4000     = ebeam2  ! beam 2 total energy in GeV
#*********************************************************************
# Beam polarization from -100 (left-handed) to 100 (right-handed)    *
#*********************************************************************
        0     = polbeam1 ! beam polarization for beam 1
        0     = polbeam2 ! beam polarization for beam 2
#*********************************************************************
# PDF CHOICE: this automatically fixes also alpha_s and its evol.    *
#*********************************************************************
 'nn23lo1'    = pdlabel     ! PDF set                                     
 230000    = lhaid     ! if pdlabel=lhapdf, this is the lhapdf number
#*********************************************************************
# Renormalization and factorization scales                           *
#*********************************************************************
 F        = fixed_ren_scale  ! if .true. use fixed ren scale
 F        = fixed_fac_scale  ! if .true. use fixed fac scale
 91.1880  = scale            ! fixed ren scale
 91.1880  = dsqrt_q2fact1    ! fixed fact scale for pdf1
 91.1880  = dsqrt_q2fact2    ! fixed fact scale for pdf2
 1        = scalefact        ! scale factor for event-by-event scales
#*********************************************************************
# Matching - Warning! ickkw > 1 is still beta
#*********************************************************************
 0        = ickkw            ! 0 no matching, 1 MLM, 2 CKKW matching
 1        = highestmult      ! for ickkw=2, highest mult group
 1        = ktscheme         ! for ickkw=1, 1 Durham kT, 2 Pythia pTE
 1        = alpsfact         ! scale factor for QCD emission vx
 F        = chcluster        ! cluster only according to channel diag
 T        = pdfwgt           ! for ickkw=1, perform pdf reweighting
 5        = asrwgtflavor     ! highest quark flavor for a_s reweight
 T        = clusinfo         ! include clustering tag in output
 3.0      = lhe_version       ! Change the way clustering information pass to shower.        
#*********************************************************************
#**********************************************************
#
#**********************************************************
# Automatic ptj and mjj cuts if xqcut > 0
# (turn off for VBF and single top processes)
#**********************************************************
   T  = auto_ptj_mjj  ! Automatic setting of ptj and mjj
#**********************************************************
#                                                                    
#**********************************
# BW cutoff (M+/-bwcutoff*Gamma)
#**********************************
  15  = bwcutoff      ! (M+/-bwcutoff*Gamma)
#**********************************************************
# Apply pt/E/eta/dr/mij cuts on decay products or not
# (note that etmiss/ptll/ptheavy/ht/sorted cuts always apply)
#**********************************************************
   T  = cut_decays    ! Cut decay products 
#*************************************************************
# Number of helicities to sum per event (0 = all helicities)
# 0 gives more stable result, but longer run time (needed for
# long decay chains e.g.).
# Use >=2 if most helicities contribute, e.g. pure QCD.
#*************************************************************
   0  = nhel          ! Number of helicities used per event
#*******************                                                 
# Standard Cuts
#*******************                                                 
#                                                                    
#*********************************************************************
# Minimum and maximum pt's (for max, -1 means no cut)                *
#*********************************************************************
 20  = ptj       ! minimum pt for the jets 
  0  = ptb       ! minimum pt for the b 
 10  = pta       ! minimum pt for the photons 
 10  = ptl       ! minimum pt for the charged leptons 
  0  = misset    ! minimum missing Et (sum of neutrino's momenta)
  0  = ptheavy   ! minimum pt for one heavy final state
 1.0 = ptonium   ! minimum pt for the quarkonium states
 -1  = ptjmax    ! maximum pt for the jets
 -1  = ptbmax    ! maximum pt for the b
 -1  = ptamax    ! maximum pt for the photons
 -1  = ptlmax    ! maximum pt for the charged leptons
 -1  = missetmax ! maximum missing Et (sum of neutrino's momenta)
#*********************************************************************
# Minimum and maximum E's (in the center of mass frame)              *
#*********************************************************************
  0  = ej     ! minimum E for the jets 
  0  = eb     ! minimum E for the b 
  0  = ea     ! minimum E for the photons 
  0  = el     ! minimum E for the charged leptons 
 -1   = ejmax ! maximum E for the jets
 -1   = ebmax ! maximum E for the b
 -1   = eamax ! maximum E for the photons
 -1   = elmax ! maximum E for the charged leptons
#*********************************************************************
# Maximum and minimum absolute rapidity (for max, -1 means no cut)   *
#*********************************************************************
   5  = etaj    ! max rap for the jets 
  -1  = etab    ! max rap for the b
 2.5  = etaa    ! max rap for the photons 
 2.5  = etal    ! max rap for the charged leptons 
 0.6  = etaonium ! max rap for the quarkonium states
   0  = etajmin ! min rap for the jets
   0  = etabmin ! min rap for the b
   0  = etaamin ! min rap for the photons
   0  = etalmin ! main rap for the charged leptons
#*********************************************************************
# Minimum and maximum DeltaR distance                                *
#*********************************************************************
 0.4 = drjj    ! min distance between jets 
 0   = drbb    ! min distance between b's 
 0.4 = drll    ! min distance between leptons 
 0.4 = draa    ! min distance between gammas 
 0   = drbj    ! min distance between b and jet 
 0.4 = draj    ! min distance between gamma and jet 
 0.4 = drjl    ! min distance between jet and lepton 
 0   = drab    ! min distance between gamma and b 
 0   = drbl    ! min distance between b and lepton 
 0.4 = dral    ! min distance between gamma and lepton 
 -1  = drjjmax ! max distance between jets
 -1  = drbbmax ! max distance between b's
 -1  = drllmax ! max distance between leptons
 -1  = draamax ! max distance between gammas
 -1  = drbjmax ! max distance between b and jet
 -1  = drajmax ! max distance between gamma and jet
 -1  = drjlmax ! max distance between jet and lepton
 -1  = drabmax ! max distance between gamma and b
 -1  = drblmax ! max distance between b and lepton
 -1  = dralmax ! maxdistance between gamma and lepton
#*********************************************************************
# Minimum and maximum invariant mass for pairs                       *
# WARNING: for four lepton final state mmll cut require to have      *
#          different lepton masses for each flavor!                  *           
#*********************************************************************
 0   = mmjj    ! min invariant mass of a jet pair 
 0   = mmbb    ! min invariant mass of a b pair 
 0   = mmaa    ! min invariant mass of gamma gamma pair
 0   = mmll    ! min invariant mass of l+l- (same flavour) lepton pair
 -1  = mmjjmax ! max invariant mass of a jet pair
 -1  = mmbbmax ! max invariant mass of a b pair
 -1  = mmaamax ! max invariant mass of gamma gamma pair
 -1  = mmllmax ! max invariant mass of l+l- (same flavour) lepton pair
#*********************************************************************
# Minimum and maximum invariant mass for all letpons                 *
#*********************************************************************
 0   = mmnl    ! min invariant mass for all letpons (l+- and vl) 
 -1  = mmnlmax ! max invariant mass for all letpons (l+- and vl) 
#*********************************************************************
# Minimum and maximum pt for 4-momenta sum of leptons                *
#*********************************************************************
 0   = ptllmin  ! Minimum pt for 4-momenta sum of leptons(l and vl)
 -1  = ptllmax  ! Maximum pt for 4-momenta sum of leptons(l and vl)
#*********************************************************************
# Inclusive cuts                                                     *
#*********************************************************************
 0  = xptj ! minimum pt for at least one jet  
 0  = xptb ! minimum pt for at least one b 
 0  = xpta ! minimum pt for at least one photon 
 0  = xptl ! minimum pt for at least one charged lepton 
#*********************************************************************
# Control the pt's of the jets sorted by pt                          *
#*********************************************************************
 0   = ptj1min ! minimum pt for the leading jet in pt
 0   = ptj2min ! minimum pt for the second jet in pt
 0   = ptj3min ! minimum pt for the third jet in pt
 0   = ptj4min ! minimum pt for the fourth jet in pt
 -1  = ptj1max ! maximum pt for the leading jet in pt 
 -1  = ptj2max ! maximum pt for the second jet in pt
 -1  = ptj3max ! maximum pt for the third jet in pt
 -1  = ptj4max ! maximum pt for the fourth jet in pt
 0   = cutuse  ! reject event if fails any (0) / all (1) jet pt cuts
#*********************************************************************
# Control the pt's of leptons sorted by pt                           *
#*********************************************************************
 0   = ptl1min ! minimum pt for the leading lepton in pt
 0   = ptl2min ! minimum pt for the second lepton in pt
 0   = ptl3min ! minimum pt for the third lepton in pt
 0   = ptl4min ! minimum pt for the fourth lepton in pt
 -1  = ptl1max ! maximum pt for the leading lepton in pt 
 -1  = ptl2max ! maximum pt for the second lepton in pt
 -1  = ptl3max ! maximum pt for the third lepton in pt
 -1  = ptl4max ! maximum pt for the fourth lepton in pt
#*********************************************************************
# Control the Ht(k)=Sum of k leading jets                            *
#*********************************************************************
 0   = htjmin ! minimum jet HT=Sum(jet pt)
 -1  = htjmax ! maximum jet HT=Sum(jet pt)
 0   = ihtmin  !inclusive Ht for all partons (including b)
 -1  = ihtmax  !inclusive Ht for all partons (including b)
 0   = ht2min ! minimum Ht for the two leading jets
 0   = ht3min ! minimum Ht for the three leading jets
 0   = ht4min ! minimum Ht for the four leading jets
 -1  = ht2max ! maximum Ht for the two leading jets
 -1  = ht3max ! maximum Ht for the three leading jets
 -1  = ht4max ! maximum Ht for the four leading jets
#***********************************************************************
# Photon-isolation cuts, according to hep-ph/9801442                   *
# When ptgmin=0, all the other parameters are ignored                  *
# When ptgmin>0, pta and draj are not going to be used                 *
#***********************************************************************
   0 = ptgmin ! Min photon transverse momentum
 0.4 = R0gamma ! Radius of isolation code
 1.0 = xn ! n parameter of eq.(3.4) in hep-ph/9801442
 1.0 = epsgamma ! epsilon_gamma parameter of eq.(3.4) in hep-ph/9801442
 .true. = isoEM ! isolate photons from EM energy (photons and leptons)
#*********************************************************************
# WBF cuts                                                           *
#*********************************************************************
 0   = xetamin ! minimum rapidity for two jets in the WBF case  
 0   = deltaeta ! minimum rapidity for two jets in the WBF case 
#*********************************************************************
# KT DURHAM CUT                                                      *
#*********************************************************************
 -1    =  ktdurham        
 0.4  =  dparameter 
#*********************************************************************
# maximal pdg code for quark to be considered as a light jet         *
# (otherwise b cuts are applied)                                     *
#*********************************************************************
 4 = maxjetflavor    ! Maximum jet pdg code
#*********************************************************************
# Jet measure cuts                                                   *
#*********************************************************************
 0   = xqcut   ! minimum kt jet measure between partons
#*********************************************************************
#
#*********************************************************************
# Store info for systematics studies                                 *
# WARNING: If use_syst is T, matched Pythia output is                *
#          meaningful ONLY if plotted taking matchscale              *
#          reweighting into account!                                 *
#*********************************************************************
   F  = use_syst      ! Enable systematics studies
#
#**************************************
# Parameter of the systematics study
#  will be used by SysCalc (if installed)
#**************************************                                  
#
0.5 1 2 = sys_scalefact  # factorization/renormalization scale factor
0.5 1 2 = sys_alpsfact  # \alpha_s emission scale factors
30 50 = sys_matchscale # variation of merging scale
# PDF sets and number of members (0 or none for all members).
CT10nlo.LHgrid = sys_pdf # matching scales
# MSTW2008nlo68cl.LHgrid 1  = sys_pdf
</MGRunCard>
<slha>
######################################################################
## PARAM_CARD AUTOMATICALY GENERATED BY MG5 FOLLOWING UFO MODEL   ####
######################################################################
##                                                                  ##
##  Width set on Auto will be computed following the information    ##
##        present in the decay.py files of the model.               ##
##        See  arXiv:1402.1178 for more details.                    ##
##                                                                  ##
######################################################################

###################################
## INFORMATION FOR CKMBLOCK
###################################
Block ckmblock 
    1 2.277360e-01 # cabi 

###################################
## INFORMATION FOR FRBLOCK
###################################
Block frblock 
    1 1.400000e+00 # gz 

###################################
## INFORMATION FOR MASS
###################################
Block mass 
    1 5.040000e-03 # MD 
    2 2.550000e-03 # MU 
    3 1.010000e-01 # MS 
    4 1.270000e+00 # MC 
    5 4.700000e+00 # MB 
    6 1.720000e+02 # MT 
   11 5.110000e-04 # Me 
   13 1.056600e-01 # MM 
   15 1.777000e+00 # MTA 
   23 9.118760e+01 # MZ 
   25 1.200000e+02 # MH 
  10030 2.500000e+03 # MZph 
  10031 3.000000e+02 # MZpl 
## Dependent parameters, given by model restrictions.
## Those values should be edited following the 
## analytical expression. MG5 ignores those values 
## but they are important for interfacing the output of MG5
## to external program such as Pythia.
  12 0.000000 # ve : 0.0 
  14 0.000000 # vm : 0.0 
  16 0.000000 # vt : 0.0 
  21 0.000000 # g : 0.0 
  22 0.000000 # a : 0.0 
  24 79.824360 # w+ : cmath.sqrt(MZ__exp__2/2. + cmath.sqrt(MZ__exp__4/4. - (aEW*cmath.pi*MZ__exp__2)/(Gf*sqrt__2))) 

###################################
## INFORMATION FOR SMINPUTS
###################################
Block sminputs 
    1 1.279000e+02 # aEWM1 
    2 1.166370e-05 # Gf 
    3 1.184000e-01 # aS 

###################################
## INFORMATION FOR YUKAWA
###################################
Block yukawa 
    1 5.040000e-03 # ymdo 
    2 2.550000e-03 # ymup 
    3 1.010000e-01 # yms 
    4 1.270000e+00 # ymc 
    5 4.700000e+00 # ymb 
    6 1.720000e+02 # ymt 
   11 5.110000e-04 # yme 
   13 1.056600e-01 # ymm 
   15 1.777000e+00 # ymtau 

###################################
## INFORMATION FOR DECAY
###################################
DECAY   6 1.508336e+00 # WT 
DECAY  23 2.495200e+00 # WZ 
DECAY  24 2.085000e+00 # WW 
DECAY  25 5.753088e-03 # WH 
## Dependent parameters, given by model restrictions.
## Those values should be edited following the 
## analytical expression. MG5 ignores those values 
## but they are important for interfacing the output of MG5
## to external program such as Pythia.
DECAY  1 0.000000 # d : 0.0 
DECAY  2 0.000000 # u : 0.0 
DECAY  3 0.000000 # s : 0.0 
DECAY  4 0.000000 # c : 0.0 
DECAY  5 0.000000 # b : 0.0 
DECAY  11 0.000000 # e- : 0.0 
DECAY  12 0.000000 # ve : 0.0 
DECAY  13 0.000000 # mu- : 0.0 
DECAY  14 0.000000 # vm : 0.0 
DECAY  15 0.000000 # ta- : 0.0 
DECAY  16 0.000000 # vt : 0.0 
DECAY  21 0.000000 # g : 0.0 
DECAY  22 0.000000 # a : 0.0 
DECAY  10030 0.308725 # zph : (gz__exp__2*MZph*(5 + cmath.sqrt(1 - (4*MT__exp__2)/MZph__exp__2)))/(144.*cmath.pi) 
DECAY  10031 0.132629 # zpl : (5*gz__exp__2*MZpl)/(144.*cmath.pi) 
#===========================================================
# QUANTUM NUMBERS OF NEW STATE(S) (NON SM PDG CODE)
#===========================================================

Block QNUMBERS 10030  # zph 
        1 0  # 3 times electric charge
        2 3  # number of spin states (2S+1)
        3 1  # colour rep (1: singlet, 3: triplet, 8: octet)
        4 0  # Particle/Antiparticle distinction (0=own anti)
Block QNUMBERS 10031  # zpl 
        1 0  # 3 times electric charge
        2 3  # number of spin states (2S+1)
        3 1  # colour rep (1: singlet, 3: triplet, 8: octet)
        4 0  # Particle/Antiparticle distinction (0=own anti)
</slha>
## END BANNER##
<MGGenerationInfo>
#  Number of Events        :         3906
#  Integrated weight (pb)  :  0.13537E-01
#  Max wgt                 :  0.52195E-05
#  Average wgt             :  0.34657E-05
</MGGenerationInfo>
</header>
<init>
     2212     2212  0.40000000000E+04  0.40000000000E+04 0 0  247000  247000 2   1
  0.13553703568E-01  0.30231256965E-04  0.52194680000E-05   0
</init>
<event>
 5   0  0.5219468E-05  0.1962907E+04  0.7818609E-02  0.8624162E-01
        2   -1    0    0  501    0  0.00000000000E+00  0.00000000000E+00  0.14188550654E+04  0.14188550654E+04  0.25500000920E-02 0. -1.
       -2   -1    0    0    0  501  0.00000000000E+00  0.00000000000E+00 -0.67889304138E+03  0.67889304139E+03  0.25500000920E-02 0.  1.
    10030    2    1    2    0    0  0.00000000000E+00  0.00000000000E+00  0.73996202399E+03  0.20977481068E+04  0.19629068553E+04 0.  0.
        1    1    3    3  502    0  0.76947908956E+03 -0.60867100587E+03  0.39769232731E+03  0.10586489739E+04  0.50400001928E-02 0.  1.
       -1    1    3    3    0  502 -0.76947908956E+03  0.60867100587E+03  0.34226969668E+03  0.10390991329E+04  0.50400001928E-02 0. -1.
</event>
<event>
 5   0  0.5219468E-05  0.2611524E+04  0.7818609E-02  0.8364297E-01
       -2   -1    0    0    0  501  0.00000000000E+00  0.00000000000E+00  0.14457960737E+04  0.14457960737E+04  0.25500000920E-02 0. -1.
        2   -1    0    0  501    0  0.00000000000E+00  0.00000000000E+00 -0.11792909442E+04  0.11792909442E+04  0.25500000920E-02 0.  1.
    10030    2    1    2    0    0  0.00000000000E+00  0.00000000000E+00  0.26650512954E+03  0.26250870179E+04  0.26115238593E+04 0.  0.
        1    1    3    3  502    0 -0.93928642447E+03  0.44800443785E+03  0.92604846324E+03  0.13930300499E+04  0.50400001928E-02 0. -1.
       -1    1    3    3    0  502  0.93928642447E+03 -0.44800443785E+03 -0.65954333370E+03  0.12320569681E+04  0.50400001928E-02 0.  1.
</event>
<event>
 5   0  0.4959347E-05  0.2491180E+04  0.7818609E-02  0.8406134E-01
        2   -1    0    0  501    0  0.00000000000E+00  0.00000000000E+00  0.11591101331E+04  0.11591101331E+04  0.25500000920E-02 0.  1.
       -2   -1    0    0    0  501  0.00000000000E+00  0.00000000000E+00 -0.13385223912E+04  0.13385223912E+04  0.25500000920E-02 0. -1.
    10030    2    1    2    0    0  0.00000000000E+00  0.00000000000E+00 -0.17941225813E+03  0.24976325243E+04  0.24911803364E+04 0.  0.
        3    1    3    3  502    0  0.83635995354E+03  0.43492230997E+03  0.72655206576E+03  0.11901820458E+04  0.10100000352E+00 0.  1.
       -3    1    3    3    0  502 -0.83635995354E+03 -0.43492230997E+03 -0.90596432388E+03  0.13074504786E+04  0.10100000352E+00 0. -1.
</event>
<event>
 5   0  0.5219468E-05  0.2498629E+04  0.7818609E-02  0.8403474E-01
       -2   -1    0    0    0  501  0.00000000000E+00  0.00000000000E+00  0.88415474192E+03  0.88415474192E+03  0.25500000920E-02 0. -1.
        2   -1    0    0  501    0  0.00000000000E+00  0.00000000000E+00 -0.17652861596E+04  0.17652861596E+04  0.25500000920E-02 0.  1.
    10030    2    1    2    0    0  0.00000000000E+00  0.00000000000E+00 -0.88113141765E+03  0.26494409015E+04  0.24986285269E+04 0.  0.
        1    1    3    3  502    0 -0.42420625684E+03  0.10320993727E+04 -0.10362624345E+04  0.15228328525E+04  0.50400001928E-02 0.  1.
       -1    1    3    3    0  502  0.42420625684E+03 -0.10320993727E+04  0.15513101687E+03  0.11266080490E+04  0.50400001928E-02 0. -1.
</event>
<event>
 5   0  0.4959347E-05  0.1785669E+04  0.7818609E-02  0.8713958E-01
       -2   -1    0    0    0  501  0.00000000000E+00  0.00000000000E+00  0.36816444842E+03  0.36816444843E+03  0.25500000920E-02 0.  1.
        2   -1    0    0  501    0  0.00000000000E+00  0.00000000000E+00 -0.21652103132E+04  0.21652103132E+04  0.25500000920E-02 0. -1.
    10030    2    1    2    0    0  0.00000000000E+00  0.00000000000E+00 -0.17970458648E+04  0.25333747617E+04  0.17856690183E+04 0.  0.
        3    1    3    3  502    0  0.32310562632E+03 -0.72582985225E+03 -0.14764290715E+04  0.16766242971E+04  0.10100000352E+00 0. -1.
       -3    1    3    3    0  502 -0.32310562632E+03  0.72582985225E+03 -0.32061679329E+03  0.85675046456E+03  0.10100000352E+00 0.  1.
</event>
<event>
 5   0  0.2081874E-05  0.1580690E+04  0.7818609E-02  0.8832499E-01
        1   -1    0    0  501    0  0.00000000000E+00  0.00000000000E+00  0.66678732927E+03  0.66678732929E+03  0.50400001928E-02 0.  1.
       -1   -1    0    0    0  501  0.00000000000E+00  0.00000000000E+00 -0.93679881344E+03  0.93679881346E+03  0.50400001928E-02 0. -1.
    10030    2    1    2    0    0  0.00000000000E+00  0.00000000000E+00 -0.27001148417E+03  0.16035861427E+04  0.15806904553E+04 0.  0.
        1    1    3    3  502    0 -0.27407919113E+03 -0.82368989782E+02 -0.88238663238E+03  0.92763690230E+03  0.50400001928E-02 0. -1.
       -1    1    3    3    0  502  0.27407919113E+03  0.82368989782E+02  0.61237514821E+03  0.67594924045E+03  0.50400001928E-02 0.  1.
</event>
<event>
 5   0  0.2063930E-05  0.2485329E+04  0.7818609E-02  0.8408231E-01
        1   -1    0    0  501    0  0.00000000000E+00  0.00000000000E+00  0.26791035546E+04  0.26791035546E+04  0.50400001928E-02 0.  1.
       -1   -1    0    0    0  501  0.00000000000E+00  0.00000000000E+00 -0.57639240085E+03  0.57639240087E+03  0.50400001928E-02 0. -1.
    10030    2    1    2    0    0  0.00000000000E+00  0.00000000000E+00  0.21027111537E+04  0.32554959555E+04  0.24853288957E+04 0.  0.
        3    1    3    3  502    0 -0.11884104371E+04  0.28171885728E+03  0.75113728548E+03  0.14338382452E+04  0.10100000352E+00 0. -1.
       -3    1    3    3    0  502  0.11884104371E+04 -0.28171885728E+03  0.13515738683E+04  0.18216577102E+04  0.10100000352E+00 0.  1.
</event>
<event>
 5   0  0.5219468E-05  0.2568834E+04  0.7818609E-02  0.8378865E-01
        2   -1    0    0  501    0  0.00000000000E+00  0.00000000000E+00  0.15314201011E+04  0.15314201011E+04  0.25500000920E-02 0. -1.
       -2   -1    0    0    0  501  0.00000000000E+00  0.00000000000E+00 -0.10772533828E+04  0.10772533828E+04  0.25500000920E-02 0.  1.
    10030    2    1    2    0    0  0.00000000000E+00  0.00000000000E+00  0.45416671828E+03  0.26086734839E+04  0.25688343538E+04 0.  0.
        1    1    3    3  502    0  0.14059334519E+03  0.16172401822E+03 -0.10589717701E+04  0.10804361882E+04  0.50400001928E-02 0.  1.
       -1    1    3    3    0  502 -0.14059334519E+03 -0.16172401822E+03  0.15131384884E+04  0.15282372957E+04  0.50400001928E-02 0. -1.
</event>
<event>
 5   0  0.2036578E-05  0.2385597E+04  0.7818609E-02  0.8444916E-01
        1   -1    0    0  501    0  0.00000000000E+00  0.00000000000E+00  0.15860254880E+04  0.15860254881E+04  0.50400001928E-02 0.  1.
       -1   -1    0    0    0  501  0.00000000000E+00  0.00000000000E+00 -0.89706514354E+03  0.89706514356E+03  0.50400001928E-02 0. -1.
    10030    2    1    2    0    0  0.00000000000E+00  0.00000000000E+00  0.68896034451E+03  0.24830906316E+04  0.23855969334E+04 0.  0.
        2    1    3    3  502    0  0.81436363524E+03  0.31210615913E+03 -0.50251354228E+03  0.10065377515E+04  0.25500000920E-02 0. -1.
       -2    1    3    3    0  502 -0.81436363524E+03 -0.31210615913E+03  0.11914738868E+04  0.14765528801E+04  0.25500000920E-02 0.  1.
</event>
<event>
 5   0  0.5219468E-05  0.2476410E+04  0.7818609E-02  0.8411438E-01
       -2   -1    0    0    0  501  0.00000000000E+00  0.00000000000E+00  0.22303092164E+04  0.22303092164E+04  0.25500000920E-02 0.  1.
        2   -1    0    0  501    0  0.00000000000E+00  0.00000000000E+00 -0.68741683362E+03  0.68741683363E+03  0.25500000920E-02 0. -1.
    10030    2    1    2    0    0  0.00000000000E+00  0.00000000000E+00  0.15428923827E+04  0.29177260500E+04  0.24764103856E+04 0.  0.
        1    1    3    3  502    0  0.44421238500E+03 -0.11487997709E+04  0.92088151074E+03  0.15378843629E+04  0.50400001928E-02 0.  1.
       -1    1    3    3    0  502 -0.44421238500E+03  0.11487997709E+04  0.62201087200E+03  0.13798416871E+04  0.50400001928E-02 0. -1.
</event>
<event>
 5   0  0.2036578E-05  0.2459955E+04  0.7818609E-02  0.8417392E-01
        1   -1    0    0  501    0  0.00000000000E+00  0.00000000000E+00  0.25186215936E+04  0.25186215936E+04  0.50400001928E-02 0. -1.
       -1   -1    0    0    0  501  0.00000000000E+00  0.00000000000E+00 -0.60066370745E+03  0.60066370747E+03  0.50400001928E-02 0.  1.
    10030    2    1    2    0    0  0.00000000000E+00  0.00000000000E+00  0.19179578862E+04  0.31192853011E+04  0.24599549460E+04 0.  0.
        2    1    3    3  502    0  0.58957723514E+03  0.84670951511E+03  0.10994503155E+03  0.10375963710E+04  0.25500000920E-02 0.  1.
       -2    1    3    3    0  502 -0.58957723514E+03 -0.84670951511E+03  0.18080128546E+04  0.20816889301E+04  0.25500000920E-02 0. -1.
</event>
<event>
 5   0  0.5024070E-05  0.2478245E+04  0.7818609E-02  0.8410777E-01
       -2   -1    0    0    0  501  0.00000000000E+00  0.00000000000E+00  0.57706568619E+03  0.57706568619E+03  0.25500000920E-02 0.  1.
        2   -1    0    0  501    0  0.00000000000E+00  0.00000000000E+00 -0.26607452922E+04  0.26607452922E+04  0.25500000920E-02 0. -1.
    10030    2    1    2    0    0  0.00000000000E+00  0.00000000000E+00 -0.20836796060E+04  0.32378109784E+04  0.24782451919E+04 0.  0.
        5    1    3    3  502    0  0.85247860543E+03  0.32858134086E+03 -0.21354904714E+04  0.23227197665E+04  0.46999998093E+01 0. -1.
       -5    1    3    3    0  502 -0.85247860543E+03 -0.32858134086E+03  0.51810865398E+02  0.91509121188E+03  0.46999998093E+01 0.  1.
</event>
<event>
 5   0  0.2066170E-05  0.2525391E+04  0.7818609E-02  0.8393995E-01
        1   -1    0    0  501    0  0.00000000000E+00  0.00000000000E+00  0.20327340303E+04  0.20327340303E+04  0.50400001928E-02 0. -1.
       -1   -1    0    0    0  501  0.00000000000E+00  0.00000000000E+00 -0.78436228117E+03  0.78436228118E+03  0.50400001928E-02 0.  1.
    10030    2    1    2    0    0  0.00000000000E+00  0.00000000000E+00  0.12483717492E+04  0.28170963115E+04  0.25253909805E+04 0.  0.
        5    1    3    3  502    0  0.58137622221E+02 -0.73333923710E+03  0.17689890985E+04  0.19158577558E+04  0.46999998093E+01 0. -1.
       -5    1    3    3    0  502 -0.58137622221E+02  0.73333923710E+03 -0.52061734938E+03  0.90123855569E+03  0.46999998093E+01 0.  1.
</event>
<event>
 5   0  0.2081874E-05  0.2475128E+04  0.7818609E-02  0.8411900E-01
       -1   -1    0    0    0  501  0.00000000000E+00  0.00000000000E+00  0.98822178552E+03  0.98822178553E+03  0.50400001928E-02 0.  1.
        1   -1    0    0  501    0  0.00000000000E+00  0.00000000000E+00 -0.15498188595E+04  0.15498188595E+04  0.50400001928E-02 0. -1.
    10030    2    1    2    0    0  0.00000000000E+00  0.00000000000E+00 -0.56159707394E+03  0.25380406450E+04  0.24751280860E+04 0.  0.
        1    1    3    3  502    0 -0.85996932432E+03  0.47511433879E+03  0.49084726289E+03  0.10982767908E+04  0.50400001928E-02 0.  1.
       -1    1    3    3    0  502  0.85996932432E+03 -0.47511433879E+03 -0.10524443368E+04  0.14397638542E+04  0.50400001928E-02 0. -1.
</event>
<event>
 5   0  0.2063930E-05  0.2515179E+04  0.7818609E-02  0.8397598E-01
       -1   -1    0    0    0  501  0.00000000000E+00  0.00000000000E+00  0.77885803544E+03  0.77885803546E+03  0.50400001928E-02 0.  1.
        1   -1    0    0  501    0  0.00000000000E+00  0.00000000000E+00 -0.20305774441E+04  0.20305774441E+04  0.50400001928E-02 0. -1.
    10030    2    1    2    0    0  0.00000000000E+00  0.00000000000E+00 -0.12517194086E+04  0.28094354795E+04  0.25151791657E+04 0.  0.
        3    1    3    3  502    0 -0.81022474450E+03 -0.94886166231E+03 -0.80151168192E+03  0.14829779423E+04  0.10100000352E+00 0. -1.
       -3    1    3    3    0  502  0.81022474450E+03  0.94886166231E+03 -0.45020772672E+03  0.13264575373E+04  0.10100000352E+00 0.  1.
</event>
<event>
 5   0  0.2063930E-05  0.2432380E+04  0.7818609E-02  0.8427479E-01
       -1   -1    0    0    0  501  0.00000000000E+00  0.00000000000E+00  0.10490768410E+04  0.10490768410E+04  0.50400001928E-02 0.  1.
        1   -1    0    0  501    0  0.00000000000E+00  0.00000000000E+00 -0.14099239245E+04  0.14099239245E+04  0.50400001928E-02 0. -1.
    10030    2    1    2    0    0  0.00000000000E+00  0.00000000000E+00 -0.36084708344E+03  0.24590007655E+04  0.24323803459E+04 0.  0.
        3    1    3    3  502    0  0.30934877543E+03  0.29988367810E+03 -0.13301882969E+04  0.13982230868E+04  0.10100000352E+00 0. -1.
       -3    1    3    3    0  502 -0.30934877543E+03 -0.29988367810E+03  0.96934121343E+03  0.10607776786E+04  0.10100000352E+00 0.  1.
</event>
<event>
 5   0  0.5219468E-05  0.2529145E+04  0.7818609E-02  0.8392675E-01
       -2   -1    0    0    0  501  0.00000000000E+00  0.00000000000E+00  0.15405874487E+04  0.15405874487E+04  0.25500000920E-02 0.  1.
        2   -1    0    0  501    0  0.00000000000E+00  0.00000000000E+00 -0.10380092895E+04  0.10380092895E+04  0.25500000920E-02 0. -1.
    10030    2    1    2    0    0  0.00000000000E+00  0.00000000000E+00  0.50257815918E+03  0.25785967382E+04  0.25291453758E+04 0.  0.
        1    1    3    3  502    0 -0.10426518907E+04 -0.64940660051E+03 -0.55072793904E+02  0.12295872928E+04  0.50400001928E-02 0. -1.
       -1    1    3    3    0  502  0.10426518907E+04  0.64940660051E+03  0.55765095309E+03  0.13490094453E+04  0.50400001928E-02 0.  1.
</event>
<event>
 5   0  0.2041718E-05  0.2493976E+04  0.7818609E-02  0.8405135E-01
        1   -1    0    0  501    0  0.00000000000E+00  0.00000000000E+00  0.15604213804E+04  0.15604213804E+04  0.50400001928E-02 0. -1.
       -1   -1    0    0    0  501  0.00000000000E+00  0.00000000000E+00 -0.99651194682E+03  0.99651194683E+03  0.50400001928E-02 0.  1.
    10030    2    1    2    0    0  0.00000000000E+00  0.00000000000E+00  0.56390943353E+03  0.25569333272E+04  0.24939755794E+04 0.  0.
        4    1    3    3  502    0  0.12030497844E+04 -0.29044726083E+03  0.43841291897E+03  0.13129721610E+04  0.12699999809E+01 0. -1.
       -4    1    3    3    0  502 -0.12030497844E+04  0.29044726083E+03  0.12549651457E+03  0.12439611662E+04  0.12699999809E+01 0.  1.
</event>
<event>
 5   0  0.2081874E-05  0.2305408E+04  0.7818609E-02  0.8475792E-01
        1   -1    0    0  501    0  0.00000000000E+00  0.00000000000E+00  0.20817708604E+04  0.20817708604E+04  0.50400001928E-02 0.  1.
       -1   -1    0    0    0  501  0.00000000000E+00  0.00000000000E+00 -0.63826764677E+03  0.63826764679E+03  0.50400001928E-02 0. -1.
    10030    2    1    2    0    0  0.00000000000E+00  0.00000000000E+00  0.14435032136E+04  0.27200385072E+04  0.23054084135E+04 0.  0.
        1    1    3    3  502    0  0.16470079128E+02 -0.11310312354E+04  0.45998398050E+03  0.12211012167E+04  0.50400001928E-02 0. -1.
       -1    1    3    3    0  502 -0.16470079128E+02  0.11310312354E+04  0.98351923311E+03  0.14989372905E+04  0.50400001928E-02 0.  1.
</event>
<event>
 5   0  0.4995256E-05  0.2290489E+04  0.7818609E-02  0.8481680E-01
        2   -1    0    0  501    0  0.00000000000E+00  0.00000000000E+00  0.86938249644E+03  0.86938249644E+03  0.25500000920E-02 0. -1.
       -2   -1    0    0    0  501  0.00000000000E+00  0.00000000000E+00 -0.15086401428E+04  0.15086401428E+04  0.25500000920E-02 0.  1.
    10030    2    1    2    0    0  0.00000000000E+00  0.00000000000E+00 -0.63925764636E+03  0.23780226392E+04  0.22904893220E+04 0.  0.
        2    1    3    3  502    0  0.12494826734E+03 -0.36240803165E+03 -0.14400527806E+04  0.14902025573E+04  0.25500000920E-02 0.  1.
       -2    1    3    3    0  502 -0.12494826734E+03  0.36240803165E+03  0.80079513422E+03  0.88782008195E+03  0.25500000920E-02 0. -1.
</event>
<event>
 5   0  0.2063930E-05  0.2504572E+04  0.7818609E-02  0.8401359E-01
        1   -1    0    0  501    0  0.00000000000E+00  0.00000000000E+00  0.12959465253E+04  0.12959465253E+04  0.50400001928E-02 0.  1.
       -1   -1    0    0    0  501  0.00000000000E+00  0.00000000000E+00 -0.12100963659E+04  0.12100963659E+04  0.50400001928E-02 0. -1.
    10030    2    1    2    0    0  0.00000000000E+00  0.00000000000E+00  0.85850159420E+02  0.25060428912E+04  0.25045719640E+04 0.  0.
        3    1    3    3  502    0 -0.16765425036E+03 -0.12249663407E+04  0.24196321406E+03  0.12598399464E+04  0.10100000352E+00 0.  1.
       -3    1    3    3    0  502  0.16765425036E+03  0.12249663407E+04 -0.15611305464E+03  0.12462029448E+04  0.10100000352E+00 0. -1.
</event>
<event>
 5   0  0.4959347E-05  0.2471053E+04  0.7818609E-02  0.8413371E-01
        2   -1    0    0  501    0  0.00000000000E+00  0.00000000000E+00  0.19155749897E+04  0.19155749897E+04  0.25500000920E-02 0. -1.
       -2   -1    0    0    0  501  0.00000000000E+00  0.00000000000E+00 -0.79690179538E+03  0.79690179538E+03  0.25500000920E-02 0.  1.
    10030    2    1    2    0    0  0.00000000000E+00  0.00000000000E+00  0.11186731943E+04  0.27124767850E+04  0.24710525275E+04 0.  0.
        3    1    3    3  502    0 -0.22491034916E+03 -0.17003185816E+03  0.18797890453E+04  0.19008162360E+04  0.10100000352E+00 0. -1.
       -3    1    3    3    0  502  0.22491034916E+03  0.17003185816E+03 -0.76111585105E+03  0.81166054904E+03  0.10100000352E+00 0.  1.
</event>
<event>
 5   0  0.2081874E-05  0.2484264E+04  0.7818609E-02  0.8408613E-01
       -1   -1    0    0    0  501  0.00000000000E+00  0.00000000000E+00  0.12088021640E+04  0.12088021641E+04  0.50400001928E-02 0. -1.
        1   -1    0    0  501    0  0.00000000000E+00  0.00000000000E+00 -0.12763811260E+04  0.12763811260E+04  0.50400001928E-02 0.  1.
    10030    2    1    2    0    0  0.00000000000E+00  0.00000000000E+00 -0.67578961932E+02  0.24851832900E+04  0.24842642913E+04 0.  0.
        1    1    3    3  502    0  0.57676250757E+03  0.50976723567E+03 -0.10090217163E+04  0.12691108890E+04  0.50400001928E-02 0.  1.
       -1    1    3    3    0  502 -0.57676250757E+03 -0.50976723567E+03  0.94144275436E+03  0.12160724010E+04  0.50400001928E-02 0. -1.
</event>
<event>
 5   0  0.4995256E-05  0.2494949E+04  0.7818609E-02  0.8404787E-01
        2   -1    0    0  501    0  0.00000000000E+00  0.00000000000E+00  0.11745845192E+04  0.11745845192E+04  0.25500000920E-02 0.  1.
       -2   -1    0    0    0  501  0.00000000000E+00  0.00000000000E+00 -0.13248880199E+04  0.13248880199E+04  0.25500000920E-02 0. -1.
    10030    2    1    2    0    0  0.00000000000E+00  0.00000000000E+00 -0.15030350069E+03  0.24994725391E+04  0.24949492643E+04 0.  0.
        2    1    3    3  502    0  0.68118245797E+03 -0.47015752416E+03  0.85988668290E+03  0.11935085865E+04  0.25500000920E-02 0.  1.
       -2    1    3    3    0  502 -0.68118245797E+03  0.47015752416E+03 -0.10101901836E+04  0.13059639526E+04  0.25500000920E-02 0. -1.
</event>
<event>
 5   0  0.2036578E-05  0.2395745E+04  0.7818609E-02  0.8441098E-01
       -1   -1    0    0    0  501  0.00000000000E+00  0.00000000000E+00  0.10463853982E+04  0.10463853983E+04  0.50400001928E-02 0. -1.
        1   -1    0    0  501    0  0.00000000000E+00  0.00000000000E+00 -0.13712903864E+04  0.13712903864E+04  0.50400001928E-02 0.  1.
    10030    2    1    2    0    0  0.00000000000E+00  0.00000000000E+00 -0.32490498812E+03  0.24176757846E+04  0.23957447586E+04 0.  0.
        2    1    3    3  502    0  0.60166599083E+03  0.97137077797E+03  0.20047150616E+03  0.11600655057E+04  0.25500000920E-02 0.  1.
       -2    1    3    3    0  502 -0.60166599083E+03 -0.97137077797E+03 -0.52537649427E+03  0.12576102789E+04  0.25500000920E-02 0. -1.
</event>
<event>
 5   0  0.4959347E-05  0.2495340E+04  0.7818609E-02  0.8404648E-01
        2   -1    0    0  501    0  0.00000000000E+00  0.00000000000E+00  0.12353870018E+04  0.12353870018E+04  0.25500000920E-02 0.  1.
       -2   -1    0    0    0  501  0.00000000000E+00  0.00000000000E+00 -0.12600746198E+04  0.12600746198E+04  0.25500000920E-02 0. -1.
    10030    2    1    2    0    0  0.00000000000E+00  0.00000000000E+00 -0.24687617955E+02  0.24954616216E+04  0.24953395013E+04 0.  0.
        3    1    3    3  502    0  0.11860669664E+04  0.10857600217E+03  0.35934116551E+03  0.12440537290E+04  0.10100000352E+00 0.  1.
       -3    1    3    3    0  502 -0.11860669664E+04 -0.10857600217E+03 -0.38402878346E+03  0.12514078927E+04  0.10100000352E+00 0. -1.
</event>
<event>
 5   0  0.5024070E-05  0.2160938E+04  0.7818609E-02  0.8534865E-01
        2   -1    0    0  501    0  0.00000000000E+00  0.00000000000E+00  0.12804466410E+04  0.12804466410E+04  0.25500000920E-02 0. -1.
       -2   -1    0    0    0  501  0.00000000000E+00  0.00000000000E+00 -0.91172347116E+03  0.91172347116E+03  0.25500000920E-02 0.  1.
    10030    2    1    2    0    0  0.00000000000E+00  0.00000000000E+00  0.36872316984E+03  0.21921701122E+04  0.21609379965E+04 0.  0.
        5    1    3    3  502    0 -0.29137262378E+03 -0.60502168103E+03  0.10430239785E+04  0.12405121322E+04  0.46999998093E+01 0. -1.
       -5    1    3    3    0  502  0.29137262378E+03  0.60502168103E+03 -0.67430080861E+03  0.95165798000E+03  0.46999998093E+01 0.  1.
</event>
<event>
 5   0  0.2036578E-05  0.2433273E+04  0.7818609E-02  0.8427151E-01
       -1   -1    0    0    0  501  0.00000000000E+00  0.00000000000E+00  0.11874551846E+04  0.11874551846E+04  0.50400001928E-02 0. -1.
        1   -1    0    0  501    0  0.00000000000E+00  0.00000000000E+00 -0.12465347062E+04  0.12465347062E+04  0.50400001928E-02 0.  1.
    10030    2    1    2    0    0  0.00000000000E+00  0.00000000000E+00 -0.59079521621E+02  0.24339898908E+04  0.24332727752E+04 0.  0.
        2    1    3    3  502    0  0.93134633171E+03  0.38071571024E+03 -0.71373963158E+03  0.12336023279E+04  0.25500000920E-02 0.  1.
       -2    1    3    3    0  502 -0.93134633171E+03 -0.38071571024E+03  0.65466010996E+03  0.12003875629E+04  0.25500000920E-02 0. -1.
</event>
<event>
 5   0  0.4959347E-05  0.2494150E+04  0.7818609E-02  0.8405073E-01
        2   -1    0    0  501    0  0.00000000000E+00  0.00000000000E+00  0.11236026284E+04  0.11236026284E+04  0.25500000920E-02 0. -1.
       -2   -1    0    0    0  501  0.00000000000E+00  0.00000000000E+00 -0.13841155454E+04  0.13841155454E+04  0.25500000920E-02 0.  1.
    10030    2    1    2    0    0  0.00000000000E+00  0.00000000000E+00 -0.26051291700E+03  0.25077181738E+04  0.24941498470E+04 0.  0.
        3    1    3    3  502    0 -0.44588491725E+03  0.33432809426E+03  0.99143223792E+03  0.11373330764E+04  0.10100000352E+00 0. -1.
       -3    1    3    3    0  502  0.44588491725E+03 -0.33432809426E+03 -0.12519451549E+04  0.13703850974E+04  0.10100000352E+00 0.  1.
</event>
<event>
 5   0  0.5219468E-05  0.2479680E+04  0.7818609E-02  0.8410260E-01
       -2   -1    0    0    0  501  0.00000000000E+00  0.00000000000E+00  0.90962406152E+03  0.90962406152E+03  0.25500000920E-02 0.  1.
        2   -1    0    0  501    0  0.00000000000E+00  0.00000000000E+00 -0.16899327625E+04  0.16899327625E+04  0.25500000920E-02 0. -1.
    10030    2    1    2    0    0  0.00000000000E+00  0.00000000000E+00 -0.78030870103E+03  0.25995568241E+04  0.24796802239E+04 0.  0.
        1    1    3    3  502    0  0.14465825212E+03  0.52250747945E+03 -0.15590754985E+04  0.16506533512E+04  0.50400001928E-02 0. -1.
       -1    1    3    3    0  502 -0.14465825212E+03 -0.52250747945E+03  0.77876679743E+03  0.94890347285E+03  0.50400001928E-02 0.  1.
</event>
<event>
 5   0  0.2066170E-05  0.2641002E+04  0.7818609E-02  0.8354406E-01
        1   -1    0    0  501    0  0.00000000000E+00  0.00000000000E+00  0.22621237292E+04  0.22621237292E+04  0.50400001928E-02 0.  1.
       -1   -1    0    0    0  501  0.00000000000E+00  0.00000000000E+00 -0.77083433069E+03  0.77083433070E+03  0.50400001928E-02 0. -1.
    10030    2    1    2    0    0  0.00000000000E+00  0.00000000000E+00  0.14912893986E+04  0.30329580600E+04  0.26410018029E+04 0.  0.
        5    1    3    3  502    0  0.83918399142E+03  0.55799283885E+03  0.17255805015E+04  0.19983082687E+04  0.46999998093E+01 0.  1.
       -5    1    3    3    0  502 -0.83918399142E+03 -0.55799283885E+03 -0.23429110291E+03  0.10346497913E+04  0.46999998093E+01 0. -1.
</event>
<event>
 5   0  0.4959347E-05  0.2532831E+04  0.7818609E-02  0.8391382E-01
       -2   -1    0    0    0  501  0.00000000000E+00  0.00000000000E+00  0.11302736866E+04  0.11302736866E+04  0.25500000920E-02 0. -1.
        2   -1    0    0  501    0  0.00000000000E+00  0.00000000000E+00 -0.14189559658E+04  0.14189559658E+04  0.25500000920E-02 0.  1.
    10030    2    1    2    0    0  0.00000000000E+00  0.00000000000E+00 -0.28868227919E+03  0.25492296523E+04  0.25328312936E+04 0.  0.
        3    1    3    3  502    0  0.12488198791E+04 -0.18477235099E+03 -0.43108292309E+02  0.12631509202E+04  0.10100000352E+00 0.  1.
       -3    1    3    3    0  502 -0.12488198791E+04  0.18477235099E+03 -0.24557398688E+03  0.12860787322E+04  0.10100000352E+00 0. -1.
</event>
<event>
 5   0  0.2041718E-05  0.2500385E+04  0.7818609E-02  0.8402848E-01
       -1   -1    0    0    0  501  0.00000000000E+00  0.00000000000E+00  0.16053273744E+04  0.16053273744E+04  0.50400001928E-02 0.  1.
        1   -1    0    0  501    0  0.00000000000E+00  0.00000000000E+00 -0.97362156816E+03  0.97362156817E+03  0.50400001928E-02 0. -1.
    10030    2    1    2    0    0  0.00000000000E+00  0.00000000000E+00  0.63170580622E+03  0.25789489426E+04  0.25003850549E+04 0.  0.
        4    1    3    3  502    0 -0.33020727310E+03 -0.10602817665E+04 -0.27642464817E+03  0.11443978620E+04  0.12699999809E+01 0. -1.
       -4    1    3    3    0  502  0.33020727310E+03  0.10602817665E+04  0.90813045439E+03  0.14345510805E+04  0.12699999809E+01 0.  1.
</event>
<event>
 5   0  0.2081874E-05  0.2410903E+04  0.7818609E-02  0.8435433E-01
       -1   -1    0    0    0  501  0.00000000000E+00  0.00000000000E+00  0.91078590099E+03  0.91078590100E+03  0.50400001928E-02 0. -1.
        1   -1    0    0  501    0  0.00000000000E+00  0.00000000000E+00 -0.15954498002E+04  0.15954498002E+04  0.50400001928E-02 0.  1.
    10030    2    1    2    0    0  0.00000000000E+00  0.00000000000E+00 -0.68466389920E+03  0.25062357012E+04  0.24109028879E+04 0.  0.
        1    1    3    3  502    0  0.49916823766E+03  0.10360824287E+04  0.33168043805E+02  0.11505371997E+04  0.50400001928E-02 0. -1.
       -1    1    3    3    0  502 -0.49916823766E+03 -0.10360824287E+04 -0.71783194301E+03  0.13556985015E+04  0.50400001928E-02 0.  1.
</event>
<event>
 5   0  0.2063930E-05  0.2473649E+04  0.7818609E-02  0.8412434E-01
        1   -1    0    0  501    0  0.00000000000E+00  0.00000000000E+00  0.19463755274E+04  0.19463755274E+04  0.50400001928E-02 0.  1.
       -1   -1    0    0    0  501  0.00000000000E+00  0.00000000000E+00 -0.78594027351E+03  0.78594027352E+03  0.50400001928E-02 0. -1.
    10030    2    1    2    0    0  0.00000000000E+00  0.00000000000E+00  0.11604352539E+04  0.27323158009E+04  0.24736490571E+04 0.  0.
        3    1    3    3  502    0 -0.72895611211E+03  0.17334497493E+03 -0.50670814088E+03  0.90453227911E+03  0.10100000352E+00 0. -1.
       -3    1    3    3    0  502  0.72895611211E+03 -0.17334497493E+03  0.16671433948E+04  0.18277835218E+04  0.10100000352E+00 0.  1.
</event>
<event>
 5   0  0.4959042E-05  0.2710163E+04  0.7818609E-02  0.8331715E-01
        2   -1    0    0  501    0  0.00000000000E+00  0.00000000000E+00  0.13915240093E+04  0.13915240093E+04  0.25500000920E-02 0. -1.
       -2   -1    0    0    0  501  0.00000000000E+00  0.00000000000E+00 -0.13195931273E+04  0.13195931273E+04  0.25500000920E-02 0.  1.
    10030    2    1    2    0    0  0.00000000000E+00  0.00000000000E+00  0.71930882027E+02  0.27111171366E+04  0.27101627398E+04 0.  0.
        4    1    3    3  502    0 -0.88043759293E+03  0.13476270616E+03 -0.98562509673E+03  0.13284539082E+04  0.12699999809E+01 0.  1.
       -4    1    3    3    0  502  0.88043759293E+03 -0.13476270616E+03  0.10575559788E+04  0.13826632284E+04  0.12699999809E+01 0. -1.
</event>
<event>
 5   0  0.4959042E-05  0.2538780E+04  0.7818609E-02  0.8389299E-01
       -2   -1    0    0    0  501  0.00000000000E+00  0.00000000000E+00  0.11849387480E+04  0.11849387480E+04  0.25500000920E-02 0.  1.
        2   -1    0    0  501    0  0.00000000000E+00  0.00000000000E+00 -0.13598597699E+04  0.13598597699E+04  0.25500000920E-02 0. -1.
    10030    2    1    2    0    0  0.00000000000E+00  0.00000000000E+00 -0.17492102190E+03  0.25447985179E+04  0.25387796542E+04 0.  0.
        4    1    3    3  502    0  0.19400719859E+03  0.75368307598E+03  0.91774893745E+03  0.12033044906E+04  0.12699999809E+01 0.  1.
       -4    1    3    3    0  502 -0.19400719859E+03 -0.75368307598E+03 -0.10926699594E+04  0.13414940272E+04  0.12699999809E+01 0. -1.
</event>
<event>
 5   0  0.2036578E-05  0.2502914E+04  0.7818609E-02  0.8401948E-01
        1   -1    0    0  501    0  0.00000000000E+00  0.00000000000E+00  0.19649798640E+04  0.19649798640E+04  0.50400001928E-02 0. -1.
       -1   -1    0    0    0  501  0.00000000000E+00  0.00000000000E+00 -0.79702810412E+03  0.79702810413E+03  0.50400001928E-02 0.  1.
    10030    2    1    2    0    0  0.00000000000E+00  0.00000000000E+00  0.11679517599E+04  0.27620079681E+04  0.25029136426E+04 0.  0.
        2    1    3    3  502    0  0.87217153111E+03  0.32760188226E+03  0.15060157508E+04  0.17709007918E+04  0.25500000920E-02 0. -1.
       -2    1    3    3    0  502 -0.87217153111E+03 -0.32760188226E+03 -0.33806399090E+03  0.99110717629E+03  0.25500000920E-02 0.  1.
</event>
<event>
 5   0  0.2066170E-05  0.2509889E+04  0.7818609E-02  0.8399471E-01
        1   -1    0    0  501    0  0.00000000000E+00  0.00000000000E+00  0.14632577155E+04  0.14632577155E+04  0.50400001928E-02 0. -1.
       -1   -1    0    0    0  501  0.00000000000E+00  0.00000000000E+00 -0.10762872420E+04  0.10762872420E+04  0.50400001928E-02 0.  1.
    10030    2    1    2    0    0  0.00000000000E+00  0.00000000000E+00  0.38697047349E+03  0.25395449576E+04  0.25098889306E+04 0.  0.
        5    1    3    3  502    0  0.12360979426E+04 -0.33195233943E+02  0.41007873068E+03  0.13027765359E+04  0.46999998093E+01 0. -1.
       -5    1    3    3    0  502 -0.12360979426E+04  0.33195233943E+02 -0.23108257187E+02  0.12367684216E+04  0.46999998093E+01 0.  1.
</event>
<event>
 5   0  0.2066170E-05  0.2513032E+04  0.7818609E-02  0.8398358E-01
        1   -1    0    0  501    0  0.00000000000E+00  0.00000000000E+00  0.13635444378E+04  0.13635444378E+04  0.50400001928E-02 0.  1.
       -1   -1    0    0    0  501  0.00000000000E+00  0.00000000000E+00 -0.11578884907E+04  0.11578884907E+04  0.50400001928E-02 0. -1.
    10030    2    1    2    0    0  0.00000000000E+00  0.00000000000E+00  0.20565594711E+03  0.25214329285E+04  0.25130319625E+04 0.  0.
        5    1    3    3  502    0  0.79926747774E+03  0.86793559151E+03 -0.33066917011E+03  0.12253590829E+04  0.46999998093E+01 0. -1.
       -5    1    3    3    0  502 -0.79926747774E+03 -0.86793559151E+03  0.53632511723E+03  0.12960738456E+04  0.46999998093E+01 0.  1.
</event>
<event>
 5   0  0.4995256E-05  0.2460642E+04  0.7818609E-02  0.8417143E-01
        2   -1    0    0  501    0  0.00000000000E+00  0.00000000000E+00  0.10711167603E+04  0.10711167603E+04  0.25500000920E-02 0.  1.
       -2   -1    0    0    0  501  0.00000000000E+00  0.00000000000E+00 -0.14131882871E+04  0.14131882871E+04  0.25500000920E-02 0. -1.
    10030    2    1    2    0    0  0.00000000000E+00  0.00000000000E+00 -0.34207152675E+03  0.24843050475E+04  0.24606419161E+04 0.  0.
        2    1    3    3  502    0 -0.10160223764E+04  0.67103871662E+03  0.69984213951E+01  0.12176384547E+04  0.25500000920E-02 0. -1.
       -2    1    3    3    0  502  0.10160223764E+04 -0.67103871662E+03 -0.34906994815E+03  0.12666665927E+04  0.25500000920E-02 0.  1.
</event>
<event>
 5   0  0.4959347E-05  0.2493724E+04  0.7818609E-02  0.8405225E-01
       -2   -1    0    0    0  501  0.00000000000E+00  0.00000000000E+00  0.10963165521E+04  0.10963165521E+04  0.25500000920E-02 0.  1.
        2   -1    0    0  501    0  0.00000000000E+00  0.00000000000E+00 -0.14180799638E+04  0.14180799638E+04  0.25500000920E-02 0. -1.
    10030    2    1    2    0    0  0.00000000000E+00  0.00000000000E+00 -0.32176341171E+03  0.25143965159E+04  0.24937237510E+04 0.  0.
        3    1    3    3  502    0 -0.44045398028E+03 -0.57277400350E+03  0.86370893076E+03  0.11260829877E+04  0.10100000352E+00 0.  1.
       -3    1    3    3    0  502  0.44045398028E+03  0.57277400350E+03 -0.11854723425E+04  0.13883135283E+04  0.10100000352E+00 0. -1.
</event>
<event>
 5   0  0.5219468E-05  0.2704815E+04  0.7818609E-02  0.8333444E-01
       -2   -1    0    0    0  501  0.00000000000E+00  0.00000000000E+00  0.78326960797E+03  0.78326960797E+03  0.25500000920E-02 0. -1.
        2   -1    0    0  501    0  0.00000000000E+00  0.00000000000E+00 -0.23350917499E+04  0.23350917499E+04  0.25500000920E-02 0.  1.
    10030    2    1    2    0    0  0.00000000000E+00  0.00000000000E+00 -0.15518221419E+04  0.31183613578E+04  0.27048152613E+04 0.  0.
        1    1    3    3  502    0  0.14137209865E+03 -0.13164855958E+04 -0.45831898090E+03  0.14011340702E+04  0.50400001928E-02 0.  1.
       -1    1    3    3    0  502 -0.14137209865E+03  0.13164855958E+04 -0.10935031610E+04  0.17172272876E+04  0.50400001928E-02 0. -1.
</event>
<event>
 5   0  0.4995256E-05  0.2384100E+04  0.7818609E-02  0.8445480E-01
        2   -1    0    0  501    0  0.00000000000E+00  0.00000000000E+00  0.14804682829E+04  0.14804682829E+04  0.25500000920E-02 0. -1.
       -2   -1    0    0    0  501  0.00000000000E+00  0.00000000000E+00 -0.95981982131E+03  0.95981982131E+03  0.25500000920E-02 0.  1.
    10030    2    1    2    0    0  0.00000000000E+00  0.00000000000E+00  0.52064846157E+03  0.24402881042E+04  0.23840996646E+04 0.  0.
        2    1    3    3  502    0 -0.92690625474E+03 -0.38393961930E+03 -0.39860076704E+03  0.10795588950E+04  0.25500000920E-02 0.  1.
       -2    1    3    3    0  502  0.92690625474E+03  0.38393961930E+03  0.91924922861E+03  0.13607292092E+04  0.25500000920E-02 0. -1.
</event>
<event>
 5   0  0.4959347E-05  0.2478720E+04  0.7818609E-02  0.8410606E-01
        2   -1    0    0  501    0  0.00000000000E+00  0.00000000000E+00  0.14477599161E+04  0.14477599161E+04  0.25500000920E-02 0.  1.
       -2   -1    0    0    0  501  0.00000000000E+00  0.00000000000E+00 -0.10609583736E+04  0.10609583736E+04  0.25500000920E-02 0. -1.
    10030    2    1    2    0    0  0.00000000000E+00  0.00000000000E+00  0.38680154250E+03  0.25087182897E+04  0.24787198356E+04 0.  0.
        3    1    3    3  502    0 -0.39110744203E+03  0.47786996773E+03 -0.89416825053E+03  0.10866745638E+04  0.10100000352E+00 0. -1.
       -3    1    3    3    0  502  0.39110744203E+03 -0.47786996773E+03  0.12809697930E+04  0.14220437258E+04  0.10100000352E+00 0.  1.
</event>
<event>
 5   0  0.2066170E-05  0.2516116E+04  0.7818609E-02  0.8397266E-01
       -1   -1    0    0    0  501  0.00000000000E+00  0.00000000000E+00  0.62074187458E+03  0.62074187460E+03  0.50400001928E-02 0.  1.
        1   -1    0    0  501    0  0.00000000000E+00  0.00000000000E+00 -0.25497079447E+04  0.25497079448E+04  0.50400001928E-02 0. -1.
    10030    2    1    2    0    0  0.00000000000E+00  0.00000000000E+00 -0.19289660702E+04  0.31704498194E+04  0.25161164435E+04 0.  0.
        5    1    3    3  502    0  0.27549641942E+03 -0.11521941963E+04 -0.43101796619E+03  0.12606539257E+04  0.46999998093E+01 0. -1.
       -5    1    3    3    0  502 -0.27549641942E+03  0.11521941963E+04 -0.14979481040E+04  0.19097958937E+04  0.46999998093E+01 0.  1.
</event>
<event>
 5   0  0.5024070E-05  0.2501719E+04  0.7818609E-02  0.8402373E-01
        2   -1    0    0  501    0  0.00000000000E+00  0.00000000000E+00  0.13349073342E+04  0.13349073342E+04  0.25500000920E-02 0.  1.
       -2   -1    0    0    0  501  0.00000000000E+00  0.00000000000E+00 -0.11721036343E+04  0.11721036343E+04  0.25500000920E-02 0. -1.
    10030    2    1    2    0    0  0.00000000000E+00  0.00000000000E+00  0.16280369985E+03  0.25070109685E+04  0.25017191991E+04 0.  0.
        5    1    3    3  502    0 -0.49883368625E+03 -0.56915517253E+03  0.10794276399E+04  0.13183166451E+04  0.46999998093E+01 0.  1.
       -5    1    3    3    0  502  0.49883368625E+03  0.56915517253E+03 -0.91662394004E+03  0.11886943234E+04  0.46999998093E+01 0. -1.
</event>
<event>
 5   0  0.2066170E-05  0.2490854E+04  0.7818609E-02  0.8406251E-01
        1   -1    0    0  501    0  0.00000000000E+00  0.00000000000E+00  0.17823762864E+04  0.17823762864E+04  0.50400001928E-02 0. -1.
       -1   -1    0    0    0  501  0.00000000000E+00  0.00000000000E+00 -0.87023640116E+03  0.87023640118E+03  0.50400001928E-02 0.  1.
    10030    2    1    2    0    0  0.00000000000E+00  0.00000000000E+00  0.91213988525E+03  0.26526126876E+04  0.24908542511E+04 0.  0.
        5    1    3    3  502    0  0.79344048162E+03  0.38576584272E+03 -0.48005104183E+03  0.10044073755E+04  0.46999998093E+01 0.  1.
       -5    1    3    3    0  502 -0.79344048162E+03 -0.38576584272E+03  0.13921909271E+04  0.16482053121E+04  0.46999998093E+01 0. -1.
</event>
<event>
 5   0  0.2063930E-05  0.2508227E+04  0.7818609E-02  0.8400061E-01
       -1   -1    0    0    0  501  0.00000000000E+00  0.00000000000E+00  0.85061998699E+03  0.85061998700E+03  0.50400001928E-02 0. -1.
        1   -1    0    0  501    0  0.00000000000E+00  0.00000000000E+00 -0.18490048091E+04  0.18490048091E+04  0.50400001928E-02 0.  1.
    10030    2    1    2    0    0  0.00000000000E+00  0.00000000000E+00 -0.99838482214E+03  0.26996247961E+04  0.25082268213E+04 0.  0.
        3    1    3    3  502    0 -0.50773094615E+03 -0.79140340161E+03 -0.13923921939E+04  0.16801387114E+04  0.10100000352E+00 0.  1.
       -3    1    3    3    0  502  0.50773094615E+03  0.79140340161E+03  0.39400737175E+03  0.10194860847E+04  0.10100000352E+00 0. -1.
</event>
<event>
 5   0  0.4959347E-05  0.2610515E+04  0.7818609E-02  0.8364638E-01
        2   -1    0    0  501    0  0.00000000000E+00  0.00000000000E+00  0.10288230004E+04  0.10288230004E+04  0.25500000920E-02 0.  1.
       -2   -1    0    0    0  501  0.00000000000E+00  0.00000000000E+00 -0.16559677057E+04  0.16559677057E+04  0.25500000920E-02 0. -1.
    10030    2    1    2    0    0  0.00000000000E+00  0.00000000000E+00 -0.62714470537E+03  0.26847907061E+04  0.26105154001E+04 0.  0.
        3    1    3    3  502    0 -0.69231690318E+03  0.82492517195E+03 -0.10720470170E+04  0.15195687054E+04  0.10100000352E+00 0. -1.
       -3    1    3    3    0  502  0.69231690318E+03 -0.82492517195E+03  0.44490231159E+03  0.11652220007E+04  0.10100000352E+00 0.  1.
</event>
<event>
 5   0  0.2081874E-05  0.2423435E+04  0.7818609E-02  0.8430782E-01
       -1   -1    0    0    0  501  0.00000000000E+00  0.00000000000E+00  0.96063051572E+03  0.96063051574E+03  0.50400001928E-02 0. -1.
        1   -1    0    0  501    0  0.00000000000E+00  0.00000000000E+00 -0.15284326490E+04  0.15284326490E+04  0.50400001928E-02 0.  1.
    10030    2    1    2    0    0  0.00000000000E+00  0.00000000000E+00 -0.56780213325E+03  0.24890631647E+04  0.24234347888E+04 0.  0.
        1    1    3    3  502    0  0.16237868460E+03  0.99854427827E+02  0.94513366095E+03  0.96416563984E+03  0.50400001928E-02 0. -1.
       -1    1    3    3    0  502 -0.16237868460E+03 -0.99854427827E+02 -0.15129357942E+04  0.15248975249E+04  0.50400001928E-02 0.  1.
</event>
<event>
 5   0  0.2063930E-05  0.2421123E+04  0.7818609E-02  0.8431638E-01
        1   -1    0    0  501    0  0.00000000000E+00  0.00000000000E+00  0.17304883103E+04  0.17304883103E+04  0.50400001928E-02 0. -1.
       -1   -1    0    0    0  501  0.00000000000E+00  0.00000000000E+00 -0.84684711878E+03  0.84684711879E+03  0.50400001928E-02 0.  1.
    10030    2    1    2    0    0  0.00000000000E+00  0.00000000000E+00  0.88364119148E+03  0.25773354291E+04  0.24211229127E+04 0.  0.
        3    1    3    3  502    0 -0.28001002313E+03  0.62778540089E+03 -0.61893509446E+03  0.92498691016E+03  0.10100000352E+00 0.  1.
       -3    1    3    3    0  502  0.28001002313E+03 -0.62778540089E+03  0.15025762859E+04  0.16523485189E+04  0.10100000352E+00 0. -1.
</event>
<event>
 5   0  0.2041718E-05  0.2371237E+04  0.7818609E-02  0.8450351E-01
       -1   -1    0    0    0  501  0.00000000000E+00  0.00000000000E+00  0.10398407323E+04  0.10398407323E+04  0.50400001928E-02 0.  1.
        1   -1    0    0  501    0  0.00000000000E+00  0.00000000000E+00 -0.13518335831E+04  0.13518335831E+04  0.50400001928E-02 0. -1.
    10030    2    1    2    0    0  0.00000000000E+00  0.00000000000E+00 -0.31199285083E+03  0.23916743154E+04  0.23712373336E+04 0.  0.
        4    1    3    3  502    0 -0.53073911815E+03  0.73496279694E+03  0.61468046067E+03  0.10953027007E+04  0.12699999809E+01 0.  1.
       -4    1    3    3    0  502  0.53073911815E+03 -0.73496279694E+03 -0.92667331150E+03  0.12963716148E+04  0.12699999809E+01 0. -1.
</event>
<event>
 5   0  0.2066170E-05  0.2432929E+04  0.7818609E-02  0.8427277E-01
        1   -1    0    0  501    0  0.00000000000E+00  0.00000000000E+00  0.14167033960E+04  0.14167033960E+04  0.50400001928E-02 0.  1.
       -1   -1    0    0    0  501  0.00000000000E+00  0.00000000000E+00 -0.10445279959E+04  0.10445279959E+04  0.50400001928E-02 0. -1.
    10030    2    1    2    0    0  0.00000000000E+00  0.00000000000E+00  0.37217540014E+03  0.24612313920E+04  0.24329293940E+04 0.  0.
        5    1    3    3  502    0 -0.25557839580E+02  0.69134902269E+03 -0.82612549492E+03  0.10775537563E+04  0.46999998093E+01 0. -1.
       -5    1    3    3    0  502  0.25557839580E+02 -0.69134902269E+03  0.11983008951E+04  0.13836776357E+04  0.46999998093E+01 0.  1.
</event>
<event>
 5   0  0.4959042E-05  0.2368239E+04  0.7818609E-02  0.8451491E-01
        2   -1    0    0  501    0  0.00000000000E+00  0.00000000000E+00  0.10732239668E+04  0.10732239668E+04  0.25500000920E-02 0.  1.
       -2   -1    0    0    0  501  0.00000000000E+00  0.00000000000E+00 -0.13064741658E+04  0.13064741658E+04  0.25500000920E-02 0. -1.
    10030    2    1    2    0    0  0.00000000000E+00  0.00000000000E+00 -0.23325019892E+03  0.23796981326E+04  0.23682393348E+04 0.  0.
        4    1    3    3  502    0 -0.24660934398E+03 -0.44804254381E+03 -0.11897717081E+04  0.12950353740E+04  0.12699999809E+01 0. -1.
       -4    1    3    3    0  502  0.24660934398E+03  0.44804254381E+03  0.95652150915E+03  0.10846627586E+04  0.12699999809E+01 0.  1.
</event>
<event>
 5   0  0.5219468E-05  0.2552038E+04  0.7818609E-02  0.8384678E-01
        2   -1    0    0  501    0  0.00000000000E+00  0.00000000000E+00  0.15995218175E+04  0.15995218175E+04  0.25500000920E-02 0.  1.
       -2   -1    0    0    0  501  0.00000000000E+00  0.00000000000E+00 -0.10179443529E+04  0.10179443529E+04  0.25500000920E-02 0. -1.
    10030    2    1    2    0    0  0.00000000000E+00  0.00000000000E+00  0.58157746461E+03  0.26174661704E+04  0.25520377751E+04 0.  0.
        1    1    3    3  502    0  0.75491468579E+03 -0.24591650792E+03 -0.73374740647E+03  0.10810903608E+04  0.50400001928E-02 0. -1.
       -1    1    3    3    0  502 -0.75491468579E+03  0.24591650792E+03  0.13153248711E+04  0.15363758096E+04  0.50400001928E-02 0.  1.
</event>
<event>
 5   0  0.2041718E-05  0.2450968E+04  0.7818609E-02  0.8420665E-01
        1   -1    0    0  501    0  0.00000000000E+00  0.00000000000E+00  0.25689350234E+04  0.25689350235E+04  0.50400001928E-02 0.  1.
       -1   -1    0    0    0  501  0.00000000000E+00  0.00000000000E+00 -0.58460466182E+03  0.58460466184E+03  0.50400001928E-02 0. -1.
    10030    2    1    2    0    0  0.00000000000E+00  0.00000000000E+00  0.19843303616E+04  0.31535396853E+04  0.24509682908E+04 0.  0.
        4    1    3    3  502    0 -0.90482826178E+03  0.10380441876E+03 -0.62825686177E+02  0.91292837639E+03  0.12699999809E+01 0. -1.
       -4    1    3    3    0  502  0.90482826178E+03 -0.10380441876E+03  0.20471560478E+04  0.22406113089E+04  0.12699999809E+01 0.  1.
</event>
<event>
 5   0  0.4995256E-05  0.2555337E+04  0.7818609E-02  0.8383532E-01
       -2   -1    0    0    0  501  0.00000000000E+00  0.00000000000E+00  0.88947629736E+03  0.88947629737E+03  0.25500000920E-02 0. -1.
        2   -1    0    0  501    0  0.00000000000E+00  0.00000000000E+00 -0.18352788580E+04  0.18352788580E+04  0.25500000920E-02 0.  1.
    10030    2    1    2    0    0  0.00000000000E+00  0.00000000000E+00 -0.94580256064E+03  0.27247551554E+04  0.25553371936E+04 0.  0.
        2    1    3    3  502    0 -0.89973371268E+03  0.83940000400E+03 -0.10611291906E+03  0.12350599467E+04  0.25500000920E-02 0. -1.
       -2    1    3    3    0  502  0.89973371268E+03 -0.83940000400E+03 -0.83968964159E+03  0.14896952086E+04  0.25500000920E-02 0.  1.
</event>
<event>
 5   0  0.2066170E-05  0.2461163E+04  0.7818609E-02  0.8416953E-01
       -1   -1    0    0    0  501  0.00000000000E+00  0.00000000000E+00  0.72421355110E+03  0.72421355112E+03  0.50400001928E-02 0.  1.
        1   -1    0    0  501    0  0.00000000000E+00  0.00000000000E+00 -0.20910004801E+04  0.20910004802E+04  0.50400001928E-02 0. -1.
    10030    2    1    2    0    0  0.00000000000E+00  0.00000000000E+00 -0.13667869290E+04  0.28152140313E+04  0.24611630447E+04 0.  0.
        5    1    3    3  502    0 -0.56038572963E+03  0.10946072234E+04 -0.63083019573E+03  0.13820875390E+04  0.46999998093E+01 0.  1.
       -5    1    3    3    0  502  0.56038572963E+03 -0.10946072234E+04 -0.73595673332E+03  0.14331264923E+04  0.46999998093E+01 0. -1.
</event>
<event>
 5   0  0.4995256E-05  0.2369689E+04  0.7818609E-02  0.8450939E-01
        2   -1    0    0  501    0  0.00000000000E+00  0.00000000000E+00  0.16462127727E+04  0.16462127727E+04  0.25500000920E-02 0. -1.
       -2   -1    0    0    0  501  0.00000000000E+00  0.00000000000E+00 -0.85277959148E+03  0.85277959149E+03  0.25500000920E-02 0.  1.
    10030    2    1    2    0    0  0.00000000000E+00  0.00000000000E+00  0.79343318118E+03  0.24989923641E+04  0.23696891406E+04 0.  0.
        2    1    3    3  502    0  0.14014003517E+03 -0.24306499995E+03 -0.81724211374E+03  0.86406278483E+03  0.25500000920E-02 0.  1.
       -2    1    3    3    0  502 -0.14014003517E+03  0.24306499995E+03  0.16106752949E+04  0.16349295793E+04  0.25500000920E-02 0. -1.
</event>
<event>
 5   0  0.2041718E-05  0.2448340E+04  0.7818609E-02  0.8421624E-01
        1   -1    0    0  501    0  0.00000000000E+00  0.00000000000E+00  0.50227749044E+03  0.50227749046E+03  0.50400001928E-02 0.  1.
       -1   -1    0    0    0  501  0.00000000000E+00  0.00000000000E+00 -0.29835930878E+04  0.29835930878E+04  0.50400001928E-02 0. -1.
    10030    2    1    2    0    0  0.00000000000E+00  0.00000000000E+00 -0.24813155973E+04  0.34858705782E+04  0.24483395587E+04 0.  0.
        4    1    3    3  502    0 -0.11240830929E+03  0.90392906814E+03 -0.76238540687E+02  0.91407730320E+03  0.12699999809E+01 0.  1.
       -4    1    3    3    0  502  0.11240830929E+03 -0.90392906814E+03 -0.24050770566E+04  0.25717932750E+04  0.12699999809E+01 0. -1.
</event>
<event>
 5   0  0.2041718E-05  0.2430258E+04  0.7818609E-02  0.8428262E-01
        1   -1    0    0  501    0  0.00000000000E+00  0.00000000000E+00  0.15391504142E+04  0.15391504142E+04  0.50400001928E-02 0. -1.
       -1   -1    0    0    0  501  0.00000000000E+00  0.00000000000E+00 -0.95932040186E+03  0.95932040187E+03  0.50400001928E-02 0.  1.
    10030    2    1    2    0    0  0.00000000000E+00  0.00000000000E+00  0.57983001232E+03  0.24984708161E+04  0.24302579237E+04 0.  0.
        4    1    3    3  502    0 -0.31036912550E+03  0.76100330136E+03  0.12100686185E+04  0.14627790992E+04  0.12699999809E+01 0. -1.
       -4    1    3    3    0  502  0.31036912550E+03 -0.76100330136E+03 -0.63023860616E+03  0.10356917168E+04  0.12699999809E+01 0.  1.
</event>
<event>
 5   0  0.2041718E-05  0.2326509E+04  0.7818609E-02  0.8467542E-01
        1   -1    0    0  501    0  0.00000000000E+00  0.00000000000E+00  0.12091429021E+04  0.12091429021E+04  0.50400001928E-02 0. -1.
       -1   -1    0    0    0  501  0.00000000000E+00  0.00000000000E+00 -0.11191077189E+04  0.11191077190E+04  0.50400001928E-02 0.  1.
    10030    2    1    2    0    0  0.00000000000E+00  0.00000000000E+00  0.90035183105E+02  0.23282506210E+04  0.23265091060E+04 0.  0.
        4    1    3    3  502    0  0.34555197838E+03 -0.32681569316E+03  0.11073888365E+04  0.12052079967E+04  0.12699999809E+01 0. -1.
       -4    1    3    3    0  502 -0.34555197838E+03  0.32681569316E+03 -0.10173536534E+04  0.11230426243E+04  0.12699999809E+01 0.  1.
</event>
<event>
 5   0  0.4959042E-05  0.2493528E+04  0.7818609E-02  0.8405295E-01
       -2   -1    0    0    0  501  0.00000000000E+00  0.00000000000E+00  0.11263733792E+04  0.11263733792E+04  0.25500000920E-02 0.  1.
        2   -1    0    0  501    0  0.00000000000E+00  0.00000000000E+00 -0.13800225590E+04  0.13800225590E+04  0.25500000920E-02 0. -1.
    10030    2    1    2    0    0  0.00000000000E+00  0.00000000000E+00 -0.25364917976E+03  0.25063959382E+04  0.24935281616E+04 0.  0.
        4    1    3    3  502    0  0.19269262111E+03 -0.17832645413E+02 -0.13648341093E+04  0.13784854763E+04  0.12699999809E+01 0. -1.
       -4    1    3    3    0  502 -0.19269262111E+03  0.17832645413E+02  0.11111849296E+04  0.11279104619E+04  0.12699999809E+01 0.  1.
</event>
<event>
 5   0  0.1692125E-05  0.2587059E+04  0.7818609E-02  0.8372610E-01
       -3   -1    0    0    0  501  0.00000000000E+00  0.00000000000E+00  0.21291582598E+04  0.21291582622E+04  0.10100000352E+00 0.  1.
        3   -1    0    0  501    0  0.00000000000E+00  0.00000000000E+00 -0.78585910553E+03  0.78585911202E+03  0.10100000352E+00 0. -1.
    10030    2    1    2    0    0  0.00000000000E+00  0.00000000000E+00  0.13432991543E+04  0.29150173742E+04  0.25870588849E+04 0.  0.
        1    1    3    3  502    0  0.81722694254E+02 -0.35351296399E+01  0.21262411018E+04  0.21278139766E+04  0.50400001928E-02 0.  1.
       -1    1    3    3    0  502 -0.81722694254E+02  0.35351296399E+01 -0.78294194757E+03  0.78720339759E+03  0.50400001928E-02 0. -1.
</event>
<event>
 5   0  0.5024070E-05  0.2499505E+04  0.7818609E-02  0.8403162E-01
       -2   -1    0    0    0  501  0.00000000000E+00  0.00000000000E+00  0.12900624017E+04  0.12900624017E+04  0.25500000920E-02 0. -1.
        2   -1    0    0  501    0  0.00000000000E+00  0.00000000000E+00 -0.12107020900E+04  0.12107020900E+04  0.25500000920E-02 0.  1.
    10030    2    1    2    0    0  0.00000000000E+00  0.00000000000E+00  0.79360311647E+02  0.25007644917E+04  0.24995049478E+04 0.  0.
        5    1    3    3  502    0 -0.11339047880E+04 -0.51070865475E+03  0.16341849765E+03  0.12543090104E+04  0.46999998093E+01 0. -1.
       -5    1    3    3    0  502  0.11339047880E+04  0.51070865475E+03 -0.84058185999E+02  0.12464554813E+04  0.46999998093E+01 0.  1.
</event>
<event>
 5   0  0.5024070E-05  0.2450043E+04  0.7818609E-02  0.8421002E-01
       -2   -1    0    0    0  501  0.00000000000E+00  0.00000000000E+00  0.90549267590E+03  0.90549267590E+03  0.25500000920E-02 0. -1.
        2   -1    0    0  501    0  0.00000000000E+00  0.00000000000E+00 -0.16573050688E+04  0.16573050688E+04  0.25500000920E-02 0.  1.
    10030    2    1    2    0    0  0.00000000000E+00  0.00000000000E+00 -0.75181239289E+03  0.25627977447E+04  0.24500429397E+04 0.  0.
        5    1    3    3  502    0 -0.60247753047E+03 -0.37249820549E+03 -0.14213635001E+04  0.15880901666E+04  0.46999998093E+01 0.  1.
       -5    1    3    3    0  502  0.60247753047E+03  0.37249820549E+03  0.66955110716E+03  0.97470757815E+03  0.46999998093E+01 0. -1.
</event>
<event>
 5   0  0.4959042E-05  0.2467155E+04  0.7818609E-02  0.8414781E-01
       -2   -1    0    0    0  501  0.00000000000E+00  0.00000000000E+00  0.14702850030E+04  0.14702850030E+04  0.25500000920E-02 0.  1.
        2   -1    0    0  501    0  0.00000000000E+00  0.00000000000E+00 -0.10349781431E+04  0.10349781431E+04  0.25500000920E-02 0. -1.
    10030    2    1    2    0    0  0.00000000000E+00  0.00000000000E+00  0.43530685996E+03  0.25052631461E+04  0.24671545085E+04 0.  0.
        4    1    3    3  502    0 -0.86306091462E+02 -0.10673024322E+04  0.83959093274E+03  0.13606975309E+04  0.12699999809E+01 0.  1.
       -4    1    3    3    0  502  0.86306091462E+02  0.10673024322E+04 -0.40428407278E+03  0.11445656153E+04  0.12699999809E+01 0. -1.
</event>
<event>
 5   0  0.2041718E-05  0.2483587E+04  0.7818609E-02  0.8408856E-01
       -1   -1    0    0    0  501  0.00000000000E+00  0.00000000000E+00  0.77900532847E+03  0.77900532848E+03  0.50400001928E-02 0. -1.
        1   -1    0    0  501    0  0.00000000000E+00  0.00000000000E+00 -0.19795135853E+04  0.19795135853E+04  0.50400001928E-02 0.  1.
    10030    2    1    2    0    0  0.00000000000E+00  0.00000000000E+00 -0.12005082569E+04  0.27585189138E+04  0.24835874301E+04 0.  0.
        4    1    3    3  502    0 -0.12884737552E+03  0.11655720537E+04 -0.14650910227E+03  0.11817894857E+04  0.12699999809E+01 0. -1.
       -4    1    3    3    0  502  0.12884737552E+03 -0.11655720537E+04 -0.10539991546E+04  0.15767294281E+04  0.12699999809E+01 0.  1.
</event>
<event>
 5   0  0.2036578E-05  0.2063801E+04  0.7818609E-02  0.8577359E-01
       -1   -1    0    0    0  501  0.00000000000E+00  0.00000000000E+00  0.74002818021E+03  0.74002818023E+03  0.50400001928E-02 0. -1.
        1   -1    0    0  501    0  0.00000000000E+00  0.00000000000E+00 -0.14388891309E+04  0.14388891309E+04  0.50400001928E-02 0.  1.
    10030    2    1    2    0    0  0.00000000000E+00  0.00000000000E+00 -0.69886095069E+03  0.21789173111E+04  0.20638008674E+04 0.  0.
        2    1    3    3  502    0  0.28513514872E+03 -0.90990606380E+03  0.67016948890E+02  0.95588826200E+03  0.25500000920E-02 0. -1.
       -2    1    3    3    0  502 -0.28513514872E+03  0.90990606380E+03 -0.76587789958E+03  0.12230290491E+04  0.25500000920E-02 0.  1.
</event>
<event>
 5   0  0.4995256E-05  0.2541939E+04  0.7818609E-02  0.8388195E-01
       -2   -1    0    0    0  501  0.00000000000E+00  0.00000000000E+00  0.19938592714E+04  0.19938592714E+04  0.25500000920E-02 0. -1.
        2   -1    0    0  501    0  0.00000000000E+00  0.00000000000E+00 -0.81016939037E+03  0.81016939037E+03  0.25500000920E-02 0.  1.
    10030    2    1    2    0    0  0.00000000000E+00  0.00000000000E+00  0.11836898810E+04  0.28040286617E+04  0.25419392206E+04 0.  0.
        2    1    3    3  502    0 -0.75492425164E+03  0.53873515628E+03 -0.36679015631E+03  0.99733706093E+03  0.25500000920E-02 0.  1.
       -2    1    3    3    0  502  0.75492425164E+03 -0.53873515628E+03  0.15504800373E+04  0.18066916008E+04  0.25500000920E-02 0. -1.
</event>
<event>
 5   0  0.2036578E-05  0.2446375E+04  0.7818609E-02  0.8422343E-01
       -1   -1    0    0    0  501  0.00000000000E+00  0.00000000000E+00  0.80650917613E+03  0.80650917615E+03  0.50400001928E-02 0. -1.
        1   -1    0    0  501    0  0.00000000000E+00  0.00000000000E+00 -0.18551400721E+04  0.18551400721E+04  0.50400001928E-02 0.  1.
    10030    2    1    2    0    0  0.00000000000E+00  0.00000000000E+00 -0.10486308959E+04  0.26616492482E+04  0.24463748618E+04 0.  0.
        2    1    3    3  502    0 -0.80309328099E+03  0.67585876016E+03 -0.12076293875E+04  0.16000351931E+04  0.25500000920E-02 0. -1.
       -2    1    3    3    0  502  0.80309328099E+03 -0.67585876016E+03  0.15899849156E+03  0.10616140551E+04  0.25500000920E-02 0.  1.
</event>
<event>
 5   0  0.4959347E-05  0.2466243E+04  0.7818609E-02  0.8415111E-01
        2   -1    0    0  501    0  0.00000000000E+00  0.00000000000E+00  0.21897638389E+04  0.21897638389E+04  0.25500000920E-02 0. -1.
       -2   -1    0    0    0  501  0.00000000000E+00  0.00000000000E+00 -0.69440753494E+03  0.69440753494E+03  0.25500000920E-02 0.  1.
    10030    2    1    2    0    0  0.00000000000E+00  0.00000000000E+00  0.14953563040E+04  0.28841713739E+04  0.24662428992E+04 0.  0.
        3    1    3    3  502    0  0.14806638877E+03  0.55733264236E+03 -0.52700337115E+03  0.78120157010E+03  0.10100000352E+00 0.  1.
       -3    1    3    3    0  502 -0.14806638877E+03 -0.55733264236E+03  0.20223596751E+04  0.21029698037E+04  0.10100000352E+00 0. -1.
</event>
<event>
 5   0  0.5024070E-05  0.2495918E+04  0.7818609E-02  0.8404441E-01
       -2   -1    0    0    0  501  0.00000000000E+00  0.00000000000E+00  0.15736901374E+04  0.15736901374E+04  0.25500000920E-02 0.  1.
        2   -1    0    0  501    0  0.00000000000E+00  0.00000000000E+00 -0.98964948751E+03  0.98964948751E+03  0.25500000920E-02 0. -1.
    10030    2    1    2    0    0  0.00000000000E+00  0.00000000000E+00  0.58404064991E+03  0.25633396249E+04  0.24959179778E+04 0.  0.
        5    1    3    3  502    0  0.50172651602E+03  0.98284384000E+03  0.89057411168E+03  0.14180464905E+04  0.46999998093E+01 0.  1.
       -5    1    3    3    0  502 -0.50172651602E+03 -0.98284384000E+03 -0.30653346177E+03  0.11452931345E+04  0.46999998093E+01 0. -1.
</event>
<event>
 5   0  0.2066170E-05  0.2511505E+04  0.7818609E-02  0.8398898E-01
        1   -1    0    0  501    0  0.00000000000E+00  0.00000000000E+00  0.15601235292E+04  0.15601235293E+04  0.50400001928E-02 0. -1.
       -1   -1    0    0    0  501  0.00000000000E+00  0.00000000000E+00 -0.10107628350E+04  0.10107628350E+04  0.50400001928E-02 0.  1.
    10030    2    1    2    0    0  0.00000000000E+00  0.00000000000E+00  0.54936069421E+03  0.25708863643E+04  0.25115054302E+04 0.  0.
        5    1    3    3  502    0 -0.54411354332E+03 -0.11159681672E+04  0.46740906139E+03  0.13266264805E+04  0.46999998093E+01 0.  1.
       -5    1    3    3    0  502  0.54411354332E+03  0.11159681672E+04  0.81951632821E+02  0.12442598838E+04  0.46999998093E+01 0. -1.
</event>
<event>
 5   0  0.2063930E-05  0.2502948E+04  0.7818609E-02  0.8401936E-01
        1   -1    0    0  501    0  0.00000000000E+00  0.00000000000E+00  0.11309032818E+04  0.11309032818E+04  0.50400001928E-02 0. -1.
       -1   -1    0    0    0  501  0.00000000000E+00  0.00000000000E+00 -0.13848989057E+04  0.13848989057E+04  0.50400001928E-02 0.  1.
    10030    2    1    2    0    0  0.00000000000E+00  0.00000000000E+00 -0.25399562392E+03  0.25158021875E+04  0.25029476362E+04 0.  0.
        3    1    3    3  502    0  0.11495740673E+04  0.46981223125E+03  0.28530955325E+02  0.12421988949E+04  0.10100000352E+00 0. -1.
       -3    1    3    3    0  502 -0.11495740673E+04 -0.46981223125E+03 -0.28252657925E+03  0.12736032926E+04  0.10100000352E+00 0.  1.
</event>
<event>
 5   0  0.4959347E-05  0.2621033E+04  0.7818609E-02  0.8361092E-01
        2   -1    0    0  501    0  0.00000000000E+00  0.00000000000E+00  0.21040681626E+04  0.21040681626E+04  0.25500000920E-02 0. -1.
       -2   -1    0    0    0  501  0.00000000000E+00  0.00000000000E+00 -0.81625357349E+03  0.81625357349E+03  0.25500000920E-02 0.  1.
    10030    2    1    2    0    0  0.00000000000E+00  0.00000000000E+00  0.12878145891E+04  0.29203217361E+04  0.26210327404E+04 0.  0.
        3    1    3    3  502    0 -0.79442407195E+03  0.10391055308E+04  0.73444649885E+03  0.15000871908E+04  0.10100000352E+00 0. -1.
       -3    1    3    3    0  502  0.79442407195E+03 -0.10391055308E+04  0.55336809029E+03  0.14202345453E+04  0.10100000352E+00 0.  1.
</event>
<event>
 5   0  0.5219468E-05  0.2638807E+04  0.7818609E-02  0.8355138E-01
       -2   -1    0    0    0  501  0.00000000000E+00  0.00000000000E+00  0.78495662889E+03  0.78495662890E+03  0.25500000920E-02 0.  1.
        2   -1    0    0  501    0  0.00000000000E+00  0.00000000000E+00 -0.22177346932E+04  0.22177346932E+04  0.25500000920E-02 0. -1.
    10030    2    1    2    0    0  0.00000000000E+00  0.00000000000E+00 -0.14327780643E+04  0.30026913221E+04  0.26388069642E+04 0.  0.
        1    1    3    3  502    0 -0.37552792154E+03  0.12449270047E+04 -0.97073156019E+03  0.16227089169E+04  0.50400001928E-02 0. -1.
       -1    1    3    3    0  502  0.37552792154E+03 -0.12449270047E+04 -0.46204650416E+03  0.13799824053E+04  0.50400001928E-02 0.  1.
</event>
<event>
 5   0  0.5219468E-05  0.2475811E+04  0.7818609E-02  0.8411654E-01
        2   -1    0    0  501    0  0.00000000000E+00  0.00000000000E+00  0.22943349827E+04  0.22943349827E+04  0.25500000920E-02 0. -1.
       -2   -1    0    0    0  501  0.00000000000E+00  0.00000000000E+00 -0.66791018595E+03  0.66791018595E+03  0.25500000920E-02 0.  1.
    10030    2    1    2    0    0  0.00000000000E+00  0.00000000000E+00  0.16264247967E+04  0.29622451686E+04  0.24758107399E+04 0.  0.
        1    1    3    3  502    0  0.53123958063E+03  0.42868241392E+03  0.20487866189E+04  0.21595163148E+04  0.50400001928E-02 0. -1.
       -1    1    3    3    0  502 -0.53123958063E+03 -0.42868241392E+03 -0.42236182214E+03  0.80272885388E+03  0.50400001928E-02 0.  1.
</event>
<event>
 5   0  0.4995256E-05  0.2507897E+04  0.7818609E-02  0.8400177E-01
       -2   -1    0    0    0  501  0.00000000000E+00  0.00000000000E+00  0.14646743606E+04  0.14646743606E+04  0.25500000920E-02 0.  1.
        2   -1    0    0  501    0  0.00000000000E+00  0.00000000000E+00 -0.10735404936E+04  0.10735404936E+04  0.25500000920E-02 0. -1.
    10030    2    1    2    0    0  0.00000000000E+00  0.00000000000E+00  0.39113386695E+03  0.25382148542E+04  0.25078973153E+04 0.  0.
        2    1    3    3  502    0  0.11055424997E+04  0.22040184052E+03  0.75137424137E+03  0.13547562292E+04  0.25500000920E-02 0.  1.
       -2    1    3    3    0  502 -0.11055424997E+04 -0.22040184052E+03 -0.36024037442E+03  0.11834586251E+04  0.25500000920E-02 0. -1.
</event>
<event>
 5   0  0.2081874E-05  0.2548305E+04  0.7818609E-02  0.8385976E-01
       -1   -1    0    0    0  501  0.00000000000E+00  0.00000000000E+00  0.10376376819E+04  0.10376376819E+04  0.50400001928E-02 0. -1.
        1   -1    0    0  501    0  0.00000000000E+00  0.00000000000E+00 -0.15645780344E+04  0.15645780344E+04  0.50400001928E-02 0.  1.
    10030    2    1    2    0    0  0.00000000000E+00  0.00000000000E+00 -0.52694035244E+03  0.26022157163E+04  0.25483054172E+04 0.  0.
        1    1    3    3  502    0 -0.87619801755E+03  0.82087474890E+03  0.17205803503E+03  0.12129147896E+04  0.50400001928E-02 0. -1.
       -1    1    3    3    0  502  0.87619801755E+03 -0.82087474890E+03 -0.69899838747E+03  0.13893009267E+04  0.50400001928E-02 0.  1.
</event>
<event>
 5   0  0.5219468E-05  0.2487783E+04  0.7818609E-02  0.8407351E-01
        2   -1    0    0  501    0  0.00000000000E+00  0.00000000000E+00  0.20181786767E+04  0.20181786767E+04  0.25500000920E-02 0.  1.
       -2   -1    0    0    0  501  0.00000000000E+00  0.00000000000E+00 -0.76666465039E+03  0.76666465040E+03  0.25500000920E-02 0. -1.
    10030    2    1    2    0    0  0.00000000000E+00  0.00000000000E+00  0.12515140263E+04  0.27848433271E+04  0.24877831494E+04 0.  0.
        1    1    3    3  502    0  0.26490778179E+03  0.20436264929E+03  0.19668643082E+04  0.19951178994E+04  0.50400001928E-02 0.  1.
       -1    1    3    3    0  502 -0.26490778179E+03 -0.20436264929E+03 -0.71535028195E+03  0.78972542772E+03  0.50400001928E-02 0. -1.
</event>
<event>
 5   0  0.4959042E-05  0.2478518E+04  0.7818609E-02  0.8410679E-01
       -2   -1    0    0    0  501  0.00000000000E+00  0.00000000000E+00  0.71320548976E+03  0.71320548976E+03  0.25500000920E-02 0. -1.
        2   -1    0    0  501    0  0.00000000000E+00  0.00000000000E+00 -0.21533247112E+04  0.21533247112E+04  0.25500000920E-02 0.  1.
    10030    2    1    2    0    0  0.00000000000E+00  0.00000000000E+00 -0.14401192215E+04  0.28665302010E+04  0.24785181099E+04 0.  0.
        4    1    3    3  502    0  0.22876149575E+03  0.11820351287E+04 -0.10596651719E+04  0.16038799073E+04  0.12699999809E+01 0. -1.
       -4    1    3    3    0  502 -0.22876149575E+03 -0.11820351287E+04 -0.38045404959E+03  0.12626502937E+04  0.12699999809E+01 0.  1.
</event>
<event>
 5   0  0.4959347E-05  0.2470112E+04  0.7818609E-02  0.8413711E-01
       -2   -1    0    0    0  501  0.00000000000E+00  0.00000000000E+00  0.11286308708E+04  0.11286308708E+04  0.25500000920E-02 0. -1.
        2   -1    0    0  501    0  0.00000000000E+00  0.00000000000E+00 -0.13515169765E+04  0.13515169765E+04  0.25500000920E-02 0.  1.
    10030    2    1    2    0    0  0.00000000000E+00  0.00000000000E+00 -0.22288610572E+03  0.24801478473E+04  0.24701123716E+04 0.  0.
        3    1    3    3  502    0 -0.62788477456E+02 -0.10718745990E+04  0.50136946252E+03  0.11850016443E+04  0.10100000352E+00 0. -1.
       -3    1    3    3    0  502  0.62788477456E+02  0.10718745990E+04 -0.72425556824E+03  0.12951462030E+04  0.10100000352E+00 0.  1.
</event>
<event>
 5   0  0.2066170E-05  0.2541849E+04  0.7818609E-02  0.8388226E-01
        1   -1    0    0  501    0  0.00000000000E+00  0.00000000000E+00  0.16893726079E+04  0.16893726079E+04  0.50400001928E-02 0.  1.
       -1   -1    0    0    0  501  0.00000000000E+00  0.00000000000E+00 -0.95612361823E+03  0.95612361824E+03  0.50400001928E-02 0. -1.
    10030    2    1    2    0    0  0.00000000000E+00  0.00000000000E+00  0.73324898971E+03  0.26454962262E+04  0.25418489731E+04 0.  0.
        5    1    3    3  502    0  0.45297250960E+03  0.10066999353E+04 -0.28881517264E+03  0.11410806931E+04  0.46999998093E+01 0. -1.
       -5    1    3    3    0  502 -0.45297250960E+03 -0.10066999353E+04  0.10220641624E+04  0.15044155331E+04  0.46999998093E+01 0.  1.
</event>
<event>
 5   0  0.2036578E-05  0.2497580E+04  0.7818609E-02  0.8403848E-01
        1   -1    0    0  501    0  0.00000000000E+00  0.00000000000E+00  0.10955429280E+04  0.10955429280E+04  0.50400001928E-02 0.  1.
       -1   -1    0    0    0  501  0.00000000000E+00  0.00000000000E+00 -0.14234732779E+04  0.14234732780E+04  0.50400001928E-02 0. -1.
    10030    2    1    2    0    0  0.00000000000E+00  0.00000000000E+00 -0.32793034994E+03  0.25190162060E+04  0.24975796947E+04 0.  0.
        2    1    3    3  502    0  0.10374088467E+04 -0.37498130188E+03  0.42642035071E+03  0.11826505855E+04  0.25500000920E-02 0.  1.
       -2    1    3    3    0  502 -0.10374088467E+04  0.37498130188E+03 -0.75435070065E+03  0.13363656204E+04  0.25500000920E-02 0. -1.
</event>
<event>
 5   0  0.5219468E-05  0.2562860E+04  0.7818609E-02  0.8380927E-01
       -2   -1    0    0    0  501  0.00000000000E+00  0.00000000000E+00  0.14780556431E+04  0.14780556432E+04  0.25500000920E-02 0. -1.
        2   -1    0    0  501    0  0.00000000000E+00  0.00000000000E+00 -0.11109612577E+04  0.11109612577E+04  0.25500000920E-02 0.  1.
    10030    2    1    2    0    0  0.00000000000E+00  0.00000000000E+00  0.36709438546E+03  0.25890169008E+04  0.25628597747E+04 0.  0.
        1    1    3    3  502    0 -0.37455351948E+03 -0.41969686196E+03 -0.97956249282E+03  0.11295921708E+04  0.50400001928E-02 0.  1.
       -1    1    3    3    0  502  0.37455351948E+03  0.41969686196E+03  0.13466568783E+04  0.14594247301E+04  0.50400001928E-02 0. -1.
</event>
<event>
 5   0  0.4959042E-05  0.2482646E+04  0.7818609E-02  0.8409194E-01
        2   -1    0    0  501    0  0.00000000000E+00  0.00000000000E+00  0.11497937269E+04  0.11497937269E+04  0.25500000920E-02 0.  1.
       -2   -1    0    0    0  501  0.00000000000E+00  0.00000000000E+00 -0.13401381011E+04  0.13401381011E+04  0.25500000920E-02 0. -1.
    10030    2    1    2    0    0  0.00000000000E+00  0.00000000000E+00 -0.19034437416E+03  0.24899318280E+04  0.24826456709E+04 0.  0.
        4    1    3    3  502    0  0.56598733006E+03 -0.76092923853E+03 -0.89847591319E+03  0.13063749628E+04  0.12699999809E+01 0.  1.
       -4    1    3    3    0  502 -0.56598733006E+03  0.76092923853E+03  0.70813153903E+03  0.11835568653E+04  0.12699999809E+01 0. -1.
</event>
<event>
 5   0  0.4959347E-05  0.2500893E+04  0.7818609E-02  0.8402667E-01
       -2   -1    0    0    0  501  0.00000000000E+00  0.00000000000E+00  0.10433786956E+04  0.10433786956E+04  0.25500000920E-02 0. -1.
        2   -1    0    0  501    0  0.00000000000E+00  0.00000000000E+00 -0.14986093400E+04  0.14986093400E+04  0.25500000920E-02 0.  1.
    10030    2    1    2    0    0  0.00000000000E+00  0.00000000000E+00 -0.45523064434E+03  0.25419880356E+04  0.25008934871E+04 0.  0.
        3    1    3    3  502    0 -0.45512553274E+03 -0.11193593372E+04 -0.55463557230E+03  0.13295582743E+04  0.10100000352E+00 0.  1.
       -3    1    3    3    0  502  0.45512553274E+03  0.11193593372E+04  0.99404927961E+02  0.12124297614E+04  0.10100000352E+00 0. -1.
</event>
<event>
 5   0  0.2081874E-05  0.2497599E+04  0.7818609E-02  0.8403842E-01
       -1   -1    0    0    0  501  0.00000000000E+00  0.00000000000E+00  0.95354955767E+03  0.95354955769E+03  0.50400001928E-02 0.  1.
        1   -1    0    0  501    0  0.00000000000E+00  0.00000000000E+00 -0.16354678135E+04  0.16354678135E+04  0.50400001928E-02 0. -1.
    10030    2    1    2    0    0  0.00000000000E+00  0.00000000000E+00 -0.68191825579E+03  0.25890173712E+04  0.24975985347E+04 0.  0.
        1    1    3    3  502    0  0.10640284729E+04 -0.49230248807E+03  0.10487799009E+03  0.11770801688E+04  0.50400001928E-02 0. -1.
       -1    1    3    3    0  502 -0.10640284729E+04  0.49230248807E+03 -0.78679624588E+03  0.14119372024E+04  0.50400001928E-02 0.  1.
</event>
<event>
 5   0  0.4995256E-05  0.2537577E+04  0.7818609E-02  0.8389720E-01
        2   -1    0    0  501    0  0.00000000000E+00  0.00000000000E+00  0.26546009424E+04  0.26546009424E+04  0.25500000920E-02 0.  1.
       -2   -1    0    0    0  501  0.00000000000E+00  0.00000000000E+00 -0.60642799114E+03  0.60642799114E+03  0.25500000920E-02 0. -1.
    10030    2    1    2    0    0  0.00000000000E+00  0.00000000000E+00  0.20481729513E+04  0.32610289336E+04  0.25375770466E+04 0.  0.
        2    1    3    3  502    0 -0.40513295941E+02 -0.10676681455E+04  0.19034785063E+04  0.21828392107E+04  0.25500000920E-02 0.  1.
       -2    1    3    3    0  502  0.40513295941E+02  0.10676681455E+04  0.14469444502E+03  0.10781897228E+04  0.25500000920E-02 0. -1.
</event>
<event>
 5   0  0.2081874E-05  0.2455473E+04  0.7818609E-02  0.8419022E-01
       -1   -1    0    0    0  501  0.00000000000E+00  0.00000000000E+00  0.15546355417E+04  0.15546355417E+04  0.50400001928E-02 0. -1.
        1   -1    0    0  501    0  0.00000000000E+00  0.00000000000E+00 -0.96957572735E+03  0.96957572736E+03  0.50400001928E-02 0.  1.
    10030    2    1    2    0    0  0.00000000000E+00  0.00000000000E+00  0.58505981433E+03  0.25242112691E+04  0.24554729778E+04 0.  0.
        1    1    3    3  502    0  0.10383574363E+04 -0.63638255757E+03  0.45234233440E+03  0.12991468403E+04  0.50400001928E-02 0. -1.
       -1    1    3    3    0  502 -0.10383574363E+04  0.63638255757E+03  0.13271747993E+03  0.12250644288E+04  0.50400001928E-02 0.  1.
</event>
<event>
 5   0  0.2036578E-05  0.2480308E+04  0.7818609E-02  0.8410035E-01
       -1   -1    0    0    0  501  0.00000000000E+00  0.00000000000E+00  0.18383768660E+04  0.18383768660E+04  0.50400001928E-02 0.  1.
        1   -1    0    0  501    0  0.00000000000E+00  0.00000000000E+00 -0.83659798598E+03  0.83659798600E+03  0.50400001928E-02 0. -1.
    10030    2    1    2    0    0  0.00000000000E+00  0.00000000000E+00  0.10017788800E+04  0.26749748520E+04  0.24803083547E+04 0.  0.
        2    1    3    3  502    0  0.80297672548E+03  0.59495220446E+03  0.12928547138E+04  0.16340786573E+04  0.25500000920E-02 0.  1.
       -2    1    3    3    0  502 -0.80297672548E+03 -0.59495220446E+03 -0.29107583373E+03  0.10408961947E+04  0.25500000920E-02 0. -1.
</event>
<event>
 5   0  0.5024070E-05  0.2474749E+04  0.7818609E-02  0.8412037E-01
       -2   -1    0    0    0  501  0.00000000000E+00  0.00000000000E+00  0.68791011818E+03  0.68791011818E+03  0.25500000920E-02 0.  1.
        2   -1    0    0  501    0  0.00000000000E+00  0.00000000000E+00 -0.22257209085E+04  0.22257209085E+04  0.25500000920E-02 0. -1.
    10030    2    1    2    0    0  0.00000000000E+00  0.00000000000E+00 -0.15378107903E+04  0.29136310267E+04  0.24747492263E+04 0.  0.
        5    1    3    3  502    0  0.91080293613E+03 -0.19426085139E+02  0.21692912002E+03  0.93649329648E+03  0.46999998093E+01 0.  1.
       -5    1    3    3    0  502 -0.91080293613E+03  0.19426085139E+02 -0.17547399104E+04  0.19771377302E+04  0.46999998093E+01 0. -1.
</event>
<event>
 5   0  0.2081874E-05  0.2358939E+04  0.7818609E-02  0.8455038E-01
       -1   -1    0    0    0  501  0.00000000000E+00  0.00000000000E+00  0.16281455558E+04  0.16281455558E+04  0.50400001928E-02 0. -1.
        1   -1    0    0  501    0  0.00000000000E+00  0.00000000000E+00 -0.85443711796E+03  0.85443711797E+03  0.50400001928E-02 0.  1.
    10030    2    1    2    0    0  0.00000000000E+00  0.00000000000E+00  0.77370843783E+03  0.24825826738E+04  0.23589387413E+04 0.  0.
        1    1    3    3  502    0 -0.96053509306E+03  0.12011953630E+01  0.11072159105E+04  0.14657954088E+04  0.50400001928E-02 0. -1.
       -1    1    3    3    0  502  0.96053509306E+03 -0.12011953630E+01 -0.33350747269E+03  0.10167872650E+04  0.50400001928E-02 0.  1.
</event>
<event>
 5   0  0.4959042E-05  0.2532027E+04  0.7818609E-02  0.8391664E-01
        2   -1    0    0  501    0  0.00000000000E+00  0.00000000000E+00  0.19020553189E+04  0.19020553189E+04  0.25500000920E-02 0.  1.
       -2   -1    0    0    0  501  0.00000000000E+00  0.00000000000E+00 -0.84266197664E+03  0.84266197664E+03  0.25500000920E-02 0. -1.
    10030    2    1    2    0    0  0.00000000000E+00  0.00000000000E+00  0.10593933422E+04  0.27447172955E+04  0.25320266149E+04 0.  0.
        4    1    3    3  502    0 -0.55532806511E+03  0.27218447351E+03 -0.66777494139E+03  0.91016406915E+03  0.12699999809E+01 0. -1.
       -4    1    3    3    0  502  0.55532806511E+03 -0.27218447351E+03  0.17271682836E+04  0.18345532264E+04  0.12699999809E+01 0.  1.
</event>
<event>
 5   0  0.1692125E-05  0.2393467E+04  0.7818609E-02  0.8441954E-01
        3   -1    0    0  501    0  0.00000000000E+00  0.00000000000E+00  0.24228011992E+04  0.24228012013E+04  0.10100000352E+00 0.  1.
       -3   -1    0    0    0  501  0.00000000000E+00  0.00000000000E+00 -0.59112178927E+03  0.59112179790E+03  0.10100000352E+00 0. -1.
    10030    2    1    2    0    0  0.00000000000E+00  0.00000000000E+00  0.18316794099E+04  0.30139229992E+04  0.23934666040E+04 0.  0.
        1    1    3    3  502    0 -0.24054320838E+03  0.11429687517E+04  0.58763714768E+03  0.13074999120E+04  0.50400001928E-02 0. -1.
       -1    1    3    3    0  502  0.24054320838E+03 -0.11429687517E+04  0.12440422622E+04  0.17064230872E+04  0.50400001928E-02 0.  1.
</event>
<event>
 5   0  0.4959347E-05  0.2466848E+04  0.7818609E-02  0.8414892E-01
       -2   -1    0    0    0  501  0.00000000000E+00  0.00000000000E+00  0.10189118003E+04  0.10189118003E+04  0.25500000920E-02 0. -1.
        2   -1    0    0  501    0  0.00000000000E+00  0.00000000000E+00 -0.14930973877E+04  0.14930973877E+04  0.25500000920E-02 0.  1.
    10030    2    1    2    0    0  0.00000000000E+00  0.00000000000E+00 -0.47418558736E+03  0.25120091880E+04  0.24668478245E+04 0.  0.
        3    1    3    3  502    0 -0.32279749949E+03  0.50104642691E+03 -0.13367179689E+04  0.14635780424E+04  0.10100000352E+00 0.  1.
       -3    1    3    3    0  502  0.32279749949E+03 -0.50104642691E+03  0.86253238158E+03  0.10484311456E+04  0.10100000352E+00 0. -1.
</event>
<event>
 5   0  0.5024070E-05  0.2514199E+04  0.7818609E-02  0.8397944E-01
        2   -1    0    0  501    0  0.00000000000E+00  0.00000000000E+00  0.22295282857E+04  0.22295282857E+04  0.25500000920E-02 0.  1.
       -2   -1    0    0    0  501  0.00000000000E+00  0.00000000000E+00 -0.70880445810E+03  0.70880445810E+03  0.25500000920E-02 0. -1.
    10030    2    1    2    0    0  0.00000000000E+00  0.00000000000E+00  0.15207238276E+04  0.29383327438E+04  0.25141993464E+04 0.  0.
        5    1    3    3  502    0 -0.12517984856E+04 -0.59043960135E+02  0.64471504546E+03  0.14093137399E+04  0.46999998093E+01 0.  1.
       -5    1    3    3    0  502  0.12517984856E+04  0.59043960135E+02  0.87600878212E+03  0.15290190038E+04  0.46999998093E+01 0. -1.
</event>
<event>
 5   0  0.2063930E-05  0.2420132E+04  0.7818609E-02  0.8432005E-01
        1   -1    0    0  501    0  0.00000000000E+00  0.00000000000E+00  0.59671177437E+03  0.59671177439E+03  0.50400001928E-02 0. -1.
       -1   -1    0    0    0  501  0.00000000000E+00  0.00000000000E+00 -0.24538819537E+04  0.24538819537E+04  0.50400001928E-02 0.  1.
    10030    2    1    2    0    0  0.00000000000E+00  0.00000000000E+00 -0.18571701794E+04  0.30505937281E+04  0.24201324383E+04 0.  0.
        3    1    3    3  502    0  0.72289204052E+02  0.40476278309E+03 -0.23631292675E+04  0.23986326490E+04  0.10100000352E+00 0.  1.
       -3    1    3    3    0  502 -0.72289204052E+02 -0.40476278309E+03  0.50595908817E+03  0.65196107913E+03  0.10100000352E+00 0. -1.
</event>
<event>
 5   0  0.4995256E-05  0.2523051E+04  0.7818609E-02  0.8394819E-01
       -2   -1    0    0    0  501  0.00000000000E+00  0.00000000000E+00  0.16439950693E+04  0.16439950693E+04  0.25500000920E-02 0.  1.
        2   -1    0    0  501    0  0.00000000000E+00  0.00000000000E+00 -0.96803640983E+03  0.96803640984E+03  0.25500000920E-02 0. -1.
    10030    2    1    2    0    0  0.00000000000E+00  0.00000000000E+00  0.67595865946E+03  0.26120314791E+04  0.25230513944E+04 0.  0.
        2    1    3    3  502    0 -0.88283806141E+03  0.51508921164E+03  0.11034659927E+04  0.15041134052E+04  0.25500000920E-02 0.  1.
       -2    1    3    3    0  502  0.88283806141E+03 -0.51508921164E+03 -0.42750733322E+03  0.11079180740E+04  0.25500000920E-02 0. -1.
</event>
<event>
 5   0  0.4959042E-05  0.2478652E+04  0.7818609E-02  0.8410631E-01
        2   -1    0    0  501    0  0.00000000000E+00  0.00000000000E+00  0.12386023565E+04  0.12386023565E+04  0.25500000920E-02 0. -1.
       -2   -1    0    0    0  501  0.00000000000E+00  0.00000000000E+00 -0.12400495686E+04  0.12400495686E+04  0.25500000920E-02 0.  1.
    10030    2    1    2    0    0  0.00000000000E+00  0.00000000000E+00 -0.14472120921E+01  0.24786519251E+04  0.24786515026E+04 0.  0.
        4    1    3    3  502    0 -0.40468805905E+03 -0.88541966023E+03  0.76620957593E+03  0.12388781728E+04  0.12699999809E+01 0. -1.
       -4    1    3    3    0  502  0.40468805905E+03  0.88541966023E+03 -0.76765678802E+03  0.12397737523E+04  0.12699999809E+01 0.  1.
</event>
<event>
 5   0  0.4959042E-05  0.2257947E+04  0.7818609E-02  0.8494689E-01
       -2   -1    0    0    0  501  0.00000000000E+00  0.00000000000E+00  0.19434078670E+04  0.19434078670E+04  0.25500000920E-02 0. -1.
        2   -1    0    0  501    0  0.00000000000E+00  0.00000000000E+00 -0.65584879681E+03  0.65584879682E+03  0.25500000920E-02 0.  1.
    10030    2    1    2    0    0  0.00000000000E+00  0.00000000000E+00  0.12875590702E+04  0.25992566639E+04  0.22579474851E+04 0.  0.
        4    1    3    3  502    0 -0.37187803925E+03  0.63805042480E+03  0.16267766653E+04  0.17865624961E+04  0.12699999809E+01 0. -1.
       -4    1    3    3    0  502  0.37187803925E+03 -0.63805042480E+03 -0.33921759507E+03  0.81269416780E+03  0.12699999809E+01 0.  1.
</event>
<event>
 5   0  0.2041718E-05  0.2426637E+04  0.7818609E-02  0.8429598E-01
       -1   -1    0    0    0  501  0.00000000000E+00  0.00000000000E+00  0.86859942055E+03  0.86859942057E+03  0.50400001928E-02 0. -1.
        1   -1    0    0  501    0  0.00000000000E+00  0.00000000000E+00 -0.16948459241E+04  0.16948459241E+04  0.50400001928E-02 0.  1.
    10030    2    1    2    0    0  0.00000000000E+00  0.00000000000E+00 -0.82624650355E+03  0.25634453447E+04  0.24266373339E+04 0.  0.
        4    1    3    3  502    0  0.84705901744E+03  0.54861222929E+02 -0.13289617242E+04  0.15769145855E+04  0.12699999809E+01 0.  1.
       -4    1    3    3    0  502 -0.84705901744E+03 -0.54861222929E+02  0.50271522063E+03  0.98653075915E+03  0.12699999809E+01 0. -1.
</event>
<event>
 5   0  0.2066170E-05  0.2493033E+04  0.7818609E-02  0.8405472E-01
       -1   -1    0    0    0  501  0.00000000000E+00  0.00000000000E+00  0.12759629321E+04  0.12759629321E+04  0.50400001928E-02 0.  1.
        1   -1    0    0  501    0  0.00000000000E+00  0.00000000000E+00 -0.12177493740E+04  0.12177493740E+04  0.50400001928E-02 0. -1.
    10030    2    1    2    0    0  0.00000000000E+00  0.00000000000E+00  0.58213558128E+02  0.24937123062E+04  0.24930327410E+04 0.  0.
        5    1    3    3  502    0 -0.12528284229E+03 -0.36731470424E+03 -0.11557688090E+04  0.12191962567E+04  0.46999998093E+01 0. -1.
       -5    1    3    3    0  502  0.12528284229E+03  0.36731470424E+03  0.12139823671E+04  0.12745160494E+04  0.46999998093E+01 0.  1.
</event>
<event>
 5   0  0.2081874E-05  0.2549162E+04  0.7818609E-02  0.8385678E-01
       -1   -1    0    0    0  501  0.00000000000E+00  0.00000000000E+00  0.16200692823E+04  0.16200692823E+04  0.50400001928E-02 0. -1.
        1   -1    0    0  501    0  0.00000000000E+00  0.00000000000E+00 -0.10027701317E+04  0.10027701317E+04  0.50400001928E-02 0.  1.
    10030    2    1    2    0    0  0.00000000000E+00  0.00000000000E+00  0.61729915059E+03  0.26228394141E+04  0.25491622841E+04 0.  0.
        1    1    3    3  502    0 -0.88717303993E+02  0.29048864968E+03 -0.96498985687E+03  0.10116619196E+04  0.50400001928E-02 0.  1.
       -1    1    3    3    0  502  0.88717303993E+02 -0.29048864968E+03  0.15822890075E+04  0.16111774945E+04  0.50400001928E-02 0. -1.
</event>
<event>
 5   0  0.2041718E-05  0.2497766E+04  0.7818609E-02  0.8403782E-01
       -1   -1    0    0    0  501  0.00000000000E+00  0.00000000000E+00  0.93723264096E+03  0.93723264098E+03  0.50400001928E-02 0.  1.
        1   -1    0    0  501    0  0.00000000000E+00  0.00000000000E+00 -0.16641635812E+04  0.16641635812E+04  0.50400001928E-02 0. -1.
    10030    2    1    2    0    0  0.00000000000E+00  0.00000000000E+00 -0.72693094024E+03  0.26013962222E+04  0.24977657442E+04 0.  0.
        4    1    3    3  502    0 -0.50115990732E+03  0.11343592098E+04 -0.51715042204E+03  0.13436436438E+04  0.12699999809E+01 0. -1.
       -4    1    3    3    0  502  0.50115990732E+03 -0.11343592098E+04 -0.20978051820E+03  0.12577525784E+04  0.12699999809E+01 0.  1.
</event>
<event>
 5   0  0.2081874E-05  0.2438354E+04  0.7818609E-02  0.8425282E-01
        1   -1    0    0  501    0  0.00000000000E+00  0.00000000000E+00  0.88279059217E+03  0.88279059218E+03  0.50400001928E-02 0. -1.
       -1   -1    0    0    0  501  0.00000000000E+00  0.00000000000E+00 -0.16837430523E+04  0.16837430524E+04  0.50400001928E-02 0.  1.
    10030    2    1    2    0    0  0.00000000000E+00  0.00000000000E+00 -0.80095246017E+03  0.25665336445E+04  0.24383539745E+04 0.  0.
        1    1    3    3  502    0 -0.25739831749E+03  0.64336805705E+03  0.65535828986E+03  0.95376665846E+03  0.50400001928E-02 0. -1.
       -1    1    3    3    0  502  0.25739831749E+03 -0.64336805705E+03 -0.14563107500E+04  0.16127669861E+04  0.50400001928E-02 0.  1.
</event>
<event>
 5   0  0.4995256E-05  0.2494696E+04  0.7818609E-02  0.8404878E-01
       -2   -1    0    0    0  501  0.00000000000E+00  0.00000000000E+00  0.89142267228E+03  0.89142267228E+03  0.25500000920E-02 0. -1.
        2   -1    0    0  501    0  0.00000000000E+00  0.00000000000E+00 -0.17453861858E+04  0.17453861858E+04  0.25500000920E-02 0.  1.
    10030    2    1    2    0    0  0.00000000000E+00  0.00000000000E+00 -0.85396351350E+03  0.26368088581E+04  0.24946958275E+04 0.  0.
        2    1    3    3  502    0 -0.39835640732E+03  0.82199553990E+03 -0.13247886278E+04  0.16091704084E+04  0.25500000920E-02 0.  1.
       -2    1    3    3    0  502  0.39835640732E+03 -0.82199553990E+03  0.47082511434E+03  0.10276384496E+04  0.25500000920E-02 0. -1.
</event>
<event>
 5   0  0.2041718E-05  0.2493194E+04  0.7818609E-02  0.8405414E-01
        1   -1    0    0  501    0  0.00000000000E+00  0.00000000000E+00  0.16433116549E+04  0.16433116550E+04  0.50400001928E-02 0. -1.
       -1   -1    0    0    0  501  0.00000000000E+00  0.00000000000E+00 -0.94565412456E+03  0.94565412458E+03  0.50400001928E-02 0.  1.
    10030    2    1    2    0    0  0.00000000000E+00  0.00000000000E+00  0.69765753038E+03  0.25889657795E+04  0.24931942920E+04 0.  0.
        4    1    3    3  502    0 -0.94974443703E+03  0.76633561471E+03  0.61299842467E+03  0.13656695983E+04  0.12699999809E+01 0. -1.
       -4    1    3    3    0  502  0.94974443703E+03 -0.76633561471E+03  0.84659105708E+02  0.12232961813E+04  0.12699999809E+01 0.  1.
</event>
<event>
 5   0  0.4959042E-05  0.2499877E+04  0.7818609E-02  0.8403029E-01
       -2   -1    0    0    0  501  0.00000000000E+00  0.00000000000E+00  0.85611183544E+03  0.85611183544E+03  0.25500000920E-02 0.  1.
        2   -1    0    0  501    0  0.00000000000E+00  0.00000000000E+00 -0.18249325286E+04  0.18249325286E+04  0.25500000920E-02 0. -1.
    10030    2    1    2    0    0  0.00000000000E+00  0.00000000000E+00 -0.96882069312E+03  0.26810443640E+04  0.24998770662E+04 0.  0.
        4    1    3    3  502    0  0.56057494022E+03 -0.91529840901E+03  0.20258153285E+03  0.10922711804E+04  0.12699999809E+01 0.  1.
       -4    1    3    3    0  502 -0.56057494022E+03  0.91529840901E+03 -0.11714022260E+04  0.15887731836E+04  0.12699999809E+01 0. -1.
</event>
<event>
 5   0  0.2081874E-05  0.2496978E+04  0.7818609E-02  0.8404063E-01
        1   -1    0    0  501    0  0.00000000000E+00  0.00000000000E+00  0.11348560724E+04  0.11348560724E+04  0.50400001928E-02 0.  1.
       -1   -1    0    0    0  501  0.00000000000E+00  0.00000000000E+00 -0.13734999537E+04  0.13734999537E+04  0.50400001928E-02 0. -1.
    10030    2    1    2    0    0  0.00000000000E+00  0.00000000000E+00 -0.23864388130E+03  0.25083560261E+04  0.24969779838E+04 0.  0.
        1    1    3    3  502    0  0.46214629112E+03 -0.10267751614E+04 -0.66111090450E+03  0.13057235751E+04  0.50400001928E-02 0. -1.
       -1    1    3    3    0  502 -0.46214629112E+03  0.10267751614E+04  0.42246702321E+03  0.12026324510E+04  0.50400001928E-02 0.  1.
</event>
<event>
 5   0  0.2063930E-05  0.2306496E+04  0.7818609E-02  0.8475364E-01
       -1   -1    0    0    0  501  0.00000000000E+00  0.00000000000E+00  0.13145677299E+04  0.13145677299E+04  0.50400001928E-02 0.  1.
        1   -1    0    0  501    0  0.00000000000E+00  0.00000000000E+00 -0.10117245068E+04  0.10117245069E+04  0.50400001928E-02 0. -1.
    10030    2    1    2    0    0  0.00000000000E+00  0.00000000000E+00  0.30284322309E+03  0.23262922368E+04  0.23064955134E+04 0.  0.
        3    1    3    3  502    0  0.63853978652E+03 -0.58813686565E+03 -0.61426653224E+03  0.10634666965E+04  0.10100000352E+00 0. -1.
       -3    1    3    3    0  502 -0.63853978652E+03  0.58813686565E+03  0.91710975533E+03  0.12628255403E+04  0.10100000352E+00 0.  1.
</event>
<event>
 5   0  0.4995256E-05  0.2514734E+04  0.7818609E-02  0.8397755E-01
       -2   -1    0    0    0  501  0.00000000000E+00  0.00000000000E+00  0.12566507169E+04  0.12566507169E+04  0.25500000920E-02 0. -1.
        2   -1    0    0  501    0  0.00000000000E+00  0.00000000000E+00 -0.12580838303E+04  0.12580838303E+04  0.25500000920E-02 0.  1.
    10030    2    1    2    0    0  0.00000000000E+00  0.00000000000E+00 -0.14331134568E+01  0.25147345472E+04  0.25147341388E+04 0.  0.
        2    1    3    3  502    0 -0.63130224602E+03 -0.81643498769E+03  0.71751982485E+03  0.12569579603E+04  0.25500000920E-02 0. -1.
       -2    1    3    3    0  502  0.63130224602E+03  0.81643498769E+03 -0.71895293831E+03  0.12577765869E+04  0.25500000920E-02 0.  1.
</event>
<event>
 5   0  0.4959347E-05  0.2444783E+04  0.7818609E-02  0.8422925E-01
        2   -1    0    0  501    0  0.00000000000E+00  0.00000000000E+00  0.18655962856E+04  0.18655962856E+04  0.25500000920E-02 0. -1.
       -2   -1    0    0    0  501  0.00000000000E+00  0.00000000000E+00 -0.80094544686E+03  0.80094544686E+03  0.25500000920E-02 0.  1.
    10030    2    1    2    0    0  0.00000000000E+00  0.00000000000E+00  0.10646508387E+04  0.26665417324E+04  0.24447828947E+04 0.  0.
        3    1    3    3  502    0  0.59000201819E+02 -0.10824483996E+04  0.11484206683E+04  0.15792547620E+04  0.10100000352E+00 0.  1.
       -3    1    3    3    0  502 -0.59000201819E+02  0.10824483996E+04 -0.83769829612E+02  0.10872869705E+04  0.10100000352E+00 0. -1.
</event>
<event>
 5   0  0.5024070E-05  0.2386095E+04  0.7818609E-02  0.8444728E-01
       -2   -1    0    0    0  501  0.00000000000E+00  0.00000000000E+00  0.11772262558E+04  0.11772262558E+04  0.25500000920E-02 0.  1.
        2   -1    0    0  501    0  0.00000000000E+00  0.00000000000E+00 -0.12090809567E+04  0.12090809567E+04  0.25500000920E-02 0. -1.
    10030    2    1    2    0    0  0.00000000000E+00  0.00000000000E+00 -0.31854700937E+02  0.23863072125E+04  0.23860945896E+04 0.  0.
        5    1    3    3  502    0  0.11737419315E+04 -0.20400753796E+03  0.47722333030E+02  0.11923039497E+04  0.46999998093E+01 0. -1.
       -5    1    3    3    0  502 -0.11737419315E+04  0.20400753796E+03 -0.79577033967E+02  0.11940032629E+04  0.46999998093E+01 0.  1.
</event>
<event>
 5   0  0.2041718E-05  0.2493843E+04  0.7818609E-02  0.8405182E-01
       -1   -1    0    0    0  501  0.00000000000E+00  0.00000000000E+00  0.10200972452E+04  0.10200972452E+04  0.50400001928E-02 0.  1.
        1   -1    0    0  501    0  0.00000000000E+00  0.00000000000E+00 -0.15241810327E+04  0.15241810327E+04  0.50400001928E-02 0. -1.
    10030    2    1    2    0    0  0.00000000000E+00  0.00000000000E+00 -0.50408378748E+03  0.25442782779E+04  0.24938427157E+04 0.  0.
        4    1    3    3  502    0 -0.34395040461E+02 -0.26937062673E+03 -0.14936456189E+04  0.15181312200E+04  0.12699999809E+01 0. -1.
       -4    1    3    3    0  502  0.34395040461E+02  0.26937062673E+03  0.98956183143E+03  0.10261470579E+04  0.12699999809E+01 0.  1.
</event>
<event>
 5   0  0.2081874E-05  0.2446843E+04  0.7818609E-02  0.8422172E-01
        1   -1    0    0  501    0  0.00000000000E+00  0.00000000000E+00  0.28175904579E+04  0.28175904580E+04  0.50400001928E-02 0.  1.
       -1   -1    0    0    0  501  0.00000000000E+00  0.00000000000E+00 -0.53121981686E+03  0.53121981689E+03  0.50400001928E-02 0. -1.
    10030    2    1    2    0    0  0.00000000000E+00  0.00000000000E+00  0.22863706411E+04  0.33488102748E+04  0.24468427715E+04 0.  0.
        1    1    3    3  502    0  0.45640105099E+03  0.55721744497E+03  0.24966487034E+04  0.25984703093E+04  0.50400001928E-02 0.  1.
       -1    1    3    3    0  502 -0.45640105099E+03 -0.55721744497E+03 -0.21027806230E+03  0.75033996551E+03  0.50400001928E-02 0. -1.
</event>
<event>
 5   0  0.2066170E-05  0.2502867E+04  0.7818609E-02  0.8401965E-01
        1   -1    0    0  501    0  0.00000000000E+00  0.00000000000E+00  0.17543832938E+04  0.17543832938E+04  0.50400001928E-02 0. -1.
       -1   -1    0    0    0  501  0.00000000000E+00  0.00000000000E+00 -0.89267029628E+03  0.89267029630E+03  0.50400001928E-02 0.  1.
    10030    2    1    2    0    0  0.00000000000E+00  0.00000000000E+00  0.86171299756E+03  0.26470535901E+04  0.25028670398E+04 0.  0.
        5    1    3    3  502    0  0.61436621885E+03 -0.10520840609E+04  0.12848948218E+03  0.12250952449E+04  0.46999998093E+01 0.  1.
       -5    1    3    3    0  502 -0.61436621885E+03  0.10520840609E+04  0.73322351539E+03  0.14219583452E+04  0.46999998093E+01 0. -1.
</event>
<event>
 5   0  0.4959347E-05  0.2496979E+04  0.7818609E-02  0.8404062E-01
       -2   -1    0    0    0  501  0.00000000000E+00  0.00000000000E+00  0.10653427878E+04  0.10653427878E+04  0.25500000920E-02 0.  1.
        2   -1    0    0  501    0  0.00000000000E+00  0.00000000000E+00 -0.14631221053E+04  0.14631221053E+04  0.25500000920E-02 0. -1.
    10030    2    1    2    0    0  0.00000000000E+00  0.00000000000E+00 -0.39777931752E+03  0.25284648931E+04  0.24969794413E+04 0.  0.
        3    1    3    3  502    0 -0.21237552709E+03 -0.11417489600E+04  0.26518219949E+03  0.11912244378E+04  0.10100000352E+00 0.  1.
       -3    1    3    3    0  502  0.21237552709E+03  0.11417489600E+04 -0.66296151701E+03  0.13372404553E+04  0.10100000352E+00 0. -1.
</event>
<event>
 5   0  0.4995256E-05  0.2269146E+04  0.7818609E-02  0.8490187E-01
        2   -1    0    0  501    0  0.00000000000E+00  0.00000000000E+00  0.78815108075E+03  0.78815108076E+03  0.25500000920E-02 0. -1.
       -2   -1    0    0    0  501  0.00000000000E+00  0.00000000000E+00 -0.16332609313E+04  0.16332609313E+04  0.25500000920E-02 0.  1.
    10030    2    1    2    0    0  0.00000000000E+00  0.00000000000E+00 -0.84510985054E+03  0.24214120121E+04  0.22691464194E+04 0.  0.
        2    1    3    3  502    0 -0.21930600203E+03 -0.34045074438E+03  0.70839991322E+03  0.81598545877E+03  0.25500000920E-02 0. -1.
       -2    1    3    3    0  502  0.21930600203E+03  0.34045074438E+03 -0.15535097638E+04  0.16054265533E+04  0.25500000920E-02 0.  1.
</event>
<event>
 5   0  0.2036578E-05  0.2468733E+04  0.7818609E-02  0.8414210E-01
       -1   -1    0    0    0  501  0.00000000000E+00  0.00000000000E+00  0.82829675235E+03  0.82829675236E+03  0.50400001928E-02 0. -1.
        1   -1    0    0  501    0  0.00000000000E+00  0.00000000000E+00 -0.18395112051E+04  0.18395112051E+04  0.50400001928E-02 0.  1.
    10030    2    1    2    0    0  0.00000000000E+00  0.00000000000E+00 -0.10112144528E+04  0.26678079575E+04  0.24687334057E+04 0.  0.
        2    1    3    3  502    0 -0.84644388268E+03 -0.69127416908E+03  0.11454543342E+03  0.10988393330E+04  0.25500000920E-02 0. -1.
       -2    1    3    3    0  502  0.84644388268E+03  0.69127416908E+03 -0.11257598862E+04  0.15689686245E+04  0.25500000920E-02 0.  1.
</event>
<event>
 5   0  0.2036578E-05  0.2470983E+04  0.7818609E-02  0.8413396E-01
       -1   -1    0    0    0  501  0.00000000000E+00  0.00000000000E+00  0.11696062459E+04  0.11696062459E+04  0.50400001928E-02 0. -1.
        1   -1    0    0  501    0  0.00000000000E+00  0.00000000000E+00 -0.13050883041E+04  0.13050883041E+04  0.50400001928E-02 0.  1.
    10030    2    1    2    0    0  0.00000000000E+00  0.00000000000E+00 -0.13548205821E+03  0.24746945500E+04  0.24709831500E+04 0.  0.
        2    1    3    3  502    0  0.10636149431E+04 -0.80395798907E+02 -0.69213491464E+03  0.12715309559E+04  0.25500000920E-02 0.  1.
       -2    1    3    3    0  502 -0.10636149431E+04  0.80395798907E+02  0.55665285643E+03  0.12031635941E+04  0.25500000920E-02 0. -1.
</event>
<event>
 5   0  0.5219468E-05  0.2536897E+04  0.7818609E-02  0.8389958E-01
        2   -1    0    0  501    0  0.00000000000E+00  0.00000000000E+00  0.12305349669E+04  0.12305349669E+04  0.25500000920E-02 0. -1.
       -2   -1    0    0    0  501  0.00000000000E+00  0.00000000000E+00 -0.13075299706E+04  0.13075299706E+04  0.25500000920E-02 0.  1.
    10030    2    1    2    0    0  0.00000000000E+00  0.00000000000E+00 -0.76995003663E+02  0.25380649375E+04  0.25368968045E+04 0.  0.
        1    1    3    3  502    0 -0.11058939328E+04 -0.61638200600E+03 -0.11620682194E+03  0.12713898668E+04  0.50400001928E-02 0. -1.
       -1    1    3    3    0  502  0.11058939328E+04  0.61638200600E+03  0.39211818280E+02  0.12666750707E+04  0.50400001928E-02 0.  1.
</event>
<event>
 5   0  0.2063930E-05  0.2470308E+04  0.7818609E-02  0.8413641E-01
       -1   -1    0    0    0  501  0.00000000000E+00  0.00000000000E+00  0.11907190178E+04  0.11907190179E+04  0.50400001928E-02 0. -1.
        1   -1    0    0  501    0  0.00000000000E+00  0.00000000000E+00 -0.12812469985E+04  0.12812469985E+04  0.50400001928E-02 0.  1.
    10030    2    1    2    0    0  0.00000000000E+00  0.00000000000E+00 -0.90527980669E+02  0.24719660164E+04  0.24703078089E+04 0.  0.
        3    1    3    3  502    0 -0.42111598587E+03  0.70083753152E+03 -0.97167873627E+03  0.12699100346E+04  0.10100000352E+00 0. -1.
       -3    1    3    3    0  502  0.42111598587E+03 -0.70083753152E+03  0.88115075560E+03  0.12020559818E+04  0.10100000352E+00 0.  1.
</event>
<event>
 5   0  0.5219468E-05  0.2531653E+04  0.7818609E-02  0.8391795E-01
       -2   -1    0    0    0  501  0.00000000000E+00  0.00000000000E+00  0.10614883548E+04  0.10614883548E+04  0.25500000920E-02 0. -1.
        2   -1    0    0  501    0  0.00000000000E+00  0.00000000000E+00 -0.15094998197E+04  0.15094998197E+04  0.25500000920E-02 0.  1.
    10030    2    1    2    0    0  0.00000000000E+00  0.00000000000E+00 -0.44801146491E+03  0.25709881746E+04  0.25316528042E+04 0.  0.
        1    1    3    3  502    0  0.15091113729E+03  0.95326725844E+03 -0.10557698459E+04  0.14304344112E+04  0.50400001928E-02 0.  1.
       -1    1    3    3    0  502 -0.15091113729E+03 -0.95326725844E+03  0.60775838098E+03  0.11405537633E+04  0.50400001928E-02 0. -1.
</event>
<event>
 5   0  0.2036578E-05  0.2511869E+04  0.7818609E-02  0.8398769E-01
        1   -1    0    0  501    0  0.00000000000E+00  0.00000000000E+00  0.18334970458E+04  0.18334970458E+04  0.50400001928E-02 0.  1.
       -1   -1    0    0    0  501  0.00000000000E+00  0.00000000000E+00 -0.86030790643E+03  0.86030790645E+03  0.50400001928E-02 0. -1.
    10030    2    1    2    0    0  0.00000000000E+00  0.00000000000E+00  0.97318913932E+03  0.26938049522E+04  0.25118694273E+04 0.  0.
        2    1    3    3  502    0 -0.69805753270E+03 -0.91586762866E+03  0.10241744581E+04  0.15411136080E+04  0.25500000920E-02 0.  1.
       -2    1    3    3    0  502  0.69805753270E+03  0.91586762866E+03 -0.50985318818E+02  0.11526913442E+04  0.25500000920E-02 0. -1.
</event>
<event>
 5   0  0.2041718E-05  0.2524720E+04  0.7818609E-02  0.8394232E-01
        1   -1    0    0  501    0  0.00000000000E+00  0.00000000000E+00  0.14843111749E+04  0.14843111749E+04  0.50400001928E-02 0.  1.
       -1   -1    0    0    0  501  0.00000000000E+00  0.00000000000E+00 -0.10735971332E+04  0.10735971332E+04  0.50400001928E-02 0. -1.
    10030    2    1    2    0    0  0.00000000000E+00  0.00000000000E+00  0.41071404171E+03  0.25579083081E+04  0.25247195664E+04 0.  0.
        4    1    3    3  502    0 -0.95397932598E+03  0.67730758454E+03  0.68564409015E+03  0.13560721034E+04  0.12699999809E+01 0.  1.
       -4    1    3    3    0  502  0.95397932598E+03 -0.67730758454E+03 -0.27493004844E+03  0.12018362047E+04  0.12699999809E+01 0. -1.
</event>
<event>
 5   0  0.4959042E-05  0.2456274E+04  0.7818609E-02  0.8418731E-01
        2   -1    0    0  501    0  0.00000000000E+00  0.00000000000E+00  0.12658261192E+04  0.12658261192E+04  0.25500000920E-02 0.  1.
       -2   -1    0    0    0  501  0.00000000000E+00  0.00000000000E+00 -0.11915699673E+04  0.11915699673E+04  0.25500000920E-02 0. -1.
    10030    2    1    2    0    0  0.00000000000E+00  0.00000000000E+00  0.74256151907E+02  0.24573960865E+04  0.24562739159E+04 0.  0.
        4    1    3    3  502    0 -0.89111140857E+03  0.56000303221E+03 -0.59611910149E+03  0.12095629519E+04  0.12699999809E+01 0. -1.
       -4    1    3    3    0  502  0.89111140857E+03 -0.56000303221E+03  0.67037525340E+03  0.12478331346E+04  0.12699999809E+01 0.  1.
</event>
<event>
 5   0  0.4995256E-05  0.2553724E+04  0.7818609E-02  0.8384092E-01
       -2   -1    0    0    0  501  0.00000000000E+00  0.00000000000E+00  0.79176012460E+03  0.79176012460E+03  0.25500000920E-02 0. -1.
        2   -1    0    0  501    0  0.00000000000E+00  0.00000000000E+00 -0.20591795487E+04  0.20591795487E+04  0.25500000920E-02 0.  1.
    10030    2    1    2    0    0  0.00000000000E+00  0.00000000000E+00 -0.12674194241E+04  0.28509396733E+04  0.25537237565E+04 0.  0.
        2    1    3    3  502    0 -0.19453806611E+03  0.12538662521E+04 -0.47445110265E+03  0.13546695118E+04  0.25500000920E-02 0. -1.
       -2    1    3    3    0  502  0.19453806611E+03 -0.12538662521E+04 -0.79296832146E+03  0.14962701615E+04  0.25500000920E-02 0.  1.
</event>
<event>
 5   0  0.2066170E-05  0.2459495E+04  0.7818609E-02  0.8417560E-01
        1   -1    0    0  501    0  0.00000000000E+00  0.00000000000E+00  0.13235710067E+04  0.13235710067E+04  0.50400001928E-02 0. -1.
       -1   -1    0    0    0  501  0.00000000000E+00  0.00000000000E+00 -0.11425743948E+04  0.11425743949E+04  0.50400001928E-02 0.  1.
    10030    2    1    2    0    0  0.00000000000E+00  0.00000000000E+00  0.18099661188E+03  0.24661454016E+04  0.24594945351E+04 0.  0.
        5    1    3    3  502    0  0.93567434419E+03  0.99066843281E+01 -0.70957644727E+03  0.11743532030E+04  0.46999998093E+01 0.  1.
       -5    1    3    3    0  502 -0.93567434419E+03 -0.99066843281E+01  0.89057305914E+03  0.12917921986E+04  0.46999998093E+01 0. -1.
</event>
<event>
 5   0  0.5024070E-05  0.2497152E+04  0.7818609E-02  0.8404001E-01
        2   -1    0    0  501    0  0.00000000000E+00  0.00000000000E+00  0.16303506226E+04  0.16303506226E+04  0.25500000920E-02 0.  1.
       -2   -1    0    0    0  501  0.00000000000E+00  0.00000000000E+00 -0.95620038161E+03  0.95620038161E+03  0.25500000920E-02 0. -1.
    10030    2    1    2    0    0  0.00000000000E+00  0.00000000000E+00  0.67415024096E+03  0.25865510042E+04  0.24971518876E+04 0.  0.
        5    1    3    3  502    0 -0.86392029302E+03 -0.31669714130E+03 -0.53709653538E+03  0.10654342450E+04  0.46999998093E+01 0. -1.
       -5    1    3    3    0  502  0.86392029302E+03  0.31669714130E+03  0.12112467763E+04  0.15211167592E+04  0.46999998093E+01 0.  1.
</event>
<event>
 5   0  0.4995256E-05  0.2510330E+04  0.7818609E-02  0.8399315E-01
       -2   -1    0    0    0  501  0.00000000000E+00  0.00000000000E+00  0.79655813003E+03  0.79655813003E+03  0.25500000920E-02 0. -1.
        2   -1    0    0  501    0  0.00000000000E+00  0.00000000000E+00 -0.19778082689E+04  0.19778082689E+04  0.25500000920E-02 0.  1.
    10030    2    1    2    0    0  0.00000000000E+00  0.00000000000E+00 -0.11812501389E+04  0.27743663989E+04  0.25103300629E+04 0.  0.
        2    1    3    3  502    0 -0.10934058373E+04  0.32397677346E+03 -0.11124965678E+02  0.11404477364E+04  0.25500000920E-02 0. -1.
       -2    1    3    3    0  502  0.10934058373E+04 -0.32397677346E+03 -0.11701251732E+04  0.16339186625E+04  0.25500000920E-02 0.  1.
</event>
<event>
 5   0  0.2036578E-05  0.2457764E+04  0.7818609E-02  0.8418189E-01
        1   -1    0    0  501    0  0.00000000000E+00  0.00000000000E+00  0.12817324325E+04  0.12817324326E+04  0.50400001928E-02 0. -1.
       -1   -1    0    0    0  501  0.00000000000E+00  0.00000000000E+00 -0.11782111369E+04  0.11782111369E+04  0.50400001928E-02 0.  1.
    10030    2    1    2    0    0  0.00000000000E+00  0.00000000000E+00  0.10352129567E+03  0.24599435694E+04  0.24577643716E+04 0.  0.
        2    1    3    3  502    0 -0.72583075076E+02  0.10139621030E+04  0.74285384412E+03  0.12590549165E+04  0.25500000920E-02 0. -1.
       -2    1    3    3    0  502  0.72583075076E+02 -0.10139621030E+04 -0.63933254845E+03  0.12008886529E+04  0.25500000920E-02 0.  1.
</event>
<event>
 5   0  0.2063930E-05  0.2521161E+04  0.7818609E-02  0.8395486E-01
        1   -1    0    0  501    0  0.00000000000E+00  0.00000000000E+00  0.19144239169E+04  0.19144239169E+04  0.50400001928E-02 0.  1.
       -1   -1    0    0    0  501  0.00000000000E+00  0.00000000000E+00 -0.83004741059E+03  0.83004741060E+03  0.50400001928E-02 0. -1.
    10030    2    1    2    0    0  0.00000000000E+00  0.00000000000E+00  0.10843765063E+04  0.27444713275E+04  0.25211605383E+04 0.  0.
        3    1    3    3  502    0 -0.50460496331E+03 -0.62289205932E+03  0.16012107370E+04  0.17906692942E+04  0.10100000352E+00 0.  1.
       -3    1    3    3    0  502  0.50460496331E+03  0.62289205932E+03 -0.51683423071E+03  0.95380203333E+03  0.10100000352E+00 0. -1.
</event>
<event>
 5   0  0.5219468E-05  0.2471365E+04  0.7818609E-02  0.8413259E-01
       -2   -1    0    0    0  501  0.00000000000E+00  0.00000000000E+00  0.87537516013E+03  0.87537516013E+03  0.25500000920E-02 0. -1.
        2   -1    0    0  501    0  0.00000000000E+00  0.00000000000E+00 -0.17442929839E+04  0.17442929839E+04  0.25500000920E-02 0.  1.
    10030    2    1    2    0    0  0.00000000000E+00  0.00000000000E+00 -0.86891782381E+03  0.26196681441E+04  0.24713646029E+04 0.  0.
        1    1    3    3  502    0 -0.69298038332E+03 -0.10135246362E+04 -0.58231683765E+03  0.13588770729E+04  0.50400001928E-02 0.  1.
       -1    1    3    3    0  502  0.69298038332E+03  0.10135246362E+04 -0.28660098616E+03  0.12607910712E+04  0.50400001928E-02 0. -1.
</event>
<event>
 5   0  0.2063930E-05  0.2542977E+04  0.7818609E-02  0.8387833E-01
       -1   -1    0    0    0  501  0.00000000000E+00  0.00000000000E+00  0.11422381282E+04  0.11422381282E+04  0.50400001928E-02 0.  1.
        1   -1    0    0  501    0  0.00000000000E+00  0.00000000000E+00 -0.14153645062E+04  0.14153645062E+04  0.50400001928E-02 0. -1.
    10030    2    1    2    0    0  0.00000000000E+00  0.00000000000E+00 -0.27312637801E+03  0.25576026344E+04  0.25429772349E+04 0.  0.
        3    1    3    3  502    0  0.11912771113E+04 -0.18955385973E+03  0.26775817704E+03  0.12356238397E+04  0.10100000352E+00 0.  1.
       -3    1    3    3    0  502 -0.11912771113E+04  0.18955385973E+03 -0.54088455505E+03  0.13219787947E+04  0.10100000352E+00 0. -1.
</event>
<event>
 5   0  0.4995256E-05  0.2506310E+04  0.7818609E-02  0.8400741E-01
       -2   -1    0    0    0  501  0.00000000000E+00  0.00000000000E+00  0.11169098303E+04  0.11169098303E+04  0.25500000920E-02 0.  1.
        2   -1    0    0  501    0  0.00000000000E+00  0.00000000000E+00 -0.14060195744E+04  0.14060195744E+04  0.25500000920E-02 0. -1.
    10030    2    1    2    0    0  0.00000000000E+00  0.00000000000E+00 -0.28910974406E+03  0.25229294047E+04  0.25063097049E+04 0.  0.
        2    1    3    3  502    0  0.12090605324E+04  0.22697393167E+03 -0.38499551685E+03  0.12890174881E+04  0.25500000920E-02 0.  1.
       -2    1    3    3    0  502 -0.12090605324E+04 -0.22697393167E+03  0.95885772791E+02  0.12339119166E+04  0.25500000920E-02 0. -1.
</event>
<event>
 5   0  0.4959347E-05  0.1697171E+04  0.7818609E-02  0.8762979E-01
        2   -1    0    0  501    0  0.00000000000E+00  0.00000000000E+00  0.23589835466E+04  0.23589835466E+04  0.25500000920E-02 0. -1.
       -2   -1    0    0    0  501  0.00000000000E+00  0.00000000000E+00 -0.30525758386E+03  0.30525758387E+03  0.25500000920E-02 0.  1.
    10030    2    1    2    0    0  0.00000000000E+00  0.00000000000E+00  0.20537259628E+04  0.26642411305E+04  0.16971713147E+04 0.  0.
        3    1    3    3  502    0 -0.58647370389E+02 -0.25654507719E+02 -0.30146199513E+03  0.30818340729E+03  0.10100000352E+00 0.  1.
       -3    1    3    3    0  502  0.58647370389E+02  0.25654507719E+02  0.23551879579E+04  0.23560577232E+04  0.10100000352E+00 0. -1.
</event>
<event>
 5   0  0.5219468E-05  0.2487055E+04  0.7818609E-02  0.8407612E-01
        2   -1    0    0  501    0  0.00000000000E+00  0.00000000000E+00  0.24125858156E+04  0.24125858156E+04  0.25500000920E-02 0.  1.
       -2   -1    0    0    0  501  0.00000000000E+00  0.00000000000E+00 -0.64095591433E+03  0.64095591434E+03  0.25500000920E-02 0. -1.
    10030    2    1    2    0    0  0.00000000000E+00  0.00000000000E+00  0.17716299013E+04  0.30535417299E+04  0.24870554054E+04 0.  0.
        1    1    3    3  502    0  0.64114083371E+03 -0.97700643752E+03  0.36381896574E+03  0.12239147795E+04  0.50400001928E-02 0.  1.
       -1    1    3    3    0  502 -0.64114083371E+03  0.97700643752E+03  0.14078109355E+04  0.18296269505E+04  0.50400001928E-02 0. -1.
</event>
<event>
 5   0  0.5024070E-05  0.2533416E+04  0.7818609E-02  0.8391177E-01
       -2   -1    0    0    0  501  0.00000000000E+00  0.00000000000E+00  0.18115388709E+04  0.18115388709E+04  0.25500000920E-02 0.  1.
        2   -1    0    0  501    0  0.00000000000E+00  0.00000000000E+00 -0.88573827438E+03  0.88573827439E+03  0.25500000920E-02 0. -1.
    10030    2    1    2    0    0  0.00000000000E+00  0.00000000000E+00  0.92580059656E+03  0.26972771453E+04  0.25334161234E+04 0.  0.
        5    1    3    3  502    0  0.25084624829E+03 -0.99416251591E+03 -0.32901276425E+03  0.10768260943E+04  0.46999998093E+01 0. -1.
       -5    1    3    3    0  502 -0.25084624829E+03  0.99416251591E+03  0.12548133608E+04  0.16204510510E+04  0.46999998093E+01 0.  1.
</event>
<event>
 5   0  0.2041718E-05  0.2476870E+04  0.7818609E-02  0.8411272E-01
        1   -1    0    0  501    0  0.00000000000E+00  0.00000000000E+00  0.16028416982E+04  0.16028416982E+04  0.50400001928E-02 0. -1.
       -1   -1    0    0    0  501  0.00000000000E+00  0.00000000000E+00 -0.95687598710E+03  0.95687598712E+03  0.50400001928E-02 0.  1.
    10030    2    1    2    0    0  0.00000000000E+00  0.00000000000E+00  0.64596571113E+03  0.25597176854E+04  0.24768695825E+04 0.  0.
        4    1    3    3  502    0  0.31075518744E+03  0.11783157140E+04  0.55109757743E+03  0.13374254600E+04  0.12699999809E+01 0. -1.
       -4    1    3    3    0  502 -0.31075518744E+03 -0.11783157140E+04  0.94868133702E+02  0.12222922253E+04  0.12699999809E+01 0.  1.
</event>
<event>
 5   0  0.2066170E-05  0.2457089E+04  0.7818609E-02  0.8418434E-01
        1   -1    0    0  501    0  0.00000000000E+00  0.00000000000E+00  0.19509287854E+04  0.19509287854E+04  0.50400001928E-02 0.  1.
       -1   -1    0    0    0  501  0.00000000000E+00  0.00000000000E+00 -0.77364262985E+03  0.77364262986E+03  0.50400001928E-02 0. -1.
    10030    2    1    2    0    0  0.00000000000E+00  0.00000000000E+00  0.11772861555E+04  0.27245714153E+04  0.24570890714E+04 0.  0.
        5    1    3    3  502    0 -0.31186154177E+03 -0.98084584637E+03 -0.15519008615E+03  0.10408757123E+04  0.46999998093E+01 0. -1.
       -5    1    3    3    0  502  0.31186154177E+03  0.98084584637E+03  0.13324762417E+04  0.16836957030E+04  0.46999998093E+01 0.  1.
</event>
<event>
 5   0  0.4959042E-05  0.2506683E+04  0.7818609E-02  0.8400609E-01
        2   -1    0    0  501    0  0.00000000000E+00  0.00000000000E+00  0.22115403967E+04  0.22115403967E+04  0.25500000920E-02 0.  1.
       -2   -1    0    0    0  501  0.00000000000E+00  0.00000000000E+00 -0.71030347931E+03  0.71030347932E+03  0.25500000920E-02 0. -1.
    10030    2    1    2    0    0  0.00000000000E+00  0.00000000000E+00  0.15012369174E+04  0.29218438760E+04  0.25066829384E+04 0.  0.
        4    1    3    3  502    0  0.75343054637E+03 -0.10014742762E+04  0.76922871026E+03  0.14704838441E+04  0.12699999809E+01 0. -1.
       -4    1    3    3    0  502 -0.75343054637E+03  0.10014742762E+04  0.73200820715E+03  0.14513600320E+04  0.12699999809E+01 0.  1.
</event>
<event>
 5   0  0.2041718E-05  0.2485812E+04  0.7818609E-02  0.8408058E-01
        1   -1    0    0  501    0  0.00000000000E+00  0.00000000000E+00  0.21350945174E+04  0.21350945174E+04  0.50400001928E-02 0.  1.
       -1   -1    0    0    0  501  0.00000000000E+00  0.00000000000E+00 -0.72353488092E+03  0.72353488094E+03  0.50400001928E-02 0. -1.
    10030    2    1    2    0    0  0.00000000000E+00  0.00000000000E+00  0.14115596364E+04  0.28586293983E+04  0.24858120262E+04 0.  0.
        4    1    3    3  502    0 -0.52530190296E+03 -0.42382443082E+03 -0.49441641716E+03  0.83667104878E+03  0.12699999809E+01 0. -1.
       -4    1    3    3    0  502  0.52530190296E+03  0.42382443082E+03  0.19059760536E+04  0.20219583495E+04  0.12699999809E+01 0.  1.
</event>
<event>
 5   0  0.2063930E-05  0.2520544E+04  0.7818609E-02  0.8395703E-01
       -1   -1    0    0    0  501  0.00000000000E+00  0.00000000000E+00  0.79232317063E+03  0.79232317065E+03  0.50400001928E-02 0.  1.
        1   -1    0    0  501    0  0.00000000000E+00  0.00000000000E+00 -0.20045927205E+04  0.20045927205E+04  0.50400001928E-02 0. -1.
    10030    2    1    2    0    0  0.00000000000E+00  0.00000000000E+00 -0.12122695499E+04  0.27969158912E+04  0.25205437986E+04 0.  0.
        3    1    3    3  502    0 -0.69330444678E+03 -0.13496970227E+03 -0.17643207991E+04  0.19004514644E+04  0.10100000352E+00 0. -1.
       -3    1    3    3    0  502  0.69330444678E+03  0.13496970227E+03  0.55205124919E+03  0.89646442673E+03  0.10100000352E+00 0.  1.
</event>
<event>
 5   0  0.5219468E-05  0.2578072E+04  0.7818609E-02  0.8375688E-01
        2   -1    0    0  501    0  0.00000000000E+00  0.00000000000E+00  0.20545735987E+04  0.20545735987E+04  0.25500000920E-02 0.  1.
       -2   -1    0    0    0  501  0.00000000000E+00  0.00000000000E+00 -0.80873909711E+03  0.80873909712E+03  0.25500000920E-02 0. -1.
    10030    2    1    2    0    0  0.00000000000E+00  0.00000000000E+00  0.12458345016E+04  0.28633126959E+04  0.25780721458E+04 0.  0.
        1    1    3    3  502    0 -0.79654497124E+03 -0.87111234174E+02 -0.49852320011E+03  0.94371480829E+03  0.50400001928E-02 0. -1.
       -1    1    3    3    0  502  0.79654497124E+03  0.87111234174E+02  0.17443577017E+04  0.19195978876E+04  0.50400001928E-02 0.  1.
</event>
<event>
 5   0  0.2066170E-05  0.2465547E+04  0.7818609E-02  0.8415363E-01
        1   -1    0    0  501    0  0.00000000000E+00  0.00000000000E+00  0.15123681408E+04  0.15123681408E+04  0.50400001928E-02 0. -1.
       -1   -1    0    0    0  501  0.00000000000E+00  0.00000000000E+00 -0.10048679132E+04  0.10048679132E+04  0.50400001928E-02 0.  1.
    10030    2    1    2    0    0  0.00000000000E+00  0.00000000000E+00  0.50750022755E+03  0.25172360540E+04  0.24655467691E+04 0.  0.
        5    1    3    3  502    0 -0.20124393785E+03 -0.93888778326E+03 -0.53556763199E+03  0.10994835926E+04  0.46999998093E+01 0.  1.
       -5    1    3    3    0  502  0.20124393785E+03  0.93888778326E+03  0.10430678595E+04  0.14177524614E+04  0.46999998093E+01 0. -1.
</event>
<event>
 5   0  0.4959042E-05  0.2520170E+04  0.7818609E-02  0.8395835E-01
        2   -1    0    0  501    0  0.00000000000E+00  0.00000000000E+00  0.20289186492E+04  0.20289186492E+04  0.25500000920E-02 0.  1.
       -2   -1    0    0    0  501  0.00000000000E+00  0.00000000000E+00 -0.78259109308E+03  0.78259109309E+03  0.25500000920E-02 0. -1.
    10030    2    1    2    0    0  0.00000000000E+00  0.00000000000E+00  0.12463275561E+04  0.28115097423E+04  0.25201695685E+04 0.  0.
        4    1    3    3  502    0 -0.81396733075E+03 -0.53207413167E+03 -0.27082816140E+03  0.10094529226E+04  0.12699999809E+01 0. -1.
       -4    1    3    3    0  502  0.81396733075E+03  0.53207413167E+03  0.15171557175E+04  0.18020568197E+04  0.12699999809E+01 0.  1.
</event>
<event>
 5   0  0.5219468E-05  0.2535318E+04  0.7818609E-02  0.8390510E-01
        2   -1    0    0  501    0  0.00000000000E+00  0.00000000000E+00  0.11542872358E+04  0.11542872358E+04  0.25500000920E-02 0.  1.
       -2   -1    0    0    0  501  0.00000000000E+00  0.00000000000E+00 -0.13921661880E+04  0.13921661881E+04  0.25500000920E-02 0. -1.
    10030    2    1    2    0    0  0.00000000000E+00  0.00000000000E+00 -0.23787895229E+03  0.25464534238E+04  0.25353182529E+04 0.  0.
        1    1    3    3  502    0 -0.88052884753E+03 -0.59650720079E+03 -0.81175724628E+03  0.13379468296E+04  0.50400001928E-02 0. -1.
       -1    1    3    3    0  502  0.88052884753E+03  0.59650720079E+03  0.57387829400E+03  0.12085065942E+04  0.50400001928E-02 0.  1.
</event>
<event>
 5   0  0.4959347E-05  0.2472224E+04  0.7818609E-02  0.8412948E-01
       -2   -1    0    0    0  501  0.00000000000E+00  0.00000000000E+00  0.93460161457E+03  0.93460161458E+03  0.25500000920E-02 0.  1.
        2   -1    0    0  501    0  0.00000000000E+00  0.00000000000E+00 -0.16348924896E+04  0.16348924896E+04  0.25500000920E-02 0. -1.
    10030    2    1    2    0    0  0.00000000000E+00  0.00000000000E+00 -0.70029087499E+03  0.25694941041E+04  0.24722242296E+04 0.  0.
        3    1    3    3  502    0  0.59795016331E+03  0.23479170113E+03 -0.14477753439E+04  0.15838955134E+04  0.10100000352E+00 0. -1.
       -3    1    3    3    0  502 -0.59795016331E+03 -0.23479170113E+03  0.74748446888E+03  0.98559859078E+03  0.10100000352E+00 0.  1.
</event>
<event>
 5   0  0.4995256E-05  0.2518459E+04  0.7818609E-02  0.8396439E-01
        2   -1    0    0  501    0  0.00000000000E+00  0.00000000000E+00  0.15170088035E+04  0.15170088035E+04  0.25500000920E-02 0. -1.
       -2   -1    0    0    0  501  0.00000000000E+00  0.00000000000E+00 -0.10452537975E+04  0.10452537975E+04  0.25500000920E-02 0.  1.
    10030    2    1    2    0    0  0.00000000000E+00  0.00000000000E+00  0.47175500592E+03  0.25622626010E+04  0.25184592216E+04 0.  0.
        2    1    3    3  502    0  0.81342879439E+03  0.77072967520E+03 -0.34854241139E+03  0.11735299094E+04  0.25500000920E-02 0.  1.
       -2    1    3    3    0  502 -0.81342879439E+03 -0.77072967520E+03  0.82029741731E+03  0.13887326916E+04  0.25500000920E-02 0. -1.
</event>
<event>
 5   0  0.5219468E-05  0.2586979E+04  0.7818609E-02  0.8372638E-01
        2   -1    0    0  501    0  0.00000000000E+00  0.00000000000E+00  0.16345037100E+04  0.16345037100E+04  0.25500000920E-02 0.  1.
       -2   -1    0    0    0  501  0.00000000000E+00  0.00000000000E+00 -0.10236225160E+04  0.10236225160E+04  0.25500000920E-02 0. -1.
    10030    2    1    2    0    0  0.00000000000E+00  0.00000000000E+00  0.61088119397E+03  0.26581262260E+04  0.25869787785E+04 0.  0.
        1    1    3    3  502    0 -0.99842348402E+03  0.67584873836E+03 -0.17594588672E+03  0.12184325692E+04  0.50400001928E-02 0. -1.
       -1    1    3    3    0  502  0.99842348402E+03 -0.67584873836E+03  0.78682708070E+03  0.14396936568E+04  0.50400001928E-02 0.  1.
</event>
<event>
 5   0  0.5024070E-05  0.2542349E+04  0.7818609E-02  0.8388052E-01
        2   -1    0    0  501    0  0.00000000000E+00  0.00000000000E+00  0.14459805785E+04  0.14459805785E+04  0.25500000920E-02 0.  1.
       -2   -1    0    0    0  501  0.00000000000E+00  0.00000000000E+00 -0.11175012083E+04  0.11175012083E+04  0.25500000920E-02 0. -1.
    10030    2    1    2    0    0  0.00000000000E+00  0.00000000000E+00  0.32847937020E+03  0.25634817867E+04  0.25423493415E+04 0.  0.
        5    1    3    3  502    0 -0.52182759924E+03 -0.11520583150E+04  0.29305348541E+03  0.12982468331E+04  0.46999998093E+01 0. -1.
       -5    1    3    3    0  502  0.52182759924E+03  0.11520583150E+04  0.35425884792E+02  0.12652349536E+04  0.46999998093E+01 0.  1.
</event>
<event>
 5   0  0.4995256E-05  0.2497770E+04  0.7818609E-02  0.8403780E-01
       -2   -1    0    0    0  501  0.00000000000E+00  0.00000000000E+00  0.11915903493E+04  0.11915903493E+04  0.25500000920E-02 0.  1.
        2   -1    0    0  501    0  0.00000000000E+00  0.00000000000E+00 -0.13089348992E+04  0.13089348992E+04  0.25500000920E-02 0. -1.
    10030    2    1    2    0    0  0.00000000000E+00  0.00000000000E+00 -0.11734454993E+03  0.25005252486E+04  0.24977703608E+04 0.  0.
        2    1    3    3  502    0  0.80553101640E+03 -0.43517579390E+03 -0.90899475794E+03  0.12901665241E+04  0.25500000920E-02 0. -1.
       -2    1    3    3    0  502 -0.80553101640E+03  0.43517579390E+03  0.79165020801E+03  0.12103587244E+04  0.25500000920E-02 0.  1.
</event>
<event>
 5   0  0.2063930E-05  0.2494997E+04  0.7818609E-02  0.8404770E-01
       -1   -1    0    0    0  501  0.00000000000E+00  0.00000000000E+00  0.18274201107E+04  0.18274201108E+04  0.50400001928E-02 0.  1.
        1   -1    0    0  501    0  0.00000000000E+00  0.00000000000E+00 -0.85161207871E+03  0.85161207873E+03  0.50400001928E-02 0. -1.
    10030    2    1    2    0    0  0.00000000000E+00  0.00000000000E+00  0.97580803203E+03  0.26790321895E+04  0.24949974262E+04 0.  0.
        3    1    3    3  502    0  0.20398553280E+03  0.12126050687E+04  0.71373083856E+03  0.14217710330E+04  0.10100000352E+00 0.  1.
       -3    1    3    3    0  502 -0.20398553280E+03 -0.12126050687E+04  0.26207719348E+03  0.12572611565E+04  0.10100000352E+00 0. -1.
</event>
<event>
 5   0  0.2081874E-05  0.2094782E+04  0.7818609E-02  0.8563546E-01
        1   -1    0    0  501    0  0.00000000000E+00  0.00000000000E+00  0.15012631335E+04  0.15012631335E+04  0.50400001928E-02 0. -1.
       -1   -1    0    0    0  501  0.00000000000E+00  0.00000000000E+00 -0.73073641288E+03  0.73073641290E+03  0.50400001928E-02 0.  1.
    10030    2    1    2    0    0  0.00000000000E+00  0.00000000000E+00  0.77052672059E+03  0.22319995464E+04  0.20947817423E+04 0.  0.
        1    1    3    3  502    0 -0.47004864317E+03  0.21350447261E+03 -0.58574853923E+03  0.78078885623E+03  0.50400001928E-02 0.  1.
       -1    1    3    3    0  502  0.47004864317E+03 -0.21350447261E+03  0.13562752598E+04  0.14512106901E+04  0.50400001928E-02 0. -1.
</event>
<event>
 5   0  0.4995256E-05  0.2443232E+04  0.7818609E-02  0.8423493E-01
       -2   -1    0    0    0  501  0.00000000000E+00  0.00000000000E+00  0.11262202918E+04  0.11262202918E+04  0.25500000920E-02 0.  1.
        2   -1    0    0  501    0  0.00000000000E+00  0.00000000000E+00 -0.13250917507E+04  0.13250917507E+04  0.25500000920E-02 0. -1.
    10030    2    1    2    0    0  0.00000000000E+00  0.00000000000E+00 -0.19887145890E+03  0.24513120426E+04  0.24432316453E+04 0.  0.
        2    1    3    3  502    0  0.11669093918E+04 -0.26056013073E+02  0.26229622688E+03  0.11963092222E+04  0.25500000920E-02 0.  1.
       -2    1    3    3    0  502 -0.11669093918E+04  0.26056013073E+02 -0.46116768578E+03  0.12550028203E+04  0.25500000920E-02 0. -1.
</event>
<event>
 5   0  0.5024070E-05  0.2477964E+04  0.7818609E-02  0.8410878E-01
       -2   -1    0    0    0  501  0.00000000000E+00  0.00000000000E+00  0.13624995856E+04  0.13624995856E+04  0.25500000920E-02 0. -1.
        2   -1    0    0  501    0  0.00000000000E+00  0.00000000000E+00 -0.11266622379E+04  0.11266622379E+04  0.25500000920E-02 0.  1.
    10030    2    1    2    0    0  0.00000000000E+00  0.00000000000E+00  0.23583734771E+03  0.24891618236E+04  0.24779643519E+04 0.  0.
        5    1    3    3  502    0  0.54497611786E+03  0.27605594264E+03 -0.96484306517E+03  0.11419939067E+04  0.46999998093E+01 0.  1.
       -5    1    3    3    0  502 -0.54497611786E+03 -0.27605594264E+03  0.12006804129E+04  0.13471679169E+04  0.46999998093E+01 0. -1.
</event>
<event>
 5   0  0.5024070E-05  0.2854349E+04  0.7818609E-02  0.8286591E-01
        2   -1    0    0  501    0  0.00000000000E+00  0.00000000000E+00  0.22436536233E+04  0.22436536233E+04  0.25500000920E-02 0.  1.
       -2   -1    0    0    0  501  0.00000000000E+00  0.00000000000E+00 -0.90781714506E+03  0.90781714506E+03  0.25500000920E-02 0. -1.
    10030    2    1    2    0    0  0.00000000000E+00  0.00000000000E+00  0.13358364782E+04  0.31514707683E+04  0.28543491215E+04 0.  0.
        5    1    3    3  502    0  0.98914147255E+03 -0.43014783856E+03 -0.36390925792E+03  0.11383672754E+04  0.46999998093E+01 0. -1.
       -5    1    3    3    0  502 -0.98914147255E+03  0.43014783856E+03  0.16997457361E+04  0.20131034929E+04  0.46999998093E+01 0.  1.
</event>
<event>
 5   0  0.2041718E-05  0.2390438E+04  0.7818609E-02  0.8443092E-01
        1   -1    0    0  501    0  0.00000000000E+00  0.00000000000E+00  0.10192491117E+04  0.10192491117E+04  0.50400001928E-02 0. -1.
       -1   -1    0    0    0  501  0.00000000000E+00  0.00000000000E+00 -0.14015697104E+04  0.14015697104E+04  0.50400001928E-02 0.  1.
    10030    2    1    2    0    0  0.00000000000E+00  0.00000000000E+00 -0.38232059872E+03  0.24208188222E+04  0.23904381878E+04 0.  0.
        4    1    3    3  502    0  0.12774753527E+03  0.28095126943E+03 -0.13605189560E+04  0.13950865532E+04  0.12699999809E+01 0.  1.
       -4    1    3    3    0  502 -0.12774753527E+03 -0.28095126943E+03  0.97819835723E+03  0.10257322689E+04  0.12699999809E+01 0. -1.
</event>
<event>
 5   0  0.2066170E-05  0.2573216E+04  0.7818609E-02  0.8377356E-01
        1   -1    0    0  501    0  0.00000000000E+00  0.00000000000E+00  0.12699350800E+04  0.12699350800E+04  0.50400001928E-02 0. -1.
       -1   -1    0    0    0  501  0.00000000000E+00  0.00000000000E+00 -0.13035001500E+04  0.13035001500E+04  0.50400001928E-02 0.  1.
    10030    2    1    2    0    0  0.00000000000E+00  0.00000000000E+00 -0.33565069973E+02  0.25734352301E+04  0.25732163277E+04 0.  0.
        5    1    3    3  502    0  0.33558827288E+02  0.11198852271E+04  0.61578163643E+03  0.12784671409E+04  0.46999998093E+01 0. -1.
       -5    1    3    3    0  502 -0.33558827288E+02 -0.11198852271E+04 -0.64934670640E+03  0.12949680891E+04  0.46999998093E+01 0.  1.
</event>
<event>
 5   0  0.5219468E-05  0.2454026E+04  0.7818609E-02  0.8419550E-01
       -2   -1    0    0    0  501  0.00000000000E+00  0.00000000000E+00  0.19198178512E+04  0.19198178512E+04  0.25500000920E-02 0.  1.
        2   -1    0    0  501    0  0.00000000000E+00  0.00000000000E+00 -0.78422067672E+03  0.78422067672E+03  0.25500000920E-02 0. -1.
    10030    2    1    2    0    0  0.00000000000E+00  0.00000000000E+00  0.11355971745E+04  0.27040385279E+04  0.24540259611E+04 0.  0.
        1    1    3    3  502    0 -0.11464951331E+04  0.39274759930E+03  0.35625200591E+03  0.12631774455E+04  0.50400001928E-02 0.  1.
       -1    1    3    3    0  502  0.11464951331E+04 -0.39274759930E+03  0.77934516859E+03  0.14408610824E+04  0.50400001928E-02 0. -1.
</event>
<event>
 5   0  0.4959042E-05  0.2647417E+04  0.7818609E-02  0.8352271E-01
       -2   -1    0    0    0  501  0.00000000000E+00  0.00000000000E+00  0.78900278359E+03  0.78900278359E+03  0.25500000920E-02 0.  1.
        2   -1    0    0  501    0  0.00000000000E+00  0.00000000000E+00 -0.22207838870E+04  0.22207838870E+04  0.25500000920E-02 0. -1.
    10030    2    1    2    0    0  0.00000000000E+00  0.00000000000E+00 -0.14317811034E+04  0.30097866706E+04  0.26474173593E+04 0.  0.
        4    1    3    3  502    0  0.33259796646E+03 -0.68752326794E+03 -0.19450288653E+04  0.20896048792E+04  0.12699999809E+01 0. -1.
       -4    1    3    3    0  502 -0.33259796646E+03  0.68752326794E+03  0.51324776191E+03  0.92018179141E+03  0.12699999809E+01 0.  1.
</event>
<event>
 5   0  0.4995256E-05  0.1619067E+04  0.7818609E-02  0.8808919E-01
        2   -1    0    0  501    0  0.00000000000E+00  0.00000000000E+00  0.13384240298E+04  0.13384240298E+04  0.25500000920E-02 0.  1.
       -2   -1    0    0    0  501  0.00000000000E+00  0.00000000000E+00 -0.48963912769E+03  0.48963912770E+03  0.25500000920E-02 0. -1.
    10030    2    1    2    0    0  0.00000000000E+00  0.00000000000E+00  0.84878490215E+03  0.18280631575E+04  0.16190673543E+04 0.  0.
        2    1    3    3  502    0  0.35896678320E+01  0.39820997935E+03 -0.37140014758E+03  0.54453846788E+03  0.25500000920E-02 0. -1.
       -2    1    3    3    0  502 -0.35896678320E+01 -0.39820997935E+03  0.12201850497E+04  0.12835246897E+04  0.25500000920E-02 0.  1.
</event>
<event>
 5   0  0.4995256E-05  0.2512697E+04  0.7818609E-02  0.8398476E-01
        2   -1    0    0  501    0  0.00000000000E+00  0.00000000000E+00  0.12522162114E+04  0.12522162114E+04  0.25500000920E-02 0. -1.
       -2   -1    0    0    0  501  0.00000000000E+00  0.00000000000E+00 -0.12604946598E+04  0.12604946598E+04  0.25500000920E-02 0.  1.
    10030    2    1    2    0    0  0.00000000000E+00  0.00000000000E+00 -0.82784483223E+01  0.25127108712E+04  0.25126972340E+04 0.  0.
        2    1    3    3  502    0 -0.52420328145E+02  0.10697196967E+04  0.65264720185E+03  0.12541915685E+04  0.25500000920E-02 0. -1.
       -2    1    3    3    0  502  0.52420328145E+02 -0.10697196967E+04 -0.66092565017E+03  0.12585193027E+04  0.25500000920E-02 0.  1.
</event>
<event>
 5   0  0.2036578E-05  0.2569642E+04  0.7818609E-02  0.8378587E-01
        1   -1    0    0  501    0  0.00000000000E+00  0.00000000000E+00  0.17606344623E+04  0.17606344623E+04  0.50400001928E-02 0.  1.
       -1   -1    0    0    0  501  0.00000000000E+00  0.00000000000E+00 -0.93759690083E+03  0.93759690084E+03  0.50400001928E-02 0. -1.
    10030    2    1    2    0    0  0.00000000000E+00  0.00000000000E+00  0.82303756142E+03  0.26982313631E+04  0.25696423217E+04 0.  0.
        2    1    3    3  502    0 -0.47269513613E+01  0.89860152874E+03  0.13757625435E+04  0.16432375445E+04  0.25500000920E-02 0.  1.
       -2    1    3    3    0  502  0.47269513613E+01 -0.89860152874E+03 -0.55272498206E+03  0.10549938186E+04  0.25500000920E-02 0. -1.
</event>
<event>
 5   0  0.2063930E-05  0.2481128E+04  0.7818609E-02  0.8409740E-01
        1   -1    0    0  501    0  0.00000000000E+00  0.00000000000E+00  0.10737201016E+04  0.10737201016E+04  0.50400001928E-02 0.  1.
       -1   -1    0    0    0  501  0.00000000000E+00  0.00000000000E+00 -0.14333336847E+04  0.14333336847E+04  0.50400001928E-02 0. -1.
    10030    2    1    2    0    0  0.00000000000E+00  0.00000000000E+00 -0.35961358314E+03  0.25070537863E+04  0.24811281221E+04 0.  0.
        3    1    3    3  502    0 -0.39505961356E+02  0.12375281300E+04 -0.10178215053E+03  0.12423349830E+04  0.10100000352E+00 0.  1.
       -3    1    3    3    0  502  0.39505961356E+02 -0.12375281300E+04 -0.25783143261E+03  0.12647188033E+04  0.10100000352E+00 0. -1.
</event>
<event>
 5   0  0.5024070E-05  0.2499445E+04  0.7818609E-02  0.8403183E-01
        2   -1    0    0  501    0  0.00000000000E+00  0.00000000000E+00  0.16969495113E+04  0.16969495113E+04  0.25500000920E-02 0.  1.
       -2   -1    0    0    0  501  0.00000000000E+00  0.00000000000E+00 -0.92036092228E+03  0.92036092228E+03  0.25500000920E-02 0. -1.
    10030    2    1    2    0    0  0.00000000000E+00  0.00000000000E+00  0.77658858901E+03  0.26173104336E+04  0.24994447522E+04 0.  0.
        5    1    3    3  502    0 -0.67837969666E+03 -0.95993800944E+03 -0.56104930242E+02  0.11767964344E+04  0.46999998093E+01 0. -1.
       -5    1    3    3    0  502  0.67837969666E+03  0.95993800944E+03  0.83269351925E+03  0.14405139992E+04  0.46999998093E+01 0.  1.
</event>
<event>
 5   0  0.5219468E-05  0.2499047E+04  0.7818609E-02  0.8403325E-01
       -2   -1    0    0    0  501  0.00000000000E+00  0.00000000000E+00  0.71384078624E+03  0.71384078625E+03  0.25500000920E-02 0. -1.
        2   -1    0    0  501    0  0.00000000000E+00  0.00000000000E+00 -0.21871949175E+04  0.21871949175E+04  0.25500000920E-02 0.  1.
    10030    2    1    2    0    0  0.00000000000E+00  0.00000000000E+00 -0.14733541312E+04  0.29010357037E+04  0.24990469700E+04 0.  0.
        1    1    3    3  502    0  0.67784310999E+03  0.10191151823E+04 -0.44474545725E+03  0.13022540299E+04  0.50400001928E-02 0. -1.
       -1    1    3    3    0  502 -0.67784310999E+03 -0.10191151823E+04 -0.10286086740E+04  0.15987816739E+04  0.50400001928E-02 0.  1.
</event>
<event>
 5   0  0.2041718E-05  0.2486747E+04  0.7818609E-02  0.8407722E-01
       -1   -1    0    0    0  501  0.00000000000E+00  0.00000000000E+00  0.12208342108E+04  0.12208342108E+04  0.50400001928E-02 0. -1.
        1   -1    0    0  501    0  0.00000000000E+00  0.00000000000E+00 -0.12663291071E+04  0.12663291071E+04  0.50400001928E-02 0.  1.
    10030    2    1    2    0    0  0.00000000000E+00  0.00000000000E+00 -0.45494896357E+02  0.24871633179E+04  0.24867471895E+04 0.  0.
        4    1    3    3  502    0 -0.67234777134E+02  0.62061574398E+03  0.10527426182E+04  0.12239089223E+04  0.12699999809E+01 0. -1.
       -4    1    3    3    0  502  0.67234777134E+02 -0.62061574398E+03 -0.10982375145E+04  0.12632543957E+04  0.12699999809E+01 0.  1.
</event>
<event>
 5   0  0.2063930E-05  0.2502839E+04  0.7818609E-02  0.8401975E-01
        1   -1    0    0  501    0  0.00000000000E+00  0.00000000000E+00  0.10478093851E+04  0.10478093851E+04  0.50400001928E-02 0. -1.
       -1   -1    0    0    0  501  0.00000000000E+00  0.00000000000E+00 -0.14945954735E+04  0.14945954735E+04  0.50400001928E-02 0.  1.
    10030    2    1    2    0    0  0.00000000000E+00  0.00000000000E+00 -0.44678608844E+03  0.25424048586E+04  0.25028393189E+04 0.  0.
        3    1    3    3  502    0 -0.77377309266E+03  0.50132874457E+03 -0.10829348249E+04  0.14222528447E+04  0.10100000352E+00 0.  1.
       -3    1    3    3    0  502  0.77377309266E+03 -0.50132874457E+03  0.63614873650E+03  0.11201520139E+04  0.10100000352E+00 0. -1.
</event>
<event>
 5   0  0.5024070E-05  0.2512654E+04  0.7818609E-02  0.8398491E-01
        2   -1    0    0  501    0  0.00000000000E+00  0.00000000000E+00  0.22287937589E+04  0.22287937589E+04  0.25500000920E-02 0. -1.
       -2   -1    0    0    0  501  0.00000000000E+00  0.00000000000E+00 -0.70816697317E+03  0.70816697317E+03  0.25500000920E-02 0.  1.
    10030    2    1    2    0    0  0.00000000000E+00  0.00000000000E+00  0.15206267857E+04  0.29369607321E+04  0.25126544769E+04 0.  0.
        5    1    3    3  502    0 -0.30442058250E+02  0.51746714096E+03 -0.57733154306E+03  0.77590770166E+03  0.46999998093E+01 0.  1.
       -5    1    3    3    0  502  0.30442058250E+02 -0.51746714096E+03  0.20979583288E+04  0.21610530304E+04  0.46999998093E+01 0. -1.
</event>
<event>
 5   0  0.1692125E-05  0.2000368E+04  0.7818609E-02  0.8606449E-01
       -4   -1    0    0    0  501  0.00000000000E+00  0.00000000000E+00  0.11816747070E+04  0.11816753895E+04  0.12699999809E+01 0.  1.
        4   -1    0    0  501    0  0.00000000000E+00  0.00000000000E+00 -0.84656673697E+03  0.84656768958E+03  0.12699999809E+01 0. -1.
    10030    2    1    2    0    0  0.00000000000E+00  0.00000000000E+00  0.33510797005E+03  0.20282430791E+04  0.20003681252E+04 0.  0.
        5    1    3    3  502    0  0.15181680523E+03 -0.23461917464E+03  0.11412755279E+04  0.11750006043E+04  0.46999998093E+01 0.  1.
       -5    1    3    3    0  502 -0.15181680523E+03  0.23461917464E+03 -0.80616755785E+03  0.85324247479E+03  0.46999998093E+01 0. -1.
</event>
<event>
 5   0  0.4995256E-05  0.2509477E+04  0.7818609E-02  0.8399617E-01
        2   -1    0    0  501    0  0.00000000000E+00  0.00000000000E+00  0.12768428755E+04  0.12768428755E+04  0.25500000920E-02 0.  1.
       -2   -1    0    0    0  501  0.00000000000E+00  0.00000000000E+00 -0.12330170187E+04  0.12330170187E+04  0.25500000920E-02 0. -1.
    10030    2    1    2    0    0  0.00000000000E+00  0.00000000000E+00  0.43825856838E+02  0.25098598942E+04  0.25094772329E+04 0.  0.
        2    1    3    3  502    0  0.30082162681E+03 -0.11409248122E+04  0.44878700510E+03  0.12623837983E+04  0.25500000920E-02 0. -1.
       -2    1    3    3    0  502 -0.30082162681E+03  0.11409248122E+04 -0.40496114826E+03  0.12474760959E+04  0.25500000920E-02 0.  1.
</event>
<event>
 5   0  0.4959042E-05  0.2496381E+04  0.7818609E-02  0.8404276E-01
        2   -1    0    0  501    0  0.00000000000E+00  0.00000000000E+00  0.10494105147E+04  0.10494105147E+04  0.25500000920E-02 0.  1.
       -2   -1    0    0    0  501  0.00000000000E+00  0.00000000000E+00 -0.14846236615E+04  0.14846236615E+04  0.25500000920E-02 0. -1.
    10030    2    1    2    0    0  0.00000000000E+00  0.00000000000E+00 -0.43521314681E+03  0.25340341763E+04  0.24963811254E+04 0.  0.
        4    1    3    3  502    0 -0.61391405536E+03  0.11529366243E+02 -0.13207149749E+04  0.14564728118E+04  0.12699999809E+01 0. -1.
       -4    1    3    3    0  502  0.61391405536E+03 -0.11529366243E+02  0.88550182812E+03  0.10775613645E+04  0.12699999809E+01 0.  1.
</event>
<event>
 5   0  0.2081874E-05  0.2483348E+04  0.7818609E-02  0.8408942E-01
       -1   -1    0    0    0  501  0.00000000000E+00  0.00000000000E+00  0.13203444733E+04  0.13203444733E+04  0.50400001928E-02 0.  1.
        1   -1    0    0  501    0  0.00000000000E+00  0.00000000000E+00 -0.11676912686E+04  0.11676912686E+04  0.50400001928E-02 0. -1.
    10030    2    1    2    0    0  0.00000000000E+00  0.00000000000E+00  0.15265320470E+03  0.24880357420E+04  0.24833483148E+04 0.  0.
        1    1    3    3  502    0 -0.75240175831E+03 -0.54740660063E+03  0.90006603847E+03  0.12945583285E+04  0.50400001928E-02 0.  1.
       -1    1    3    3    0  502  0.75240175831E+03  0.54740660063E+03 -0.74741283377E+03  0.11934774135E+04  0.50400001928E-02 0. -1.
</event>
<event>
 5   0  0.2081874E-05  0.2811356E+04  0.7818609E-02  0.8299751E-01
        1   -1    0    0  501    0  0.00000000000E+00  0.00000000000E+00  0.11434420774E+04  0.11434420774E+04  0.50400001928E-02 0.  1.
       -1   -1    0    0    0  501  0.00000000000E+00  0.00000000000E+00 -0.17280550597E+04  0.17280550597E+04  0.50400001928E-02 0. -1.
    10030    2    1    2    0    0  0.00000000000E+00  0.00000000000E+00 -0.58461298230E+03  0.28714971371E+04  0.28113561620E+04 0.  0.
        1    1    3    3  502    0 -0.62191249021E+03  0.93566835481E+03 -0.11551746034E+04  0.16114213540E+04  0.50400001928E-02 0. -1.
       -1    1    3    3    0  502  0.62191249021E+03 -0.93566835481E+03  0.57056162114E+03  0.12600757831E+04  0.50400001928E-02 0.  1.
</event>
<event>
 5   0  0.2066170E-05  0.2423731E+04  0.7818609E-02  0.8430672E-01
        1   -1    0    0  501    0  0.00000000000E+00  0.00000000000E+00  0.84072015843E+03  0.84072015844E+03  0.50400001928E-02 0. -1.
       -1   -1    0    0    0  501  0.00000000000E+00  0.00000000000E+00 -0.17468575586E+04  0.17468575586E+04  0.50400001928E-02 0.  1.
    10030    2    1    2    0    0  0.00000000000E+00  0.00000000000E+00 -0.90613740021E+03  0.25875777171E+04  0.24237313081E+04 0.  0.
        5    1    3    3  502    0 -0.70342714353E+03 -0.79151516040E+03  0.17608280915E+03  0.10734678575E+04  0.46999998093E+01 0. -1.
       -5    1    3    3    0  502  0.70342714353E+03  0.79151516040E+03 -0.10822202094E+04  0.15141098596E+04  0.46999998093E+01 0.  1.
</event>
<event>
 5   0  0.5219468E-05  0.2521406E+04  0.7818609E-02  0.8395399E-01
       -2   -1    0    0    0  501  0.00000000000E+00  0.00000000000E+00  0.93044768421E+03  0.93044768421E+03  0.25500000920E-02 0.  1.
        2   -1    0    0  501    0  0.00000000000E+00  0.00000000000E+00 -0.17081795445E+04  0.17081795445E+04  0.25500000920E-02 0. -1.
    10030    2    1    2    0    0  0.00000000000E+00  0.00000000000E+00 -0.77773186025E+03  0.26386272287E+04  0.25214057201E+04 0.  0.
        1    1    3    3  502    0  0.26089027931E+03 -0.11622202380E+04  0.43313227427E+02  0.11919293834E+04  0.50400001928E-02 0.  1.
       -1    1    3    3    0  502 -0.26089027931E+03  0.11622202380E+04 -0.82104508767E+03  0.14466978452E+04  0.50400001928E-02 0. -1.
</event>
<event>
 5   0  0.4959042E-05  0.2053491E+04  0.7818609E-02  0.8582012E-01
       -2   -1    0    0    0  501  0.00000000000E+00  0.00000000000E+00  0.42627265237E+03  0.42627265237E+03  0.25500000920E-02 0. -1.
        2   -1    0    0  501    0  0.00000000000E+00  0.00000000000E+00 -0.24730799594E+04  0.24730799594E+04  0.25500000920E-02 0.  1.
    10030    2    1    2    0    0  0.00000000000E+00  0.00000000000E+00 -0.20468073070E+04  0.28993526118E+04  0.20534910312E+04 0.  0.
        4    1    3    3  502    0 -0.27504129082E+03 -0.17575527533E+03  0.35106908559E+03  0.47936285236E+03  0.12699999809E+01 0. -1.
       -4    1    3    3    0  502  0.27504129082E+03  0.17575527533E+03 -0.23978763926E+04  0.24199897594E+04  0.12699999809E+01 0.  1.
</event>
<event>
 5   0  0.2041718E-05  0.2473281E+04  0.7818609E-02  0.8412567E-01
        1   -1    0    0  501    0  0.00000000000E+00  0.00000000000E+00  0.30483135386E+04  0.30483135386E+04  0.50400001928E-02 0. -1.
       -1   -1    0    0    0  501  0.00000000000E+00  0.00000000000E+00 -0.50168052493E+03  0.50168052495E+03  0.50400001928E-02 0.  1.
    10030    2    1    2    0    0  0.00000000000E+00  0.00000000000E+00  0.25466330137E+04  0.35499940636E+04  0.24732808464E+04 0.  0.
        4    1    3    3  502    0 -0.12326895343E+03 -0.12289908601E+04  0.13602007584E+04  0.18373245454E+04  0.12699999809E+01 0. -1.
       -4    1    3    3    0  502  0.12326895343E+03  0.12289908601E+04  0.11864322553E+04  0.17126695182E+04  0.12699999809E+01 0.  1.
</event>
<event>
 5   0  0.2066170E-05  0.2500706E+04  0.7818609E-02  0.8402734E-01
        1   -1    0    0  501    0  0.00000000000E+00  0.00000000000E+00  0.11436765633E+04  0.11436765633E+04  0.50400001928E-02 0. -1.
       -1   -1    0    0    0  501  0.00000000000E+00  0.00000000000E+00 -0.13669799917E+04  0.13669799918E+04  0.50400001928E-02 0.  1.
    10030    2    1    2    0    0  0.00000000000E+00  0.00000000000E+00 -0.22330342845E+03  0.25106565551E+04  0.25007062835E+04 0.  0.
        5    1    3    3  502    0  0.20401490953E+03  0.78812071180E+03 -0.10644296480E+04  0.13400704852E+04  0.46999998093E+01 0.  1.
       -5    1    3    3    0  502 -0.20401490953E+03 -0.78812071180E+03  0.84112621959E+03  0.11705860699E+04  0.46999998093E+01 0. -1.
</event>
<event>
 5   0  0.5219468E-05  0.2396420E+04  0.7818609E-02  0.8440845E-01
        2   -1    0    0  501    0  0.00000000000E+00  0.00000000000E+00  0.25609052027E+04  0.25609052027E+04  0.25500000920E-02 0. -1.
       -2   -1    0    0    0  501  0.00000000000E+00  0.00000000000E+00 -0.56062503317E+03  0.56062503318E+03  0.25500000920E-02 0.  1.
    10030    2    1    2    0    0  0.00000000000E+00  0.00000000000E+00  0.20002801695E+04  0.31215302359E+04  0.23964203005E+04 0.  0.
        1    1    3    3  502    0  0.70062007414E+03 -0.97202805117E+03  0.99917966308E+03  0.15601496786E+04  0.50400001928E-02 0.  1.
       -1    1    3    3    0  502 -0.70062007414E+03  0.97202805117E+03  0.10011005064E+04  0.15613805572E+04  0.50400001928E-02 0. -1.
</event>
<event>
 5   0  0.2063930E-05  0.2513983E+04  0.7818609E-02  0.8398021E-01
       -1   -1    0    0    0  501  0.00000000000E+00  0.00000000000E+00  0.14766284796E+04  0.14766284796E+04  0.50400001928E-02 0. -1.
        1   -1    0    0  501    0  0.00000000000E+00  0.00000000000E+00 -0.10700237828E+04  0.10700237828E+04  0.50400001928E-02 0.  1.
    10030    2    1    2    0    0  0.00000000000E+00  0.00000000000E+00  0.40660469673E+03  0.25466522624E+04  0.25139829686E+04 0.  0.
        3    1    3    3  502    0  0.45653905654E+03  0.60534503646E+03  0.12189060604E+04  0.14354798910E+04  0.10100000352E+00 0. -1.
       -3    1    3    3    0  502 -0.45653905654E+03 -0.60534503646E+03 -0.81230136366E+03  0.11111723714E+04  0.10100000352E+00 0.  1.
</event>
<event>
 5   0  0.4995256E-05  0.2445906E+04  0.7818609E-02  0.8422514E-01
       -2   -1    0    0    0  501  0.00000000000E+00  0.00000000000E+00  0.68834560027E+03  0.68834560027E+03  0.25500000920E-02 0. -1.
        2   -1    0    0  501    0  0.00000000000E+00  0.00000000000E+00 -0.21727654257E+04  0.21727654257E+04  0.25500000920E-02 0.  1.
    10030    2    1    2    0    0  0.00000000000E+00  0.00000000000E+00 -0.14844198254E+04  0.28611110260E+04  0.24459055756E+04 0.  0.
        2    1    3    3  502    0  0.33029308545E+03 -0.26783654159E+02  0.63482742250E+03  0.71611224176E+03  0.25500000920E-02 0. -1.
       -2    1    3    3    0  502 -0.33029308545E+03  0.26783654159E+02 -0.21192472479E+04  0.21449987842E+04  0.25500000920E-02 0.  1.
</event>
<event>
 5   0  0.4995256E-05  0.2500780E+04  0.7818609E-02  0.8402708E-01
        2   -1    0    0  501    0  0.00000000000E+00  0.00000000000E+00  0.23668327062E+04  0.23668327062E+04  0.25500000920E-02 0.  1.
       -2   -1    0    0    0  501  0.00000000000E+00  0.00000000000E+00 -0.66057709788E+03  0.66057709789E+03  0.25500000920E-02 0. -1.
    10030    2    1    2    0    0  0.00000000000E+00  0.00000000000E+00  0.17062556084E+04  0.30274098041E+04  0.25007802625E+04 0.  0.
        2    1    3    3  502    0 -0.37192653129E+03 -0.47023622391E+03  0.21814800589E+04  0.22623674985E+04  0.25500000920E-02 0.  1.
       -2    1    3    3    0  502  0.37192653129E+03  0.47023622391E+03 -0.47522445055E+03  0.76504230560E+03  0.25500000920E-02 0. -1.
</event>
<event>
 5   0  0.4959042E-05  0.2410604E+04  0.7818609E-02  0.8435544E-01
        2   -1    0    0  501    0  0.00000000000E+00  0.00000000000E+00  0.13957552483E+04  0.13957552483E+04  0.25500000920E-02 0.  1.
       -2   -1    0    0    0  501  0.00000000000E+00  0.00000000000E+00 -0.10408367145E+04  0.10408367145E+04  0.25500000920E-02 0. -1.
    10030    2    1    2    0    0  0.00000000000E+00  0.00000000000E+00  0.35491853385E+03  0.24365919628E+04  0.24106043283E+04 0.  0.
        4    1    3    3  502    0 -0.11493903195E+04 -0.36174546472E+03  0.20593757137E+03  0.12224441844E+04  0.12699999809E+01 0.  1.
       -4    1    3    3    0  502  0.11493903195E+04  0.36174546472E+03  0.14898096248E+03  0.12141477784E+04  0.12699999809E+01 0. -1.
</event>
<event>
 5   0  0.5024070E-05  0.2371697E+04  0.7818609E-02  0.8450176E-01
       -2   -1    0    0    0  501  0.00000000000E+00  0.00000000000E+00  0.67060682165E+03  0.67060682166E+03  0.25500000920E-02 0.  1.
        2   -1    0    0  501    0  0.00000000000E+00  0.00000000000E+00 -0.20969621003E+04  0.20969621003E+04  0.25500000920E-02 0. -1.
    10030    2    1    2    0    0  0.00000000000E+00  0.00000000000E+00 -0.14263552787E+04  0.27675689220E+04  0.23716973578E+04 0.  0.
        5    1    3    3  502    0 -0.97578200758E+03  0.58549943117E+03 -0.11024008473E+04  0.15843831066E+04  0.46999998093E+01 0.  1.
       -5    1    3    3    0  502  0.97578200758E+03 -0.58549943117E+03 -0.32395443136E+03  0.11831858154E+04  0.46999998093E+01 0. -1.
</event>
<event>
 5   0  0.5219468E-05  0.2451767E+04  0.7818609E-02  0.8420373E-01
       -2   -1    0    0    0  501  0.00000000000E+00  0.00000000000E+00  0.90069568139E+03  0.90069568139E+03  0.25500000920E-02 0.  1.
        2   -1    0    0  501    0  0.00000000000E+00  0.00000000000E+00 -0.16684769120E+04  0.16684769120E+04  0.25500000920E-02 0. -1.
    10030    2    1    2    0    0  0.00000000000E+00  0.00000000000E+00 -0.76778123062E+03  0.25691725934E+04  0.24517666685E+04 0.  0.
        1    1    3    3  502    0  0.78637377571E+03  0.45047272963E+03 -0.12489399527E+04  0.15431009043E+04  0.50400001928E-02 0. -1.
       -1    1    3    3    0  502 -0.78637377571E+03 -0.45047272963E+03  0.48115872213E+03  0.10260716891E+04  0.50400001928E-02 0.  1.
</event>
<event>
 5   0  0.5024070E-05  0.2467386E+04  0.7818609E-02  0.8414698E-01
       -2   -1    0    0    0  501  0.00000000000E+00  0.00000000000E+00  0.77264116475E+03  0.77264116476E+03  0.25500000920E-02 0. -1.
        2   -1    0    0  501    0  0.00000000000E+00  0.00000000000E+00 -0.19698638524E+04  0.19698638524E+04  0.25500000920E-02 0.  1.
    10030    2    1    2    0    0  0.00000000000E+00  0.00000000000E+00 -0.11972226876E+04  0.27425050171E+04  0.24673855810E+04 0.  0.
        5    1    3    3  502    0 -0.19430124986E+03  0.35045516501E+03 -0.18955036730E+04  0.19374024008E+04  0.46999998093E+01 0.  1.
       -5    1    3    3    0  502  0.19430124986E+03 -0.35045516501E+03  0.69828098533E+03  0.80510261635E+03  0.46999998093E+01 0. -1.
</event>
<event>
 5   0  0.2041718E-05  0.2458364E+04  0.7818609E-02  0.8417970E-01
        1   -1    0    0  501    0  0.00000000000E+00  0.00000000000E+00  0.12463076235E+04  0.12463076235E+04  0.50400001928E-02 0. -1.
       -1   -1    0    0    0  501  0.00000000000E+00  0.00000000000E+00 -0.12122921292E+04  0.12122921292E+04  0.50400001928E-02 0.  1.
    10030    2    1    2    0    0  0.00000000000E+00  0.00000000000E+00  0.34015494309E+02  0.24585997527E+04  0.24583644339E+04 0.  0.
        4    1    3    3  502    0 -0.84008641079E+02 -0.95975999026E+03  0.78042255999E+03  0.12398619583E+04  0.12699999809E+01 0. -1.
       -4    1    3    3    0  502  0.84008641079E+02  0.95975999026E+03 -0.74640706569E+03  0.12187377943E+04  0.12699999809E+01 0.  1.
</event>
<event>
 5   0  0.2066170E-05  0.2499262E+04  0.7818609E-02  0.8403248E-01
        1   -1    0    0  501    0  0.00000000000E+00  0.00000000000E+00  0.14947786614E+04  0.14947786614E+04  0.50400001928E-02 0.  1.
       -1   -1    0    0    0  501  0.00000000000E+00  0.00000000000E+00 -0.10446882660E+04  0.10446882660E+04  0.50400001928E-02 0. -1.
    10030    2    1    2    0    0  0.00000000000E+00  0.00000000000E+00  0.45009039536E+03  0.25394669274E+04  0.24992620734E+04 0.  0.
        5    1    3    3  502    0  0.12165684918E+04  0.23276923309E+03  0.57051842729E+02  0.12399586339E+04  0.46999998093E+01 0. -1.
       -5    1    3    3    0  502 -0.12165684918E+04 -0.23276923309E+03  0.39303855263E+03  0.12995082935E+04  0.46999998093E+01 0.  1.
</event>
<event>
 5   0  0.4959042E-05  0.2452183E+04  0.7818609E-02  0.8420221E-01
        2   -1    0    0  501    0  0.00000000000E+00  0.00000000000E+00  0.22775002415E+04  0.22775002415E+04  0.25500000920E-02 0. -1.
       -2   -1    0    0    0  501  0.00000000000E+00  0.00000000000E+00 -0.66006617586E+03  0.66006617586E+03  0.25500000920E-02 0.  1.
    10030    2    1    2    0    0  0.00000000000E+00  0.00000000000E+00  0.16174340657E+04  0.29375664174E+04  0.24521834148E+04 0.  0.
        4    1    3    3  502    0 -0.50635210852E+03  0.74907608020E+03 -0.18332688185E+03  0.92256045344E+03  0.12699999809E+01 0.  1.
       -4    1    3    3    0  502  0.50635210852E+03 -0.74907608020E+03  0.18007609475E+04  0.20150059639E+04  0.12699999809E+01 0. -1.
</event>
<event>
 5   0  0.4995256E-05  0.2407684E+04  0.7818609E-02  0.8436632E-01
        2   -1    0    0  501    0  0.00000000000E+00  0.00000000000E+00  0.19813140681E+04  0.19813140681E+04  0.25500000920E-02 0.  1.
       -2   -1    0    0    0  501  0.00000000000E+00  0.00000000000E+00 -0.73145185424E+03  0.73145185424E+03  0.25500000920E-02 0. -1.
    10030    2    1    2    0    0  0.00000000000E+00  0.00000000000E+00  0.12498622138E+04  0.27127659223E+04  0.24076842392E+04 0.  0.
        2    1    3    3  502    0  0.58554616154E+03  0.26024166340E+03  0.17732077468E+04  0.18854325085E+04  0.25500000920E-02 0.  1.
       -2    1    3    3    0  502 -0.58554616154E+03 -0.26024166340E+03 -0.52334553302E+03  0.82733341380E+03  0.25500000920E-02 0. -1.
</event>
<event>
 5   0  0.2066170E-05  0.2418927E+04  0.7818609E-02  0.8432451E-01
        1   -1    0    0  501    0  0.00000000000E+00  0.00000000000E+00  0.14020558212E+04  0.14020558212E+04  0.50400001928E-02 0.  1.
       -1   -1    0    0    0  501  0.00000000000E+00  0.00000000000E+00 -0.10433267963E+04  0.10433267963E+04  0.50400001928E-02 0. -1.
    10030    2    1    2    0    0  0.00000000000E+00  0.00000000000E+00  0.35872902493E+03  0.24453826175E+04  0.24189273724E+04 0.  0.
        5    1    3    3  502    0  0.61354675617E+02  0.87251703450E+03  0.10238023277E+04  0.13465673648E+04  0.46999998093E+01 0.  1.
       -5    1    3    3    0  502 -0.61354675617E+02 -0.87251703450E+03 -0.66507330274E+03  0.10988152528E+04  0.46999998093E+01 0. -1.
</event>
<event>
 5   0  0.2041718E-05  0.2521742E+04  0.7818609E-02  0.8395280E-01
        1   -1    0    0  501    0  0.00000000000E+00  0.00000000000E+00  0.16094560257E+04  0.16094560257E+04  0.50400001928E-02 0.  1.
       -1   -1    0    0    0  501  0.00000000000E+00  0.00000000000E+00 -0.98778475907E+03  0.98778475908E+03  0.50400001928E-02 0. -1.
    10030    2    1    2    0    0  0.00000000000E+00  0.00000000000E+00  0.62167126662E+03  0.25972407848E+04  0.25217423600E+04 0.  0.
        4    1    3    3  502    0 -0.91694163715E+03 -0.82014549766E+03  0.59546783431E+03  0.13667494861E+04  0.12699999809E+01 0.  1.
       -4    1    3    3    0  502  0.91694163715E+03  0.82014549766E+03  0.26203432303E+02  0.12304912986E+04  0.12699999809E+01 0. -1.
</event>
<event>
 5   0  0.5024070E-05  0.2551835E+04  0.7818609E-02  0.8384748E-01
        2   -1    0    0  501    0  0.00000000000E+00  0.00000000000E+00  0.25264137595E+04  0.25264137596E+04  0.25500000920E-02 0. -1.
       -2   -1    0    0    0  501  0.00000000000E+00  0.00000000000E+00 -0.64437820741E+03  0.64437820741E+03  0.25500000920E-02 0.  1.
    10030    2    1    2    0    0  0.00000000000E+00  0.00000000000E+00  0.18820355521E+04  0.31707919670E+04  0.25518353940E+04 0.  0.
        5    1    3    3  502    0 -0.10633574102E+04 -0.60852028569E+02  0.68118929766E+02  0.10672835752E+04  0.46999998093E+01 0.  1.
       -5    1    3    3    0  502  0.10633574102E+04  0.60852028569E+02  0.18139166224E+04  0.21035083918E+04  0.46999998093E+01 0. -1.
</event>
<event>
 5   0  0.2036578E-05  0.2493611E+04  0.7818609E-02  0.8405265E-01
       -1   -1    0    0    0  501  0.00000000000E+00  0.00000000000E+00  0.71365182908E+03  0.71365182910E+03  0.50400001928E-02 0.  1.
        1   -1    0    0  501    0  0.00000000000E+00  0.00000000000E+00 -0.21782672852E+04  0.21782672853E+04  0.50400001928E-02 0. -1.
    10030    2    1    2    0    0  0.00000000000E+00  0.00000000000E+00 -0.14646154562E+04  0.28919191144E+04  0.24936113830E+04 0.  0.
        2    1    3    3  502    0  0.11958760743E+04  0.34297633787E+03 -0.82774507922E+03  0.14942939033E+04  0.25500000920E-02 0. -1.
       -2    1    3    3    0  502 -0.11958760743E+04 -0.34297633787E+03 -0.63687037695E+03  0.13976252110E+04  0.25500000920E-02 0.  1.
</event>
<event>
 5   0  0.2063930E-05  0.2503247E+04  0.7818609E-02  0.8401830E-01
        1   -1    0    0  501    0  0.00000000000E+00  0.00000000000E+00  0.97309643134E+03  0.97309643135E+03  0.50400001928E-02 0.  1.
       -1   -1    0    0    0  501  0.00000000000E+00  0.00000000000E+00 -0.16098721378E+04  0.16098721378E+04  0.50400001928E-02 0. -1.
    10030    2    1    2    0    0  0.00000000000E+00  0.00000000000E+00 -0.63677570645E+03  0.25829685692E+04  0.25032465578E+04 0.  0.
        3    1    3    3  502    0 -0.11982733785E+04  0.23638793440E+03 -0.36139423676E+02  0.12219019655E+04  0.10100000352E+00 0.  1.
       -3    1    3    3    0  502  0.11982733785E+04 -0.23638793440E+03 -0.60063628278E+03  0.13610666036E+04  0.10100000352E+00 0. -1.
</event>
<event>
 5   0  0.2081874E-05  0.2202415E+04  0.7818609E-02  0.8517424E-01
        1   -1    0    0  501    0  0.00000000000E+00  0.00000000000E+00  0.14040479778E+04  0.14040479778E+04  0.50400001928E-02 0. -1.
       -1   -1    0    0    0  501  0.00000000000E+00  0.00000000000E+00 -0.86368674019E+03  0.86368674020E+03  0.50400001928E-02 0.  1.
    10030    2    1    2    0    0  0.00000000000E+00  0.00000000000E+00  0.54036123757E+03  0.22677347180E+04  0.22024146939E+04 0.  0.
        1    1    3    3  502    0 -0.51245291284E+03  0.83885425350E+03  0.78126176811E+03  0.12556489943E+04  0.50400001928E-02 0. -1.
       -1    1    3    3    0  502  0.51245291284E+03 -0.83885425350E+03 -0.24090053053E+03  0.10120857237E+04  0.50400001928E-02 0.  1.
</event>
<event>
 5   0  0.5219468E-05  0.2591664E+04  0.7818609E-02  0.8371038E-01
        2   -1    0    0  501    0  0.00000000000E+00  0.00000000000E+00  0.17539225100E+04  0.17539225100E+04  0.25500000920E-02 0. -1.
       -2   -1    0    0    0  501  0.00000000000E+00  0.00000000000E+00 -0.95738595281E+03  0.95738595282E+03  0.25500000920E-02 0.  1.
    10030    2    1    2    0    0  0.00000000000E+00  0.00000000000E+00  0.79653655716E+03  0.27113084628E+04  0.25916641552E+04 0.  0.
        1    1    3    3  502    0  0.93297703548E+03  0.53477662139E+02 -0.54087960814E+03  0.10797484705E+04  0.50400001928E-02 0.  1.
       -1    1    3    3    0  502 -0.93297703548E+03 -0.53477662139E+02  0.13374161653E+04  0.16315599923E+04  0.50400001928E-02 0. -1.
</event>
<event>
 5   0  0.4959347E-05  0.1703239E+04  0.7818609E-02  0.8759519E-01
        2   -1    0    0  501    0  0.00000000000E+00  0.00000000000E+00  0.11875028900E+04  0.11875028900E+04  0.25500000920E-02 0.  1.
       -2   -1    0    0    0  501  0.00000000000E+00  0.00000000000E+00 -0.61074017598E+03  0.61074017598E+03  0.25500000920E-02 0. -1.
    10030    2    1    2    0    0  0.00000000000E+00  0.00000000000E+00  0.57676271404E+03  0.17982430660E+04  0.17032389428E+04 0.  0.
        3    1    3    3  502    0  0.66073323919E+03  0.96242952964E+02  0.84647250068E+03  0.10781218966E+04  0.10100000352E+00 0.  1.
       -3    1    3    3    0  502 -0.66073323919E+03 -0.96242952964E+02 -0.26970978664E+03  0.72012116938E+03  0.10100000352E+00 0. -1.
</event>
<event>
 5   0  0.5024070E-05  0.2473670E+04  0.7818609E-02  0.8412426E-01
       -2   -1    0    0    0  501  0.00000000000E+00  0.00000000000E+00  0.11289056704E+04  0.11289056704E+04  0.25500000920E-02 0. -1.
        2   -1    0    0  501    0  0.00000000000E+00  0.00000000000E+00 -0.13550831753E+04  0.13550831753E+04  0.25500000920E-02 0.  1.
    10030    2    1    2    0    0  0.00000000000E+00  0.00000000000E+00 -0.22617750489E+03  0.24839888457E+04  0.24736702128E+04 0.  0.
        5    1    3    3  502    0  0.72354893978E+03 -0.97231258640E+03 -0.36074306179E+03  0.12645443767E+04  0.46999998093E+01 0. -1.
       -5    1    3    3    0  502 -0.72354893978E+03  0.97231258640E+03  0.13456555691E+03  0.12194444690E+04  0.46999998093E+01 0.  1.
</event>
<event>
 5   0  0.4959042E-05  0.2304014E+04  0.7818609E-02  0.8476340E-01
        2   -1    0    0  501    0  0.00000000000E+00  0.00000000000E+00  0.22010500547E+04  0.22010500547E+04  0.25500000920E-02 0. -1.
       -2   -1    0    0    0  501  0.00000000000E+00  0.00000000000E+00 -0.60294888042E+03  0.60294888042E+03  0.25500000920E-02 0.  1.
    10030    2    1    2    0    0  0.00000000000E+00  0.00000000000E+00  0.15981011743E+04  0.28039989351E+04  0.23040144672E+04 0.  0.
        4    1    3    3  502    0  0.86042466741E+03  0.73157655501E+03  0.10754588026E+04  0.15595345822E+04  0.12699999809E+01 0.  1.
       -4    1    3    3    0  502 -0.86042466741E+03 -0.73157655501E+03  0.52264237171E+03  0.12444643529E+04  0.12699999809E+01 0. -1.
</event>
<event>
 5   0  0.5219468E-05  0.2461081E+04  0.7818609E-02  0.8416983E-01
       -2   -1    0    0    0  501  0.00000000000E+00  0.00000000000E+00  0.92056065321E+03  0.92056065321E+03  0.25500000920E-02 0.  1.
        2   -1    0    0  501    0  0.00000000000E+00  0.00000000000E+00 -0.16448997273E+04  0.16448997273E+04  0.25500000920E-02 0. -1.
    10030    2    1    2    0    0  0.00000000000E+00  0.00000000000E+00 -0.72433907409E+03  0.25654603805E+04  0.24610810368E+04 0.  0.
        1    1    3    3  502    0 -0.49928513938E+03  0.54733253690E+03  0.66203480956E+03  0.99355354433E+03  0.50400001928E-02 0.  1.
       -1    1    3    3    0  502  0.49928513938E+03 -0.54733253690E+03 -0.13863738836E+04  0.15719068362E+04  0.50400001928E-02 0. -1.
</event>
<event>
 5   0  0.2036578E-05  0.2513683E+04  0.7818609E-02  0.8398127E-01
        1   -1    0    0  501    0  0.00000000000E+00  0.00000000000E+00  0.20817650113E+04  0.20817650113E+04  0.50400001928E-02 0.  1.
       -1   -1    0    0    0  501  0.00000000000E+00  0.00000000000E+00 -0.75880331668E+03  0.75880331669E+03  0.50400001928E-02 0. -1.
    10030    2    1    2    0    0  0.00000000000E+00  0.00000000000E+00  0.13229616946E+04  0.28405683280E+04  0.25136827128E+04 0.  0.
        2    1    3    3  502    0  0.12472590227E+04 -0.13419498106E+03  0.74891746156E+03  0.14610067512E+04  0.25500000920E-02 0.  1.
       -2    1    3    3    0  502 -0.12472590227E+04  0.13419498106E+03  0.57404423308E+03  0.13795615768E+04  0.25500000920E-02 0. -1.
</event>
<event>
 5   0  0.2063930E-05  0.2541904E+04  0.7818609E-02  0.8388207E-01
       -1   -1    0    0    0  501  0.00000000000E+00  0.00000000000E+00  0.10205804502E+04  0.10205804503E+04  0.50400001928E-02 0. -1.
        1   -1    0    0  501    0  0.00000000000E+00  0.00000000000E+00 -0.15827452553E+04  0.15827452554E+04  0.50400001928E-02 0.  1.
    10030    2    1    2    0    0  0.00000000000E+00  0.00000000000E+00 -0.56216480510E+03  0.26033257056E+04  0.25419039048E+04 0.  0.
        3    1    3    3  502    0 -0.33591532747E+03  0.11836525497E+04  0.45120390867E+02  0.12312222893E+04  0.10100000352E+00 0.  1.
       -3    1    3    3    0  502  0.33591532747E+03 -0.11836525497E+04 -0.60728519597E+03  0.13721034163E+04  0.10100000352E+00 0. -1.
</event>
<event>
 5   0  0.5024070E-05  0.2288361E+04  0.7818609E-02  0.8482524E-01
        2   -1    0    0  501    0  0.00000000000E+00  0.00000000000E+00  0.11596516716E+04  0.11596516716E+04  0.25500000920E-02 0. -1.
       -2   -1    0    0    0  501  0.00000000000E+00  0.00000000000E+00 -0.11289155393E+04  0.11289155393E+04  0.25500000920E-02 0.  1.
    10030    2    1    2    0    0  0.00000000000E+00  0.00000000000E+00  0.30736132323E+02  0.22885672110E+04  0.22883608040E+04 0.  0.
        5    1    3    3  502    0  0.18216598673E+03 -0.18390955299E+03  0.11299727570E+04  0.11592530751E+04  0.46999998093E+01 0. -1.
       -5    1    3    3    0  502 -0.18216598673E+03  0.18390955299E+03 -0.10992366247E+04  0.11293141359E+04  0.46999998093E+01 0.  1.
</event>
<event>
 5   0  0.4959347E-05  0.2446288E+04  0.7818609E-02  0.8422375E-01
        2   -1    0    0  501    0  0.00000000000E+00  0.00000000000E+00  0.86974636987E+03  0.86974636987E+03  0.25500000920E-02 0.  1.
       -2   -1    0    0    0  501  0.00000000000E+00  0.00000000000E+00 -0.17201350653E+04  0.17201350653E+04  0.25500000920E-02 0. -1.
    10030    2    1    2    0    0  0.00000000000E+00  0.00000000000E+00 -0.85038869541E+03  0.25898814352E+04  0.24462879869E+04 0.  0.
        3    1    3    3  502    0  0.25929270212E+03 -0.77245010606E+03 -0.13909742356E+04  0.16120549637E+04  0.10100000352E+00 0. -1.
       -3    1    3    3    0  502 -0.25929270212E+03  0.77245010606E+03  0.54058554021E+03  0.97782647142E+03  0.10100000352E+00 0.  1.
</event>
<event>
 5   0  0.2041718E-05  0.2481156E+04  0.7818609E-02  0.8409730E-01
        1   -1    0    0  501    0  0.00000000000E+00  0.00000000000E+00  0.17317208551E+04  0.17317208551E+04  0.50400001928E-02 0.  1.
       -1   -1    0    0    0  501  0.00000000000E+00  0.00000000000E+00 -0.88873116486E+03  0.88873116488E+03  0.50400001928E-02 0. -1.
    10030    2    1    2    0    0  0.00000000000E+00  0.00000000000E+00  0.84298969025E+03  0.26204520200E+04  0.24811564181E+04 0.  0.
        4    1    3    3  502    0  0.55148569343E+03 -0.59036706176E+03  0.14158187106E+04  0.16300963076E+04  0.12699999809E+01 0.  1.
       -4    1    3    3    0  502 -0.55148569343E+03  0.59036706176E+03 -0.57282902038E+03  0.99035571243E+03  0.12699999809E+01 0. -1.
</event>
<event>
 5   0  0.2081874E-05  0.2322303E+04  0.7818609E-02  0.8469179E-01
       -1   -1    0    0    0  501  0.00000000000E+00  0.00000000000E+00  0.73308725586E+03  0.73308725588E+03  0.50400001928E-02 0. -1.
        1   -1    0    0  501    0  0.00000000000E+00  0.00000000000E+00 -0.18391701947E+04  0.18391701947E+04  0.50400001928E-02 0.  1.
    10030    2    1    2    0    0  0.00000000000E+00  0.00000000000E+00 -0.11060829388E+04  0.25722574506E+04  0.23223025049E+04 0.  0.
        1    1    3    3  502    0  0.22149261492E+02 -0.52188798149E+03 -0.17016805874E+04  0.17800490096E+04  0.50400001928E-02 0.  1.
       -1    1    3    3    0  502 -0.22149261492E+02  0.52188798149E+03  0.59559764855E+03  0.79220844100E+03  0.50400001928E-02 0. -1.
</event>
<event>
 5   0  0.5024070E-05  0.2510189E+04  0.7818609E-02  0.8399365E-01
       -2   -1    0    0    0  501  0.00000000000E+00  0.00000000000E+00  0.70853143404E+03  0.70853143405E+03  0.25500000920E-02 0.  1.
        2   -1    0    0  501    0  0.00000000000E+00  0.00000000000E+00 -0.22232777835E+04  0.22232777835E+04  0.25500000920E-02 0. -1.
    10030    2    1    2    0    0  0.00000000000E+00  0.00000000000E+00 -0.15147463494E+04  0.29318092175E+04  0.25101889938E+04 0.  0.
        5    1    3    3  502    0 -0.41091227764E+03 -0.60431096421E+03 -0.19491536138E+04  0.20816489957E+04  0.46999998093E+01 0. -1.
       -5    1    3    3    0  502  0.41091227764E+03  0.60431096421E+03  0.43440726435E+03  0.85016022178E+03  0.46999998093E+01 0.  1.
</event>
<event>
 5   0  0.2041718E-05  0.2243169E+04  0.7818609E-02  0.8500672E-01
       -1   -1    0    0    0  501  0.00000000000E+00  0.00000000000E+00  0.12760417658E+04  0.12760417658E+04  0.50400001928E-02 0.  1.
        1   -1    0    0  501    0  0.00000000000E+00  0.00000000000E+00 -0.98582326378E+03  0.98582326379E+03  0.50400001928E-02 0. -1.
    10030    2    1    2    0    0  0.00000000000E+00  0.00000000000E+00  0.29021850200E+03  0.22618650296E+04  0.22431688820E+04 0.  0.
        4    1    3    3  502    0 -0.42589000928E+03  0.17784002109E+03  0.11758525764E+04  0.12631865529E+04  0.12699999809E+01 0.  1.
       -4    1    3    3    0  502  0.42589000928E+03 -0.17784002109E+03 -0.88563407441E+03  0.99867847667E+03  0.12699999809E+01 0. -1.
</event>
<event>
 5   0  0.2081874E-05  0.2570489E+04  0.7818609E-02  0.8378295E-01
       -1   -1    0    0    0  501  0.00000000000E+00  0.00000000000E+00  0.93542892185E+03  0.93542892186E+03  0.50400001928E-02 0.  1.
        1   -1    0    0  501    0  0.00000000000E+00  0.00000000000E+00 -0.17658779224E+04  0.17658779225E+04  0.50400001928E-02 0. -1.
    10030    2    1    2    0    0  0.00000000000E+00  0.00000000000E+00 -0.83044900060E+03  0.27013068443E+04  0.25704888882E+04 0.  0.
        1    1    3    3  502    0 -0.65317396347E+03 -0.13549127192E+03 -0.15697046910E+04  0.17055693854E+04  0.50400001928E-02 0. -1.
       -1    1    3    3    0  502  0.65317396347E+03  0.13549127192E+03  0.73925569041E+03  0.99573745895E+03  0.50400001928E-02 0.  1.
</event>
<event>
 5   0  0.4959042E-05  0.2549947E+04  0.7818609E-02  0.8385405E-01
       -2   -1    0    0    0  501  0.00000000000E+00  0.00000000000E+00  0.22686642780E+04  0.22686642780E+04  0.25500000920E-02 0.  1.
        2   -1    0    0  501    0  0.00000000000E+00  0.00000000000E+00 -0.71652621682E+03  0.71652621682E+03  0.25500000920E-02 0. -1.
    10030    2    1    2    0    0  0.00000000000E+00  0.00000000000E+00  0.15521380612E+04  0.29851904948E+04  0.25499470052E+04 0.  0.
        4    1    3    3  502    0  0.42069956884E+03  0.98650464215E+02 -0.62818768546E+03  0.76245748889E+03  0.12699999809E+01 0. -1.
       -4    1    3    3    0  502 -0.42069956884E+03 -0.98650464215E+02  0.21803257467E+04  0.22227330060E+04  0.12699999809E+01 0.  1.
</event>
<event>
 5   0  0.2063930E-05  0.2498383E+04  0.7818609E-02  0.8403562E-01
       -1   -1    0    0    0  501  0.00000000000E+00  0.00000000000E+00  0.54985013295E+03  0.54985013297E+03  0.50400001928E-02 0. -1.
        1   -1    0    0  501    0  0.00000000000E+00  0.00000000000E+00 -0.28380085324E+04  0.28380085324E+04  0.50400001928E-02 0.  1.
    10030    2    1    2    0    0  0.00000000000E+00  0.00000000000E+00 -0.22881583995E+04  0.33878586654E+04  0.24983829722E+04 0.  0.
        3    1    3    3  502    0 -0.15311104005E+03  0.25204807914E+03 -0.27901273749E+04  0.28056696176E+04  0.10100000352E+00 0.  1.
       -3    1    3    3    0  502  0.15311104005E+03 -0.25204807914E+03  0.50196897547E+03  0.58218904775E+03  0.10100000352E+00 0. -1.
</event>
<event>
 5   0  0.2063930E-05  0.2496613E+04  0.7818609E-02  0.8404193E-01
        1   -1    0    0  501    0  0.00000000000E+00  0.00000000000E+00  0.12940092887E+04  0.12940092887E+04  0.50400001928E-02 0. -1.
       -1   -1    0    0    0  501  0.00000000000E+00  0.00000000000E+00 -0.12042178301E+04  0.12042178301E+04  0.50400001928E-02 0.  1.
    10030    2    1    2    0    0  0.00000000000E+00  0.00000000000E+00  0.89791458545E+02  0.24982271188E+04  0.24966129518E+04 0.  0.
        3    1    3    3  502    0  0.84402734080E+03  0.46524809356E+03 -0.74898415984E+03  0.12205798714E+04  0.10100000352E+00 0.  1.
       -3    1    3    3    0  502 -0.84402734080E+03 -0.46524809356E+03  0.83877561838E+03  0.12776472474E+04  0.10100000352E+00 0. -1.
</event>
<event>
 5   0  0.2081874E-05  0.2957856E+04  0.7818609E-02  0.8255869E-01
       -1   -1    0    0    0  501  0.00000000000E+00  0.00000000000E+00  0.14334180063E+04  0.14334180063E+04  0.50400001928E-02 0. -1.
        1   -1    0    0  501    0  0.00000000000E+00  0.00000000000E+00 -0.15258824597E+04  0.15258824597E+04  0.50400001928E-02 0.  1.
    10030    2    1    2    0    0  0.00000000000E+00  0.00000000000E+00 -0.92464453396E+02  0.29593004660E+04  0.29578555700E+04 0.  0.
        1    1    3    3  502    0  0.57081847527E+03 -0.78748943066E+02  0.13164875575E+04  0.14370715420E+04  0.50400001928E-02 0. -1.
       -1    1    3    3    0  502 -0.57081847527E+03  0.78748943066E+02 -0.14089520109E+04  0.15222289239E+04  0.50400001928E-02 0.  1.
</event>
<event>
 5   0  0.2066170E-05  0.2497648E+04  0.7818609E-02  0.8403824E-01
       -1   -1    0    0    0  501  0.00000000000E+00  0.00000000000E+00  0.64938496192E+03  0.64938496194E+03  0.50400001928E-02 0. -1.
        1   -1    0    0  501    0  0.00000000000E+00  0.00000000000E+00 -0.24015977601E+04  0.24015977601E+04  0.50400001928E-02 0.  1.
    10030    2    1    2    0    0  0.00000000000E+00  0.00000000000E+00 -0.17522127981E+04  0.30509827220E+04  0.24976480697E+04 0.  0.
        5    1    3    3  502    0  0.80011422868E+02 -0.88948879458E+03  0.19017283934E+03  0.91311551421E+03  0.46999998093E+01 0. -1.
       -5    1    3    3    0  502 -0.80011422868E+02  0.88948879458E+03 -0.19423856375E+04  0.21378672078E+04  0.46999998093E+01 0.  1.
</event>
<event>
 5   0  0.2066170E-05  0.2494640E+04  0.7818609E-02  0.8404897E-01
       -1   -1    0    0    0  501  0.00000000000E+00  0.00000000000E+00  0.10063710989E+04  0.10063710989E+04  0.50400001928E-02 0. -1.
        1   -1    0    0  501    0  0.00000000000E+00  0.00000000000E+00 -0.15459580748E+04  0.15459580748E+04  0.50400001928E-02 0.  1.
    10030    2    1    2    0    0  0.00000000000E+00  0.00000000000E+00 -0.53958697590E+03  0.25523291737E+04  0.24946402759E+04 0.  0.
        5    1    3    3  502    0  0.67885952846E+02 -0.86583724491E+03 -0.11857635444E+04  0.14698094810E+04  0.46999998093E+01 0.  1.
       -5    1    3    3    0  502 -0.67885952846E+02  0.86583724491E+03  0.64617656850E+03  0.10825196926E+04  0.46999998093E+01 0. -1.
</event>
<event>
 5   0  0.2036578E-05  0.2453028E+04  0.7818609E-02  0.8419913E-01
       -1   -1    0    0    0  501  0.00000000000E+00  0.00000000000E+00  0.10139553363E+04  0.10139553363E+04  0.50400001928E-02 0.  1.
        1   -1    0    0  501    0  0.00000000000E+00  0.00000000000E+00 -0.14836325929E+04  0.14836325929E+04  0.50400001928E-02 0. -1.
    10030    2    1    2    0    0  0.00000000000E+00  0.00000000000E+00 -0.46967725668E+03  0.24975879292E+04  0.24530284831E+04 0.  0.
        2    1    3    3  502    0  0.39443537402E+03  0.60106157849E+03  0.77693414290E+03  0.10585277265E+04  0.25500000920E-02 0.  1.
       -2    1    3    3    0  502 -0.39443537402E+03 -0.60106157849E+03 -0.12466113996E+04  0.14390602027E+04  0.25500000920E-02 0. -1.
</event>
<event>
 5   0  0.2036578E-05  0.2575473E+04  0.7818609E-02  0.8376580E-01
        1   -1    0    0  501    0  0.00000000000E+00  0.00000000000E+00  0.19249727407E+04  0.19249727407E+04  0.50400001928E-02 0.  1.
       -1   -1    0    0    0  501  0.00000000000E+00  0.00000000000E+00 -0.86144868016E+03  0.86144868018E+03  0.50400001928E-02 0. -1.
    10030    2    1    2    0    0  0.00000000000E+00  0.00000000000E+00  0.10635240606E+04  0.27864214209E+04  0.25754729483E+04 0.  0.
        2    1    3    3  502    0 -0.33199726010E+03 -0.12415971582E+04  0.44467329373E+03  0.13599705961E+04  0.25500000920E-02 0. -1.
       -2    1    3    3    0  502  0.33199726010E+03  0.12415971582E+04  0.61885076684E+03  0.14264508248E+04  0.25500000920E-02 0.  1.
</event>
<event>
 5   0  0.2036578E-05  0.1756006E+04  0.7818609E-02  0.8730052E-01
        1   -1    0    0  501    0  0.00000000000E+00  0.00000000000E+00  0.97475893648E+03  0.97475893650E+03  0.50400001928E-02 0.  1.
       -1   -1    0    0    0  501  0.00000000000E+00  0.00000000000E+00 -0.79085081009E+03  0.79085081010E+03  0.50400001928E-02 0. -1.
    10030    2    1    2    0    0  0.00000000000E+00  0.00000000000E+00  0.18390812640E+03  0.17656097466E+04  0.17560055747E+04 0.  0.
        2    1    3    3  502    0 -0.21859285611E+03 -0.79936133402E+03 -0.19967973825E+03  0.85242793065E+03  0.25500000920E-02 0. -1.
       -2    1    3    3    0  502  0.21859285611E+03  0.79936133402E+03  0.38358786465E+03  0.91318181595E+03  0.25500000920E-02 0.  1.
</event>
<event>
 5   0  0.5024070E-05  0.2491260E+04  0.7818609E-02  0.8406106E-01
       -2   -1    0    0    0  501  0.00000000000E+00  0.00000000000E+00  0.11415695502E+04  0.11415695502E+04  0.25500000920E-02 0. -1.
        2   -1    0    0  501    0  0.00000000000E+00  0.00000000000E+00 -0.13591758836E+04  0.13591758836E+04  0.25500000920E-02 0.  1.
    10030    2    1    2    0    0  0.00000000000E+00  0.00000000000E+00 -0.21760633342E+03  0.25007454338E+04  0.24912597633E+04 0.  0.
        5    1    3    3  502    0  0.91358653749E+03  0.79926221042E+03  0.17174492507E+03  0.12259603794E+04  0.46999998093E+01 0. -1.
       -5    1    3    3    0  502 -0.91358653749E+03 -0.79926221042E+03 -0.38935125849E+03  0.12747850544E+04  0.46999998093E+01 0.  1.
</event>
<event>
 5   0  0.2081874E-05  0.2393487E+04  0.7818609E-02  0.8441946E-01
        1   -1    0    0  501    0  0.00000000000E+00  0.00000000000E+00  0.14819551827E+04  0.14819551827E+04  0.50400001928E-02 0. -1.
       -1   -1    0    0    0  501  0.00000000000E+00  0.00000000000E+00 -0.96642245438E+03  0.96642245439E+03  0.50400001928E-02 0.  1.
    10030    2    1    2    0    0  0.00000000000E+00  0.00000000000E+00  0.51553272831E+03  0.24483776371E+04  0.23934867996E+04 0.  0.
        1    1    3    3  502    0  0.58852762696E+03  0.66077693338E+03  0.10819764183E+04  0.13977352729E+04  0.50400001928E-02 0. -1.
       -1    1    3    3    0  502 -0.58852762696E+03 -0.66077693338E+03 -0.56644369002E+03  0.10506423642E+04  0.50400001928E-02 0.  1.
</event>
<event>
 5   0  0.1692125E-05  0.2921009E+04  0.7818609E-02  0.8266654E-01
        3   -1    0    0  501    0  0.00000000000E+00  0.00000000000E+00  0.15751005276E+04  0.15751005308E+04  0.10100000352E+00 0.  1.
       -3   -1    0    0    0  501  0.00000000000E+00  0.00000000000E+00 -0.13542463310E+04  0.13542463348E+04  0.10100000352E+00 0. -1.
    10030    2    1    2    0    0  0.00000000000E+00  0.00000000000E+00  0.22085419653E+03  0.29293468656E+04  0.29210094972E+04 0.  0.
        5    1    3    3  502    0 -0.13225659235E+04 -0.61213690771E+03  0.20640719466E+03  0.14719097240E+04  0.46999998093E+01 0. -1.
       -5    1    3    3    0  502  0.13225659235E+04  0.61213690771E+03  0.14447001871E+02  0.14574371415E+04  0.46999998093E+01 0.  1.
</event>
<event>
 5   0  0.5024070E-05  0.2518720E+04  0.7818609E-02  0.8396347E-01
        2   -1    0    0  501    0  0.00000000000E+00  0.00000000000E+00  0.14807507479E+04  0.14807507479E+04  0.25500000920E-02 0. -1.
       -2   -1    0    0    0  501  0.00000000000E+00  0.00000000000E+00 -0.10710695135E+04  0.10710695135E+04  0.25500000920E-02 0.  1.
    10030    2    1    2    0    0  0.00000000000E+00  0.00000000000E+00  0.40968123436E+03  0.25518202615E+04  0.25187195026E+04 0.  0.
        5    1    3    3  502    0  0.35328340337E+03 -0.87243667475E+02  0.14263151275E+04  0.14720113972E+04  0.46999998093E+01 0. -1.
       -5    1    3    3    0  502 -0.35328340337E+03  0.87243667475E+02 -0.10166338931E+04  0.10798088642E+04  0.46999998093E+01 0.  1.
</event>
<event>
 5   0  0.2041718E-05  0.2499189E+04  0.7818609E-02  0.8403275E-01
        1   -1    0    0  501    0  0.00000000000E+00  0.00000000000E+00  0.18093417288E+04  0.18093417288E+04  0.50400001928E-02 0.  1.
       -1   -1    0    0    0  501  0.00000000000E+00  0.00000000000E+00 -0.86301323040E+03  0.86301323041E+03  0.50400001928E-02 0. -1.
    10030    2    1    2    0    0  0.00000000000E+00  0.00000000000E+00  0.94632849842E+03  0.26723549592E+04  0.24991885486E+04 0.  0.
        4    1    3    3  502    0  0.68452937626E+03  0.81004291174E+03 -0.23348474949E+03  0.10859404804E+04  0.12699999809E+01 0. -1.
       -4    1    3    3    0  502 -0.68452937626E+03 -0.81004291174E+03  0.11798132479E+04  0.15864144788E+04  0.12699999809E+01 0.  1.
</event>
<event>
 5   0  0.4959042E-05  0.2587893E+04  0.7818609E-02  0.8372325E-01
        2   -1    0    0  501    0  0.00000000000E+00  0.00000000000E+00  0.18287964847E+04  0.18287964847E+04  0.25500000920E-02 0.  1.
       -2   -1    0    0    0  501  0.00000000000E+00  0.00000000000E+00 -0.91551874249E+03  0.91551874249E+03  0.25500000920E-02 0. -1.
    10030    2    1    2    0    0  0.00000000000E+00  0.00000000000E+00  0.91327774219E+03  0.27443152272E+04  0.25878929328E+04 0.  0.
        4    1    3    3  502    0 -0.11967735651E+04  0.16988178496E+03 -0.32970558995E+02  0.12092210127E+04  0.12699999809E+01 0. -1.
       -4    1    3    3    0  502  0.11967735651E+04 -0.16988178496E+03  0.94624830119E+03  0.15350942145E+04  0.12699999809E+01 0.  1.
</event>
<event>
 5   0  0.5219468E-05  0.2455567E+04  0.7818609E-02  0.8418988E-01
       -2   -1    0    0    0  501  0.00000000000E+00  0.00000000000E+00  0.11700513720E+04  0.11700513720E+04  0.25500000920E-02 0.  1.
        2   -1    0    0  501    0  0.00000000000E+00  0.00000000000E+00 -0.12883642369E+04  0.12883642369E+04  0.25500000920E-02 0. -1.
    10030    2    1    2    0    0  0.00000000000E+00  0.00000000000E+00 -0.11831286491E+03  0.24584156089E+04  0.24555670164E+04 0.  0.
        1    1    3    3  502    0  0.89636444806E+03  0.15727909509E+03 -0.88427657264E+03  0.12689172528E+04  0.50400001928E-02 0. -1.
       -1    1    3    3    0  502 -0.89636444806E+03 -0.15727909509E+03  0.76596370773E+03  0.11894983561E+04  0.50400001928E-02 0.  1.
</event>
<event>
 5   0  0.2063930E-05  0.2434626E+04  0.7818609E-02  0.8426653E-01
        1   -1    0    0  501    0  0.00000000000E+00  0.00000000000E+00  0.92462292605E+03  0.92462292607E+03  0.50400001928E-02 0. -1.
       -1   -1    0    0    0  501  0.00000000000E+00  0.00000000000E+00 -0.16026545706E+04  0.16026545706E+04  0.50400001928E-02 0.  1.
    10030    2    1    2    0    0  0.00000000000E+00  0.00000000000E+00 -0.67803164456E+03  0.25272774967E+04  0.24346261796E+04 0.  0.
        3    1    3    3  502    0  0.11743135888E+04  0.27845785324E+03 -0.50412857709E+03  0.13079360892E+04  0.10100000352E+00 0. -1.
       -3    1    3    3    0  502 -0.11743135888E+04 -0.27845785324E+03 -0.17390306747E+03  0.12193414075E+04  0.10100000352E+00 0.  1.
</event>
<event>
 5   0  0.4959347E-05  0.2530447E+04  0.7818609E-02  0.8392218E-01
       -2   -1    0    0    0  501  0.00000000000E+00  0.00000000000E+00  0.68765723696E+03  0.68765723697E+03  0.25500000920E-02 0. -1.
        2   -1    0    0  501    0  0.00000000000E+00  0.00000000000E+00 -0.23278904653E+04  0.23278904653E+04  0.25500000920E-02 0.  1.
    10030    2    1    2    0    0  0.00000000000E+00  0.00000000000E+00 -0.16402332283E+04  0.30155477023E+04  0.25304471742E+04 0.  0.
        3    1    3    3  502    0  0.82017897401E+03 -0.68356645540E+03 -0.16291030049E+04  0.19478021612E+04  0.10100000352E+00 0.  1.
       -3    1    3    3    0  502 -0.82017897401E+03  0.68356645540E+03 -0.11130223403E+02  0.10677455410E+04  0.10100000352E+00 0. -1.
</event>
<event>
 5   0  0.2041718E-05  0.2508097E+04  0.7818609E-02  0.8400107E-01
        1   -1    0    0  501    0  0.00000000000E+00  0.00000000000E+00  0.94077226768E+03  0.94077226769E+03  0.50400001928E-02 0. -1.
       -1   -1    0    0    0  501  0.00000000000E+00  0.00000000000E+00 -0.16716450637E+04  0.16716450637E+04  0.50400001928E-02 0.  1.
    10030    2    1    2    0    0  0.00000000000E+00  0.00000000000E+00 -0.73087279604E+03  0.26124173314E+04  0.25080967425E+04 0.  0.
        4    1    3    3  502    0 -0.98302099547E+03  0.77862063430E+03 -0.37318453775E+03  0.13083763533E+04  0.12699999809E+01 0.  1.
       -4    1    3    3    0  502  0.98302099547E+03 -0.77862063430E+03 -0.35768825829E+03  0.13040409782E+04  0.12699999809E+01 0. -1.
</event>
<event>
 5   0  0.4995256E-05  0.2571386E+04  0.7818609E-02  0.8377986E-01
        2   -1    0    0  501    0  0.00000000000E+00  0.00000000000E+00  0.12777179912E+04  0.12777179912E+04  0.25500000920E-02 0. -1.
       -2   -1    0    0    0  501  0.00000000000E+00  0.00000000000E+00 -0.12937178241E+04  0.12937178241E+04  0.25500000920E-02 0.  1.
    10030    2    1    2    0    0  0.00000000000E+00  0.00000000000E+00 -0.15999832875E+02  0.25714358153E+04  0.25713860383E+04 0.  0.
        2    1    3    3  502    0 -0.78071487711E+03 -0.23584500676E+03 -0.10019346224E+04  0.12919023083E+04  0.25500000920E-02 0.  1.
       -2    1    3    3    0  502  0.78071487711E+03  0.23584500676E+03  0.98593478951E+03  0.12795335071E+04  0.25500000920E-02 0. -1.
</event>
<event>
 5   0  0.2041718E-05  0.2537273E+04  0.7818609E-02  0.8389826E-01
        1   -1    0    0  501    0  0.00000000000E+00  0.00000000000E+00  0.15898543154E+04  0.15898543154E+04  0.50400001928E-02 0.  1.
       -1   -1    0    0    0  501  0.00000000000E+00  0.00000000000E+00 -0.10123179985E+04  0.10123179985E+04  0.50400001928E-02 0. -1.
    10030    2    1    2    0    0  0.00000000000E+00  0.00000000000E+00  0.57753631695E+03  0.26021723139E+04  0.25372726606E+04 0.  0.
        4    1    3    3  502    0  0.31527230376E+03 -0.59808996494E+02  0.15475431775E+04  0.15804636157E+04  0.12699999809E+01 0.  1.
       -4    1    3    3    0  502 -0.31527230376E+03  0.59808996494E+02 -0.97000686054E+03  0.10217086982E+04  0.12699999809E+01 0. -1.
</event>
<event>
 5   0  0.2041718E-05  0.2431658E+04  0.7818609E-02  0.8427745E-01
       -1   -1    0    0    0  501  0.00000000000E+00  0.00000000000E+00  0.21324881358E+04  0.21324881358E+04  0.50400001928E-02 0. -1.
        1   -1    0    0  501    0  0.00000000000E+00  0.00000000000E+00 -0.69319983329E+03  0.69319983331E+03  0.50400001928E-02 0.  1.
    10030    2    1    2    0    0  0.00000000000E+00  0.00000000000E+00  0.14392883025E+04  0.28256879691E+04  0.24316582163E+04 0.  0.
        4    1    3    3  502    0 -0.53588299382E+03  0.10813087623E+04  0.54791506431E+03  0.13253723073E+04  0.12699999809E+01 0. -1.
       -4    1    3    3    0  502  0.53588299382E+03 -0.10813087623E+04  0.89137323822E+03  0.15003156618E+04  0.12699999809E+01 0.  1.
</event>
<event>
 5   0  0.2036578E-05  0.2070079E+04  0.7818609E-02  0.8574540E-01
       -1   -1    0    0    0  501  0.00000000000E+00  0.00000000000E+00  0.14199316726E+04  0.14199316726E+04  0.50400001928E-02 0.  1.
        1   -1    0    0  501    0  0.00000000000E+00  0.00000000000E+00 -0.75447733777E+03  0.75447733778E+03  0.50400001928E-02 0. -1.
    10030    2    1    2    0    0  0.00000000000E+00  0.00000000000E+00  0.66545433486E+03  0.21744090104E+04  0.20700785185E+04 0.  0.
        2    1    3    3  502    0 -0.99725892713E+03  0.15940843798E+03  0.94655030219E+02  0.10143451053E+04  0.25500000920E-02 0. -1.
       -2    1    3    3    0  502  0.99725892713E+03 -0.15940843798E+03  0.57079930464E+03  0.11600639051E+04  0.25500000920E-02 0.  1.
</event>
<event>
 5   0  0.4995256E-05  0.2476761E+04  0.7818609E-02  0.8411312E-01
        2   -1    0    0  501    0  0.00000000000E+00  0.00000000000E+00  0.14983519936E+04  0.14983519936E+04  0.25500000920E-02 0.  1.
       -2   -1    0    0    0  501  0.00000000000E+00  0.00000000000E+00 -0.10235152141E+04  0.10235152141E+04  0.25500000920E-02 0. -1.
    10030    2    1    2    0    0  0.00000000000E+00  0.00000000000E+00  0.47483677946E+03  0.25218672077E+04  0.24767608375E+04 0.  0.
        2    1    3    3  502    0  0.51717041231E+03 -0.10457883121E+04 -0.18541255232E+03  0.11813197042E+04  0.25500000920E-02 0. -1.
       -2    1    3    3    0  502 -0.51717041231E+03  0.10457883121E+04  0.66024933178E+03  0.13405475035E+04  0.25500000920E-02 0.  1.
</event>
<event>
 5   0  0.5219468E-05  0.2511900E+04  0.7818609E-02  0.8398758E-01
        2   -1    0    0  501    0  0.00000000000E+00  0.00000000000E+00  0.13897055552E+04  0.13897055552E+04  0.25500000920E-02 0.  1.
       -2   -1    0    0    0  501  0.00000000000E+00  0.00000000000E+00 -0.11350679963E+04  0.11350679963E+04  0.25500000920E-02 0. -1.
    10030    2    1    2    0    0  0.00000000000E+00  0.00000000000E+00  0.25463755886E+03  0.25247735515E+04  0.25118999184E+04 0.  0.
        1    1    3    3  502    0  0.31742196213E+03 -0.33314527162E+03 -0.10472883680E+04  0.11439210636E+04  0.50400001928E-02 0. -1.
       -1    1    3    3    0  502 -0.31742196213E+03  0.33314527162E+03  0.13019259269E+04  0.13808524878E+04  0.50400001928E-02 0.  1.
</event>
<event>
 5   0  0.2036578E-05  0.2509499E+04  0.7818609E-02  0.8399609E-01
        1   -1    0    0  501    0  0.00000000000E+00  0.00000000000E+00  0.12967080809E+04  0.12967080809E+04  0.50400001928E-02 0. -1.
       -1   -1    0    0    0  501  0.00000000000E+00  0.00000000000E+00 -0.12141481230E+04  0.12141481230E+04  0.50400001928E-02 0.  1.
    10030    2    1    2    0    0  0.00000000000E+00  0.00000000000E+00  0.82559957985E+02  0.25108562039E+04  0.25094985017E+04 0.  0.
        2    1    3    3  502    0 -0.99322607605E+03 -0.67031379842E+03  0.41374077417E+03  0.12676750588E+04  0.25500000920E-02 0. -1.
       -2    1    3    3    0  502  0.99322607605E+03  0.67031379842E+03 -0.33118081619E+03  0.12431811451E+04  0.25500000920E-02 0.  1.
</event>
<event>
 5   0  0.5219468E-05  0.2550246E+04  0.7818609E-02  0.8385301E-01
        2   -1    0    0  501    0  0.00000000000E+00  0.00000000000E+00  0.15551281900E+04  0.15551281900E+04  0.25500000920E-02 0.  1.
       -2   -1    0    0    0  501  0.00000000000E+00  0.00000000000E+00 -0.10455334286E+04  0.10455334286E+04  0.25500000920E-02 0. -1.
    10030    2    1    2    0    0  0.00000000000E+00  0.00000000000E+00  0.50959476142E+03  0.26006616185E+04  0.25502458770E+04 0.  0.
        1    1    3    3  502    0  0.48415539646E+03 -0.16546945671E+03  0.14458560741E+04  0.15337165240E+04  0.50400001928E-02 0.  1.
       -1    1    3    3    0  502 -0.48415539646E+03  0.16546945671E+03 -0.93626131268E+03  0.10669450945E+04  0.50400001928E-02 0. -1.
</event>
<event>
 5   0  0.2081874E-05  0.2484494E+04  0.7818609E-02  0.8408530E-01
        1   -1    0    0  501    0  0.00000000000E+00  0.00000000000E+00  0.18059889947E+04  0.18059889947E+04  0.50400001928E-02 0. -1.
       -1   -1    0    0    0  501  0.00000000000E+00  0.00000000000E+00 -0.85447806746E+03  0.85447806747E+03  0.50400001928E-02 0.  1.
    10030    2    1    2    0    0  0.00000000000E+00  0.00000000000E+00  0.95151092721E+03  0.26604670621E+04  0.24844943035E+04 0.  0.
        1    1    3    3  502    0 -0.24737981481E+02 -0.40408491012E+02 -0.85351019030E+03  0.85482422687E+03  0.50400001928E-02 0.  1.
       -1    1    3    3    0  502  0.24737981481E+02  0.40408491012E+02  0.18050211175E+04  0.18056428353E+04  0.50400001928E-02 0. -1.
</event>
<event>
 5   0  0.5024070E-05  0.2353840E+04  0.7818609E-02  0.8456990E-01
       -2   -1    0    0    0  501  0.00000000000E+00  0.00000000000E+00  0.11384619448E+04  0.11384619448E+04  0.25500000920E-02 0. -1.
        2   -1    0    0  501    0  0.00000000000E+00  0.00000000000E+00 -0.12166770455E+04  0.12166770455E+04  0.25500000920E-02 0.  1.
    10030    2    1    2    0    0  0.00000000000E+00  0.00000000000E+00 -0.78215100634E+02  0.23551389903E+04  0.23538398547E+04 0.  0.
        5    1    3    3  502    0  0.80801358689E+03 -0.42726062002E+03  0.70270628114E+03  0.11529335634E+04  0.46999998093E+01 0. -1.
       -5    1    3    3    0  502 -0.80801358689E+03  0.42726062002E+03 -0.78092138177E+03  0.12022054269E+04  0.46999998093E+01 0.  1.
</event>
<event>
 5   0  0.4959042E-05  0.2499298E+04  0.7818609E-02  0.8403236E-01
       -2   -1    0    0    0  501  0.00000000000E+00  0.00000000000E+00  0.81004635413E+03  0.81004635414E+03  0.25500000920E-02 0. -1.
        2   -1    0    0  501    0  0.00000000000E+00  0.00000000000E+00 -0.19278194203E+04  0.19278194203E+04  0.25500000920E-02 0.  1.
    10030    2    1    2    0    0  0.00000000000E+00  0.00000000000E+00 -0.11177730662E+04  0.27378657744E+04  0.24992983758E+04 0.  0.
        4    1    3    3  502    0  0.18562703647E+03 -0.10883268353E+03 -0.19073716456E+04  0.19194713223E+04  0.12699999809E+01 0.  1.
       -4    1    3    3    0  502 -0.18562703647E+03  0.10883268353E+03  0.78959857947E+03  0.81839445213E+03  0.12699999809E+01 0. -1.
</event>
<event>
 5   0  0.4959042E-05  0.2262124E+04  0.7818609E-02  0.8493007E-01
       -2   -1    0    0    0  501  0.00000000000E+00  0.00000000000E+00  0.11796282505E+04  0.11796282505E+04  0.25500000920E-02 0.  1.
        2   -1    0    0  501    0  0.00000000000E+00  0.00000000000E+00 -0.10844951231E+04  0.10844951231E+04  0.25500000920E-02 0. -1.
    10030    2    1    2    0    0  0.00000000000E+00  0.00000000000E+00  0.95133127344E+02  0.22641233736E+04  0.22621238558E+04 0.  0.
        4    1    3    3  502    0 -0.44737079759E+03  0.13156212948E+03  0.10789385823E+04  0.11753975080E+04  0.12699999809E+01 0.  1.
       -4    1    3    3    0  502  0.44737079759E+03 -0.13156212948E+03 -0.98380545496E+03  0.10887258657E+04  0.12699999809E+01 0. -1.
</event>
<event>
 5   0  0.2036578E-05  0.2509984E+04  0.7818609E-02  0.8399437E-01
        1   -1    0    0  501    0  0.00000000000E+00  0.00000000000E+00  0.14661758867E+04  0.14661758867E+04  0.50400001928E-02 0.  1.
       -1   -1    0    0    0  501  0.00000000000E+00  0.00000000000E+00 -0.10742268553E+04  0.10742268553E+04  0.50400001928E-02 0. -1.
    10030    2    1    2    0    0  0.00000000000E+00  0.00000000000E+00  0.39194903144E+03  0.25404027421E+04  0.25099844718E+04 0.  0.
        2    1    3    3  502    0 -0.45932666716E+02  0.11470543956E+04  0.70923149601E+03  0.13493898292E+04  0.25500000920E-02 0.  1.
       -2    1    3    3    0  502  0.45932666716E+02 -0.11470543956E+04 -0.31728246457E+03  0.11910129128E+04  0.25500000920E-02 0. -1.
</event>
<event>
 5   0  0.2063930E-05  0.2540996E+04  0.7818609E-02  0.8388524E-01
       -1   -1    0    0    0  501  0.00000000000E+00  0.00000000000E+00  0.92322121996E+03  0.92322121997E+03  0.50400001928E-02 0. -1.
        1   -1    0    0  501    0  0.00000000000E+00  0.00000000000E+00 -0.17484053359E+04  0.17484053359E+04  0.50400001928E-02 0.  1.
    10030    2    1    2    0    0  0.00000000000E+00  0.00000000000E+00 -0.82518411593E+03  0.26716265559E+04  0.25409957947E+04 0.  0.
        3    1    3    3  502    0  0.23024953990E+03  0.10399679150E+04 -0.11407389345E+04  0.15607156825E+04  0.10100000352E+00 0.  1.
       -3    1    3    3    0  502 -0.23024953990E+03 -0.10399679150E+04  0.31555481858E+03  0.11109108733E+04  0.10100000352E+00 0. -1.
</event>
<event>
 5   0  0.2066170E-05  0.2426164E+04  0.7818609E-02  0.8429773E-01
        1   -1    0    0  501    0  0.00000000000E+00  0.00000000000E+00  0.21445688667E+04  0.21445688667E+04  0.50400001928E-02 0. -1.
       -1   -1    0    0    0  501  0.00000000000E+00  0.00000000000E+00 -0.68618330467E+03  0.68618330469E+03  0.50400001928E-02 0.  1.
    10030    2    1    2    0    0  0.00000000000E+00  0.00000000000E+00  0.14583855620E+04  0.28307521714E+04  0.24261635164E+04 0.  0.
        5    1    3    3  502    0  0.50613798640E+03  0.49289583474E+03  0.18797532777E+04  0.20081375551E+04  0.46999998093E+01 0. -1.
       -5    1    3    3    0  502 -0.50613798640E+03 -0.49289583474E+03 -0.42136771566E+03  0.82261461632E+03  0.46999998093E+01 0.  1.
</event>
<event>
 5   0  0.4959042E-05  0.2544889E+04  0.7818609E-02  0.8387166E-01
       -2   -1    0    0    0  501  0.00000000000E+00  0.00000000000E+00  0.18102624653E+04  0.18102624653E+04  0.25500000920E-02 0. -1.
        2   -1    0    0  501    0  0.00000000000E+00  0.00000000000E+00 -0.89440925796E+03  0.89440925797E+03  0.25500000920E-02 0.  1.
    10030    2    1    2    0    0  0.00000000000E+00  0.00000000000E+00  0.91585320730E+03  0.27046717232E+04  0.25448893951E+04 0.  0.
        4    1    3    3  502    0 -0.23325813706E+03  0.13741380000E+03  0.17792994816E+04  0.17997778110E+04  0.12699999809E+01 0. -1.
       -4    1    3    3    0  502  0.23325813706E+03 -0.13741380000E+03 -0.86344627427E+03  0.90489391223E+03  0.12699999809E+01 0.  1.
</event>
<event>
 5   0  0.5024070E-05  0.2524738E+04  0.7818609E-02  0.8394225E-01
       -2   -1    0    0    0  501  0.00000000000E+00  0.00000000000E+00  0.98960905370E+03  0.98960905370E+03  0.25500000920E-02 0.  1.
        2   -1    0    0  501    0  0.00000000000E+00  0.00000000000E+00 -0.16103076671E+04  0.16103076671E+04  0.25500000920E-02 0. -1.
    10030    2    1    2    0    0  0.00000000000E+00  0.00000000000E+00 -0.62069861340E+03  0.25999167208E+04  0.25247376471E+04 0.  0.
        5    1    3    3  502    0 -0.15747450738E+03  0.47954162471E+03 -0.15018660560E+04  0.15844185465E+04  0.46999998093E+01 0. -1.
       -5    1    3    3    0  502  0.15747450738E+03 -0.47954162471E+03  0.88116744256E+03  0.10154981744E+04  0.46999998093E+01 0.  1.
</event>
<event>
 5   0  0.5219468E-05  0.2546716E+04  0.7818609E-02  0.8386529E-01
       -2   -1    0    0    0  501  0.00000000000E+00  0.00000000000E+00  0.13885683677E+04  0.13885683677E+04  0.25500000920E-02 0.  1.
        2   -1    0    0  501    0  0.00000000000E+00  0.00000000000E+00 -0.11677065240E+04  0.11677065241E+04  0.25500000920E-02 0. -1.
    10030    2    1    2    0    0  0.00000000000E+00  0.00000000000E+00  0.22086184365E+03  0.25562748917E+04  0.25467158004E+04 0.  0.
        1    1    3    3  502    0  0.38624680679E+02 -0.98242297747E+03 -0.70179954217E+03  0.12079608313E+04  0.50400001928E-02 0. -1.
       -1    1    3    3    0  502 -0.38624680679E+02  0.98242297747E+03  0.92266138581E+03  0.13483140604E+04  0.50400001928E-02 0.  1.
</event>
<event>
 5   0  0.5219468E-05  0.2445146E+04  0.7818609E-02  0.8422792E-01
       -2   -1    0    0    0  501  0.00000000000E+00  0.00000000000E+00  0.78692312763E+03  0.78692312764E+03  0.25500000920E-02 0. -1.
        2   -1    0    0  501    0  0.00000000000E+00  0.00000000000E+00 -0.18994044674E+04  0.18994044674E+04  0.25500000920E-02 0.  1.
    10030    2    1    2    0    0  0.00000000000E+00  0.00000000000E+00 -0.11124813397E+04  0.26863275950E+04  0.24451464611E+04 0.  0.
        1    1    3    3  502    0 -0.24554774021E+03 -0.23350416368E+03 -0.18467845487E+04  0.18776131275E+04  0.50400001928E-02 0.  1.
       -1    1    3    3    0  502  0.24554774021E+03  0.23350416368E+03  0.73430320898E+03  0.80871446749E+03  0.50400001928E-02 0. -1.
</event>
<event>
 5   0  0.1692125E-05  0.2472461E+04  0.7818609E-02  0.8412863E-01
        3   -1    0    0  501    0  0.00000000000E+00  0.00000000000E+00  0.21723244817E+04  0.21723244840E+04  0.10100000352E+00 0.  1.
       -3   -1    0    0    0  501  0.00000000000E+00  0.00000000000E+00 -0.70351651698E+03  0.70351652423E+03  0.10100000352E+00 0. -1.
    10030    2    1    2    0    0  0.00000000000E+00  0.00000000000E+00  0.14688079647E+04  0.28758410082E+04  0.24724612570E+04 0.  0.
        4    1    3    3  502    0  0.18158741902E+03 -0.29759012037E+03  0.21139648204E+04  0.21425178518E+04  0.12699999809E+01 0.  1.
       -4    1    3    3    0  502 -0.18158741902E+03  0.29759012037E+03 -0.64515685568E+03  0.73332315647E+03  0.12699999809E+01 0. -1.
</event>
<event>
 5   0  0.1692125E-05  0.2591796E+04  0.7818609E-02  0.8370993E-01
       -3   -1    0    0    0  501  0.00000000000E+00  0.00000000000E+00  0.19772683170E+04  0.19772683196E+04  0.10100000352E+00 0.  1.
        3   -1    0    0  501    0  0.00000000000E+00  0.00000000000E+00 -0.84932895988E+03  0.84932896588E+03  0.10100000352E+00 0. -1.
    10030    2    1    2    0    0  0.00000000000E+00  0.00000000000E+00  0.11279393571E+04  0.28265972854E+04  0.25917957136E+04 0.  0.
        4    1    3    3  502    0  0.22625972224E+03  0.10480692361E+04  0.13577147644E+04  0.17300386065E+04  0.12699999809E+01 0.  1.
       -4    1    3    3    0  502 -0.22625972224E+03 -0.10480692361E+04 -0.22977540733E+03  0.10965586789E+04  0.12699999809E+01 0. -1.
</event>
<event>
 5   0  0.4959042E-05  0.2490930E+04  0.7818609E-02  0.8406224E-01
       -2   -1    0    0    0  501  0.00000000000E+00  0.00000000000E+00  0.79841464588E+03  0.79841464588E+03  0.25500000920E-02 0.  1.
        2   -1    0    0  501    0  0.00000000000E+00  0.00000000000E+00 -0.19428294273E+04  0.19428294273E+04  0.25500000920E-02 0. -1.
    10030    2    1    2    0    0  0.00000000000E+00  0.00000000000E+00 -0.11444147814E+04  0.27412440731E+04  0.24909303235E+04 0.  0.
        4    1    3    3  502    0  0.10125316465E+04 -0.68853931767E+03 -0.82285624372E+03  0.14752629385E+04  0.12699999809E+01 0. -1.
       -4    1    3    3    0  502 -0.10125316465E+04  0.68853931767E+03 -0.32155853765E+03  0.12659811346E+04  0.12699999809E+01 0.  1.
</event>
<event>
 5   0  0.2041718E-05  0.2527952E+04  0.7818609E-02  0.8393095E-01
       -1   -1    0    0    0  501  0.00000000000E+00  0.00000000000E+00  0.18992653984E+04  0.18992653984E+04  0.50400001928E-02 0. -1.
        1   -1    0    0  501    0  0.00000000000E+00  0.00000000000E+00 -0.84118604343E+03  0.84118604344E+03  0.50400001928E-02 0.  1.
    10030    2    1    2    0    0  0.00000000000E+00  0.00000000000E+00  0.10580793549E+04  0.27404514418E+04  0.25279521719E+04 0.  0.
        4    1    3    3  502    0  0.85470946636E+03 -0.47914217668E+03 -0.33653200204E+03  0.10360313213E+04  0.12699999809E+01 0.  1.
       -4    1    3    3    0  502 -0.85470946636E+03  0.47914217668E+03  0.13946113570E+04  0.17044201205E+04  0.12699999809E+01 0. -1.
</event>
<event>
 5   0  0.4959042E-05  0.2492830E+04  0.7818609E-02  0.8405544E-01
        2   -1    0    0  501    0  0.00000000000E+00  0.00000000000E+00  0.14949258036E+04  0.14949258036E+04  0.25500000920E-02 0.  1.
       -2   -1    0    0    0  501  0.00000000000E+00  0.00000000000E+00 -0.10392156477E+04  0.10392156477E+04  0.25500000920E-02 0. -1.
    10030    2    1    2    0    0  0.00000000000E+00  0.00000000000E+00  0.45571015589E+03  0.25341414513E+04  0.24928299479E+04 0.  0.
        4    1    3    3  502    0  0.93637602372E+03 -0.45476014817E+03 -0.46902852892E+03  0.11417513845E+04  0.12699999809E+01 0. -1.
       -4    1    3    3    0  502 -0.93637602372E+03  0.45476014817E+03  0.92473868480E+03  0.13923900668E+04  0.12699999809E+01 0.  1.
</event>
<event>
 5   0  0.2063930E-05  0.2596988E+04  0.7818609E-02  0.8369225E-01
        1   -1    0    0  501    0  0.00000000000E+00  0.00000000000E+00  0.15970771954E+04  0.15970771954E+04  0.50400001928E-02 0. -1.
       -1   -1    0    0    0  501  0.00000000000E+00  0.00000000000E+00 -0.10557329765E+04  0.10557329765E+04  0.50400001928E-02 0.  1.
    10030    2    1    2    0    0  0.00000000000E+00  0.00000000000E+00  0.54134421886E+03  0.26528101719E+04  0.25969883028E+04 0.  0.
        3    1    3    3  502    0  0.98889719397E+03 -0.28257302884E+03  0.10803779469E+04  0.14916372532E+04  0.10100000352E+00 0. -1.
       -3    1    3    3    0  502 -0.98889719397E+03  0.28257302884E+03 -0.53903372802E+03  0.11611729186E+04  0.10100000352E+00 0.  1.
</event>
<event>
 5   0  0.2041718E-05  0.2536522E+04  0.7818609E-02  0.8390089E-01
       -1   -1    0    0    0  501  0.00000000000E+00  0.00000000000E+00  0.12082433644E+04  0.12082433644E+04  0.50400001928E-02 0. -1.
        1   -1    0    0  501    0  0.00000000000E+00  0.00000000000E+00 -0.13312597880E+04  0.13312597880E+04  0.50400001928E-02 0.  1.
    10030    2    1    2    0    0  0.00000000000E+00  0.00000000000E+00 -0.12301642363E+03  0.25395031525E+04  0.25365218747E+04 0.  0.
        4    1    3    3  502    0  0.52319080047E+03 -0.99297703517E+03  0.52973833016E+03  0.12411109207E+04  0.12699999809E+01 0.  1.
       -4    1    3    3    0  502 -0.52319080047E+03  0.99297703517E+03 -0.65275475378E+03  0.12983922318E+04  0.12699999809E+01 0. -1.
</event>
<event>
 5   0  0.2036578E-05  0.2460585E+04  0.7818609E-02  0.8417164E-01
        1   -1    0    0  501    0  0.00000000000E+00  0.00000000000E+00  0.16435495366E+04  0.16435495366E+04  0.50400001928E-02 0.  1.
       -1   -1    0    0    0  501  0.00000000000E+00  0.00000000000E+00 -0.92094524313E+03  0.92094524315E+03  0.50400001928E-02 0. -1.
    10030    2    1    2    0    0  0.00000000000E+00  0.00000000000E+00  0.72260429344E+03  0.25644947797E+04  0.24605845871E+04 0.  0.
        2    1    3    3  502    0 -0.13236590368E+03  0.20424855300E+03  0.16182075836E+04  0.16364088693E+04  0.25500000920E-02 0.  1.
       -2    1    3    3    0  502  0.13236590368E+03 -0.20424855300E+03 -0.89560329014E+03  0.92808591045E+03  0.25500000920E-02 0. -1.
</event>
<event>
 5   0  0.5219468E-05  0.2363876E+04  0.7818609E-02  0.8453153E-01
        2   -1    0    0  501    0  0.00000000000E+00  0.00000000000E+00  0.17997981806E+04  0.17997981807E+04  0.25500000920E-02 0.  1.
       -2   -1    0    0    0  501  0.00000000000E+00  0.00000000000E+00 -0.77618588305E+03  0.77618588306E+03  0.25500000920E-02 0. -1.
    10030    2    1    2    0    0  0.00000000000E+00  0.00000000000E+00  0.10236122976E+04  0.25759840637E+04  0.23638764267E+04 0.  0.
        1    1    3    3  502    0  0.59031075600E+03  0.10455313690E+03 -0.59820963642E+03  0.84690785580E+03  0.50400001928E-02 0. -1.
       -1    1    3    3    0  502 -0.59031075600E+03 -0.10455313690E+03  0.16218219340E+04  0.17290762079E+04  0.50400001928E-02 0.  1.
</event>
<event>
 5   0  0.2063930E-05  0.2580455E+04  0.7818609E-02  0.8374871E-01
        1   -1    0    0  501    0  0.00000000000E+00  0.00000000000E+00  0.21591311215E+04  0.21591311215E+04  0.50400001928E-02 0.  1.
       -1   -1    0    0    0  501  0.00000000000E+00  0.00000000000E+00 -0.77099847347E+03  0.77099847349E+03  0.50400001928E-02 0. -1.
    10030    2    1    2    0    0  0.00000000000E+00  0.00000000000E+00  0.13881326480E+04  0.29301295950E+04  0.25804548426E+04 0.  0.
        3    1    3    3  502    0 -0.65376841027E+03  0.47033957759E+03 -0.45052126455E+03  0.92282277417E+03  0.10100000352E+00 0. -1.
       -3    1    3    3    0  502  0.65376841027E+03 -0.47033957759E+03  0.18386539125E+04  0.20073068208E+04  0.10100000352E+00 0.  1.
</event>
<event>
 5   0  0.4959347E-05  0.2406855E+04  0.7818609E-02  0.8436942E-01
        2   -1    0    0  501    0  0.00000000000E+00  0.00000000000E+00  0.17035241448E+04  0.17035241448E+04  0.25500000920E-02 0. -1.
       -2   -1    0    0    0  501  0.00000000000E+00  0.00000000000E+00 -0.85014201070E+03  0.85014201071E+03  0.25500000920E-02 0.  1.
    10030    2    1    2    0    0  0.00000000000E+00  0.00000000000E+00  0.85338213413E+03  0.25536661555E+04  0.24068547457E+04 0.  0.
        3    1    3    3  502    0 -0.95754055728E+03  0.72504367646E+03  0.34683257699E+03  0.12501460308E+04  0.10100000352E+00 0. -1.
       -3    1    3    3    0  502  0.95754055728E+03 -0.72504367646E+03  0.50654955714E+03  0.13035201248E+04  0.10100000352E+00 0.  1.
</event>
<event>
 5   0  0.4995256E-05  0.2484895E+04  0.7818609E-02  0.8408387E-01
       -2   -1    0    0    0  501  0.00000000000E+00  0.00000000000E+00  0.14969445181E+04  0.14969445181E+04  0.25500000920E-02 0.  1.
        2   -1    0    0  501    0  0.00000000000E+00  0.00000000000E+00 -0.10312176909E+04  0.10312176909E+04  0.25500000920E-02 0. -1.
    10030    2    1    2    0    0  0.00000000000E+00  0.00000000000E+00  0.46572682724E+03  0.25281622090E+04  0.24848949027E+04 0.  0.
        2    1    3    3  502    0 -0.12733208433E+03  0.10977027503E+04  0.81065218310E+03  0.13705187886E+04  0.25500000920E-02 0. -1.
       -2    1    3    3    0  502  0.12733208433E+03 -0.10977027503E+04 -0.34492535586E+03  0.11576434205E+04  0.25500000920E-02 0.  1.
</event>
<event>
 5   0  0.4959042E-05  0.2283905E+04  0.7818609E-02  0.8484294E-01
       -2   -1    0    0    0  501  0.00000000000E+00  0.00000000000E+00  0.17984777777E+04  0.17984777777E+04  0.25500000920E-02 0.  1.
        2   -1    0    0  501    0  0.00000000000E+00  0.00000000000E+00 -0.72508864350E+03  0.72508864350E+03  0.25500000920E-02 0. -1.
    10030    2    1    2    0    0  0.00000000000E+00  0.00000000000E+00  0.10733891342E+04  0.25235664212E+04  0.22839052626E+04 0.  0.
        4    1    3    3  502    0  0.89775717715E+03 -0.57892091713E+03  0.90682842644E+02  0.10720738632E+04  0.12699999809E+01 0. -1.
       -4    1    3    3    0  502 -0.89775717715E+03  0.57892091713E+03  0.98270629154E+03  0.14514925579E+04  0.12699999809E+01 0.  1.
</event>
<event>
 5   0  0.2041718E-05  0.2482209E+04  0.7818609E-02  0.8409351E-01
       -1   -1    0    0    0  501  0.00000000000E+00  0.00000000000E+00  0.87995569859E+03  0.87995569860E+03  0.50400001928E-02 0.  1.
        1   -1    0    0  501    0  0.00000000000E+00  0.00000000000E+00 -0.17504748723E+04  0.17504748723E+04  0.50400001928E-02 0. -1.
    10030    2    1    2    0    0  0.00000000000E+00  0.00000000000E+00 -0.87051917375E+03  0.26304305709E+04  0.24822089672E+04 0.  0.
        4    1    3    3  502    0  0.11360311753E+04 -0.45441409344E+03 -0.65572007156E+03  0.13881748538E+04  0.12699999809E+01 0.  1.
       -4    1    3    3    0  502 -0.11360311753E+04  0.45441409344E+03 -0.21479910219E+03  0.12422557171E+04  0.12699999809E+01 0. -1.
</event>
<event>
 5   0  0.2081874E-05  0.2511510E+04  0.7818609E-02  0.8398897E-01
        1   -1    0    0  501    0  0.00000000000E+00  0.00000000000E+00  0.13324622896E+04  0.13324622896E+04  0.50400001928E-02 0. -1.
       -1   -1    0    0    0  501  0.00000000000E+00  0.00000000000E+00 -0.11834633789E+04  0.11834633789E+04  0.50400001928E-02 0.  1.
    10030    2    1    2    0    0  0.00000000000E+00  0.00000000000E+00  0.14899891064E+03  0.25159256685E+04  0.25115097639E+04 0.  0.
        1    1    3    3  502    0  0.78719183789E+03  0.75660837990E+03 -0.54690815715E+03  0.12211616447E+04  0.50400001928E-02 0.  1.
       -1    1    3    3    0  502 -0.78719183789E+03 -0.75660837990E+03  0.69590706779E+03  0.12947640238E+04  0.50400001928E-02 0. -1.
</event>
<event>
 5   0  0.4959042E-05  0.2104730E+04  0.7818609E-02  0.8559163E-01
        2   -1    0    0  501    0  0.00000000000E+00  0.00000000000E+00  0.18656219829E+04  0.18656219829E+04  0.25500000920E-02 0.  1.
       -2   -1    0    0    0  501  0.00000000000E+00  0.00000000000E+00 -0.59362097957E+03  0.59362097957E+03  0.25500000920E-02 0. -1.
    10030    2    1    2    0    0  0.00000000000E+00  0.00000000000E+00  0.12720010033E+04  0.24592429625E+04  0.21047302430E+04 0.  0.
        4    1    3    3  502    0 -0.72832516980E+03 -0.30861474347E+03 -0.17500710519E+03  0.81014178550E+03  0.12699999809E+01 0. -1.
       -4    1    3    3    0  502  0.72832516980E+03  0.30861474347E+03  0.14470081085E+04  0.16491011770E+04  0.12699999809E+01 0.  1.
</event>
<event>
 5   0  0.5024070E-05  0.2536643E+04  0.7818609E-02  0.8390046E-01
        2   -1    0    0  501    0  0.00000000000E+00  0.00000000000E+00  0.20510369173E+04  0.20510369173E+04  0.25500000920E-02 0.  1.
       -2   -1    0    0    0  501  0.00000000000E+00  0.00000000000E+00 -0.78430561645E+03  0.78430561646E+03  0.25500000920E-02 0. -1.
    10030    2    1    2    0    0  0.00000000000E+00  0.00000000000E+00  0.12667313008E+04  0.28353425337E+04  0.25366432731E+04 0.  0.
        5    1    3    3  502    0 -0.65648512876E+03 -0.42873523886E+03  0.17476663869E+04  0.19155016364E+04  0.46999998093E+01 0.  1.
       -5    1    3    3    0  502  0.65648512876E+03  0.42873523886E+03 -0.48093508607E+03  0.91984089729E+03  0.46999998093E+01 0. -1.
</event>
<event>
 5   0  0.2036578E-05  0.2490867E+04  0.7818609E-02  0.8406246E-01
        1   -1    0    0  501    0  0.00000000000E+00  0.00000000000E+00  0.99993681985E+03  0.99993681986E+03  0.50400001928E-02 0.  1.
       -1   -1    0    0    0  501  0.00000000000E+00  0.00000000000E+00 -0.15512029682E+04  0.15512029682E+04  0.50400001928E-02 0. -1.
    10030    2    1    2    0    0  0.00000000000E+00  0.00000000000E+00 -0.55126614831E+03  0.25511397880E+04  0.24908672891E+04 0.  0.
        2    1    3    3  502    0  0.54294085105E+03 -0.11107333223E+04 -0.42957536642E+03  0.13088347017E+04  0.25500000920E-02 0. -1.
       -2    1    3    3    0  502 -0.54294085105E+03  0.11107333223E+04 -0.12169078189E+03  0.12423050863E+04  0.25500000920E-02 0.  1.
</event>
<event>
 5   0  0.2063930E-05  0.2522158E+04  0.7818609E-02  0.8395134E-01
        1   -1    0    0  501    0  0.00000000000E+00  0.00000000000E+00  0.24487896859E+04  0.24487896860E+04  0.50400001928E-02 0.  1.
       -1   -1    0    0    0  501  0.00000000000E+00  0.00000000000E+00 -0.64943100997E+03  0.64943100999E+03  0.50400001928E-02 0. -1.
    10030    2    1    2    0    0  0.00000000000E+00  0.00000000000E+00  0.17993586760E+04  0.30982206959E+04  0.25221577738E+04 0.  0.
        3    1    3    3  502    0 -0.45382183911E+03  0.76802985785E+01  0.23449735409E+04  0.23884962144E+04  0.10100000352E+00 0.  1.
       -3    1    3    3    0  502  0.45382183911E+03 -0.76802985785E+01 -0.54561486492E+03  0.70972448152E+03  0.10100000352E+00 0. -1.
</event>
<event>
 5   0  0.4995256E-05  0.1791263E+04  0.7818609E-02  0.8710959E-01
       -2   -1    0    0    0  501  0.00000000000E+00  0.00000000000E+00  0.75512524223E+03  0.75512524223E+03  0.25500000920E-02 0. -1.
        2   -1    0    0  501    0  0.00000000000E+00  0.00000000000E+00 -0.10622820515E+04  0.10622820515E+04  0.25500000920E-02 0.  1.
    10030    2    1    2    0    0  0.00000000000E+00  0.00000000000E+00 -0.30715680929E+03  0.18174072937E+04  0.17912632319E+04 0.  0.
        2    1    3    3  502    0  0.41837451283E+03  0.30248659556E+03 -0.89612121649E+03  0.10341995011E+04  0.25500000920E-02 0.  1.
       -2    1    3    3    0  502 -0.41837451283E+03 -0.30248659556E+03  0.58896440720E+03  0.78320779263E+03  0.25500000920E-02 0. -1.
</event>
<event>
 5   0  0.4959042E-05  0.2653550E+04  0.7818609E-02  0.8350236E-01
       -2   -1    0    0    0  501  0.00000000000E+00  0.00000000000E+00  0.92765504387E+03  0.92765504387E+03  0.25500000920E-02 0. -1.
        2   -1    0    0  501    0  0.00000000000E+00  0.00000000000E+00 -0.18976150758E+04  0.18976150758E+04  0.25500000920E-02 0.  1.
    10030    2    1    2    0    0  0.00000000000E+00  0.00000000000E+00 -0.96996003197E+03  0.28252701197E+04  0.26535502230E+04 0.  0.
        4    1    3    3  502    0 -0.44536385694E+03  0.12028005300E+04 -0.12352201004E+03  0.12885407948E+04  0.12699999809E+01 0. -1.
       -4    1    3    3    0  502  0.44536385694E+03 -0.12028005300E+04 -0.84643802193E+03  0.15367293249E+04  0.12699999809E+01 0.  1.
</event>
<event>
 5   0  0.2081874E-05  0.2531734E+04  0.7818609E-02  0.8391767E-01
        1   -1    0    0  501    0  0.00000000000E+00  0.00000000000E+00  0.10933029375E+04  0.10933029375E+04  0.50400001928E-02 0.  1.
       -1   -1    0    0    0  501  0.00000000000E+00  0.00000000000E+00 -0.14656682229E+04  0.14656682229E+04  0.50400001928E-02 0. -1.
    10030    2    1    2    0    0  0.00000000000E+00  0.00000000000E+00 -0.37236528538E+03  0.25589711604E+04  0.25317340883E+04 0.  0.
        1    1    3    3  502    0  0.73360805428E+02  0.60333115569E+03  0.93618196220E+03  0.11161661873E+04  0.50400001928E-02 0.  1.
       -1    1    3    3    0  502 -0.73360805428E+02 -0.60333115569E+03 -0.13085472476E+04  0.14428049731E+04  0.50400001928E-02 0. -1.
</event>
<event>
 5   0  0.2081874E-05  0.2442811E+04  0.7818609E-02  0.8423647E-01
       -1   -1    0    0    0  501  0.00000000000E+00  0.00000000000E+00  0.68259116104E+03  0.68259116106E+03  0.50400001928E-02 0.  1.
        1   -1    0    0  501    0  0.00000000000E+00  0.00000000000E+00 -0.21855418306E+04  0.21855418306E+04  0.50400001928E-02 0. -1.
    10030    2    1    2    0    0  0.00000000000E+00  0.00000000000E+00 -0.15029506695E+04  0.28681329917E+04  0.24428111148E+04 0.  0.
        1    1    3    3  502    0  0.52938521518E+03  0.72903324506E+03  0.21678839571E+03  0.92667976507E+03  0.50400001928E-02 0.  1.
       -1    1    3    3    0  502 -0.52938521518E+03 -0.72903324506E+03 -0.17197390653E+04  0.19414532266E+04  0.50400001928E-02 0. -1.
</event>
<event>
 5   0  0.4959347E-05  0.2236111E+04  0.7818609E-02  0.8503546E-01
       -2   -1    0    0    0  501  0.00000000000E+00  0.00000000000E+00  0.20520185766E+04  0.20520185766E+04  0.25500000920E-02 0. -1.
        2   -1    0    0  501    0  0.00000000000E+00  0.00000000000E+00 -0.60917982851E+03  0.60917982852E+03  0.25500000920E-02 0.  1.
    10030    2    1    2    0    0  0.00000000000E+00  0.00000000000E+00  0.14428387481E+04  0.26611984051E+04  0.22361111999E+04 0.  0.
        3    1    3    3  502    0 -0.68784308463E+02  0.14891850237E+03 -0.59478096312E+03  0.61698655231E+03  0.10100000352E+00 0.  1.
       -3    1    3    3    0  502  0.68784308463E+02 -0.14891850237E+03  0.20376197112E+04  0.20442118528E+04  0.10100000352E+00 0. -1.
</event>
<event>
 5   0  0.2041718E-05  0.2474399E+04  0.7818609E-02  0.8412163E-01
       -1   -1    0    0    0  501  0.00000000000E+00  0.00000000000E+00  0.57511956729E+03  0.57511956732E+03  0.50400001928E-02 0. -1.
        1   -1    0    0  501    0  0.00000000000E+00  0.00000000000E+00 -0.26614694534E+04  0.26614694534E+04  0.50400001928E-02 0.  1.
    10030    2    1    2    0    0  0.00000000000E+00  0.00000000000E+00 -0.20863498861E+04  0.32365890207E+04  0.24743994507E+04 0.  0.
        4    1    3    3  502    0 -0.15697615180E+03 -0.11705432441E+04 -0.15252839530E+04  0.19290686221E+04  0.12699999809E+01 0. -1.
       -4    1    3    3    0  502  0.15697615180E+03  0.11705432441E+04 -0.56106593305E+03  0.13075203986E+04  0.12699999809E+01 0.  1.
</event>
<event>
 5   0  0.2063930E-05  0.2510148E+04  0.7818609E-02  0.8399379E-01
        1   -1    0    0  501    0  0.00000000000E+00  0.00000000000E+00  0.13290652804E+04  0.13290652804E+04  0.50400001928E-02 0.  1.
       -1   -1    0    0    0  501  0.00000000000E+00  0.00000000000E+00 -0.11852018917E+04  0.11852018917E+04  0.50400001928E-02 0. -1.
    10030    2    1    2    0    0  0.00000000000E+00  0.00000000000E+00  0.14386338865E+03  0.25142671721E+04  0.25101479514E+04 0.  0.
        3    1    3    3  502    0  0.18987284052E+03  0.21146295500E+03 -0.11525483025E+04  0.11870702914E+04  0.10100000352E+00 0. -1.
       -3    1    3    3    0  502 -0.18987284052E+03 -0.21146295500E+03  0.12964116912E+04  0.13271968807E+04  0.10100000352E+00 0.  1.
</event>
<event>
 5   0  0.2081874E-05  0.2501483E+04  0.7818609E-02  0.8402458E-01
        1   -1    0    0  501    0  0.00000000000E+00  0.00000000000E+00  0.15144919371E+04  0.15144919371E+04  0.50400001928E-02 0. -1.
       -1   -1    0    0    0  501  0.00000000000E+00  0.00000000000E+00 -0.10329231678E+04  0.10329231679E+04  0.50400001928E-02 0.  1.
    10030    2    1    2    0    0  0.00000000000E+00  0.00000000000E+00  0.48156876926E+03  0.25474151050E+04  0.25014826079E+04 0.  0.
        1    1    3    3  502    0 -0.16381410897E+03  0.29162079488E+03 -0.98653254040E+03  0.10416929507E+04  0.50400001928E-02 0.  1.
       -1    1    3    3    0  502  0.16381410897E+03 -0.29162079488E+03  0.14681013097E+04  0.15057221542E+04  0.50400001928E-02 0. -1.
</event>
<event>
 5   0  0.2063930E-05  0.2471795E+04  0.7818609E-02  0.8413103E-01
        1   -1    0    0  501    0  0.00000000000E+00  0.00000000000E+00  0.94183253837E+03  0.94183253839E+03  0.50400001928E-02 0.  1.
       -1   -1    0    0    0  501  0.00000000000E+00  0.00000000000E+00 -0.16217776226E+04  0.16217776226E+04  0.50400001928E-02 0. -1.
    10030    2    1    2    0    0  0.00000000000E+00  0.00000000000E+00 -0.67994508424E+03  0.25636101610E+04  0.24717952464E+04 0.  0.
        3    1    3    3  502    0  0.96948353686E+03 -0.46625251743E+02 -0.11334872399E+04  0.14922686004E+04  0.10100000352E+00 0. -1.
       -3    1    3    3    0  502 -0.96948353686E+03  0.46625251743E+02  0.45354215570E+03  0.10713415606E+04  0.10100000352E+00 0.  1.
</event>
<event>
 5   0  0.1692125E-05  0.2369331E+04  0.7818609E-02  0.8451076E-01
        4   -1    0    0  501    0  0.00000000000E+00  0.00000000000E+00  0.14940736705E+04  0.14940742102E+04  0.12699999809E+01 0. -1.
       -4   -1    0    0    0  501  0.00000000000E+00  0.00000000000E+00 -0.93933182419E+03  0.93933268272E+03  0.12699999809E+01 0.  1.
    10030    2    1    2    0    0  0.00000000000E+00  0.00000000000E+00  0.55474184627E+03  0.24334068929E+04  0.23693312539E+04 0.  0.
        1    1    3    3  502    0 -0.47566518328E+03 -0.10576090456E+04  0.52607331431E+03  0.12733999340E+04  0.50400001928E-02 0.  1.
       -1    1    3    3    0  502  0.47566518328E+03  0.10576090456E+04  0.28668531961E+02  0.11600069589E+04  0.50400001928E-02 0. -1.
</event>
<event>
 5   0  0.2041718E-05  0.2347627E+04  0.7818609E-02  0.8459376E-01
        1   -1    0    0  501    0  0.00000000000E+00  0.00000000000E+00  0.25218185723E+04  0.25218185723E+04  0.50400001928E-02 0. -1.
       -1   -1    0    0    0  501  0.00000000000E+00  0.00000000000E+00 -0.54636684038E+03  0.54636684041E+03  0.50400001928E-02 0.  1.
    10030    2    1    2    0    0  0.00000000000E+00  0.00000000000E+00  0.19754517319E+04  0.30681854127E+04  0.23476269256E+04 0.  0.
        4    1    3    3  502    0 -0.75878862705E+03 -0.30436769595E+03  0.20885280966E+04  0.22428444213E+04  0.12699999809E+01 0. -1.
       -4    1    3    3    0  502  0.75878862705E+03  0.30436769595E+03 -0.11307636474E+03  0.82534099138E+03  0.12699999809E+01 0.  1.
</event>
<event>
 5   0  0.2081874E-05  0.2451343E+04  0.7818609E-02  0.8420528E-01
       -1   -1    0    0    0  501  0.00000000000E+00  0.00000000000E+00  0.11773997005E+04  0.11773997005E+04  0.50400001928E-02 0. -1.
        1   -1    0    0  501    0  0.00000000000E+00  0.00000000000E+00 -0.12759223552E+04  0.12759223552E+04  0.50400001928E-02 0.  1.
    10030    2    1    2    0    0  0.00000000000E+00  0.00000000000E+00 -0.98522654696E+02  0.24533220557E+04  0.24513429779E+04 0.  0.
        1    1    3    3  502    0 -0.59297773780E+03 -0.67063617586E+03 -0.88713202449E+03  0.12603089728E+04  0.50400001928E-02 0.  1.
       -1    1    3    3    0  502  0.59297773780E+03  0.67063617586E+03  0.78860936979E+03  0.11930130829E+04  0.50400001928E-02 0. -1.
</event>
<event>
 5   0  0.2063930E-05  0.2502782E+04  0.7818609E-02  0.8401995E-01
       -1   -1    0    0    0  501  0.00000000000E+00  0.00000000000E+00  0.72291880805E+03  0.72291880807E+03  0.50400001928E-02 0. -1.
        1   -1    0    0  501    0  0.00000000000E+00  0.00000000000E+00 -0.21661902880E+04  0.21661902880E+04  0.50400001928E-02 0.  1.
    10030    2    1    2    0    0  0.00000000000E+00  0.00000000000E+00 -0.14432714800E+04  0.28891090961E+04  0.25027822127E+04 0.  0.
        3    1    3    3  502    0  0.14838858275E+03 -0.19800117059E+02  0.71254482151E+03  0.72810119420E+03  0.10100000352E+00 0. -1.
       -3    1    3    3    0  502 -0.14838858275E+03  0.19800117059E+02 -0.21558163015E+04  0.21610079019E+04  0.10100000352E+00 0.  1.
</event>
<event>
 5   0  0.5024070E-05  0.2555302E+04  0.7818609E-02  0.8383544E-01
        2   -1    0    0  501    0  0.00000000000E+00  0.00000000000E+00  0.19334806581E+04  0.19334806581E+04  0.25500000920E-02 0. -1.
       -2   -1    0    0    0  501  0.00000000000E+00  0.00000000000E+00 -0.84427658334E+03  0.84427658334E+03  0.25500000920E-02 0.  1.
    10030    2    1    2    0    0  0.00000000000E+00  0.00000000000E+00  0.10892040748E+04  0.27777572415E+04  0.25553022866E+04 0.  0.
        5    1    3    3  502    0  0.93726167347E+03 -0.62629831277E+03  0.11983390049E+04  0.16452195847E+04  0.46999998093E+01 0. -1.
       -5    1    3    3    0  502 -0.93726167347E+03  0.62629831277E+03 -0.10913493008E+03  0.11325376568E+04  0.46999998093E+01 0.  1.
</event>
<event>
 5   0  0.4959042E-05  0.2474755E+04  0.7818609E-02  0.8412035E-01
       -2   -1    0    0    0  501  0.00000000000E+00  0.00000000000E+00  0.10615035763E+04  0.10615035763E+04  0.25500000920E-02 0.  1.
        2   -1    0    0  501    0  0.00000000000E+00  0.00000000000E+00 -0.14423911733E+04  0.14423911733E+04  0.25500000920E-02 0. -1.
    10030    2    1    2    0    0  0.00000000000E+00  0.00000000000E+00 -0.38088759701E+03  0.25038947495E+04  0.24747552516E+04 0.  0.
        4    1    3    3  502    0  0.12109843305E+03  0.52654975582E+03 -0.13167368783E+04  0.14232768864E+04  0.12699999809E+01 0. -1.
       -4    1    3    3    0  502 -0.12109843305E+03 -0.52654975582E+03  0.93584928130E+03  0.10806178631E+04  0.12699999809E+01 0.  1.
</event>
<event>
 5   0  0.2066170E-05  0.2319725E+04  0.7818609E-02  0.8470184E-01
       -1   -1    0    0    0  501  0.00000000000E+00  0.00000000000E+00  0.98824615471E+03  0.98824615473E+03  0.50400001928E-02 0.  1.
        1   -1    0    0  501    0  0.00000000000E+00  0.00000000000E+00 -0.13612808148E+04  0.13612808148E+04  0.50400001928E-02 0. -1.
    10030    2    1    2    0    0  0.00000000000E+00  0.00000000000E+00 -0.37303466006E+03  0.23495269695E+04  0.23197245791E+04 0.  0.
        5    1    3    3  502    0 -0.86827346811E+03 -0.69489670174E+03 -0.52010903566E+03  0.12277278772E+04  0.46999998093E+01 0. -1.
       -5    1    3    3    0  502  0.86827346811E+03  0.69489670174E+03  0.14707437560E+03  0.11217990923E+04  0.46999998093E+01 0.  1.
</event>
<event>
 5   0  0.4959042E-05  0.2515095E+04  0.7818609E-02  0.8397628E-01
       -2   -1    0    0    0  501  0.00000000000E+00  0.00000000000E+00  0.24199009894E+04  0.24199009894E+04  0.25500000920E-02 0.  1.
        2   -1    0    0  501    0  0.00000000000E+00  0.00000000000E+00 -0.65350843615E+03  0.65350843616E+03  0.25500000920E-02 0. -1.
    10030    2    1    2    0    0  0.00000000000E+00  0.00000000000E+00  0.17663925533E+04  0.30734094256E+04  0.25150949972E+04 0.  0.
        4    1    3    3  502    0 -0.56826928481E+03  0.83048750525E+03 -0.38398380834E+02  0.10070330307E+04  0.12699999809E+01 0. -1.
       -4    1    3    3    0  502  0.56826928481E+03 -0.83048750525E+03  0.18047909341E+04  0.20663763948E+04  0.12699999809E+01 0.  1.
</event>
<event>
 5   0  0.2063930E-05  0.2478554E+04  0.7818609E-02  0.8410666E-01
       -1   -1    0    0    0  501  0.00000000000E+00  0.00000000000E+00  0.13876403138E+04  0.13876403138E+04  0.50400001928E-02 0. -1.
        1   -1    0    0  501    0  0.00000000000E+00  0.00000000000E+00 -0.11067760956E+04  0.11067760956E+04  0.50400001928E-02 0.  1.
    10030    2    1    2    0    0  0.00000000000E+00  0.00000000000E+00  0.28086421816E+03  0.24944164094E+04  0.24785537142E+04 0.  0.
        3    1    3    3  502    0 -0.24041310818E+02 -0.12358847103E+04  0.51446108009E+02  0.12371886332E+04  0.10100000352E+00 0.  1.
       -3    1    3    3    0  502  0.24041310818E+02  0.12358847103E+04  0.22941811015E+03  0.12572277762E+04  0.10100000352E+00 0. -1.
</event>
<event>
 5   0  0.4995256E-05  0.2466115E+04  0.7818609E-02  0.8415158E-01
       -2   -1    0    0    0  501  0.00000000000E+00  0.00000000000E+00  0.10956346858E+04  0.10956346858E+04  0.25500000920E-02 0.  1.
        2   -1    0    0  501    0  0.00000000000E+00  0.00000000000E+00 -0.13877167718E+04  0.13877167718E+04  0.25500000920E-02 0. -1.
    10030    2    1    2    0    0  0.00000000000E+00  0.00000000000E+00 -0.29208208597E+03  0.24833514577E+04  0.24661148630E+04 0.  0.
        2    1    3    3  502    0 -0.17581516934E+03  0.11039395101E+04 -0.67009868159E+03  0.13033133387E+04  0.25500000920E-02 0. -1.
       -2    1    3    3    0  502  0.17581516934E+03 -0.11039395101E+04  0.37801659562E+03  0.11800381190E+04  0.25500000920E-02 0.  1.
</event>
<event>
 5   0  0.5219468E-05  0.2467218E+04  0.7818609E-02  0.8414758E-01
       -2   -1    0    0    0  501  0.00000000000E+00  0.00000000000E+00  0.12305340099E+04  0.12305340099E+04  0.25500000920E-02 0. -1.
        2   -1    0    0  501    0  0.00000000000E+00  0.00000000000E+00 -0.12366914924E+04  0.12366914924E+04  0.25500000920E-02 0.  1.
    10030    2    1    2    0    0  0.00000000000E+00  0.00000000000E+00 -0.61574824878E+01  0.24672255023E+04  0.24672178187E+04 0.  0.
        1    1    3    3  502    0  0.10908790136E+04 -0.27859818427E+03  0.50106266124E+03  0.12323545598E+04  0.50400001928E-02 0. -1.
       -1    1    3    3    0  502 -0.10908790136E+04  0.27859818427E+03 -0.50722014372E+03  0.12348709426E+04  0.50400001928E-02 0.  1.
</event>
<event>
 5   0  0.2041718E-05  0.2594425E+04  0.7818609E-02  0.8370097E-01
       -1   -1    0    0    0  501  0.00000000000E+00  0.00000000000E+00  0.71235262648E+03  0.71235262649E+03  0.50400001928E-02 0.  1.
        1   -1    0    0  501    0  0.00000000000E+00  0.00000000000E+00 -0.23622570988E+04  0.23622570988E+04  0.50400001928E-02 0. -1.
    10030    2    1    2    0    0  0.00000000000E+00  0.00000000000E+00 -0.16499044723E+04  0.30746097253E+04  0.25944248293E+04 0.  0.
        4    1    3    3  502    0  0.16249126775E+03 -0.12277352603E+04 -0.12824330302E+04  0.17827993076E+04  0.12699999809E+01 0. -1.
       -4    1    3    3    0  502 -0.16249126775E+03  0.12277352603E+04 -0.36747144213E+03  0.12918104177E+04  0.12699999809E+01 0.  1.
</event>
<event>
 5   0  0.5219468E-05  0.2491245E+04  0.7818609E-02  0.8406111E-01
       -2   -1    0    0    0  501  0.00000000000E+00  0.00000000000E+00  0.10641583455E+04  0.10641583455E+04  0.25500000920E-02 0. -1.
        2   -1    0    0  501    0  0.00000000000E+00  0.00000000000E+00 -0.14580308866E+04  0.14580308866E+04  0.25500000920E-02 0.  1.
    10030    2    1    2    0    0  0.00000000000E+00  0.00000000000E+00 -0.39387254108E+03  0.25221892320E+04  0.24912452596E+04 0.  0.
        1    1    3    3  502    0 -0.51776434804E+03  0.10021793319E+04  0.33795598338E+03  0.11775642573E+04  0.50400001928E-02 0. -1.
       -1    1    3    3    0  502  0.51776434804E+03 -0.10021793319E+04 -0.73182852446E+03  0.13446249747E+04  0.50400001928E-02 0.  1.
</event>
<event>
 5   0  0.2036578E-05  0.2387950E+04  0.7818609E-02  0.8444029E-01
        1   -1    0    0  501    0  0.00000000000E+00  0.00000000000E+00  0.93150410684E+03  0.93150410685E+03  0.50400001928E-02 0.  1.
       -1   -1    0    0    0  501  0.00000000000E+00  0.00000000000E+00 -0.15304022590E+04  0.15304022590E+04  0.50400001928E-02 0. -1.
    10030    2    1    2    0    0  0.00000000000E+00  0.00000000000E+00 -0.59889815218E+03  0.24619063659E+04  0.23879497393E+04 0.  0.
        2    1    3    3  502    0 -0.11059712503E+04  0.34072066053E+03  0.34406146735E+01  0.11572704147E+04  0.25500000920E-02 0. -1.
       -2    1    3    3    0  502  0.11059712503E+04 -0.34072066053E+03 -0.60233876685E+03  0.13046359511E+04  0.25500000920E-02 0.  1.
</event>
<event>
 5   0  0.4959042E-05  0.2502077E+04  0.7818609E-02  0.8402246E-01
       -2   -1    0    0    0  501  0.00000000000E+00  0.00000000000E+00  0.95631134464E+03  0.95631134464E+03  0.25500000920E-02 0.  1.
        2   -1    0    0  501    0  0.00000000000E+00  0.00000000000E+00 -0.16365977624E+04  0.16365977624E+04  0.25500000920E-02 0. -1.
    10030    2    1    2    0    0  0.00000000000E+00  0.00000000000E+00 -0.68028641773E+03  0.25929091070E+04  0.25020767428E+04 0.  0.
        4    1    3    3  502    0 -0.30962154436E+02 -0.12044235129E+04  0.89858634844E+01  0.12048555980E+04  0.12699999809E+01 0.  1.
       -4    1    3    3    0  502  0.30962154436E+02  0.12044235129E+04 -0.68927228121E+03  0.13880535090E+04  0.12699999809E+01 0. -1.
</event>
<event>
 5   0  0.4959347E-05  0.2269093E+04  0.7818609E-02  0.8490208E-01
       -2   -1    0    0    0  501  0.00000000000E+00  0.00000000000E+00  0.10970949358E+04  0.10970949358E+04  0.25500000920E-02 0. -1.
        2   -1    0    0  501    0  0.00000000000E+00  0.00000000000E+00 -0.11732766983E+04  0.11732766983E+04  0.25500000920E-02 0.  1.
    10030    2    1    2    0    0  0.00000000000E+00  0.00000000000E+00 -0.76181762514E+02  0.22703716341E+04  0.22690931439E+04 0.  0.
        3    1    3    3  502    0 -0.27306343392E+03  0.37385153586E+03 -0.10744675647E+04  0.11699611821E+04  0.10100000352E+00 0.  1.
       -3    1    3    3    0  502  0.27306343392E+03 -0.37385153586E+03  0.99828580217E+03  0.11004104520E+04  0.10100000352E+00 0. -1.
</event>
<event>
 5   0  0.2036578E-05  0.2545536E+04  0.7818609E-02  0.8386940E-01
        1   -1    0    0  501    0  0.00000000000E+00  0.00000000000E+00  0.14553293345E+04  0.14553293345E+04  0.50400001928E-02 0. -1.
       -1   -1    0    0    0  501  0.00000000000E+00  0.00000000000E+00 -0.11131080503E+04  0.11131080503E+04  0.50400001928E-02 0.  1.
    10030    2    1    2    0    0  0.00000000000E+00  0.00000000000E+00  0.34222128419E+03  0.25684373848E+04  0.25455363271E+04 0.  0.
        2    1    3    3  502    0 -0.61001612730E+02 -0.63526889821E+03 -0.94000075710E+03  0.11361730472E+04  0.25500000920E-02 0.  1.
       -2    1    3    3    0  502  0.61001612730E+02  0.63526889821E+03  0.12822220413E+04  0.14322643377E+04  0.25500000920E-02 0. -1.
</event>
<event>
 5   0  0.2041718E-05  0.2587980E+04  0.7818609E-02  0.8372296E-01
        1   -1    0    0  501    0  0.00000000000E+00  0.00000000000E+00  0.11565030012E+04  0.11565030012E+04  0.50400001928E-02 0.  1.
       -1   -1    0    0    0  501  0.00000000000E+00  0.00000000000E+00 -0.14478217799E+04  0.14478217799E+04  0.50400001928E-02 0. -1.
    10030    2    1    2    0    0  0.00000000000E+00  0.00000000000E+00 -0.29131877876E+03  0.26043247811E+04  0.25879800877E+04 0.  0.
        4    1    3    3  502    0 -0.28435181014E+03 -0.11717789221E+04  0.32686642182E+03  0.12493058332E+04  0.12699999809E+01 0.  1.
       -4    1    3    3    0  502  0.28435181014E+03  0.11717789221E+04 -0.61818520058E+03  0.13550189479E+04  0.12699999809E+01 0. -1.
</event>
<event>
 5   0  0.2063930E-05  0.2055922E+04  0.7818609E-02  0.8580912E-01
        1   -1    0    0  501    0  0.00000000000E+00  0.00000000000E+00  0.88491155951E+03  0.88491155952E+03  0.50400001928E-02 0. -1.
       -1   -1    0    0    0  501  0.00000000000E+00  0.00000000000E+00 -0.11941353284E+04  0.11941353284E+04  0.50400001928E-02 0.  1.
    10030    2    1    2    0    0  0.00000000000E+00  0.00000000000E+00 -0.30922376893E+03  0.20790468880E+04  0.20559223291E+04 0.  0.
        3    1    3    3  502    0  0.10020382402E+04 -0.22556367040E+03 -0.19684938519E+03  0.10458055722E+04  0.10100000352E+00 0.  1.
       -3    1    3    3    0  502 -0.10020382402E+04  0.22556367040E+03 -0.11237438374E+03  0.10332413157E+04  0.10100000352E+00 0. -1.
</event>
<event>
 5   0  0.2063930E-05  0.2496505E+04  0.7818609E-02  0.8404232E-01
        1   -1    0    0  501    0  0.00000000000E+00  0.00000000000E+00  0.10528667335E+04  0.10528667335E+04  0.50400001928E-02 0.  1.
       -1   -1    0    0    0  501  0.00000000000E+00  0.00000000000E+00 -0.14798973718E+04  0.14798973718E+04  0.50400001928E-02 0. -1.
    10030    2    1    2    0    0  0.00000000000E+00  0.00000000000E+00 -0.42703063829E+03  0.25327641054E+04  0.24965053270E+04 0.  0.
        3    1    3    3  502    0  0.72564936707E+03 -0.58624445670E+03 -0.10549496120E+04  0.14082500705E+04  0.10100000352E+00 0. -1.
       -3    1    3    3    0  502 -0.72564936707E+03  0.58624445670E+03  0.62791897371E+03  0.11245140349E+04  0.10100000352E+00 0.  1.
</event>
<event>
 5   0  0.4959347E-05  0.2481553E+04  0.7818609E-02  0.8409587E-01
        2   -1    0    0  501    0  0.00000000000E+00  0.00000000000E+00  0.17092440611E+04  0.17092440611E+04  0.25500000920E-02 0. -1.
       -2   -1    0    0    0  501  0.00000000000E+00  0.00000000000E+00 -0.90070630062E+03  0.90070630062E+03  0.25500000920E-02 0.  1.
    10030    2    1    2    0    0  0.00000000000E+00  0.00000000000E+00  0.80853776053E+03  0.26099503618E+04  0.24815534612E+04 0.  0.
        3    1    3    3  502    0  0.83125180037E+03 -0.43595068901E+03 -0.44919398697E+03  0.10405805144E+04  0.10100000352E+00 0.  1.
       -3    1    3    3    0  502 -0.83125180037E+03  0.43595068901E+03  0.12577317475E+04  0.15693698473E+04  0.10100000352E+00 0. -1.
</event>
<event>
 5   0  0.5024070E-05  0.1986680E+04  0.7818609E-02  0.8612874E-01
       -2   -1    0    0    0  501  0.00000000000E+00  0.00000000000E+00  0.62758156031E+03  0.62758156032E+03  0.25500000920E-02 0.  1.
        2   -1    0    0  501    0  0.00000000000E+00  0.00000000000E+00 -0.15722648209E+04  0.15722648209E+04  0.25500000920E-02 0. -1.
    10030    2    1    2    0    0  0.00000000000E+00  0.00000000000E+00 -0.94468326063E+03  0.21998463813E+04  0.19866800543E+04 0.  0.
        5    1    3    3  502    0 -0.86313345003E+03  0.33424577182E+03 -0.87155699852E+03  0.12713588322E+04  0.46999998093E+01 0.  1.
       -5    1    3    3    0  502  0.86313345003E+03 -0.33424577182E+03 -0.73126262105E+02  0.92848754906E+03  0.46999998093E+01 0. -1.
</event>
<event>
 5   0  0.4995256E-05  0.2469559E+04  0.7818609E-02  0.8413911E-01
        2   -1    0    0  501    0  0.00000000000E+00  0.00000000000E+00  0.85404559979E+03  0.85404559979E+03  0.25500000920E-02 0. -1.
       -2   -1    0    0    0  501  0.00000000000E+00  0.00000000000E+00 -0.17852453327E+04  0.17852453327E+04  0.25500000920E-02 0.  1.
    10030    2    1    2    0    0  0.00000000000E+00  0.00000000000E+00 -0.93119973290E+03  0.26392909325E+04  0.24695594109E+04 0.  0.
        2    1    3    3  502    0  0.76705599427E+03 -0.93491616092E+03 -0.19897853996E+03  0.12255756140E+04  0.25500000920E-02 0.  1.
       -2    1    3    3    0  502 -0.76705599427E+03  0.93491616092E+03 -0.73222119294E+03  0.14137153185E+04  0.25500000920E-02 0. -1.
</event>
<event>
 5   0  0.2081874E-05  0.2477600E+04  0.7818609E-02  0.8411009E-01
        1   -1    0    0  501    0  0.00000000000E+00  0.00000000000E+00  0.11306628827E+04  0.11306628827E+04  0.50400001928E-02 0.  1.
       -1   -1    0    0    0  501  0.00000000000E+00  0.00000000000E+00 -0.13572793360E+04  0.13572793360E+04  0.50400001928E-02 0. -1.
    10030    2    1    2    0    0  0.00000000000E+00  0.00000000000E+00 -0.22661645330E+03  0.24879422187E+04  0.24775999408E+04 0.  0.
        1    1    3    3  502    0  0.53283917854E+03  0.10947234178E+04 -0.34292935478E+03  0.12648863562E+04  0.50400001928E-02 0.  1.
       -1    1    3    3    0  502 -0.53283917854E+03 -0.10947234178E+04  0.11631290148E+03  0.12230558625E+04  0.50400001928E-02 0. -1.
</event>
<event>
 5   0  0.4995256E-05  0.2474286E+04  0.7818609E-02  0.8412204E-01
        2   -1    0    0  501    0  0.00000000000E+00  0.00000000000E+00  0.21937156443E+04  0.21937156443E+04  0.25500000920E-02 0. -1.
       -2   -1    0    0    0  501  0.00000000000E+00  0.00000000000E+00 -0.69768504038E+03  0.69768504039E+03  0.25500000920E-02 0.  1.
    10030    2    1    2    0    0  0.00000000000E+00  0.00000000000E+00  0.14960306040E+04  0.28914006847E+04  0.24742858266E+04 0.  0.
        2    1    3    3  502    0 -0.45971455904E+03  0.94179859345E+03 -0.20232020726E+02  0.10482038929E+04  0.25500000920E-02 0.  1.
       -2    1    3    3    0  502  0.45971455904E+03 -0.94179859345E+03  0.15162626247E+04  0.18431967918E+04  0.25500000920E-02 0. -1.
</event>
<event>
 5   0  0.2081874E-05  0.2339830E+04  0.7818609E-02  0.8462380E-01
        1   -1    0    0  501    0  0.00000000000E+00  0.00000000000E+00  0.17440278331E+04  0.17440278331E+04  0.50400001928E-02 0. -1.
       -1   -1    0    0    0  501  0.00000000000E+00  0.00000000000E+00 -0.78479295908E+03  0.78479295909E+03  0.50400001928E-02 0.  1.
    10030    2    1    2    0    0  0.00000000000E+00  0.00000000000E+00  0.95923487403E+03  0.25288207922E+04  0.23398297065E+04 0.  0.
        1    1    3    3  502    0 -0.76755150284E+03  0.58150367440E+03 -0.23844015858E+03  0.99203605887E+03  0.50400001928E-02 0.  1.
       -1    1    3    3    0  502  0.76755150284E+03 -0.58150367440E+03  0.11976750326E+04  0.15367847333E+04  0.50400001928E-02 0. -1.
</event>
<event>
 5   0  0.2066170E-05  0.2469846E+04  0.7818609E-02  0.8413808E-01
        1   -1    0    0  501    0  0.00000000000E+00  0.00000000000E+00  0.96549763324E+03  0.96549763325E+03  0.50400001928E-02 0.  1.
       -1   -1    0    0    0  501  0.00000000000E+00  0.00000000000E+00 -0.15795318061E+04  0.15795318061E+04  0.50400001928E-02 0. -1.
    10030    2    1    2    0    0  0.00000000000E+00  0.00000000000E+00 -0.61403417288E+03  0.25450294394E+04  0.24698455178E+04 0.  0.
        5    1    3    3  502    0  0.73869340387E+03  0.47427372414E+03  0.58798972657E+03  0.10565782124E+04  0.46999998093E+01 0.  1.
       -5    1    3    3    0  502 -0.73869340387E+03 -0.47427372414E+03 -0.12020238994E+04  0.14884512270E+04  0.46999998093E+01 0. -1.
</event>
<event>
 5   0  0.4959042E-05  0.2666454E+04  0.7818609E-02  0.8345972E-01
       -2   -1    0    0    0  501  0.00000000000E+00  0.00000000000E+00  0.11046994437E+04  0.11046994437E+04  0.25500000920E-02 0. -1.
        2   -1    0    0  501    0  0.00000000000E+00  0.00000000000E+00 -0.16090295168E+04  0.16090295168E+04  0.25500000920E-02 0.  1.
    10030    2    1    2    0    0  0.00000000000E+00  0.00000000000E+00 -0.50433007317E+03  0.27137289605E+04  0.26664538339E+04 0.  0.
        4    1    3    3  502    0  0.92962294488E+03 -0.76523112660E+03 -0.83477847263E+03  0.14651396548E+04  0.12699999809E+01 0.  1.
       -4    1    3    3    0  502 -0.92962294488E+03  0.76523112660E+03  0.33044839946E+03  0.12485893057E+04  0.12699999809E+01 0. -1.
</event>
<event>
 5   0  0.2063930E-05  0.2498072E+04  0.7818609E-02  0.8403673E-01
       -1   -1    0    0    0  501  0.00000000000E+00  0.00000000000E+00  0.90427468990E+03  0.90427468991E+03  0.50400001928E-02 0. -1.
        1   -1    0    0  501    0  0.00000000000E+00  0.00000000000E+00 -0.17252401504E+04  0.17252401505E+04  0.50400001928E-02 0.  1.
    10030    2    1    2    0    0  0.00000000000E+00  0.00000000000E+00 -0.82096546055E+03  0.26295148404E+04  0.24980720583E+04 0.  0.
        3    1    3    3  502    0  0.50242538667E+03  0.47241395857E+03  0.68569858242E+03  0.97251672148E+03  0.10100000352E+00 0. -1.
       -3    1    3    3    0  502 -0.50242538667E+03 -0.47241395857E+03 -0.15066640430E+04  0.16569981189E+04  0.10100000352E+00 0.  1.
</event>
<event>
 5   0  0.1692125E-05  0.1973444E+04  0.7818609E-02  0.8619138E-01
       -3   -1    0    0    0  501  0.00000000000E+00  0.00000000000E+00  0.92741433790E+03  0.92741434340E+03  0.10100000352E+00 0.  1.
        3   -1    0    0  501    0  0.00000000000E+00  0.00000000000E+00 -0.10498225934E+04  0.10498225982E+04  0.10100000352E+00 0. -1.
    10030    2    1    2    0    0  0.00000000000E+00  0.00000000000E+00 -0.12240825545E+03  0.19772369416E+04  0.19734442334E+04 0.  0.
        5    1    3    3  502    0 -0.73250973464E+03 -0.36587194762E+03  0.49045887031E+03  0.95446570754E+03  0.46999998093E+01 0.  1.
       -5    1    3    3    0  502  0.73250973464E+03  0.36587194762E+03 -0.61286712576E+03  0.10227712341E+04  0.46999998093E+01 0. -1.
</event>
<event>
 5   0  0.2081874E-05  0.2552334E+04  0.7818609E-02  0.8384575E-01
       -1   -1    0    0    0  501  0.00000000000E+00  0.00000000000E+00  0.11822409906E+04  0.11822409906E+04  0.50400001928E-02 0. -1.
        1   -1    0    0  501    0  0.00000000000E+00  0.00000000000E+00 -0.13775553447E+04  0.13775553447E+04  0.50400001928E-02 0.  1.
    10030    2    1    2    0    0  0.00000000000E+00  0.00000000000E+00 -0.19531435405E+03  0.25597963353E+04  0.25523341437E+04 0.  0.
        1    1    3    3  502    0  0.34993311547E+03 -0.52636404467E+02 -0.13273653724E+04  0.13737258127E+04  0.50400001928E-02 0.  1.
       -1    1    3    3    0  502 -0.34993311547E+03  0.52636404467E+02  0.11320510184E+04  0.11860705226E+04  0.50400001928E-02 0. -1.
</event>
<event>
 5   0  0.2036578E-05  0.2461268E+04  0.7818609E-02  0.8416915E-01
       -1   -1    0    0    0  501  0.00000000000E+00  0.00000000000E+00  0.77903431506E+03  0.77903431507E+03  0.50400001928E-02 0. -1.
        1   -1    0    0  501    0  0.00000000000E+00  0.00000000000E+00 -0.19440218639E+04  0.19440218639E+04  0.50400001928E-02 0.  1.
    10030    2    1    2    0    0  0.00000000000E+00  0.00000000000E+00 -0.11649875489E+04  0.27230561790E+04  0.24612677557E+04 0.  0.
        2    1    3    3  502    0 -0.68026541840E+03 -0.13198568946E+02  0.55201389738E+03  0.87615899505E+03  0.25500000920E-02 0. -1.
       -2    1    3    3    0  502  0.68026541840E+03  0.13198568946E+02 -0.17170014463E+04  0.18468971840E+04  0.25500000920E-02 0.  1.
</event>
<event>
 5   0  0.2041718E-05  0.2459218E+04  0.7818609E-02  0.8417660E-01
       -1   -1    0    0    0  501  0.00000000000E+00  0.00000000000E+00  0.54804204854E+03  0.54804204856E+03  0.50400001928E-02 0.  1.
        1   -1    0    0  501    0  0.00000000000E+00  0.00000000000E+00 -0.27588008349E+04  0.27588008350E+04  0.50400001928E-02 0. -1.
    10030    2    1    2    0    0  0.00000000000E+00  0.00000000000E+00 -0.22107587864E+04  0.33068428835E+04  0.24592184621E+04 0.  0.
        4    1    3    3  502    0  0.15933016848E+02 -0.84258101966E+03 -0.23093985369E+04  0.24583571447E+04  0.12699999809E+01 0. -1.
       -4    1    3    3    0  502 -0.15933016848E+02  0.84258101966E+03  0.98639750491E+02  0.84848573882E+03  0.12699999809E+01 0.  1.
</event>
<event>
 5   0  0.1692125E-05  0.2443074E+04  0.7818609E-02  0.8423551E-01
        3   -1    0    0  501    0  0.00000000000E+00  0.00000000000E+00  0.10722348210E+04  0.10722348257E+04  0.10100000352E+00 0. -1.
       -3   -1    0    0    0  501  0.00000000000E+00  0.00000000000E+00 -0.13916280995E+04  0.13916281032E+04  0.10100000352E+00 0.  1.
    10030    2    1    2    0    0  0.00000000000E+00  0.00000000000E+00 -0.31939327856E+03  0.24638629289E+04  0.24430735695E+04 0.  0.
        4    1    3    3  502    0 -0.45217902962E+03 -0.19175991386E+03 -0.12876561487E+04  0.13781501041E+04  0.12699999809E+01 0.  1.
       -4    1    3    3    0  502  0.45217902962E+03  0.19175991386E+03  0.96826287009E+03  0.10857128248E+04  0.12699999809E+01 0. -1.
</event>
<event>
 5   0  0.5219468E-05  0.2514848E+04  0.7818609E-02  0.8397715E-01
       -2   -1    0    0    0  501  0.00000000000E+00  0.00000000000E+00  0.79430204108E+03  0.79430204108E+03  0.25500000920E-02 0.  1.
        2   -1    0    0  501    0  0.00000000000E+00  0.00000000000E+00 -0.19905708650E+04  0.19905708650E+04  0.25500000920E-02 0. -1.
    10030    2    1    2    0    0  0.00000000000E+00  0.00000000000E+00 -0.11962688239E+04  0.27848729061E+04  0.25148475111E+04 0.  0.
        1    1    3    3  502    0 -0.87712596983E+02  0.19095077533E+03  0.77472111581E+03  0.80271321503E+03  0.50400001928E-02 0.  1.
       -1    1    3    3    0  502  0.87712596983E+02 -0.19095077533E+03 -0.19709899398E+04  0.19821596911E+04  0.50400001928E-02 0. -1.
</event>
<event>
 5   0  0.2036578E-05  0.2556405E+04  0.7818609E-02  0.8383162E-01
        1   -1    0    0  501    0  0.00000000000E+00  0.00000000000E+00  0.13813792694E+04  0.13813792694E+04  0.50400001928E-02 0. -1.
       -1   -1    0    0    0  501  0.00000000000E+00  0.00000000000E+00 -0.11827317295E+04  0.11827317295E+04  0.50400001928E-02 0.  1.
    10030    2    1    2    0    0  0.00000000000E+00  0.00000000000E+00  0.19864753991E+03  0.25641109989E+04  0.25564045786E+04 0.  0.
        2    1    3    3  502    0  0.22345740177E+03 -0.20674000343E+03 -0.11458397039E+04  0.11855898391E+04  0.25500000920E-02 0.  1.
       -2    1    3    3    0  502 -0.22345740177E+03  0.20674000343E+03  0.13444872438E+04  0.13785211599E+04  0.25500000920E-02 0. -1.
</event>
<event>
 5   0  0.4959347E-05  0.2481909E+04  0.7818609E-02  0.8409459E-01
        2   -1    0    0  501    0  0.00000000000E+00  0.00000000000E+00  0.10995594582E+04  0.10995594582E+04  0.25500000920E-02 0.  1.
       -2   -1    0    0    0  501  0.00000000000E+00  0.00000000000E+00 -0.14005318640E+04  0.14005318640E+04  0.25500000920E-02 0. -1.
    10030    2    1    2    0    0  0.00000000000E+00  0.00000000000E+00 -0.30097240578E+03  0.25000913222E+04  0.24819089892E+04 0.  0.
        3    1    3    3  502    0 -0.53447753577E+03  0.55570217829E+03 -0.11299763582E+04  0.13679611572E+04  0.10100000352E+00 0. -1.
       -3    1    3    3    0  502  0.53447753577E+03 -0.55570217829E+03  0.82900395246E+03  0.11321301650E+04  0.10100000352E+00 0.  1.
</event>
<event>
 5   0  0.2041718E-05  0.2494010E+04  0.7818609E-02  0.8405123E-01
        1   -1    0    0  501    0  0.00000000000E+00  0.00000000000E+00  0.16708558914E+04  0.16708558914E+04  0.50400001928E-02 0.  1.
       -1   -1    0    0    0  501  0.00000000000E+00  0.00000000000E+00 -0.93067364605E+03  0.93067364607E+03  0.50400001928E-02 0. -1.
    10030    2    1    2    0    0  0.00000000000E+00  0.00000000000E+00  0.74018224532E+03  0.26015295374E+04  0.24940100597E+04 0.  0.
        4    1    3    3  502    0  0.88984703933E+02 -0.11460562926E+04 -0.13412834891E+03  0.11573052019E+04  0.12699999809E+01 0. -1.
       -4    1    3    3    0  502 -0.88984703933E+02  0.11460562926E+04  0.87431059423E+03  0.14442243356E+04  0.12699999809E+01 0.  1.
</event>
<event>
 5   0  0.5219468E-05  0.2505601E+04  0.7818609E-02  0.8400993E-01
       -2   -1    0    0    0  501  0.00000000000E+00  0.00000000000E+00  0.99619112852E+03  0.99619112853E+03  0.25500000920E-02 0. -1.
        2   -1    0    0  501    0  0.00000000000E+00  0.00000000000E+00 -0.15755096631E+04  0.15755096631E+04  0.25500000920E-02 0.  1.
    10030    2    1    2    0    0  0.00000000000E+00  0.00000000000E+00 -0.57931853462E+03  0.25717007917E+04  0.25056007258E+04 0.  0.
        1    1    3    3  502    0  0.15268364479E+03 -0.50899032798E+03  0.87478574727E+03  0.10235397174E+04  0.50400001928E-02 0. -1.
       -1    1    3    3    0  502 -0.15268364479E+03  0.50899032798E+03 -0.14541042819E+04  0.15481610743E+04  0.50400001928E-02 0.  1.
</event>
<event>
 5   0  0.2063930E-05  0.2670081E+04  0.7818609E-02  0.8344778E-01
        1   -1    0    0  501    0  0.00000000000E+00  0.00000000000E+00  0.13830433885E+04  0.13830433885E+04  0.50400001928E-02 0.  1.
       -1   -1    0    0    0  501  0.00000000000E+00  0.00000000000E+00 -0.12887040036E+04  0.12887040036E+04  0.50400001928E-02 0. -1.
    10030    2    1    2    0    0  0.00000000000E+00  0.00000000000E+00  0.94339384890E+02  0.26717473922E+04  0.26700813111E+04 0.  0.
        3    1    3    3  502    0  0.22999596229E+03 -0.74258636651E+03 -0.10388650433E+04  0.12975258159E+04  0.10100000352E+00 0. -1.
       -3    1    3    3    0  502 -0.22999596229E+03  0.74258636651E+03  0.11332044282E+04  0.13742215763E+04  0.10100000352E+00 0.  1.
</event>
<event>
 5   0  0.4959042E-05  0.2513370E+04  0.7818609E-02  0.8398238E-01
        2   -1    0    0  501    0  0.00000000000E+00  0.00000000000E+00  0.24108448082E+04  0.24108448082E+04  0.25500000920E-02 0.  1.
       -2   -1    0    0    0  501  0.00000000000E+00  0.00000000000E+00 -0.65506395030E+03  0.65506395031E+03  0.25500000920E-02 0. -1.
    10030    2    1    2    0    0  0.00000000000E+00  0.00000000000E+00  0.17557808579E+04  0.30659087586E+04  0.25133702661E+04 0.  0.
        4    1    3    3  502    0 -0.60206686948E+02  0.12069259556E+04  0.12986216081E+04  0.17738981936E+04  0.12699999809E+01 0. -1.
       -4    1    3    3    0  502  0.60206686948E+02 -0.12069259556E+04  0.45715924987E+03  0.12920105650E+04  0.12699999809E+01 0.  1.
</event>
<event>
 5   0  0.4959042E-05  0.2481390E+04  0.7818609E-02  0.8409646E-01
       -2   -1    0    0    0  501  0.00000000000E+00  0.00000000000E+00  0.11094290478E+04  0.11094290478E+04  0.25500000920E-02 0. -1.
        2   -1    0    0  501    0  0.00000000000E+00  0.00000000000E+00 -0.13874922410E+04  0.13874922410E+04  0.25500000920E-02 0.  1.
    10030    2    1    2    0    0  0.00000000000E+00  0.00000000000E+00 -0.27806319314E+03  0.24969212888E+04  0.24813900909E+04 0.  0.
        4    1    3    3  502    0 -0.17482626345E+03 -0.72158361884E+02 -0.13729003527E+04  0.13858672530E+04  0.12699999809E+01 0.  1.
       -4    1    3    3    0  502  0.17482626345E+03  0.72158361884E+02  0.10948371596E+04  0.11110540358E+04  0.12699999809E+01 0. -1.
</event>
<event>
 5   0  0.5024070E-05  0.2480801E+04  0.7818609E-02  0.8409857E-01
        2   -1    0    0  501    0  0.00000000000E+00  0.00000000000E+00  0.16079574702E+04  0.16079574702E+04  0.25500000920E-02 0.  1.
       -2   -1    0    0    0  501  0.00000000000E+00  0.00000000000E+00 -0.95686189641E+03  0.95686189641E+03  0.25500000920E-02 0. -1.
    10030    2    1    2    0    0  0.00000000000E+00  0.00000000000E+00  0.65109557379E+03  0.25648193666E+04  0.24808008661E+04 0.  0.
        5    1    3    3  502    0  0.78746691624E+02 -0.76478770531E+03  0.13318943859E+04  0.15378771150E+04  0.46999998093E+01 0.  1.
       -5    1    3    3    0  502 -0.78746691624E+02  0.76478770531E+03 -0.68079881210E+03  0.10269422516E+04  0.46999998093E+01 0. -1.
</event>
<event>
 5   0  0.4995256E-05  0.2431525E+04  0.7818609E-02  0.8427795E-01
       -2   -1    0    0    0  501  0.00000000000E+00  0.00000000000E+00  0.14408105090E+04  0.14408105090E+04  0.25500000920E-02 0. -1.
        2   -1    0    0  501    0  0.00000000000E+00  0.00000000000E+00 -0.10258657040E+04  0.10258657040E+04  0.25500000920E-02 0.  1.
    10030    2    1    2    0    0  0.00000000000E+00  0.00000000000E+00  0.41494480497E+03  0.24666762130E+04  0.24315246963E+04 0.  0.
        2    1    3    3  502    0  0.22139217000E+03 -0.11394457597E+04  0.57426117514E+03  0.12950393930E+04  0.25500000920E-02 0. -1.
       -2    1    3    3    0  502 -0.22139217000E+03  0.11394457597E+04 -0.15931637017E+03  0.11716368200E+04  0.25500000920E-02 0.  1.
</event>
<event>
 5   0  0.4959347E-05  0.2491053E+04  0.7818609E-02  0.8406180E-01
        2   -1    0    0  501    0  0.00000000000E+00  0.00000000000E+00  0.20257041685E+04  0.20257041685E+04  0.25500000920E-02 0. -1.
       -2   -1    0    0    0  501  0.00000000000E+00  0.00000000000E+00 -0.76582576742E+03  0.76582576742E+03  0.25500000920E-02 0.  1.
    10030    2    1    2    0    0  0.00000000000E+00  0.00000000000E+00  0.12598784010E+04  0.27915299359E+04  0.24910531503E+04 0.  0.
        3    1    3    3  502    0  0.93937246035E+03 -0.21591701189E+03  0.15139502288E+04  0.17947384436E+04  0.10100000352E+00 0. -1.
       -3    1    3    3    0  502 -0.93937246035E+03  0.21591701189E+03 -0.25407182778E+03  0.99679149232E+03  0.10100000352E+00 0.  1.
</event>
<event>
 5   0  0.4959347E-05  0.2584596E+04  0.7818609E-02  0.8373452E-01
        2   -1    0    0  501    0  0.00000000000E+00  0.00000000000E+00  0.27437924974E+04  0.27437924974E+04  0.25500000920E-02 0. -1.
       -2   -1    0    0    0  501  0.00000000000E+00  0.00000000000E+00 -0.60865903012E+03  0.60865903013E+03  0.25500000920E-02 0.  1.
    10030    2    1    2    0    0  0.00000000000E+00  0.00000000000E+00  0.21351334673E+04  0.33524515275E+04  0.25845959687E+04 0.  0.
        3    1    3    3  502    0  0.11959834242E+04  0.12915572431E+03  0.45507615999E+03  0.12861383571E+04  0.10100000352E+00 0.  1.
       -3    1    3    3    0  502 -0.11959834242E+04 -0.12915572431E+03  0.16800573073E+04  0.20663131704E+04  0.10100000352E+00 0. -1.
</event>
<event>
 5   0  0.4995256E-05  0.2386415E+04  0.7818609E-02  0.8444607E-01
       -2   -1    0    0    0  501  0.00000000000E+00  0.00000000000E+00  0.16879672165E+04  0.16879672165E+04  0.25500000920E-02 0.  1.
        2   -1    0    0  501    0  0.00000000000E+00  0.00000000000E+00 -0.84346649286E+03  0.84346649287E+03  0.25500000920E-02 0. -1.
    10030    2    1    2    0    0  0.00000000000E+00  0.00000000000E+00  0.84450072364E+03  0.25314337094E+04  0.23864147068E+04 0.  0.
        2    1    3    3  502    0  0.33315965002E+03  0.25872896529E+03 -0.76173452222E+03  0.87073274443E+03  0.25500000920E-02 0. -1.
       -2    1    3    3    0  502 -0.33315965002E+03 -0.25872896529E+03  0.16062352459E+04  0.16607009649E+04  0.25500000920E-02 0.  1.
</event>
<event>
 5   0  0.2036578E-05  0.2374873E+04  0.7818609E-02  0.8448971E-01
       -1   -1    0    0    0  501  0.00000000000E+00  0.00000000000E+00  0.10497921418E+04  0.10497921418E+04  0.50400001928E-02 0.  1.
        1   -1    0    0  501    0  0.00000000000E+00  0.00000000000E+00 -0.13431284816E+04  0.13431284816E+04  0.50400001928E-02 0. -1.
    10030    2    1    2    0    0  0.00000000000E+00  0.00000000000E+00 -0.29333633974E+03  0.23929206234E+04  0.23748732391E+04 0.  0.
        2    1    3    3  502    0  0.61548993067E+03  0.93324978480E+03  0.25665195715E+03  0.11470192861E+04  0.25500000920E-02 0.  1.
       -2    1    3    3    0  502 -0.61548993067E+03 -0.93324978480E+03 -0.54998829689E+03  0.12459013373E+04  0.25500000920E-02 0. -1.
</event>
<event>
 5   0  0.4959347E-05  0.2497392E+04  0.7818609E-02  0.8403915E-01
       -2   -1    0    0    0  501  0.00000000000E+00  0.00000000000E+00  0.18725590558E+04  0.18725590558E+04  0.25500000920E-02 0. -1.
        2   -1    0    0  501    0  0.00000000000E+00  0.00000000000E+00 -0.83267944253E+03  0.83267944253E+03  0.25500000920E-02 0.  1.
    10030    2    1    2    0    0  0.00000000000E+00  0.00000000000E+00  0.10398796133E+04  0.27052384983E+04  0.24973917840E+04 0.  0.
        3    1    3    3  502    0 -0.84100848379E+03 -0.49731050634E+03  0.13622327376E+04  0.16763922725E+04  0.10100000352E+00 0. -1.
       -3    1    3    3    0  502  0.84100848379E+03  0.49731050634E+03 -0.32235312435E+03  0.10288462259E+04  0.10100000352E+00 0.  1.
</event>
<event>
 5   0  0.2081874E-05  0.2532631E+04  0.7818609E-02  0.8391452E-01
       -1   -1    0    0    0  501  0.00000000000E+00  0.00000000000E+00  0.16383838934E+04  0.16383838934E+04  0.50400001928E-02 0.  1.
        1   -1    0    0  501    0  0.00000000000E+00  0.00000000000E+00 -0.97874167352E+03  0.97874167353E+03  0.50400001928E-02 0. -1.
    10030    2    1    2    0    0  0.00000000000E+00  0.00000000000E+00  0.65964221985E+03  0.26171255669E+04  0.25326307221E+04 0.  0.
        1    1    3    3  502    0  0.48847687885E+01  0.89588890605E+03  0.12546163333E+04  0.15416559074E+04  0.50400001928E-02 0.  1.
       -1    1    3    3    0  502 -0.48847687885E+01 -0.89588890605E+03 -0.59497411342E+03  0.10754696596E+04  0.50400001928E-02 0. -1.
</event>
<event>
 5   0  0.5219468E-05  0.2485945E+04  0.7818609E-02  0.8408010E-01
       -2   -1    0    0    0  501  0.00000000000E+00  0.00000000000E+00  0.13785802683E+04  0.13785802683E+04  0.25500000920E-02 0.  1.
        2   -1    0    0  501    0  0.00000000000E+00  0.00000000000E+00 -0.11207044488E+04  0.11207044488E+04  0.25500000920E-02 0. -1.
    10030    2    1    2    0    0  0.00000000000E+00  0.00000000000E+00  0.25787581953E+03  0.24992847171E+04  0.24859453250E+04 0.  0.
        1    1    3    3  502    0  0.22132972383E+03  0.10319236563E+04 -0.53118857151E+03  0.11815306079E+04  0.50400001928E-02 0. -1.
       -1    1    3    3    0  502 -0.22132972383E+03 -0.10319236563E+04  0.78906439104E+03  0.13177541092E+04  0.50400001928E-02 0.  1.
</event>
<event>
 5   0  0.4995256E-05  0.2133438E+04  0.7818609E-02  0.8546655E-01
       -2   -1    0    0    0  501  0.00000000000E+00  0.00000000000E+00  0.75113799168E+03  0.75113799169E+03  0.25500000920E-02 0. -1.
        2   -1    0    0  501    0  0.00000000000E+00  0.00000000000E+00 -0.15148867271E+04  0.15148867271E+04  0.25500000920E-02 0.  1.
    10030    2    1    2    0    0  0.00000000000E+00  0.00000000000E+00 -0.76374873546E+03  0.22660247188E+04  0.21334375771E+04 0.  0.
        2    1    3    3  502    0 -0.54155654092E+03 -0.40322464170E+03  0.49529162407E+03  0.83736932805E+03  0.25500000920E-02 0. -1.
       -2    1    3    3    0  502  0.54155654092E+03  0.40322464170E+03 -0.12590403595E+04  0.14286553908E+04  0.25500000920E-02 0.  1.
</event>
<event>
 5   0  0.2036578E-05  0.2528773E+04  0.7818609E-02  0.8392806E-01
       -1   -1    0    0    0  501  0.00000000000E+00  0.00000000000E+00  0.68102072002E+03  0.68102072004E+03  0.50400001928E-02 0.  1.
        1   -1    0    0  501    0  0.00000000000E+00  0.00000000000E+00 -0.23474661452E+04  0.23474661452E+04  0.50400001928E-02 0. -1.
    10030    2    1    2    0    0  0.00000000000E+00  0.00000000000E+00 -0.16664454252E+04  0.30284868652E+04  0.25287728917E+04 0.  0.
        2    1    3    3  502    0  0.61545503910E+03  0.96723000464E+03 -0.14718474914E+04  0.18656510458E+04  0.25500000920E-02 0. -1.
       -2    1    3    3    0  502 -0.61545503910E+03 -0.96723000464E+03 -0.19459793381E+03  0.11628358194E+04  0.25500000920E-02 0.  1.
</event>
<event>
 5   0  0.5024070E-05  0.2531428E+04  0.7818609E-02  0.8391874E-01
        2   -1    0    0  501    0  0.00000000000E+00  0.00000000000E+00  0.17412771717E+04  0.17412771717E+04  0.25500000920E-02 0. -1.
       -2   -1    0    0    0  501  0.00000000000E+00  0.00000000000E+00 -0.92003260168E+03  0.92003260168E+03  0.25500000920E-02 0.  1.
    10030    2    1    2    0    0  0.00000000000E+00  0.00000000000E+00  0.82124457003E+03  0.26613097734E+04  0.25314278710E+04 0.  0.
        5    1    3    3  502    0 -0.66427671875E+03 -0.79679400414E+03  0.11729947167E+04  0.15659128135E+04  0.46999998093E+01 0. -1.
       -5    1    3    3    0  502  0.66427671875E+03  0.79679400414E+03 -0.35175014664E+03  0.10953969599E+04  0.46999998093E+01 0.  1.
</event>
<event>
 5   0  0.2063930E-05  0.2519910E+04  0.7818609E-02  0.8395927E-01
        1   -1    0    0  501    0  0.00000000000E+00  0.00000000000E+00  0.14250859723E+04  0.14250859723E+04  0.50400001928E-02 0. -1.
       -1   -1    0    0    0  501  0.00000000000E+00  0.00000000000E+00 -0.11139588407E+04  0.11139588407E+04  0.50400001928E-02 0.  1.
    10030    2    1    2    0    0  0.00000000000E+00  0.00000000000E+00  0.31112713164E+03  0.25390448130E+04  0.25199104092E+04 0.  0.
        3    1    3    3  502    0  0.17779107780E+03  0.11602932666E+04  0.61685752916E+03  0.13260480208E+04  0.10100000352E+00 0. -1.
       -3    1    3    3    0  502 -0.17779107780E+03 -0.11602932666E+04 -0.30573039752E+03  0.12129967923E+04  0.10100000352E+00 0.  1.
</event>
<event>
 5   0  0.2063930E-05  0.2543520E+04  0.7818609E-02  0.8387643E-01
       -1   -1    0    0    0  501  0.00000000000E+00  0.00000000000E+00  0.84859637098E+03  0.84859637100E+03  0.50400001928E-02 0. -1.
        1   -1    0    0  501    0  0.00000000000E+00  0.00000000000E+00 -0.19059394426E+04  0.19059394426E+04  0.50400001928E-02 0.  1.
    10030    2    1    2    0    0  0.00000000000E+00  0.00000000000E+00 -0.10573430716E+04  0.27545358136E+04  0.25435198401E+04 0.  0.
        3    1    3    3  502    0  0.15509230179E+03 -0.12377830839E+04 -0.26073369156E+03  0.12744185549E+04  0.10100000352E+00 0.  1.
       -3    1    3    3    0  502 -0.15509230179E+03  0.12377830839E+04 -0.79660938001E+03  0.14801172587E+04  0.10100000352E+00 0. -1.
</event>
<event>
 5   0  0.2041718E-05  0.2603779E+04  0.7818609E-02  0.8366919E-01
       -1   -1    0    0    0  501  0.00000000000E+00  0.00000000000E+00  0.11206307645E+04  0.11206307645E+04  0.50400001928E-02 0. -1.
        1   -1    0    0  501    0  0.00000000000E+00  0.00000000000E+00 -0.15124664060E+04  0.15124664060E+04  0.50400001928E-02 0.  1.
    10030    2    1    2    0    0  0.00000000000E+00  0.00000000000E+00 -0.39183564150E+03  0.26330971705E+04  0.26037790881E+04 0.  0.
        4    1    3    3  502    0 -0.11424866803E+04  0.19073733655E+03 -0.79696545672E+03  0.14059915001E+04  0.12699999809E+01 0.  1.
       -4    1    3    3    0  502  0.11424866803E+04 -0.19073733655E+03  0.40512981521E+03  0.12271056704E+04  0.12699999809E+01 0. -1.
</event>
<event>
 5   0  0.4959042E-05  0.2460694E+04  0.7818609E-02  0.8417124E-01
        2   -1    0    0  501    0  0.00000000000E+00  0.00000000000E+00  0.96986787955E+03  0.96986787956E+03  0.25500000920E-02 0. -1.
       -2   -1    0    0    0  501  0.00000000000E+00  0.00000000000E+00 -0.15607835441E+04  0.15607835441E+04  0.25500000920E-02 0.  1.
    10030    2    1    2    0    0  0.00000000000E+00  0.00000000000E+00 -0.59091566451E+03  0.25306514236E+04  0.24606940698E+04 0.  0.
        4    1    3    3  502    0  0.11631758565E+04 -0.18539409665E+03  0.70182157040E+02  0.11799475379E+04  0.12699999809E+01 0. -1.
       -4    1    3    3    0  502 -0.11631758565E+04  0.18539409665E+03 -0.66109782155E+03  0.13507038857E+04  0.12699999809E+01 0.  1.
</event>
<event>
 5   0  0.4995256E-05  0.2470641E+04  0.7818609E-02  0.8413520E-01
       -2   -1    0    0    0  501  0.00000000000E+00  0.00000000000E+00  0.67647421015E+03  0.67647421016E+03  0.25500000920E-02 0.  1.
        2   -1    0    0  501    0  0.00000000000E+00  0.00000000000E+00 -0.22558391091E+04  0.22558391091E+04  0.25500000920E-02 0. -1.
    10030    2    1    2    0    0  0.00000000000E+00  0.00000000000E+00 -0.15793648990E+04  0.29323133193E+04  0.24706411958E+04 0.  0.
        2    1    3    3  502    0  0.96051124529E+03  0.75757466550E+03 -0.58577756408E+03  0.13563320319E+04  0.25500000920E-02 0.  1.
       -2    1    3    3    0  502 -0.96051124529E+03 -0.75757466550E+03 -0.99358733490E+03  0.15759812874E+04  0.25500000920E-02 0. -1.
</event>
<event>
 5   0  0.4959042E-05  0.2507462E+04  0.7818609E-02  0.8400332E-01
       -2   -1    0    0    0  501  0.00000000000E+00  0.00000000000E+00  0.92210583660E+03  0.92210583660E+03  0.25500000920E-02 0.  1.
        2   -1    0    0  501    0  0.00000000000E+00  0.00000000000E+00 -0.17046208703E+04  0.17046208703E+04  0.25500000920E-02 0. -1.
    10030    2    1    2    0    0  0.00000000000E+00  0.00000000000E+00 -0.78251503367E+03  0.26267267069E+04  0.25074615480E+04 0.  0.
        4    1    3    3  502    0 -0.14255050292E+03 -0.73466543051E+03  0.66246143358E+03  0.99945520388E+03  0.12699999809E+01 0.  1.
       -4    1    3    3    0  502  0.14255050292E+03  0.73466543051E+03 -0.14449764672E+04  0.16272715030E+04  0.12699999809E+01 0. -1.
</event>
<event>
 5   0  0.5219468E-05  0.2473536E+04  0.7818609E-02  0.8412475E-01
       -2   -1    0    0    0  501  0.00000000000E+00  0.00000000000E+00  0.60664621123E+03  0.60664621123E+03  0.25500000920E-02 0. -1.
        2   -1    0    0  501    0  0.00000000000E+00  0.00000000000E+00 -0.25213948719E+04  0.25213948719E+04  0.25500000920E-02 0.  1.
    10030    2    1    2    0    0  0.00000000000E+00  0.00000000000E+00 -0.19147486607E+04  0.31280410831E+04  0.24735356444E+04 0.  0.
        1    1    3    3  502    0 -0.45535294470E+03 -0.41006299289E+03 -0.23159235328E+04  0.23956209575E+04  0.50400001928E-02 0.  1.
       -1    1    3    3    0  502  0.45535294470E+03  0.41006299289E+03  0.40117487210E+03  0.73242012562E+03  0.50400001928E-02 0. -1.
</event>
<event>
 5   0  0.4959347E-05  0.2049451E+04  0.7818609E-02  0.8583843E-01
        2   -1    0    0  501    0  0.00000000000E+00  0.00000000000E+00  0.73329545617E+03  0.73329545618E+03  0.25500000920E-02 0. -1.
       -2   -1    0    0    0  501  0.00000000000E+00  0.00000000000E+00 -0.14319770224E+04  0.14319770224E+04  0.25500000920E-02 0.  1.
    10030    2    1    2    0    0  0.00000000000E+00  0.00000000000E+00 -0.69868156622E+03  0.21652724786E+04  0.20494508961E+04 0.  0.
        3    1    3    3  502    0 -0.37646512393E+02  0.36023544200E+02  0.73189495692E+03  0.73374736374E+03  0.10100000352E+00 0. -1.
       -3    1    3    3    0  502  0.37646512393E+02 -0.36023544200E+02 -0.14305765231E+04  0.14315251148E+04  0.10100000352E+00 0.  1.
</event>
<event>
 5   0  0.2081874E-05  0.2456932E+04  0.7818609E-02  0.8418491E-01
        1   -1    0    0  501    0  0.00000000000E+00  0.00000000000E+00  0.98686856128E+03  0.98686856130E+03  0.50400001928E-02 0. -1.
       -1   -1    0    0    0  501  0.00000000000E+00  0.00000000000E+00 -0.15292100341E+04  0.15292100341E+04  0.50400001928E-02 0.  1.
    10030    2    1    2    0    0  0.00000000000E+00  0.00000000000E+00 -0.54234147277E+03  0.25160785954E+04  0.24569324828E+04 0.  0.
        1    1    3    3  502    0 -0.85107655789E+03  0.23978951526E+03 -0.11445190228E+04  0.14462897747E+04  0.50400001928E-02 0. -1.
       -1    1    3    3    0  502  0.85107655789E+03 -0.23978951526E+03  0.60217754999E+03  0.10697888206E+04  0.50400001928E-02 0.  1.
</event>
<event>
 5   0  0.4995256E-05  0.2481268E+04  0.7818609E-02  0.8409689E-01
       -2   -1    0    0    0  501  0.00000000000E+00  0.00000000000E+00  0.80415483112E+03  0.80415483112E+03  0.25500000920E-02 0. -1.
        2   -1    0    0  501    0  0.00000000000E+00  0.00000000000E+00 -0.19140251648E+04  0.19140251648E+04  0.25500000920E-02 0.  1.
    10030    2    1    2    0    0  0.00000000000E+00  0.00000000000E+00 -0.11098703337E+04  0.27181799959E+04  0.24812678881E+04 0.  0.
        2    1    3    3  502    0 -0.96513085936E+02 -0.85240713451E+03  0.42688646448E+03  0.95819870188E+03  0.25500000920E-02 0. -1.
       -2    1    3    3    0  502  0.96513085936E+02  0.85240713451E+03 -0.15367567982E+04  0.17599812941E+04  0.25500000920E-02 0.  1.
</event>
<event>
 5   0  0.2041718E-05  0.2530673E+04  0.7818609E-02  0.8392139E-01
        1   -1    0    0  501    0  0.00000000000E+00  0.00000000000E+00  0.15209423220E+04  0.15209423220E+04  0.50400001928E-02 0.  1.
       -1   -1    0    0    0  501  0.00000000000E+00  0.00000000000E+00 -0.10526869353E+04  0.10526869353E+04  0.50400001928E-02 0. -1.
    10030    2    1    2    0    0  0.00000000000E+00  0.00000000000E+00  0.46825538673E+03  0.25736292573E+04  0.25306727262E+04 0.  0.
        4    1    3    3  502    0  0.48542273853E+03 -0.90542484654E+03  0.98534422141E+03  0.14234936724E+04  0.12699999809E+01 0.  1.
       -4    1    3    3    0  502 -0.48542273853E+03  0.90542484654E+03 -0.51708883468E+03  0.11501355849E+04  0.12699999809E+01 0. -1.
</event>
<event>
 5   0  0.4959042E-05  0.1724697E+04  0.7818609E-02  0.8747403E-01
       -2   -1    0    0    0  501  0.00000000000E+00  0.00000000000E+00  0.47659996011E+03  0.47659996012E+03  0.25500000920E-02 0. -1.
        2   -1    0    0  501    0  0.00000000000E+00  0.00000000000E+00 -0.15603117392E+04  0.15603117392E+04  0.25500000920E-02 0.  1.
    10030    2    1    2    0    0  0.00000000000E+00  0.00000000000E+00 -0.10837117791E+04  0.20369116994E+04  0.17246965098E+04 0.  0.
        4    1    3    3  502    0 -0.85863983575E+03  0.75187125337E+02 -0.57370920594E+03  0.10354029830E+04  0.12699999809E+01 0. -1.
       -4    1    3    3    0  502  0.85863983575E+03 -0.75187125337E+02 -0.51000257317E+03  0.10015087163E+04  0.12699999809E+01 0.  1.
</event>
<event>
 5   0  0.4959042E-05  0.2484950E+04  0.7818609E-02  0.8408367E-01
       -2   -1    0    0    0  501  0.00000000000E+00  0.00000000000E+00  0.56526991548E+03  0.56526991549E+03  0.25500000920E-02 0. -1.
        2   -1    0    0  501    0  0.00000000000E+00  0.00000000000E+00 -0.27309855315E+04  0.27309855315E+04  0.25500000920E-02 0.  1.
    10030    2    1    2    0    0  0.00000000000E+00  0.00000000000E+00 -0.21657156160E+04  0.32962554470E+04  0.24849498672E+04 0.  0.
        4    1    3    3  502    0  0.80319941218E+03  0.60098167111E+03 -0.20553045632E+04  0.22870476001E+04  0.12699999809E+01 0.  1.
       -4    1    3    3    0  502 -0.80319941218E+03 -0.60098167111E+03 -0.11041105281E+03  0.10092078469E+04  0.12699999809E+01 0. -1.
</event>
<event>
 5   0  0.2081874E-05  0.2579285E+04  0.7818609E-02  0.8375272E-01
        1   -1    0    0  501    0  0.00000000000E+00  0.00000000000E+00  0.87725099214E+03  0.87725099215E+03  0.50400001928E-02 0. -1.
       -1   -1    0    0    0  501  0.00000000000E+00  0.00000000000E+00 -0.18958965620E+04  0.18958965620E+04  0.50400001928E-02 0.  1.
    10030    2    1    2    0    0  0.00000000000E+00  0.00000000000E+00 -0.10186455698E+04  0.27731475541E+04  0.25792845054E+04 0.  0.
        1    1    3    3  502    0 -0.12847283690E+03  0.81799373769E+03 -0.15723515627E+04  0.17770504949E+04  0.50400001928E-02 0.  1.
       -1    1    3    3    0  502  0.12847283690E+03 -0.81799373769E+03  0.55370599290E+03  0.99609705919E+03  0.50400001928E-02 0. -1.
</event>
<event>
 5   0  0.2063930E-05  0.2539375E+04  0.7818609E-02  0.8389091E-01
        1   -1    0    0  501    0  0.00000000000E+00  0.00000000000E+00  0.14350825772E+04  0.14350825772E+04  0.50400001928E-02 0.  1.
       -1   -1    0    0    0  501  0.00000000000E+00  0.00000000000E+00 -0.11233540481E+04  0.11233540481E+04  0.50400001928E-02 0. -1.
    10030    2    1    2    0    0  0.00000000000E+00  0.00000000000E+00  0.31172852908E+03  0.25584366254E+04  0.25393745864E+04 0.  0.
        3    1    3    3  502    0 -0.18034542058E+03 -0.12560491724E+04  0.11169664074E+03  0.12738367808E+04  0.10100000352E+00 0. -1.
       -3    1    3    3    0  502  0.18034542058E+03  0.12560491724E+04  0.20003188834E+03  0.12845998446E+04  0.10100000352E+00 0.  1.
</event>
<event>
 5   0  0.4959347E-05  0.2590302E+04  0.7818609E-02  0.8371503E-01
       -2   -1    0    0    0  501  0.00000000000E+00  0.00000000000E+00  0.15617781944E+04  0.15617781944E+04  0.25500000920E-02 0.  1.
        2   -1    0    0  501    0  0.00000000000E+00  0.00000000000E+00 -0.10740421408E+04  0.10740421408E+04  0.25500000920E-02 0. -1.
    10030    2    1    2    0    0  0.00000000000E+00  0.00000000000E+00  0.48773605359E+03  0.26358203351E+04  0.25903016004E+04 0.  0.
        3    1    3    3  502    0  0.55246192588E+03  0.11429084443E+04  0.50521132578E+03  0.13662695142E+04  0.10100000352E+00 0. -1.
       -3    1    3    3    0  502 -0.55246192588E+03 -0.11429084443E+04 -0.17475272192E+02  0.12695508209E+04  0.10100000352E+00 0.  1.
</event>
<event>
 5   0  0.2066170E-05  0.2499907E+04  0.7818609E-02  0.8403019E-01
       -1   -1    0    0    0  501  0.00000000000E+00  0.00000000000E+00  0.11322813858E+04  0.11322813858E+04  0.50400001928E-02 0. -1.
        1   -1    0    0  501    0  0.00000000000E+00  0.00000000000E+00 -0.13798547235E+04  0.13798547235E+04  0.50400001928E-02 0.  1.
    10030    2    1    2    0    0  0.00000000000E+00  0.00000000000E+00 -0.24757333765E+03  0.25121361093E+04  0.24999070531E+04 0.  0.
        5    1    3    3  502    0 -0.53657861810E+03 -0.86082042764E+03 -0.85772465949E+03  0.13283983226E+04  0.46999998093E+01 0.  1.
       -5    1    3    3    0  502  0.53657861810E+03  0.86082042764E+03  0.61015132184E+03  0.11837377867E+04  0.46999998093E+01 0. -1.
</event>
<event>
 5   0  0.2041718E-05  0.2381898E+04  0.7818609E-02  0.8446312E-01
       -1   -1    0    0    0  501  0.00000000000E+00  0.00000000000E+00  0.16388840213E+04  0.16388840213E+04  0.50400001928E-02 0.  1.
        1   -1    0    0  501    0  0.00000000000E+00  0.00000000000E+00 -0.86544254670E+03  0.86544254671E+03  0.50400001928E-02 0. -1.
    10030    2    1    2    0    0  0.00000000000E+00  0.00000000000E+00  0.77344147456E+03  0.25043265680E+04  0.23818983699E+04 0.  0.
        4    1    3    3  502    0  0.41885259132E+03  0.17302131318E+02 -0.78530504101E+03  0.89019238220E+03  0.12699999809E+01 0. -1.
       -4    1    3    3    0  502 -0.41885259132E+03 -0.17302131318E+02  0.15587465156E+04  0.16141341858E+04  0.12699999809E+01 0.  1.
</event>
<event>
 5   0  0.4959042E-05  0.2501493E+04  0.7818609E-02  0.8402454E-01
       -2   -1    0    0    0  501  0.00000000000E+00  0.00000000000E+00  0.98940476656E+03  0.98940476656E+03  0.25500000920E-02 0. -1.
        2   -1    0    0  501    0  0.00000000000E+00  0.00000000000E+00 -0.15811195917E+04  0.15811195917E+04  0.25500000920E-02 0.  1.
    10030    2    1    2    0    0  0.00000000000E+00  0.00000000000E+00 -0.59171482515E+03  0.25705243583E+04  0.25014933624E+04 0.  0.
        4    1    3    3  502    0  0.86018071791E+03 -0.11314066735E+02  0.63712202281E+03  0.10704975294E+04  0.12699999809E+01 0. -1.
       -4    1    3    3    0  502 -0.86018071791E+03  0.11314066735E+02 -0.12288368480E+04  0.15000268289E+04  0.12699999809E+01 0.  1.
</event>
<event>
 5   0  0.5219468E-05  0.2460030E+04  0.7818609E-02  0.8417365E-01
        2   -1    0    0  501    0  0.00000000000E+00  0.00000000000E+00  0.14002416591E+04  0.14002416591E+04  0.25500000920E-02 0. -1.
       -2   -1    0    0    0  501  0.00000000000E+00  0.00000000000E+00 -0.10804830580E+04  0.10804830580E+04  0.25500000920E-02 0.  1.
    10030    2    1    2    0    0  0.00000000000E+00  0.00000000000E+00  0.31975860112E+03  0.24807247171E+04  0.24600303980E+04 0.  0.
        1    1    3    3  502    0  0.69215391533E+03 -0.88393348475E+03 -0.34686358526E+03  0.11750445927E+04  0.50400001928E-02 0.  1.
       -1    1    3    3    0  502 -0.69215391533E+03  0.88393348475E+03  0.66662218638E+03  0.13056801244E+04  0.50400001928E-02 0. -1.
</event>
<event>
 5   0  0.2036578E-05  0.2489898E+04  0.7818609E-02  0.8406593E-01
       -1   -1    0    0    0  501  0.00000000000E+00  0.00000000000E+00  0.11462047824E+04  0.11462047824E+04  0.50400001928E-02 0.  1.
        1   -1    0    0  501    0  0.00000000000E+00  0.00000000000E+00 -0.13522000353E+04  0.13522000353E+04  0.50400001928E-02 0. -1.
    10030    2    1    2    0    0  0.00000000000E+00  0.00000000000E+00 -0.20599525289E+03  0.24984048177E+04  0.24898981082E+04 0.  0.
        2    1    3    3  502    0 -0.48960419074E+03  0.89901314507E+03 -0.81391041852E+03  0.13078176738E+04  0.25500000920E-02 0. -1.
       -2    1    3    3    0  502  0.48960419074E+03 -0.89901314507E+03  0.60791516563E+03  0.11905871439E+04  0.25500000920E-02 0.  1.
</event>
<event>
 5   0  0.4995256E-05  0.2509339E+04  0.7818609E-02  0.8399666E-01
        2   -1    0    0  501    0  0.00000000000E+00  0.00000000000E+00  0.13600671206E+04  0.13600671207E+04  0.25500000920E-02 0.  1.
       -2   -1    0    0    0  501  0.00000000000E+00  0.00000000000E+00 -0.11574395247E+04  0.11574395248E+04  0.25500000920E-02 0. -1.
    10030    2    1    2    0    0  0.00000000000E+00  0.00000000000E+00  0.20262759590E+03  0.25175066454E+04  0.25093389104E+04 0.  0.
        2    1    3    3  502    0 -0.43000072927E+03  0.19338064552E+03 -0.10651825580E+04  0.11648650493E+04  0.25500000920E-02 0. -1.
       -2    1    3    3    0  502  0.43000072927E+03 -0.19338064552E+03  0.12678101539E+04  0.13526415961E+04  0.25500000920E-02 0.  1.
</event>
<event>
 5   0  0.5219468E-05  0.2517411E+04  0.7818609E-02  0.8396809E-01
       -2   -1    0    0    0  501  0.00000000000E+00  0.00000000000E+00  0.95390229589E+03  0.95390229590E+03  0.25500000920E-02 0. -1.
        2   -1    0    0  501    0  0.00000000000E+00  0.00000000000E+00 -0.16609039230E+04  0.16609039230E+04  0.25500000920E-02 0.  1.
    10030    2    1    2    0    0  0.00000000000E+00  0.00000000000E+00 -0.70700162708E+03  0.26148062189E+04  0.25174114208E+04 0.  0.
        1    1    3    3  502    0  0.17942983024E+03  0.11856908677E+04 -0.75076645402E+03  0.14148173615E+04  0.50400001928E-02 0. -1.
       -1    1    3    3    0  502 -0.17942983024E+03 -0.11856908677E+04  0.43764826942E+02  0.11999888574E+04  0.50400001928E-02 0.  1.
</event>
<event>
 5   0  0.4959347E-05  0.2504592E+04  0.7818609E-02  0.8401352E-01
        2   -1    0    0  501    0  0.00000000000E+00  0.00000000000E+00  0.11224184921E+04  0.11224184921E+04  0.25500000920E-02 0. -1.
       -2   -1    0    0    0  501  0.00000000000E+00  0.00000000000E+00 -0.13972016974E+04  0.13972016974E+04  0.25500000920E-02 0.  1.
    10030    2    1    2    0    0  0.00000000000E+00  0.00000000000E+00 -0.27478320530E+03  0.25196201895E+04  0.25045918009E+04 0.  0.
        3    1    3    3  502    0  0.72296622511E+03  0.57546789308E+03  0.71290280012E+03  0.11670792052E+04  0.10100000352E+00 0. -1.
       -3    1    3    3    0  502 -0.72296622511E+03 -0.57546789308E+03 -0.98768600543E+03  0.13525409843E+04  0.10100000352E+00 0.  1.
</event>
<event>
 5   0  0.4995256E-05  0.2447667E+04  0.7818609E-02  0.8421870E-01
       -2   -1    0    0    0  501  0.00000000000E+00  0.00000000000E+00  0.86120580211E+03  0.86120580211E+03  0.25500000920E-02 0.  1.
        2   -1    0    0  501    0  0.00000000000E+00  0.00000000000E+00 -0.17391528159E+04  0.17391528159E+04  0.25500000920E-02 0. -1.
    10030    2    1    2    0    0  0.00000000000E+00  0.00000000000E+00 -0.87794701384E+03  0.26003586181E+04  0.24476670491E+04 0.  0.
        2    1    3    3  502    0  0.95954794164E+03 -0.51815600641E+03 -0.10290986245E+04  0.14994205141E+04  0.25500000920E-02 0. -1.
       -2    1    3    3    0  502 -0.95954794164E+03  0.51815600641E+03  0.15115161064E+03  0.11009381039E+04  0.25500000920E-02 0.  1.
</event>
<event>
 5   0  0.2066170E-05  0.2768441E+04  0.7818609E-02  0.8313134E-01
       -1   -1    0    0    0  501  0.00000000000E+00  0.00000000000E+00  0.13233248818E+04  0.13233248818E+04  0.50400001928E-02 0.  1.
        1   -1    0    0  501    0  0.00000000000E+00  0.00000000000E+00 -0.14479186165E+04  0.14479186165E+04  0.50400001928E-02 0. -1.
    10030    2    1    2    0    0  0.00000000000E+00  0.00000000000E+00 -0.12459373470E+03  0.27712434983E+04  0.27684412452E+04 0.  0.
        5    1    3    3  502    0 -0.35100644790E+02  0.13778526290E+04 -0.19023358910E+03  0.13913737208E+04  0.46999998093E+01 0. -1.
       -5    1    3    3    0  502  0.35100644790E+02 -0.13778526290E+04  0.65639854403E+02  0.13798697775E+04  0.46999998093E+01 0.  1.
</event>
<event>
 5   0  0.4959042E-05  0.2513207E+04  0.7818609E-02  0.8398295E-01
       -2   -1    0    0    0  501  0.00000000000E+00  0.00000000000E+00  0.64690994912E+03  0.64690994912E+03  0.25500000920E-02 0.  1.
        2   -1    0    0  501    0  0.00000000000E+00  0.00000000000E+00 -0.24409155543E+04  0.24409155543E+04  0.25500000920E-02 0. -1.
    10030    2    1    2    0    0  0.00000000000E+00  0.00000000000E+00 -0.17940056052E+04  0.30878255035E+04  0.25132071598E+04 0.  0.
        4    1    3    3  502    0  0.17529077190E+03 -0.28771344780E+03  0.59038443156E+03  0.67975089017E+03  0.12699999809E+01 0.  1.
       -4    1    3    3    0  502 -0.17529077190E+03  0.28771344780E+03 -0.23843900368E+04  0.24080746133E+04  0.12699999809E+01 0. -1.
</event>
<event>
 5   0  0.2063930E-05  0.2460032E+04  0.7818609E-02  0.8417364E-01
        1   -1    0    0  501    0  0.00000000000E+00  0.00000000000E+00  0.79001564897E+03  0.79001564899E+03  0.50400001928E-02 0.  1.
       -1   -1    0    0    0  501  0.00000000000E+00  0.00000000000E+00 -0.19150749496E+04  0.19150749496E+04  0.50400001928E-02 0. -1.
    10030    2    1    2    0    0  0.00000000000E+00  0.00000000000E+00 -0.11250593006E+04  0.27050905986E+04  0.24600318528E+04 0.  0.
        3    1    3    3  502    0 -0.11917492980E+04 -0.27719873714E+03 -0.42416298762E+03  0.12949979843E+04  0.10100000352E+00 0.  1.
       -3    1    3    3    0  502  0.11917492980E+04  0.27719873714E+03 -0.70089631303E+03  0.14100926143E+04  0.10100000352E+00 0. -1.
</event>
<event>
 5   0  0.2063930E-05  0.2026236E+04  0.7818609E-02  0.8594452E-01
        1   -1    0    0  501    0  0.00000000000E+00  0.00000000000E+00  0.93306289618E+03  0.93306289620E+03  0.50400001928E-02 0. -1.
       -1   -1    0    0    0  501  0.00000000000E+00  0.00000000000E+00 -0.11000412418E+04  0.11000412418E+04  0.50400001928E-02 0.  1.
    10030    2    1    2    0    0  0.00000000000E+00  0.00000000000E+00 -0.16697834561E+03  0.20331041380E+04  0.20262355905E+04 0.  0.
        3    1    3    3  502    0  0.71402542738E+03 -0.59040511750E+03  0.32777476836E+03  0.98277506210E+03  0.10100000352E+00 0. -1.
       -3    1    3    3    0  502 -0.71402542738E+03  0.59040511750E+03 -0.49475311396E+03  0.10503290759E+04  0.10100000352E+00 0.  1.
</event>
<event>
 5   0  0.4959347E-05  0.2495094E+04  0.7818609E-02  0.8404735E-01
        2   -1    0    0  501    0  0.00000000000E+00  0.00000000000E+00  0.30263272399E+04  0.30263272399E+04  0.25500000920E-02 0.  1.
       -2   -1    0    0    0  501  0.00000000000E+00  0.00000000000E+00 -0.51427815904E+03  0.51427815905E+03  0.25500000920E-02 0. -1.
    10030    2    1    2    0    0  0.00000000000E+00  0.00000000000E+00  0.25120490808E+04  0.35406053989E+04  0.24950943883E+04 0.  0.
        3    1    3    3  502    0 -0.44267043629E+03 -0.31507537351E+03 -0.33755209339E+03  0.63966478104E+03  0.10100000352E+00 0. -1.
       -3    1    3    3    0  502  0.44267043629E+03  0.31507537351E+03  0.28496011742E+04  0.29009406179E+04  0.10100000352E+00 0.  1.
</event>
<event>
 5   0  0.1692125E-05  0.2546491E+04  0.7818609E-02  0.8386608E-01
        3   -1    0    0  501    0  0.00000000000E+00  0.00000000000E+00  0.11960010226E+04  0.11960010269E+04  0.10100000352E+00 0.  1.
       -3   -1    0    0    0  501  0.00000000000E+00  0.00000000000E+00 -0.13554786116E+04  0.13554786154E+04  0.10100000352E+00 0. -1.
    10030    2    1    2    0    0  0.00000000000E+00  0.00000000000E+00 -0.15947758900E+03  0.25514796422E+04  0.25464907743E+04 0.  0.
        5    1    3    3  502    0 -0.35215656098E+03  0.12126412411E+04 -0.24321082031E+03  0.12859574706E+04  0.46999998093E+01 0. -1.
       -5    1    3    3    0  502  0.35215656098E+03 -0.12126412411E+04  0.83733231312E+02  0.12655221717E+04  0.46999998093E+01 0.  1.
</event>
<event>
 5   0  0.2063930E-05  0.2526076E+04  0.7818609E-02  0.8393754E-01
       -1   -1    0    0    0  501  0.00000000000E+00  0.00000000000E+00  0.15702892949E+04  0.15702892949E+04  0.50400001928E-02 0. -1.
        1   -1    0    0  501    0  0.00000000000E+00  0.00000000000E+00 -0.10159051987E+04  0.10159051987E+04  0.50400001928E-02 0.  1.
    10030    2    1    2    0    0  0.00000000000E+00  0.00000000000E+00  0.55438409620E+03  0.25861944936E+04  0.25260760544E+04 0.  0.
        3    1    3    3  502    0  0.79697651607E+03  0.62766637196E+03 -0.49312983271E+03  0.11279688310E+04  0.10100000352E+00 0. -1.
       -3    1    3    3    0  502 -0.79697651607E+03 -0.62766637196E+03  0.10475139289E+04  0.14582256626E+04  0.10100000352E+00 0.  1.
</event>
<event>
 5   0  0.2041718E-05  0.1537477E+04  0.7818609E-02  0.8859907E-01
        1   -1    0    0  501    0  0.00000000000E+00  0.00000000000E+00  0.88396460561E+03  0.88396460563E+03  0.50400001928E-02 0. -1.
       -1   -1    0    0    0  501  0.00000000000E+00  0.00000000000E+00 -0.66853225297E+03  0.66853225299E+03  0.50400001928E-02 0.  1.
    10030    2    1    2    0    0  0.00000000000E+00  0.00000000000E+00  0.21543235265E+03  0.15524968586E+04  0.15374769583E+04 0.  0.
        4    1    3    3  502    0 -0.59905415481E+03 -0.12801882282E+03  0.57669122898E+03  0.84132579057E+03  0.12699999809E+01 0. -1.
       -4    1    3    3    0  502  0.59905415481E+03  0.12801882282E+03 -0.36125887633E+03  0.71117106804E+03  0.12699999809E+01 0.  1.
</event>
<event>
 5   0  0.2066170E-05  0.2517769E+04  0.7818609E-02  0.8396683E-01
        1   -1    0    0  501    0  0.00000000000E+00  0.00000000000E+00  0.13563016119E+04  0.13563016119E+04  0.50400001928E-02 0. -1.
       -1   -1    0    0    0  501  0.00000000000E+00  0.00000000000E+00 -0.11684641886E+04  0.11684641886E+04  0.50400001928E-02 0.  1.
    10030    2    1    2    0    0  0.00000000000E+00  0.00000000000E+00  0.18783742325E+03  0.25247658005E+04  0.25177687443E+04 0.  0.
        5    1    3    3  502    0  0.53124622210E+03  0.88270675920E+03 -0.63153771681E+03  0.12084104224E+04  0.46999998093E+01 0.  1.
       -5    1    3    3    0  502 -0.53124622210E+03 -0.88270675920E+03  0.81937514006E+03  0.13163553781E+04  0.46999998093E+01 0. -1.
</event>
<event>
 5   0  0.2041718E-05  0.2428859E+04  0.7818609E-02  0.8428777E-01
        1   -1    0    0  501    0  0.00000000000E+00  0.00000000000E+00  0.19636936399E+04  0.19636936399E+04  0.50400001928E-02 0. -1.
       -1   -1    0    0    0  501  0.00000000000E+00  0.00000000000E+00 -0.75105372365E+03  0.75105372367E+03  0.50400001928E-02 0.  1.
    10030    2    1    2    0    0  0.00000000000E+00  0.00000000000E+00  0.12126399163E+04  0.27147473636E+04  0.24288593376E+04 0.  0.
        4    1    3    3  502    0  0.34014819322E+03 -0.31032023035E+02  0.19089010401E+04  0.19392185471E+04  0.12699999809E+01 0. -1.
       -4    1    3    3    0  502 -0.34014819322E+03  0.31032023035E+02 -0.69626112379E+03  0.77552881649E+03  0.12699999809E+01 0.  1.
</event>
<event>
 5   0  0.4959347E-05  0.2451063E+04  0.7818609E-02  0.8420630E-01
        2   -1    0    0  501    0  0.00000000000E+00  0.00000000000E+00  0.13579975650E+04  0.13579975650E+04  0.25500000920E-02 0. -1.
       -2   -1    0    0    0  501  0.00000000000E+00  0.00000000000E+00 -0.11059866440E+04  0.11059866440E+04  0.25500000920E-02 0.  1.
    10030    2    1    2    0    0  0.00000000000E+00  0.00000000000E+00  0.25201092098E+03  0.24639842091E+04  0.24510627650E+04 0.  0.
        3    1    3    3  502    0  0.72461284091E+03  0.30603371439E+03  0.10707506276E+04  0.13286185759E+04  0.10100000352E+00 0. -1.
       -3    1    3    3    0  502 -0.72461284091E+03 -0.30603371439E+03 -0.81873970661E+03  0.11353656332E+04  0.10100000352E+00 0.  1.
</event>
<event>
 5   0  0.2081874E-05  0.2518043E+04  0.7818609E-02  0.8396586E-01
       -1   -1    0    0    0  501  0.00000000000E+00  0.00000000000E+00  0.96186240519E+03  0.96186240520E+03  0.50400001928E-02 0.  1.
        1   -1    0    0  501    0  0.00000000000E+00  0.00000000000E+00 -0.16479856975E+04  0.16479856975E+04  0.50400001928E-02 0. -1.
    10030    2    1    2    0    0  0.00000000000E+00  0.00000000000E+00 -0.68612329231E+03  0.26098481027E+04  0.25180432774E+04 0.  0.
        1    1    3    3  502    0  0.50452640949E+03  0.11392600356E+04 -0.15570853777E+03  0.12556693336E+04  0.50400001928E-02 0.  1.
       -1    1    3    3    0  502 -0.50452640949E+03 -0.11392600356E+04 -0.53041475454E+03  0.13541787691E+04  0.50400001928E-02 0. -1.
</event>
<event>
 5   0  0.4959347E-05  0.2503821E+04  0.7818609E-02  0.8401625E-01
       -2   -1    0    0    0  501  0.00000000000E+00  0.00000000000E+00  0.98445417592E+03  0.98445417593E+03  0.25500000920E-02 0.  1.
        2   -1    0    0  501    0  0.00000000000E+00  0.00000000000E+00 -0.15920298982E+04  0.15920298982E+04  0.25500000920E-02 0. -1.
    10030    2    1    2    0    0  0.00000000000E+00  0.00000000000E+00 -0.60757572224E+03  0.25764840741E+04  0.25038214644E+04 0.  0.
        3    1    3    3  502    0 -0.82381753855E+03 -0.41680703734E+03 -0.11738289734E+04  0.14934115013E+04  0.10100000352E+00 0.  1.
       -3    1    3    3    0  502  0.82381753855E+03  0.41680703734E+03  0.56625325120E+03  0.10830725728E+04  0.10100000352E+00 0. -1.
</event>
<event>
 5   0  0.4959042E-05  0.2478515E+04  0.7818609E-02  0.8410680E-01
        2   -1    0    0  501    0  0.00000000000E+00  0.00000000000E+00  0.11820867282E+04  0.11820867282E+04  0.25500000920E-02 0. -1.
       -2   -1    0    0    0  501  0.00000000000E+00  0.00000000000E+00 -0.12991934057E+04  0.12991934057E+04  0.25500000920E-02 0.  1.
    10030    2    1    2    0    0  0.00000000000E+00  0.00000000000E+00 -0.11710667750E+03  0.24812801339E+04  0.24785151057E+04 0.  0.
        4    1    3    3  502    0 -0.69765146759E+03  0.10240975175E+04 -0.42275625128E+02  0.12398718228E+04  0.12699999809E+01 0. -1.
       -4    1    3    3    0  502  0.69765146759E+03 -0.10240975175E+04 -0.74831052375E+02  0.12414083111E+04  0.12699999809E+01 0.  1.
</event>
<event>
 5   0  0.2041718E-05  0.2473553E+04  0.7818609E-02  0.8412469E-01
        1   -1    0    0  501    0  0.00000000000E+00  0.00000000000E+00  0.13990970265E+04  0.13990970265E+04  0.50400001928E-02 0. -1.
       -1   -1    0    0    0  501  0.00000000000E+00  0.00000000000E+00 -0.10932878386E+04  0.10932878386E+04  0.50400001928E-02 0.  1.
    10030    2    1    2    0    0  0.00000000000E+00  0.00000000000E+00  0.30580918791E+03  0.24923848652E+04  0.24735527196E+04 0.  0.
        4    1    3    3  502    0  0.50637004389E+03 -0.93779990178E+03  0.78516483979E+03  0.13237691323E+04  0.12699999809E+01 0. -1.
       -4    1    3    3    0  502 -0.50637004389E+03  0.93779990178E+03 -0.47935565188E+03  0.11686157328E+04  0.12699999809E+01 0.  1.
</event>
<event>
 5   0  0.2081874E-05  0.2328115E+04  0.7818609E-02  0.8466918E-01
       -1   -1    0    0    0  501  0.00000000000E+00  0.00000000000E+00  0.98532995996E+03  0.98532995997E+03  0.50400001928E-02 0.  1.
        1   -1    0    0  501    0  0.00000000000E+00  0.00000000000E+00 -0.13752039564E+04  0.13752039564E+04  0.50400001928E-02 0. -1.
    10030    2    1    2    0    0  0.00000000000E+00  0.00000000000E+00 -0.38987399641E+03  0.23605339163E+04  0.23281148247E+04 0.  0.
        1    1    3    3  502    0 -0.11492791633E+03  0.11354702452E+04  0.37445586349E+02  0.11418858418E+04  0.50400001928E-02 0.  1.
       -1    1    3    3    0  502  0.11492791633E+03 -0.11354702452E+04 -0.42731958276E+03  0.12186480745E+04  0.50400001928E-02 0. -1.
</event>
<event>
 5   0  0.4995256E-05  0.2383508E+04  0.7818609E-02  0.8445704E-01
       -2   -1    0    0    0  501  0.00000000000E+00  0.00000000000E+00  0.12209555409E+04  0.12209555409E+04  0.25500000920E-02 0.  1.
        2   -1    0    0  501    0  0.00000000000E+00  0.00000000000E+00 -0.11632509698E+04  0.11632509698E+04  0.25500000920E-02 0. -1.
    10030    2    1    2    0    0  0.00000000000E+00  0.00000000000E+00  0.57704571137E+02  0.23842065107E+04  0.23835081011E+04 0.  0.
        2    1    3    3  502    0 -0.76077906001E+03  0.72377869280E+03 -0.53490609935E+03  0.11784587008E+04  0.25500000920E-02 0. -1.
       -2    1    3    3    0  502  0.76077906001E+03 -0.72377869280E+03  0.59261067049E+03  0.12057478099E+04  0.25500000920E-02 0.  1.
</event>
<event>
 5   0  0.4959347E-05  0.2510936E+04  0.7818609E-02  0.8399100E-01
       -2   -1    0    0    0  501  0.00000000000E+00  0.00000000000E+00  0.12303974698E+04  0.12303974698E+04  0.25500000920E-02 0.  1.
        2   -1    0    0  501    0  0.00000000000E+00  0.00000000000E+00 -0.12810490523E+04  0.12810490523E+04  0.25500000920E-02 0. -1.
    10030    2    1    2    0    0  0.00000000000E+00  0.00000000000E+00 -0.50651582445E+02  0.25114465221E+04  0.25109356923E+04 0.  0.
        3    1    3    3  502    0 -0.78264073744E+03 -0.55044564980E+03  0.78766339305E+03  0.12393266592E+04  0.10100000352E+00 0.  1.
       -3    1    3    3    0  502  0.78264073744E+03  0.55044564980E+03 -0.83831497550E+03  0.12721198629E+04  0.10100000352E+00 0. -1.
</event>
<event>
 5   0  0.2041718E-05  0.2504189E+04  0.7818609E-02  0.8401495E-01
        1   -1    0    0  501    0  0.00000000000E+00  0.00000000000E+00  0.11478683956E+04  0.11478683956E+04  0.50400001928E-02 0. -1.
       -1   -1    0    0    0  501  0.00000000000E+00  0.00000000000E+00 -0.13657847000E+04  0.13657847000E+04  0.50400001928E-02 0.  1.
    10030    2    1    2    0    0  0.00000000000E+00  0.00000000000E+00 -0.21791630447E+03  0.25136530956E+04  0.25041893637E+04 0.  0.
        4    1    3    3  502    0 -0.82131879990E+03  0.83102163977E+03 -0.56074569596E+03  0.12959933971E+04  0.12699999809E+01 0.  1.
       -4    1    3    3    0  502  0.82131879990E+03 -0.83102163977E+03  0.34282939149E+03  0.12176596985E+04  0.12699999809E+01 0. -1.
</event>
<event>
 5   0  0.2036578E-05  0.2502636E+04  0.7818609E-02  0.8402047E-01
        1   -1    0    0  501    0  0.00000000000E+00  0.00000000000E+00  0.15619804900E+04  0.15619804900E+04  0.50400001928E-02 0. -1.
       -1   -1    0    0    0  501  0.00000000000E+00  0.00000000000E+00 -0.10024431706E+04  0.10024431706E+04  0.50400001928E-02 0.  1.
    10030    2    1    2    0    0  0.00000000000E+00  0.00000000000E+00  0.55953731933E+03  0.25644236606E+04  0.25026359502E+04 0.  0.
        2    1    3    3  502    0 -0.16537687121E+03  0.10067872603E+04  0.10221037776E+04  0.14441835857E+04  0.25500000920E-02 0. -1.
       -2    1    3    3    0  502  0.16537687121E+03 -0.10067872603E+04 -0.46256645823E+03  0.11202400749E+04  0.25500000920E-02 0.  1.
</event>
<event>
 5   0  0.2081874E-05  0.1573613E+04  0.7818609E-02  0.8836925E-01
        1   -1    0    0  501    0  0.00000000000E+00  0.00000000000E+00  0.10476200718E+04  0.10476200718E+04  0.50400001928E-02 0. -1.
       -1   -1    0    0    0  501  0.00000000000E+00  0.00000000000E+00 -0.59092460208E+03  0.59092460210E+03  0.50400001928E-02 0.  1.
    10030    2    1    2    0    0  0.00000000000E+00  0.00000000000E+00  0.45669546970E+03  0.16385446739E+04  0.15736130072E+04 0.  0.
        1    1    3    3  502    0  0.20235210997E+03 -0.49388411668E+03  0.83029902354E+03  0.98704830968E+03  0.50400001928E-02 0. -1.
       -1    1    3    3    0  502 -0.20235210997E+03  0.49388411668E+03 -0.37360355384E+03  0.65149636422E+03  0.50400001928E-02 0.  1.
</event>
<event>
 5   0  0.4995256E-05  0.2436748E+04  0.7818609E-02  0.8425872E-01
        2   -1    0    0  501    0  0.00000000000E+00  0.00000000000E+00  0.18110257845E+04  0.18110257845E+04  0.25500000920E-02 0.  1.
       -2   -1    0    0    0  501  0.00000000000E+00  0.00000000000E+00 -0.81966555231E+03  0.81966555232E+03  0.25500000920E-02 0. -1.
    10030    2    1    2    0    0  0.00000000000E+00  0.00000000000E+00  0.99136023223E+03  0.26306913369E+04  0.24367482020E+04 0.  0.
        2    1    3    3  502    0 -0.34003828235E+03  0.11128937753E+04  0.88534644839E+03  0.14621890857E+04  0.25500000920E-02 0.  1.
       -2    1    3    3    0  502  0.34003828235E+03 -0.11128937753E+04  0.10601378384E+03  0.11685022512E+04  0.25500000920E-02 0. -1.
</event>
<event>
 5   0  0.2066170E-05  0.2490252E+04  0.7818609E-02  0.8406466E-01
       -1   -1    0    0    0  501  0.00000000000E+00  0.00000000000E+00  0.10050654409E+04  0.10050654409E+04  0.50400001928E-02 0.  1.
        1   -1    0    0  501    0  0.00000000000E+00  0.00000000000E+00 -0.15425253615E+04  0.15425253615E+04  0.50400001928E-02 0. -1.
    10030    2    1    2    0    0  0.00000000000E+00  0.00000000000E+00 -0.53745992066E+03  0.25475908024E+04  0.24902521419E+04 0.  0.
        5    1    3    3  502    0 -0.38297782641E+03 -0.78037792198E+03  0.64322983943E+03  0.10814011434E+04  0.46999998093E+01 0.  1.
       -5    1    3    3    0  502  0.38297782641E+03  0.78037792198E+03 -0.11806897601E+04  0.14661896590E+04  0.46999998093E+01 0. -1.
</event>
<event>
 5   0  0.2063930E-05  0.2571880E+04  0.7818609E-02  0.8377816E-01
       -1   -1    0    0    0  501  0.00000000000E+00  0.00000000000E+00  0.12483155829E+04  0.12483155830E+04  0.50400001928E-02 0. -1.
        1   -1    0    0  501    0  0.00000000000E+00  0.00000000000E+00 -0.13246979301E+04  0.13246979301E+04  0.50400001928E-02 0.  1.
    10030    2    1    2    0    0  0.00000000000E+00  0.00000000000E+00 -0.76382347171E+02  0.25730135131E+04  0.25718795220E+04 0.  0.
        3    1    3    3  502    0 -0.73876907211E+03  0.10519420283E+04 -0.24082959007E+01  0.12854445079E+04  0.10100000352E+00 0.  1.
       -3    1    3    3    0  502  0.73876907211E+03 -0.10519420283E+04 -0.73974051270E+02  0.12875690052E+04  0.10100000352E+00 0. -1.
</event>
<event>
 5   0  0.4959347E-05  0.2522254E+04  0.7818609E-02  0.8395100E-01
        2   -1    0    0  501    0  0.00000000000E+00  0.00000000000E+00  0.28064834050E+04  0.28064834050E+04  0.25500000920E-02 0. -1.
       -2   -1    0    0    0  501  0.00000000000E+00  0.00000000000E+00 -0.56670234727E+03  0.56670234728E+03  0.25500000920E-02 0.  1.
    10030    2    1    2    0    0  0.00000000000E+00  0.00000000000E+00  0.22397810577E+04  0.33731857523E+04  0.25222535425E+04 0.  0.
        3    1    3    3  502    0  0.73784085956E+03 -0.10056360437E+04  0.87066659004E+03  0.15211092360E+04  0.10100000352E+00 0. -1.
       -3    1    3    3    0  502 -0.73784085956E+03  0.10056360437E+04  0.13691144677E+04  0.18520765163E+04  0.10100000352E+00 0.  1.
</event>
<event>
 5   0  0.4959347E-05  0.2499870E+04  0.7818609E-02  0.8403032E-01
        2   -1    0    0  501    0  0.00000000000E+00  0.00000000000E+00  0.13383119054E+04  0.13383119054E+04  0.25500000920E-02 0. -1.
       -2   -1    0    0    0  501  0.00000000000E+00  0.00000000000E+00 -0.11673940199E+04  0.11673940199E+04  0.25500000920E-02 0.  1.
    10030    2    1    2    0    0  0.00000000000E+00  0.00000000000E+00  0.17091788546E+03  0.25057059253E+04  0.24998698488E+04 0.  0.
        3    1    3    3  502    0 -0.53129508605E+03 -0.11138713753E+04  0.28429896757E+03  0.12664161331E+04  0.10100000352E+00 0. -1.
       -3    1    3    3    0  502  0.53129508605E+03  0.11138713753E+04 -0.11338108211E+03  0.12392897922E+04  0.10100000352E+00 0.  1.
</event>
<event>
 5   0  0.2081874E-05  0.1646373E+04  0.7818609E-02  0.8792555E-01
       -1   -1    0    0    0  501  0.00000000000E+00  0.00000000000E+00  0.15448792104E+04  0.15448792104E+04  0.50400001928E-02 0.  1.
        1   -1    0    0  501    0  0.00000000000E+00  0.00000000000E+00 -0.43863356696E+03  0.43863356699E+03  0.50400001928E-02 0. -1.
    10030    2    1    2    0    0  0.00000000000E+00  0.00000000000E+00  0.11062456434E+04  0.19835127774E+04  0.16463728358E+04 0.  0.
        1    1    3    3  502    0 -0.64140819342E+03  0.31879571575E+02 -0.67325958110E+02  0.64571941455E+03  0.50400001928E-02 0. -1.
       -1    1    3    3    0  502  0.64140819342E+03 -0.31879571575E+02  0.11735716015E+04  0.13377933628E+04  0.50400001928E-02 0.  1.
</event>
<event>
 5   0  0.5219468E-05  0.1887045E+04  0.7818609E-02  0.8661332E-01
        2   -1    0    0  501    0  0.00000000000E+00  0.00000000000E+00  0.98446114257E+03  0.98446114258E+03  0.25500000920E-02 0. -1.
       -2   -1    0    0    0  501  0.00000000000E+00  0.00000000000E+00 -0.90428587323E+03  0.90428587323E+03  0.25500000920E-02 0.  1.
    10030    2    1    2    0    0  0.00000000000E+00  0.00000000000E+00  0.80175269343E+02  0.18887470158E+04  0.18870445718E+04 0.  0.
        1    1    3    3  502    0 -0.13279587644E+03 -0.91233490870E+03 -0.16070385306E+03  0.93585012628E+03  0.50400001928E-02 0.  1.
       -1    1    3    3    0  502  0.13279587644E+03  0.91233490870E+03  0.24087912241E+03  0.95289688953E+03  0.50400001928E-02 0. -1.
</event>
<event>
 5   0  0.2041718E-05  0.2318465E+04  0.7818609E-02  0.8470676E-01
        1   -1    0    0  501    0  0.00000000000E+00  0.00000000000E+00  0.15215735182E+04  0.15215735182E+04  0.50400001928E-02 0.  1.
       -1   -1    0    0    0  501  0.00000000000E+00  0.00000000000E+00 -0.88317785584E+03  0.88317785585E+03  0.50400001928E-02 0. -1.
    10030    2    1    2    0    0  0.00000000000E+00  0.00000000000E+00  0.63839566238E+03  0.24047513741E+04  0.23184650417E+04 0.  0.
        4    1    3    3  502    0  0.32389120417E+03 -0.67116830783E+03  0.12401893075E+04  0.14468737129E+04  0.12699999809E+01 0.  1.
       -4    1    3    3    0  502 -0.32389120417E+03  0.67116830783E+03 -0.60179364516E+03  0.95787766120E+03  0.12699999809E+01 0. -1.
</event>
<event>
 5   0  0.2081874E-05  0.2476442E+04  0.7818609E-02  0.8411427E-01
       -1   -1    0    0    0  501  0.00000000000E+00  0.00000000000E+00  0.13048513981E+04  0.13048513981E+04  0.50400001928E-02 0. -1.
        1   -1    0    0  501    0  0.00000000000E+00  0.00000000000E+00 -0.11749926598E+04  0.11749926599E+04  0.50400001928E-02 0.  1.
    10030    2    1    2    0    0  0.00000000000E+00  0.00000000000E+00  0.12985873826E+03  0.24798440580E+04  0.24764416528E+04 0.  0.
        1    1    3    3  502    0  0.95695940841E+02  0.28484662291E+03 -0.11379268321E+04  0.11769336374E+04  0.50400001928E-02 0.  1.
       -1    1    3    3    0  502 -0.95695940841E+02 -0.28484662291E+03  0.12677855703E+04  0.13029104206E+04  0.50400001928E-02 0. -1.
</event>
<event>
 5   0  0.2036578E-05  0.2493225E+04  0.7818609E-02  0.8405403E-01
       -1   -1    0    0    0  501  0.00000000000E+00  0.00000000000E+00  0.96881473275E+03  0.96881473276E+03  0.50400001928E-02 0. -1.
        1   -1    0    0  501    0  0.00000000000E+00  0.00000000000E+00 -0.16040661925E+04  0.16040661925E+04  0.50400001928E-02 0.  1.
    10030    2    1    2    0    0  0.00000000000E+00  0.00000000000E+00 -0.63525145978E+03  0.25728809253E+04  0.24932251881E+04 0.  0.
        2    1    3    3  502    0  0.95065315536E+03 -0.75067957295E+03 -0.13626628589E+02  0.12113822386E+04  0.25500000920E-02 0.  1.
       -2    1    3    3    0  502 -0.95065315536E+03  0.75067957295E+03 -0.62162483119E+03  0.13614986867E+04  0.25500000920E-02 0. -1.
</event>
<event>
 5   0  0.4959347E-05  0.2557774E+04  0.7818609E-02  0.8382688E-01
       -2   -1    0    0    0  501  0.00000000000E+00  0.00000000000E+00  0.86946068308E+03  0.86946068308E+03  0.25500000920E-02 0. -1.
        2   -1    0    0  501    0  0.00000000000E+00  0.00000000000E+00 -0.18811104334E+04  0.18811104334E+04  0.25500000920E-02 0.  1.
    10030    2    1    2    0    0  0.00000000000E+00  0.00000000000E+00 -0.10116497503E+04  0.27505711164E+04  0.25577736900E+04 0.  0.
        3    1    3    3  502    0 -0.45322417711E+03  0.93940196337E+03 -0.13016499177E+04  0.16679870269E+04  0.10100000352E+00 0.  1.
       -3    1    3    3    0  502  0.45322417711E+03 -0.93940196337E+03  0.29000016746E+03  0.10825840895E+04  0.10100000352E+00 0. -1.
</event>
<event>
 5   0  0.2041718E-05  0.2595865E+04  0.7818609E-02  0.8369607E-01
       -1   -1    0    0    0  501  0.00000000000E+00  0.00000000000E+00  0.13347020308E+04  0.13347020308E+04  0.50400001928E-02 0.  1.
        1   -1    0    0  501    0  0.00000000000E+00  0.00000000000E+00 -0.12621762328E+04  0.12621762328E+04  0.50400001928E-02 0. -1.
    10030    2    1    2    0    0  0.00000000000E+00  0.00000000000E+00  0.72525798021E+02  0.25968782637E+04  0.25958653133E+04 0.  0.
        4    1    3    3  502    0 -0.83715455177E+03 -0.39520536876E+03 -0.87382421989E+03  0.12730221550E+04  0.12699999809E+01 0. -1.
       -4    1    3    3    0  502  0.83715455177E+03  0.39520536876E+03  0.94635001791E+03  0.13238561086E+04  0.12699999809E+01 0.  1.
</event>
<event>
 5   0  0.2036578E-05  0.2477183E+04  0.7818609E-02  0.8411159E-01
        1   -1    0    0  501    0  0.00000000000E+00  0.00000000000E+00  0.12092981853E+04  0.12092981854E+04  0.50400001928E-02 0. -1.
       -1   -1    0    0    0  501  0.00000000000E+00  0.00000000000E+00 -0.12685948902E+04  0.12685948902E+04  0.50400001928E-02 0.  1.
    10030    2    1    2    0    0  0.00000000000E+00  0.00000000000E+00 -0.59296704850E+02  0.24778930756E+04  0.24771834802E+04 0.  0.
        2    1    3    3  502    0  0.12358271536E+04  0.51497985560E+02 -0.94387077875E+02  0.12404957544E+04  0.25500000920E-02 0. -1.
       -2    1    3    3    0  502 -0.12358271536E+04 -0.51497985560E+02  0.35090373025E+02  0.12373973212E+04  0.25500000920E-02 0.  1.
</event>
<event>
 5   0  0.4995256E-05  0.2526692E+04  0.7818609E-02  0.8393538E-01
        2   -1    0    0  501    0  0.00000000000E+00  0.00000000000E+00  0.18665267204E+04  0.18665267204E+04  0.25500000920E-02 0. -1.
       -2   -1    0    0    0  501  0.00000000000E+00  0.00000000000E+00 -0.85508730089E+03  0.85508730089E+03  0.25500000920E-02 0.  1.
    10030    2    1    2    0    0  0.00000000000E+00  0.00000000000E+00  0.10114394195E+04  0.27216140212E+04  0.25266921422E+04 0.  0.
        2    1    3    3  502    0  0.49686220369E+01  0.45367984969E+03  0.17757432892E+04  0.18327886737E+04  0.25500000920E-02 0. -1.
       -2    1    3    3    0  502 -0.49686220369E+01 -0.45367984969E+03 -0.76430386972E+03  0.88882534758E+03  0.25500000920E-02 0.  1.
</event>
<event>
 5   0  0.2063930E-05  0.2477420E+04  0.7818609E-02  0.8411074E-01
        1   -1    0    0  501    0  0.00000000000E+00  0.00000000000E+00  0.17453063300E+04  0.17453063300E+04  0.50400001928E-02 0.  1.
       -1   -1    0    0    0  501  0.00000000000E+00  0.00000000000E+00 -0.87915942002E+03  0.87915942004E+03  0.50400001928E-02 0. -1.
    10030    2    1    2    0    0  0.00000000000E+00  0.00000000000E+00  0.86614690994E+03  0.26244657500E+04  0.24774200297E+04 0.  0.
        3    1    3    3  502    0  0.62264470565E+02  0.87461365292E+03  0.13599792255E+04  0.16181376364E+04  0.10100000352E+00 0.  1.
       -3    1    3    3    0  502 -0.62264470565E+02 -0.87461365292E+03 -0.49383231559E+03  0.10063281136E+04  0.10100000352E+00 0. -1.
</event>
<event>
 5   0  0.5024070E-05  0.2451056E+04  0.7818609E-02  0.8420632E-01
       -2   -1    0    0    0  501  0.00000000000E+00  0.00000000000E+00  0.10180831784E+04  0.10180831784E+04  0.25500000920E-02 0.  1.
        2   -1    0    0  501    0  0.00000000000E+00  0.00000000000E+00 -0.14752419345E+04  0.14752419345E+04  0.25500000920E-02 0. -1.
    10030    2    1    2    0    0  0.00000000000E+00  0.00000000000E+00 -0.45715875602E+03  0.24933251129E+04  0.24510560970E+04 0.  0.
        5    1    3    3  502    0  0.72666845651E+03 -0.10995833382E+03  0.76902603248E+03  0.10637485650E+04  0.46999998093E+01 0.  1.
       -5    1    3    3    0  502 -0.72666845651E+03  0.10995833382E+03 -0.12261847885E+04  0.14295765479E+04  0.46999998093E+01 0. -1.
</event>
<event>
 5   0  0.2063930E-05  0.1893098E+04  0.7818609E-02  0.8658299E-01
        1   -1    0    0  501    0  0.00000000000E+00  0.00000000000E+00  0.83293180425E+03  0.83293180426E+03  0.50400001928E-02 0. -1.
       -1   -1    0    0    0  501  0.00000000000E+00  0.00000000000E+00 -0.10756645831E+04  0.10756645831E+04  0.50400001928E-02 0.  1.
    10030    2    1    2    0    0  0.00000000000E+00  0.00000000000E+00 -0.24273277881E+03  0.19085963873E+04  0.18930982457E+04 0.  0.
        3    1    3    3  502    0 -0.13811824722E+02  0.65681426485E+03 -0.80838437336E+03  0.10416722375E+04  0.10100000352E+00 0.  1.
       -3    1    3    3    0  502  0.13811824722E+02 -0.65681426485E+03  0.56565159455E+03  0.86692414987E+03  0.10100000352E+00 0. -1.
</event>
<event>
 5   0  0.4995256E-05  0.2493272E+04  0.7818609E-02  0.8405386E-01
       -2   -1    0    0    0  501  0.00000000000E+00  0.00000000000E+00  0.12792162036E+04  0.12792162036E+04  0.25500000920E-02 0.  1.
        2   -1    0    0  501    0  0.00000000000E+00  0.00000000000E+00 -0.12148854856E+04  0.12148854856E+04  0.25500000920E-02 0. -1.
    10030    2    1    2    0    0  0.00000000000E+00  0.00000000000E+00  0.64330718018E+02  0.24941016892E+04  0.24932719055E+04 0.  0.
        2    1    3    3  502    0 -0.67577064668E+03  0.74102114747E+03 -0.70856936089E+03  0.12279449691E+04  0.25500000920E-02 0. -1.
       -2    1    3    3    0  502  0.67577064668E+03 -0.74102114747E+03  0.77290007891E+03  0.12661567201E+04  0.25500000920E-02 0.  1.
</event>
<event>
 5   0  0.4995256E-05  0.2502105E+04  0.7818609E-02  0.8402236E-01
        2   -1    0    0  501    0  0.00000000000E+00  0.00000000000E+00  0.29418838176E+04  0.29418838176E+04  0.25500000920E-02 0.  1.
       -2   -1    0    0    0  501  0.00000000000E+00  0.00000000000E+00 -0.53201711281E+03  0.53201711282E+03  0.25500000920E-02 0. -1.
    10030    2    1    2    0    0  0.00000000000E+00  0.00000000000E+00  0.24098667048E+04  0.34739009304E+04  0.25021051416E+04 0.  0.
        2    1    3    3  502    0  0.57111135210E+03 -0.51640035538E+02 -0.33880394895E+03  0.66605028759E+03  0.25500000920E-02 0. -1.
       -2    1    3    3    0  502 -0.57111135210E+03  0.51640035538E+02  0.27486706537E+04  0.28078506428E+04  0.25500000920E-02 0.  1.
</event>
<event>
 5   0  0.2081874E-05  0.1561392E+04  0.7818609E-02  0.8844624E-01
        1   -1    0    0  501    0  0.00000000000E+00  0.00000000000E+00  0.48451149595E+03  0.48451149598E+03  0.50400001928E-02 0.  1.
       -1   -1    0    0    0  501  0.00000000000E+00  0.00000000000E+00 -0.12579403633E+04  0.12579403633E+04  0.50400001928E-02 0. -1.
    10030    2    1    2    0    0  0.00000000000E+00  0.00000000000E+00 -0.77342886736E+03  0.17424518593E+04  0.15613924136E+04 0.  0.
        1    1    3    3  502    0 -0.43362160272E+03 -0.22867637136E+03 -0.10647610693E+04  0.11721931206E+04  0.50400001928E-02 0. -1.
       -1    1    3    3    0  502  0.43362160272E+03  0.22867637136E+03  0.29133220196E+03  0.57025873872E+03  0.50400001928E-02 0.  1.
</event>
<event>
 5   0  0.4959347E-05  0.2557559E+04  0.7818609E-02  0.8382762E-01
       -2   -1    0    0    0  501  0.00000000000E+00  0.00000000000E+00  0.17267699114E+04  0.17267699114E+04  0.25500000920E-02 0. -1.
        2   -1    0    0  501    0  0.00000000000E+00  0.00000000000E+00 -0.94701485945E+03  0.94701485945E+03  0.25500000920E-02 0.  1.
    10030    2    1    2    0    0  0.00000000000E+00  0.00000000000E+00  0.77975505195E+03  0.26737847708E+04  0.25575588087E+04 0.  0.
        3    1    3    3  502    0 -0.12049945967E+03 -0.80454279617E+03  0.14213592808E+04  0.16377031007E+04  0.10100000352E+00 0. -1.
       -3    1    3    3    0  502  0.12049945967E+03  0.80454279617E+03 -0.64160422883E+03  0.10360816702E+04  0.10100000352E+00 0.  1.
</event>
<event>
 5   0  0.4995256E-05  0.1824435E+04  0.7818609E-02  0.8693412E-01
        2   -1    0    0  501    0  0.00000000000E+00  0.00000000000E+00  0.18243973833E+04  0.18243973833E+04  0.25500000920E-02 0. -1.
       -2   -1    0    0    0  501  0.00000000000E+00  0.00000000000E+00 -0.45611790608E+03  0.45611790609E+03  0.25500000920E-02 0.  1.
    10030    2    1    2    0    0  0.00000000000E+00  0.00000000000E+00  0.13682794772E+04  0.22805152894E+04  0.18244345034E+04 0.  0.
        2    1    3    3  502    0 -0.34141074427E+03 -0.64565751563E+03  0.13673057342E+04  0.15501483460E+04  0.25500000920E-02 0. -1.
       -2    1    3    3    0  502  0.34141074427E+03  0.64565751563E+03  0.97374299433E+00  0.73036694337E+03  0.25500000920E-02 0.  1.
</event>
<event>
 5   0  0.2063930E-05  0.2565844E+04  0.7818609E-02  0.8379897E-01
        1   -1    0    0  501    0  0.00000000000E+00  0.00000000000E+00  0.13281031065E+04  0.13281031065E+04  0.50400001928E-02 0.  1.
       -1   -1    0    0    0  501  0.00000000000E+00  0.00000000000E+00 -0.12392779598E+04  0.12392779598E+04  0.50400001928E-02 0. -1.
    10030    2    1    2    0    0  0.00000000000E+00  0.00000000000E+00  0.88825146711E+02  0.25673810663E+04  0.25658440391E+04 0.  0.
        3    1    3    3  502    0  0.11644526270E+04 -0.11328925970E+02 -0.49425053995E+03  0.12650540983E+04  0.10100000352E+00 0. -1.
       -3    1    3    3    0  502 -0.11644526270E+04  0.11328925970E+02  0.58307568666E+03  0.13023269681E+04  0.10100000352E+00 0.  1.
</event>
<event>
 5   0  0.2063930E-05  0.2310903E+04  0.7818609E-02  0.8473635E-01
       -1   -1    0    0    0  501  0.00000000000E+00  0.00000000000E+00  0.73614924271E+03  0.73614924273E+03  0.50400001928E-02 0.  1.
        1   -1    0    0  501    0  0.00000000000E+00  0.00000000000E+00 -0.18135830267E+04  0.18135830267E+04  0.50400001928E-02 0. -1.
    10030    2    1    2    0    0  0.00000000000E+00  0.00000000000E+00 -0.10774337840E+04  0.25497322694E+04  0.23109026563E+04 0.  0.
        3    1    3    3  502    0  0.55592669016E+03  0.87390733201E+03 -0.11037988671E+04  0.15136513664E+04  0.10100000352E+00 0. -1.
       -3    1    3    3    0  502 -0.55592669016E+03 -0.87390733201E+03  0.26365083155E+02  0.10360809030E+04  0.10100000352E+00 0.  1.
</event>
<event>
 5   0  0.2041718E-05  0.2453366E+04  0.7818609E-02  0.8419790E-01
       -1   -1    0    0    0  501  0.00000000000E+00  0.00000000000E+00  0.83379460424E+03  0.83379460426E+03  0.50400001928E-02 0. -1.
        1   -1    0    0  501    0  0.00000000000E+00  0.00000000000E+00 -0.18047026125E+04  0.18047026125E+04  0.50400001928E-02 0.  1.
    10030    2    1    2    0    0  0.00000000000E+00  0.00000000000E+00 -0.97090800823E+03  0.26384972167E+04  0.24533660963E+04 0.  0.
        4    1    3    3  502    0 -0.10284319695E+04  0.56719905918E+03 -0.86623763870E+03  0.14593684758E+04  0.12699999809E+01 0.  1.
       -4    1    3    3    0  502  0.10284319695E+04 -0.56719905918E+03 -0.10467036952E+03  0.11791287409E+04  0.12699999809E+01 0. -1.
</event>
<event>
 5   0  0.4959347E-05  0.2516785E+04  0.7818609E-02  0.8397030E-01
        2   -1    0    0  501    0  0.00000000000E+00  0.00000000000E+00  0.16515295807E+04  0.16515295807E+04  0.25500000920E-02 0.  1.
       -2   -1    0    0    0  501  0.00000000000E+00  0.00000000000E+00 -0.95883959661E+03  0.95883959661E+03  0.25500000920E-02 0. -1.
    10030    2    1    2    0    0  0.00000000000E+00  0.00000000000E+00  0.69268998409E+03  0.26103691773E+04  0.25167852169E+04 0.  0.
        3    1    3    3  502    0  0.93900904429E+03  0.31558189770E+02 -0.52193224461E+03  0.10747777364E+04  0.10100000352E+00 0. -1.
       -3    1    3    3    0  502 -0.93900904429E+03 -0.31558189770E+02  0.12146222287E+04  0.15355914409E+04  0.10100000352E+00 0.  1.
</event>
<event>
 5   0  0.4995256E-05  0.2485985E+04  0.7818609E-02  0.8407995E-01
       -2   -1    0    0    0  501  0.00000000000E+00  0.00000000000E+00  0.64574400641E+03  0.64574400642E+03  0.25500000920E-02 0. -1.
        2   -1    0    0  501    0  0.00000000000E+00  0.00000000000E+00 -0.23926362578E+04  0.23926362578E+04  0.25500000920E-02 0.  1.
    10030    2    1    2    0    0  0.00000000000E+00  0.00000000000E+00 -0.17468922513E+04  0.30383802642E+04  0.24859851351E+04 0.  0.
        2    1    3    3  502    0 -0.22061742068E+03  0.80555418390E+03 -0.19985647606E+04  0.21660680257E+04  0.25500000920E-02 0.  1.
       -2    1    3    3    0  502  0.22061742068E+03 -0.80555418390E+03  0.25167250927E+03  0.87231223850E+03  0.25500000920E-02 0. -1.
</event>
<event>
 5   0  0.4959042E-05  0.2454627E+04  0.7818609E-02  0.8419330E-01
        2   -1    0    0  501    0  0.00000000000E+00  0.00000000000E+00  0.12080146032E+04  0.12080146033E+04  0.25500000920E-02 0.  1.
       -2   -1    0    0    0  501  0.00000000000E+00  0.00000000000E+00 -0.12469208764E+04  0.12469208764E+04  0.25500000920E-02 0. -1.
    10030    2    1    2    0    0  0.00000000000E+00  0.00000000000E+00 -0.38906273167E+02  0.24549354797E+04  0.24546271634E+04 0.  0.
        4    1    3    3  502    0 -0.10286180878E+02  0.10269369433E+04 -0.69154329161E+03  0.12381191494E+04  0.12699999809E+01 0. -1.
       -4    1    3    3    0  502  0.10286180878E+02 -0.10269369433E+04  0.65263701844E+03  0.12168163303E+04  0.12699999809E+01 0.  1.
</event>
<event>
 5   0  0.2036578E-05  0.2485000E+04  0.7818609E-02  0.8408349E-01
       -1   -1    0    0    0  501  0.00000000000E+00  0.00000000000E+00  0.11479113054E+04  0.11479113054E+04  0.50400001928E-02 0. -1.
        1   -1    0    0  501    0  0.00000000000E+00  0.00000000000E+00 -0.13448830082E+04  0.13448830082E+04  0.50400001928E-02 0.  1.
    10030    2    1    2    0    0  0.00000000000E+00  0.00000000000E+00 -0.19697170275E+03  0.24927943136E+04  0.24850001284E+04 0.  0.
        2    1    3    3  502    0 -0.82576605291E+03 -0.63386547139E+03  0.58197158585E+03  0.11926298406E+04  0.25500000920E-02 0. -1.
       -2    1    3    3    0  502  0.82576605291E+03  0.63386547139E+03 -0.77894328860E+03  0.13001644730E+04  0.25500000920E-02 0.  1.
</event>
<event>
 5   0  0.4959347E-05  0.3114543E+04  0.7818609E-02  0.8211758E-01
        2   -1    0    0  501    0  0.00000000000E+00  0.00000000000E+00  0.14085291040E+04  0.14085291040E+04  0.25500000920E-02 0.  1.
       -2   -1    0    0    0  501  0.00000000000E+00  0.00000000000E+00 -0.17217216664E+04  0.17217216664E+04  0.25500000920E-02 0. -1.
    10030    2    1    2    0    0  0.00000000000E+00  0.00000000000E+00 -0.31319256240E+03  0.31302507704E+04  0.31145433541E+04 0.  0.
        3    1    3    3  502    0 -0.39503997654E+03  0.34464462082E+03 -0.16303675781E+04  0.17125813696E+04  0.10100000352E+00 0. -1.
       -3    1    3    3    0  502  0.39503997654E+03 -0.34464462082E+03  0.13171750157E+04  0.14176694008E+04  0.10100000352E+00 0.  1.
</event>
<event>
 5   0  0.4995256E-05  0.2575115E+04  0.7818609E-02  0.8376704E-01
        2   -1    0    0  501    0  0.00000000000E+00  0.00000000000E+00  0.24426170108E+04  0.24426170108E+04  0.25500000920E-02 0. -1.
       -2   -1    0    0    0  501  0.00000000000E+00  0.00000000000E+00 -0.67870001147E+03  0.67870001147E+03  0.25500000920E-02 0.  1.
    10030    2    1    2    0    0  0.00000000000E+00  0.00000000000E+00  0.17639169993E+04  0.31213170222E+04  0.25751149048E+04 0.  0.
        2    1    3    3  502    0 -0.24535046364E+03 -0.95491065443E+03  0.18857074906E+04  0.21278966018E+04  0.25500000920E-02 0. -1.
       -2    1    3    3    0  502  0.24535046364E+03  0.95491065443E+03 -0.12179049128E+03  0.99342042043E+03  0.25500000920E-02 0.  1.
</event>
<event>
 5   0  0.2081874E-05  0.2545036E+04  0.7818609E-02  0.8387115E-01
       -1   -1    0    0    0  501  0.00000000000E+00  0.00000000000E+00  0.67863478959E+03  0.67863478961E+03  0.50400001928E-02 0. -1.
        1   -1    0    0  501    0  0.00000000000E+00  0.00000000000E+00 -0.23861175200E+04  0.23861175201E+04  0.50400001928E-02 0.  1.
    10030    2    1    2    0    0  0.00000000000E+00  0.00000000000E+00 -0.17074827305E+04  0.30647523097E+04  0.25450362364E+04 0.  0.
        1    1    3    3  502    0  0.14685526333E+03 -0.71058235208E+03 -0.21125898617E+04  0.22337255139E+04  0.50400001928E-02 0.  1.
       -1    1    3    3    0  502 -0.14685526333E+03  0.71058235208E+03  0.40510713128E+03  0.83102679577E+03  0.50400001928E-02 0. -1.
</event>
<event>
 5   0  0.2066170E-05  0.2299028E+04  0.7818609E-02  0.8478305E-01
       -1   -1    0    0    0  501  0.00000000000E+00  0.00000000000E+00  0.74809170939E+03  0.74809170940E+03  0.50400001928E-02 0. -1.
        1   -1    0    0  501    0  0.00000000000E+00  0.00000000000E+00 -0.17663369791E+04  0.17663369791E+04  0.50400001928E-02 0.  1.
    10030    2    1    2    0    0  0.00000000000E+00  0.00000000000E+00 -0.10182452697E+04  0.25144286885E+04  0.22990276641E+04 0.  0.
        5    1    3    3  502    0  0.17154540978E+03 -0.18992819214E+03 -0.17347702902E+04  0.17535537048E+04  0.46999998093E+01 0.  1.
       -5    1    3    3    0  502 -0.17154540978E+03  0.18992819214E+03  0.71652502052E+03  0.76087498370E+03  0.46999998093E+01 0. -1.
</event>
<event>
 5   0  0.2041718E-05  0.2255348E+04  0.7818609E-02  0.8495738E-01
        1   -1    0    0  501    0  0.00000000000E+00  0.00000000000E+00  0.13097301304E+04  0.13097301304E+04  0.50400001928E-02 0. -1.
       -1   -1    0    0    0  501  0.00000000000E+00  0.00000000000E+00 -0.97092411441E+03  0.97092411442E+03  0.50400001928E-02 0.  1.
    10030    2    1    2    0    0  0.00000000000E+00  0.00000000000E+00  0.33880601599E+03  0.22806542448E+04  0.22553479261E+04 0.  0.
        4    1    3    3  502    0  0.88485187035E+02 -0.75165313140E+03 -0.67594044299E+03  0.10147458567E+04  0.12699999809E+01 0.  1.
       -4    1    3    3    0  502 -0.88485187035E+02  0.75165313140E+03  0.10147464590E+04  0.12659083881E+04  0.12699999809E+01 0. -1.
</event>
<event>
 5   0  0.2063930E-05  0.1608926E+04  0.7818609E-02  0.8815083E-01
       -1   -1    0    0    0  501  0.00000000000E+00  0.00000000000E+00  0.87868099539E+03  0.87868099540E+03  0.50400001928E-02 0. -1.
        1   -1    0    0  501    0  0.00000000000E+00  0.00000000000E+00 -0.73651347042E+03  0.73651347044E+03  0.50400001928E-02 0.  1.
    10030    2    1    2    0    0  0.00000000000E+00  0.00000000000E+00  0.14216752497E+03  0.16151944658E+04  0.16089255910E+04 0.  0.
        3    1    3    3  502    0  0.70944360326E+03  0.39400250882E+02 -0.30760978939E+03  0.77426507006E+03  0.10100000352E+00 0.  1.
       -3    1    3    3    0  502 -0.70944360326E+03 -0.39400250882E+02  0.44977731436E+03  0.84092939579E+03  0.10100000352E+00 0. -1.
</event>
<event>
 5   0  0.4959347E-05  0.2462082E+04  0.7818609E-02  0.8416620E-01
        2   -1    0    0  501    0  0.00000000000E+00  0.00000000000E+00  0.30192314590E+04  0.30192314590E+04  0.25500000920E-02 0. -1.
       -2   -1    0    0    0  501  0.00000000000E+00  0.00000000000E+00 -0.50193643119E+03  0.50193643120E+03  0.25500000920E-02 0.  1.
    10030    2    1    2    0    0  0.00000000000E+00  0.00000000000E+00  0.25172950278E+04  0.35211678902E+04  0.24620822598E+04 0.  0.
        3    1    3    3  502    0 -0.10754881308E+04  0.24489418955E+03  0.47686687054E+03  0.12016862760E+04  0.10100000352E+00 0.  1.
       -3    1    3    3    0  502  0.10754881308E+04 -0.24489418955E+03  0.20404281573E+04  0.23194816142E+04  0.10100000352E+00 0. -1.
</event>
<event>
 5   0  0.2041718E-05  0.2457588E+04  0.7818609E-02  0.8418253E-01
       -1   -1    0    0    0  501  0.00000000000E+00  0.00000000000E+00  0.67018264362E+03  0.67018264364E+03  0.50400001928E-02 0.  1.
        1   -1    0    0  501    0  0.00000000000E+00  0.00000000000E+00 -0.22530198549E+04  0.22530198549E+04  0.50400001928E-02 0. -1.
    10030    2    1    2    0    0  0.00000000000E+00  0.00000000000E+00 -0.15828372113E+04  0.29232024986E+04  0.24575880880E+04 0.  0.
        4    1    3    3  502    0  0.91856849161E+03 -0.30029659559E+03 -0.16941450717E+04  0.19504038700E+04  0.12699999809E+01 0. -1.
       -4    1    3    3    0  502 -0.91856849161E+03  0.30029659559E+03  0.11130786041E+03  0.97279862859E+03  0.12699999809E+01 0.  1.
</event>
<event>
 5   0  0.5219468E-05  0.2491128E+04  0.7818609E-02  0.8406153E-01
       -2   -1    0    0    0  501  0.00000000000E+00  0.00000000000E+00  0.76870505453E+03  0.76870505453E+03  0.25500000920E-02 0.  1.
        2   -1    0    0  501    0  0.00000000000E+00  0.00000000000E+00 -0.20182373961E+04  0.20182373961E+04  0.25500000920E-02 0. -1.
    10030    2    1    2    0    0  0.00000000000E+00  0.00000000000E+00 -0.12495323416E+04  0.27869424506E+04  0.24911276865E+04 0.  0.
        1    1    3    3  502    0 -0.10567193779E+04  0.50574864246E+02  0.11073309716E+03  0.10637083620E+04  0.50400001928E-02 0.  1.
       -1    1    3    3    0  502  0.10567193779E+04 -0.50574864246E+02 -0.13602654387E+04  0.17232340887E+04  0.50400001928E-02 0. -1.
</event>
<event>
 5   0  0.2036578E-05  0.2497658E+04  0.7818609E-02  0.8403820E-01
        1   -1    0    0  501    0  0.00000000000E+00  0.00000000000E+00  0.23695477728E+04  0.23695477728E+04  0.50400001928E-02 0. -1.
       -1   -1    0    0    0  501  0.00000000000E+00  0.00000000000E+00 -0.65817379509E+03  0.65817379511E+03  0.50400001928E-02 0.  1.
    10030    2    1    2    0    0  0.00000000000E+00  0.00000000000E+00  0.17113739777E+04  0.30277215679E+04  0.24976583036E+04 0.  0.
        2    1    3    3  502    0  0.83788775666E+03 -0.67536126641E+03  0.16237106142E+04  0.19479745614E+04  0.25500000920E-02 0. -1.
       -2    1    3    3    0  502 -0.83788775666E+03  0.67536126641E+03  0.87663363508E+02  0.10797470066E+04  0.25500000920E-02 0.  1.
</event>
<event>
 5   0  0.2063930E-05  0.2505051E+04  0.7818609E-02  0.8401188E-01
       -1   -1    0    0    0  501  0.00000000000E+00  0.00000000000E+00  0.75573135742E+03  0.75573135744E+03  0.50400001928E-02 0.  1.
        1   -1    0    0  501    0  0.00000000000E+00  0.00000000000E+00 -0.20758961884E+04  0.20758961884E+04  0.50400001928E-02 0. -1.
    10030    2    1    2    0    0  0.00000000000E+00  0.00000000000E+00 -0.13201648310E+04  0.28316275459E+04  0.25050507734E+04 0.  0.
        3    1    3    3  502    0 -0.78330447650E+03 -0.94148448078E+03 -0.95670618851E+03  0.15541060684E+04  0.10100000352E+00 0. -1.
       -3    1    3    3    0  502  0.78330447650E+03  0.94148448078E+03 -0.36345864250E+03  0.12775214775E+04  0.10100000352E+00 0.  1.
</event>
<event>
 5   0  0.5219468E-05  0.2518913E+04  0.7818609E-02  0.8396279E-01
       -2   -1    0    0    0  501  0.00000000000E+00  0.00000000000E+00  0.74166807565E+03  0.74166807566E+03  0.25500000920E-02 0.  1.
        2   -1    0    0  501    0  0.00000000000E+00  0.00000000000E+00 -0.21387332396E+04  0.21387332396E+04  0.25500000920E-02 0. -1.
    10030    2    1    2    0    0  0.00000000000E+00  0.00000000000E+00 -0.13970651639E+04  0.28804013152E+04  0.25189125956E+04 0.  0.
        1    1    3    3  502    0  0.27488361329E+03  0.58954008094E+03  0.53471594924E+03  0.84204492415E+03  0.50400001928E-02 0.  1.
       -1    1    3    3    0  502 -0.27488361329E+03 -0.58954008094E+03 -0.19317811131E+04  0.20383563911E+04  0.50400001928E-02 0. -1.
</event>
<event>
 5   0  0.2041718E-05  0.2488351E+04  0.7818609E-02  0.8407147E-01
        1   -1    0    0  501    0  0.00000000000E+00  0.00000000000E+00  0.22774611790E+04  0.22774611790E+04  0.50400001928E-02 0.  1.
       -1   -1    0    0    0  501  0.00000000000E+00  0.00000000000E+00 -0.67969237645E+03  0.67969237647E+03  0.50400001928E-02 0. -1.
    10030    2    1    2    0    0  0.00000000000E+00  0.00000000000E+00  0.15977688026E+04  0.29571535555E+04  0.24883512622E+04 0.  0.
        4    1    3    3  502    0  0.51773593471E+03 -0.98962587991E+03  0.14736272319E+03  0.11265554870E+04  0.12699999809E+01 0. -1.
       -4    1    3    3    0  502 -0.51773593471E+03  0.98962587991E+03  0.14504060794E+04  0.18305980685E+04  0.12699999809E+01 0.  1.
</event>
<event>
 5   0  0.4995256E-05  0.2322458E+04  0.7818609E-02  0.8469119E-01
       -2   -1    0    0    0  501  0.00000000000E+00  0.00000000000E+00  0.64439142248E+03  0.64439142248E+03  0.25500000920E-02 0. -1.
        2   -1    0    0  501    0  0.00000000000E+00  0.00000000000E+00 -0.20925989635E+04  0.20925989635E+04  0.25500000920E-02 0.  1.
    10030    2    1    2    0    0  0.00000000000E+00  0.00000000000E+00 -0.14482075411E+04  0.27369903860E+04  0.23224580279E+04 0.  0.
        2    1    3    3  502    0 -0.36745824673E+03 -0.74510005035E+03 -0.16802446331E+04  0.18744123546E+04  0.25500000920E-02 0.  1.
       -2    1    3    3    0  502  0.36745824673E+03  0.74510005035E+03  0.23203709206E+03  0.86257803138E+03  0.25500000920E-02 0. -1.
</event>
<event>
 5   0  0.2066170E-05  0.2539897E+04  0.7818609E-02  0.8388908E-01
        1   -1    0    0  501    0  0.00000000000E+00  0.00000000000E+00  0.12179870633E+04  0.12179870633E+04  0.50400001928E-02 0.  1.
       -1   -1    0    0    0  501  0.00000000000E+00  0.00000000000E+00 -0.13241265601E+04  0.13241265601E+04  0.50400001928E-02 0. -1.
    10030    2    1    2    0    0  0.00000000000E+00  0.00000000000E+00 -0.10613949680E+03  0.25421136234E+04  0.25398968643E+04 0.  0.
        5    1    3    3  502    0  0.11271003490E+04 -0.20104763846E+03 -0.60306876415E+03  0.12940206235E+04  0.46999998093E+01 0. -1.
       -5    1    3    3    0  502 -0.11271003490E+04  0.20104763846E+03  0.49692926735E+03  0.12480929999E+04  0.46999998093E+01 0.  1.
</event>
<event>
 5   0  0.4959347E-05  0.2173458E+04  0.7818609E-02  0.8529557E-01
        2   -1    0    0  501    0  0.00000000000E+00  0.00000000000E+00  0.23552535401E+04  0.23552535401E+04  0.25500000920E-02 0. -1.
       -2   -1    0    0    0  501  0.00000000000E+00  0.00000000000E+00 -0.50142367031E+03  0.50142367032E+03  0.25500000920E-02 0.  1.
    10030    2    1    2    0    0  0.00000000000E+00  0.00000000000E+00  0.18538298698E+04  0.28566772105E+04  0.21734579588E+04 0.  0.
        3    1    3    3  502    0 -0.88579148717E+03  0.49466446419E+03  0.14387687997E+04  0.17605042346E+04  0.10100000352E+00 0. -1.
       -3    1    3    3    0  502  0.88579148717E+03 -0.49466446419E+03  0.41506107017E+03  0.10961729759E+04  0.10100000352E+00 0.  1.
</event>
<event>
 5   0  0.2036578E-05  0.2965764E+04  0.7818609E-02  0.8253575E-01
       -1   -1    0    0    0  501  0.00000000000E+00  0.00000000000E+00  0.11737303018E+04  0.11737303018E+04  0.50400001928E-02 0.  1.
        1   -1    0    0  501    0  0.00000000000E+00  0.00000000000E+00 -0.18734623757E+04  0.18734623757E+04  0.50400001928E-02 0. -1.
    10030    2    1    2    0    0  0.00000000000E+00  0.00000000000E+00 -0.69973207388E+03  0.30471926776E+04  0.29657643600E+04 0.  0.
        2    1    3    3  502    0 -0.13963106093E+04 -0.31591857795E+03  0.47338038315E+02  0.14323856866E+04  0.25500000920E-02 0.  1.
       -2    1    3    3    0  502  0.13963106093E+04  0.31591857795E+03 -0.74707011220E+03  0.16148069909E+04  0.25500000920E-02 0. -1.
</event>
<event>
 5   0  0.4995256E-05  0.2543097E+04  0.7818609E-02  0.8387791E-01
       -2   -1    0    0    0  501  0.00000000000E+00  0.00000000000E+00  0.75925522165E+03  0.75925522165E+03  0.25500000920E-02 0.  1.
        2   -1    0    0  501    0  0.00000000000E+00  0.00000000000E+00 -0.21295016294E+04  0.21295016294E+04  0.25500000920E-02 0. -1.
    10030    2    1    2    0    0  0.00000000000E+00  0.00000000000E+00 -0.13702464077E+04  0.28887568510E+04  0.25430967198E+04 0.  0.
        2    1    3    3  502    0 -0.86680187064E+02  0.40165040421E+03  0.68176249964E+03  0.79601294459E+03  0.25500000920E-02 0.  1.
       -2    1    3    3    0  502  0.86680187064E+02 -0.40165040421E+03 -0.20520089074E+04  0.20927439064E+04  0.25500000920E-02 0. -1.
</event>
<event>
 5   0  0.5219468E-05  0.2498061E+04  0.7818609E-02  0.8403677E-01
       -2   -1    0    0    0  501  0.00000000000E+00  0.00000000000E+00  0.10464156782E+04  0.10464156782E+04  0.25500000920E-02 0. -1.
        2   -1    0    0  501    0  0.00000000000E+00  0.00000000000E+00 -0.14908774609E+04  0.14908774609E+04  0.25500000920E-02 0.  1.
    10030    2    1    2    0    0  0.00000000000E+00  0.00000000000E+00 -0.44446178264E+03  0.25372931391E+04  0.24980612878E+04 0.  0.
        1    1    3    3  502    0 -0.16038481302E+03 -0.21537674904E+03 -0.14612106827E+04  0.14856806829E+04  0.50400001928E-02 0.  1.
       -1    1    3    3    0  502  0.16038481302E+03  0.21537674904E+03  0.10167489001E+04  0.10516124562E+04  0.50400001928E-02 0. -1.
</event>
<event>
 5   0  0.2063930E-05  0.2487987E+04  0.7818609E-02  0.8407278E-01
        1   -1    0    0  501    0  0.00000000000E+00  0.00000000000E+00  0.10403831165E+04  0.10403831165E+04  0.50400001928E-02 0. -1.
       -1   -1    0    0    0  501  0.00000000000E+00  0.00000000000E+00 -0.14874519912E+04  0.14874519912E+04  0.50400001928E-02 0.  1.
    10030    2    1    2    0    0  0.00000000000E+00  0.00000000000E+00 -0.44706887465E+03  0.25278351077E+04  0.24879870886E+04 0.  0.
        3    1    3    3  502    0 -0.90243183315E+03 -0.80713708879E+03  0.66815954472E+02  0.12125666479E+04  0.10100000352E+00 0. -1.
       -3    1    3    3    0  502  0.90243183315E+03  0.80713708879E+03 -0.51388482912E+03  0.13152684598E+04  0.10100000352E+00 0.  1.
</event>
<event>
 5   0  0.2041718E-05  0.2550158E+04  0.7818609E-02  0.8385331E-01
        1   -1    0    0  501    0  0.00000000000E+00  0.00000000000E+00  0.24220781366E+04  0.24220781366E+04  0.50400001928E-02 0.  1.
       -1   -1    0    0    0  501  0.00000000000E+00  0.00000000000E+00 -0.67125272470E+03  0.67125272472E+03  0.50400001928E-02 0. -1.
    10030    2    1    2    0    0  0.00000000000E+00  0.00000000000E+00  0.17508254119E+04  0.30933308613E+04  0.25501580725E+04 0.  0.
        4    1    3    3  502    0  0.10882285275E+04  0.49310616538E+03  0.33507801797E+03  0.12408359720E+04  0.12699999809E+01 0. -1.
       -4    1    3    3    0  502 -0.10882285275E+04 -0.49310616538E+03  0.14157473939E+04  0.18524948893E+04  0.12699999809E+01 0.  1.
</event>
<event>
 5   0  0.4995256E-05  0.2555617E+04  0.7818609E-02  0.8383435E-01
        2   -1    0    0  501    0  0.00000000000E+00  0.00000000000E+00  0.20229044828E+04  0.20229044828E+04  0.25500000920E-02 0. -1.
       -2   -1    0    0    0  501  0.00000000000E+00  0.00000000000E+00 -0.80715362101E+03  0.80715362102E+03  0.25500000920E-02 0.  1.
    10030    2    1    2    0    0  0.00000000000E+00  0.00000000000E+00  0.12157508618E+04  0.28300581038E+04  0.25556170904E+04 0.  0.
        2    1    3    3  502    0  0.10749423297E+04  0.41405586574E+03  0.12203031077E+04  0.16781188714E+04  0.25500000920E-02 0.  1.
       -2    1    3    3    0  502 -0.10749423297E+04 -0.41405586574E+03 -0.45522459028E+01  0.11519392324E+04  0.25500000920E-02 0. -1.
</event>
<event>
 5   0  0.4959042E-05  0.2463721E+04  0.7818609E-02  0.8416025E-01
        2   -1    0    0  501    0  0.00000000000E+00  0.00000000000E+00  0.20848623888E+04  0.20848623888E+04  0.25500000920E-02 0.  1.
       -2   -1    0    0    0  501  0.00000000000E+00  0.00000000000E+00 -0.72785616171E+03  0.72785616171E+03  0.25500000920E-02 0. -1.
    10030    2    1    2    0    0  0.00000000000E+00  0.00000000000E+00  0.13570062271E+04  0.28127185505E+04  0.24637207115E+04 0.  0.
        4    1    3    3  502    0  0.26502467219E+03  0.11555796073E+04  0.29664387509E+03  0.12221299060E+04  0.12699999809E+01 0. -1.
       -4    1    3    3    0  502 -0.26502467219E+03 -0.11555796073E+04  0.10603623520E+04  0.15905886445E+04  0.12699999809E+01 0.  1.
</event>
<event>
 5   0  0.4959347E-05  0.2820263E+04  0.7818609E-02  0.8297005E-01
        2   -1    0    0  501    0  0.00000000000E+00  0.00000000000E+00  0.16492895244E+04  0.16492895244E+04  0.25500000920E-02 0. -1.
       -2   -1    0    0    0  501  0.00000000000E+00  0.00000000000E+00 -0.12056531974E+04  0.12056531974E+04  0.25500000920E-02 0.  1.
    10030    2    1    2    0    0  0.00000000000E+00  0.00000000000E+00  0.44363632705E+03  0.28549427218E+04  0.28202632420E+04 0.  0.
        3    1    3    3  502    0  0.13956926901E+04  0.19157117159E+02  0.18989456317E+02  0.13959533266E+04  0.10100000352E+00 0. -1.
       -3    1    3    3    0  502 -0.13956926901E+04 -0.19157117159E+02  0.42464687074E+03  0.14589893952E+04  0.10100000352E+00 0.  1.
</event>
<event>
 5   0  0.5024070E-05  0.1603632E+04  0.7818609E-02  0.8818320E-01
       -2   -1    0    0    0  501  0.00000000000E+00  0.00000000000E+00  0.44597659654E+03  0.44597659655E+03  0.25500000920E-02 0.  1.
        2   -1    0    0  501    0  0.00000000000E+00  0.00000000000E+00 -0.14415750051E+04  0.14415750051E+04  0.25500000920E-02 0. -1.
    10030    2    1    2    0    0  0.00000000000E+00  0.00000000000E+00 -0.99559840857E+03  0.18875516017E+04  0.16036317713E+04 0.  0.
        5    1    3    3  502    0  0.18541580438E+03 -0.62782180588E+03 -0.10427449607E+04  0.12312101297E+04  0.46999998093E+01 0. -1.
       -5    1    3    3    0  502 -0.18541580438E+03  0.62782180588E+03  0.47146552109E+02  0.65634147197E+03  0.46999998093E+01 0.  1.
</event>
<event>
 5   0  0.2041718E-05  0.2424102E+04  0.7818609E-02  0.8430535E-01
       -1   -1    0    0    0  501  0.00000000000E+00  0.00000000000E+00  0.67305088596E+03  0.67305088598E+03  0.50400001928E-02 0. -1.
        1   -1    0    0  501    0  0.00000000000E+00  0.00000000000E+00 -0.21826987795E+04  0.21826987795E+04  0.50400001928E-02 0.  1.
    10030    2    1    2    0    0  0.00000000000E+00  0.00000000000E+00 -0.15096478935E+04  0.28557496655E+04  0.24241017696E+04 0.  0.
        4    1    3    3  502    0  0.13800854617E+03 -0.11894562799E+04 -0.97588977940E+03  0.15447378662E+04  0.12699999809E+01 0.  1.
       -4    1    3    3    0  502 -0.13800854617E+03  0.11894562799E+04 -0.53375811414E+03  0.13110117993E+04  0.12699999809E+01 0. -1.
</event>
<event>
 5   0  0.2066170E-05  0.2527561E+04  0.7818609E-02  0.8393232E-01
       -1   -1    0    0    0  501  0.00000000000E+00  0.00000000000E+00  0.64794730656E+03  0.64794730658E+03  0.50400001928E-02 0. -1.
        1   -1    0    0  501    0  0.00000000000E+00  0.00000000000E+00 -0.24649242978E+04  0.24649242978E+04  0.50400001928E-02 0.  1.
    10030    2    1    2    0    0  0.00000000000E+00  0.00000000000E+00 -0.18169769912E+04  0.31128716044E+04  0.25275609268E+04 0.  0.
        5    1    3    3  502    0  0.74998501154E+03  0.94525762792E+03 -0.13711553937E+04  0.18264935544E+04  0.46999998093E+01 0.  1.
       -5    1    3    3    0  502 -0.74998501154E+03 -0.94525762792E+03 -0.44582159759E+03  0.12863780500E+04  0.46999998093E+01 0. -1.
</event>
<event>
 5   0  0.2081874E-05  0.2547268E+04  0.7818609E-02  0.8386337E-01
        1   -1    0    0  501    0  0.00000000000E+00  0.00000000000E+00  0.58426066814E+03  0.58426066816E+03  0.50400001928E-02 0. -1.
       -1   -1    0    0    0  501  0.00000000000E+00  0.00000000000E+00 -0.27764034897E+04  0.27764034897E+04  0.50400001928E-02 0.  1.
    10030    2    1    2    0    0  0.00000000000E+00  0.00000000000E+00 -0.21921428215E+04  0.33606641578E+04  0.25472678367E+04 0.  0.
        1    1    3    3  502    0 -0.68420648421E+03 -0.63286788442E+03 -0.22412870127E+04  0.24273499429E+04  0.50400001928E-02 0.  1.
       -1    1    3    3    0  502  0.68420648421E+03  0.63286788442E+03  0.49144191172E+02  0.93331421489E+03  0.50400001928E-02 0. -1.
</event>
<event>
 5   0  0.4959042E-05  0.2598583E+04  0.7818609E-02  0.8368683E-01
       -2   -1    0    0    0  501  0.00000000000E+00  0.00000000000E+00  0.10750011085E+04  0.10750011085E+04  0.25500000920E-02 0. -1.
        2   -1    0    0  501    0  0.00000000000E+00  0.00000000000E+00 -0.15703783413E+04  0.15703783413E+04  0.25500000920E-02 0.  1.
    10030    2    1    2    0    0  0.00000000000E+00  0.00000000000E+00 -0.49537723278E+03  0.26453794498E+04  0.25985830429E+04 0.  0.
        4    1    3    3  502    0 -0.74266195909E+03 -0.77731767566E+03 -0.99047719102E+03  0.14617852897E+04  0.12699999809E+01 0.  1.
       -4    1    3    3    0  502  0.74266195909E+03  0.77731767566E+03  0.49509995824E+03  0.11835941601E+04  0.12699999809E+01 0. -1.
</event>
<event>
 5   0  0.4959042E-05  0.2360751E+04  0.7818609E-02  0.8454346E-01
       -2   -1    0    0    0  501  0.00000000000E+00  0.00000000000E+00  0.92066072283E+03  0.92066072283E+03  0.25500000920E-02 0. -1.
        2   -1    0    0  501    0  0.00000000000E+00  0.00000000000E+00 -0.15133551193E+04  0.15133551193E+04  0.25500000920E-02 0.  1.
    10030    2    1    2    0    0  0.00000000000E+00  0.00000000000E+00 -0.59269439644E+03  0.24340158421E+04  0.23607512516E+04 0.  0.
        4    1    3    3  502    0 -0.95360487320E+02 -0.83056647052E+03 -0.11554845825E+04  0.14262119470E+04  0.12699999809E+01 0.  1.
       -4    1    3    3    0  502  0.95360487320E+02  0.83056647052E+03  0.56279018607E+03  0.10078038951E+04  0.12699999809E+01 0. -1.
</event>
<event>
 5   0  0.1692125E-05  0.2498506E+04  0.7818609E-02  0.8403518E-01
       -3   -1    0    0    0  501  0.00000000000E+00  0.00000000000E+00  0.10076969594E+04  0.10076969645E+04  0.10100000352E+00 0. -1.
        3   -1    0    0  501    0  0.00000000000E+00  0.00000000000E+00 -0.15487121255E+04  0.15487121288E+04  0.10100000352E+00 0.  1.
    10030    2    1    2    0    0  0.00000000000E+00  0.00000000000E+00 -0.54101516609E+03  0.25564090933E+04  0.24985055618E+04 0.  0.
        1    1    3    3  502    0  0.55617604357E+03 -0.10075040030E+04  0.22679812486E+03  0.11729592904E+04  0.50400001928E-02 0. -1.
       -1    1    3    3    0  502 -0.55617604357E+03  0.10075040030E+04 -0.76781329095E+03  0.13834498029E+04  0.50400001928E-02 0.  1.
</event>
<event>
 5   0  0.4995256E-05  0.2504190E+04  0.7818609E-02  0.8401494E-01
       -2   -1    0    0    0  501  0.00000000000E+00  0.00000000000E+00  0.12186284217E+04  0.12186284217E+04  0.25500000920E-02 0.  1.
        2   -1    0    0  501    0  0.00000000000E+00  0.00000000000E+00 -0.12864805566E+04  0.12864805566E+04  0.25500000920E-02 0. -1.
    10030    2    1    2    0    0  0.00000000000E+00  0.00000000000E+00 -0.67852134925E+02  0.25051089783E+04  0.25041899052E+04 0.  0.
        2    1    3    3  502    0  0.78306876031E+03  0.36894278602E+03 -0.93892726409E+03  0.12770669011E+04  0.25500000920E-02 0. -1.
       -2    1    3    3    0  502 -0.78306876031E+03 -0.36894278602E+03  0.87107512917E+03  0.12280420772E+04  0.25500000920E-02 0.  1.
</event>
<event>
 5   0  0.2036578E-05  0.2496937E+04  0.7818609E-02  0.8404077E-01
       -1   -1    0    0    0  501  0.00000000000E+00  0.00000000000E+00  0.12031347377E+04  0.12031347377E+04  0.50400001928E-02 0.  1.
        1   -1    0    0  501    0  0.00000000000E+00  0.00000000000E+00 -0.12955109178E+04  0.12955109178E+04  0.50400001928E-02 0. -1.
    10030    2    1    2    0    0  0.00000000000E+00  0.00000000000E+00 -0.92376180119E+02  0.24986456555E+04  0.24969374748E+04 0.  0.
        2    1    3    3  502    0  0.62980488037E+03  0.44786272633E+03  0.93501264877E+03  0.12130473455E+04  0.25500000920E-02 0.  1.
       -2    1    3    3    0  502 -0.62980488037E+03 -0.44786272633E+03 -0.10273888289E+04  0.12855983100E+04  0.25500000920E-02 0. -1.
</event>
<event>
 5   0  0.2063930E-05  0.2534780E+04  0.7818609E-02  0.8390699E-01
       -1   -1    0    0    0  501  0.00000000000E+00  0.00000000000E+00  0.80892677275E+03  0.80892677276E+03  0.50400001928E-02 0.  1.
        1   -1    0    0  501    0  0.00000000000E+00  0.00000000000E+00 -0.19856891513E+04  0.19856891513E+04  0.50400001928E-02 0. -1.
    10030    2    1    2    0    0  0.00000000000E+00  0.00000000000E+00 -0.11767623786E+04  0.27946159241E+04  0.25347797671E+04 0.  0.
        3    1    3    3  502    0 -0.53288603896E+03 -0.50627949849E+03 -0.17266860604E+04  0.18766276196E+04  0.10100000352E+00 0. -1.
       -3    1    3    3    0  502  0.53288603896E+03  0.50627949849E+03  0.54992368187E+03  0.91798830450E+03  0.10100000352E+00 0.  1.
</event>
<event>
 5   0  0.5024070E-05  0.2544899E+04  0.7818609E-02  0.8387162E-01
        2   -1    0    0  501    0  0.00000000000E+00  0.00000000000E+00  0.24557178882E+04  0.24557178882E+04  0.25500000920E-02 0. -1.
       -2   -1    0    0    0  501  0.00000000000E+00  0.00000000000E+00 -0.65932988067E+03  0.65932988068E+03  0.25500000920E-02 0.  1.
    10030    2    1    2    0    0  0.00000000000E+00  0.00000000000E+00  0.17963880075E+04  0.31150477689E+04  0.25448993553E+04 0.  0.
        5    1    3    3  502    0 -0.19857541634E+03  0.25938421634E+03  0.24035060342E+04  0.24256083183E+04  0.46999998093E+01 0. -1.
       -5    1    3    3    0  502  0.19857541634E+03 -0.25938421634E+03 -0.60711802666E+03  0.68943945053E+03  0.46999998093E+01 0.  1.
</event>
<event>
 5   0  0.5219468E-05  0.2606385E+04  0.7818609E-02  0.8366036E-01
        2   -1    0    0  501    0  0.00000000000E+00  0.00000000000E+00  0.13173753384E+04  0.13173753384E+04  0.25500000920E-02 0.  1.
       -2   -1    0    0    0  501  0.00000000000E+00  0.00000000000E+00 -0.12891618910E+04  0.12891618910E+04  0.25500000920E-02 0. -1.
    10030    2    1    2    0    0  0.00000000000E+00  0.00000000000E+00  0.28213447434E+02  0.26065372294E+04  0.26063845322E+04 0.  0.
        1    1    3    3  502    0 -0.41024155693E+02 -0.12745171954E+04  0.28288448256E+03  0.13061778949E+04  0.50400001928E-02 0.  1.
       -1    1    3    3    0  502  0.41024155693E+02  0.12745171954E+04 -0.25467103513E+03  0.13003593345E+04  0.50400001928E-02 0. -1.
</event>
<event>
 5   0  0.2041718E-05  0.2809285E+04  0.7818609E-02  0.8300392E-01
        1   -1    0    0  501    0  0.00000000000E+00  0.00000000000E+00  0.16401254319E+04  0.16401254319E+04  0.50400001928E-02 0. -1.
       -1   -1    0    0    0  501  0.00000000000E+00  0.00000000000E+00 -0.12029692508E+04  0.12029692508E+04  0.50400001928E-02 0.  1.
    10030    2    1    2    0    0  0.00000000000E+00  0.00000000000E+00  0.43715618117E+03  0.28430946827E+04  0.28092849354E+04 0.  0.
        4    1    3    3  502    0  0.41587156288E+03  0.53177622458E+03  0.14651832918E+04  0.16132262089E+04  0.12699999809E+01 0. -1.
       -4    1    3    3    0  502 -0.41587156288E+03 -0.53177622458E+03 -0.10280271106E+04  0.12298684738E+04  0.12699999809E+01 0.  1.
</event>
<event>
 5   0  0.2041718E-05  0.2504489E+04  0.7818609E-02  0.8401388E-01
        1   -1    0    0  501    0  0.00000000000E+00  0.00000000000E+00  0.23905073846E+04  0.23905073846E+04  0.50400001928E-02 0.  1.
       -1   -1    0    0    0  501  0.00000000000E+00  0.00000000000E+00 -0.65597636192E+03  0.65597636194E+03  0.50400001928E-02 0. -1.
    10030    2    1    2    0    0  0.00000000000E+00  0.00000000000E+00  0.17345310227E+04  0.30464837466E+04  0.25044890396E+04 0.  0.
        4    1    3    3  502    0  0.51081214265E+03  0.40188147123E+03  0.21692650195E+04  0.22645419183E+04  0.12699999809E+01 0.  1.
       -4    1    3    3    0  502 -0.51081214265E+03 -0.40188147123E+03 -0.43473399677E+03  0.78194182830E+03  0.12699999809E+01 0. -1.
</event>
<event>
 5   0  0.2066170E-05  0.2397607E+04  0.7818609E-02  0.8440400E-01
        1   -1    0    0  501    0  0.00000000000E+00  0.00000000000E+00  0.15677367303E+04  0.15677367303E+04  0.50400001928E-02 0.  1.
       -1   -1    0    0    0  501  0.00000000000E+00  0.00000000000E+00 -0.91669111738E+03  0.91669111739E+03  0.50400001928E-02 0. -1.
    10030    2    1    2    0    0  0.00000000000E+00  0.00000000000E+00  0.65104561290E+03  0.24844278477E+04  0.23976074200E+04 0.  0.
        5    1    3    3  502    0 -0.52145959212E+03  0.59102885532E+03 -0.61044218193E+03  0.99694381061E+03  0.46999998093E+01 0. -1.
       -5    1    3    3    0  502  0.52145959212E+03 -0.59102885532E+03  0.12614877948E+04  0.14874840371E+04  0.46999998093E+01 0.  1.
</event>
<event>
 5   0  0.4959042E-05  0.2236310E+04  0.7818609E-02  0.8503465E-01
        2   -1    0    0  501    0  0.00000000000E+00  0.00000000000E+00  0.16244583482E+04  0.16244583482E+04  0.25500000920E-02 0.  1.
       -2   -1    0    0    0  501  0.00000000000E+00  0.00000000000E+00 -0.76965401107E+03  0.76965401107E+03  0.25500000920E-02 0. -1.
    10030    2    1    2    0    0  0.00000000000E+00  0.00000000000E+00  0.85480433712E+03  0.23941123593E+04  0.22363102499E+04 0.  0.
        4    1    3    3  502    0  0.56808778911E+03  0.50894810721E+02  0.14570123673E+04  0.15646727036E+04  0.12699999809E+01 0.  1.
       -4    1    3    3    0  502 -0.56808778911E+03 -0.50894810721E+02 -0.60220803020E+03  0.82943965569E+03  0.12699999809E+01 0. -1.
</event>
<event>
 5   0  0.2066170E-05  0.2424466E+04  0.7818609E-02  0.8430400E-01
        1   -1    0    0  501    0  0.00000000000E+00  0.00000000000E+00  0.10411849058E+04  0.10411849058E+04  0.50400001928E-02 0. -1.
       -1   -1    0    0    0  501  0.00000000000E+00  0.00000000000E+00 -0.14113814836E+04  0.14113814836E+04  0.50400001928E-02 0.  1.
    10030    2    1    2    0    0  0.00000000000E+00  0.00000000000E+00 -0.37019657778E+03  0.24525663895E+04  0.24244662069E+04 0.  0.
        5    1    3    3  502    0 -0.11363304479E+04 -0.27883745077E+03 -0.50577367062E+03  0.12746867484E+04  0.46999998093E+01 0.  1.
       -5    1    3    3    0  502  0.11363304479E+04  0.27883745077E+03  0.13557709284E+03  0.11778796410E+04  0.46999998093E+01 0. -1.
</event>
<event>
 5   0  0.4959347E-05  0.2497360E+04  0.7818609E-02  0.8403927E-01
       -2   -1    0    0    0  501  0.00000000000E+00  0.00000000000E+00  0.67968347238E+03  0.67968347238E+03  0.25500000920E-02 0.  1.
        2   -1    0    0  501    0  0.00000000000E+00  0.00000000000E+00 -0.22940121389E+04  0.22940121389E+04  0.25500000920E-02 0. -1.
    10030    2    1    2    0    0  0.00000000000E+00  0.00000000000E+00 -0.16143286666E+04  0.29736956113E+04  0.24973603154E+04 0.  0.
        3    1    3    3  502    0  0.92979460240E+01  0.11773348273E+04 -0.13024278331E+04  0.17557112570E+04  0.10100000352E+00 0. -1.
       -3    1    3    3    0  502 -0.92979460240E+01 -0.11773348273E+04 -0.31190083346E+03  0.12179843543E+04  0.10100000352E+00 0.  1.
</event>
<event>
 5   0  0.4959347E-05  0.2457878E+04  0.7818609E-02  0.8418147E-01
       -2   -1    0    0    0  501  0.00000000000E+00  0.00000000000E+00  0.17272305527E+04  0.17272305527E+04  0.25500000920E-02 0. -1.
        2   -1    0    0  501    0  0.00000000000E+00  0.00000000000E+00 -0.87440050790E+03  0.87440050790E+03  0.25500000920E-02 0.  1.
    10030    2    1    2    0    0  0.00000000000E+00  0.00000000000E+00  0.85283004477E+03  0.26016310606E+04  0.24578781683E+04 0.  0.
        3    1    3    3  502    0  0.16951592946E+03  0.80445465377E+03  0.13932996831E+04  0.16177660391E+04  0.10100000352E+00 0. -1.
       -3    1    3    3    0  502 -0.16951592946E+03 -0.80445465377E+03 -0.54046963830E+03  0.98386502145E+03  0.10100000352E+00 0.  1.
</event>
<event>
 5   0  0.1692125E-05  0.2479087E+04  0.7818609E-02  0.8410474E-01
       -3   -1    0    0    0  501  0.00000000000E+00  0.00000000000E+00  0.18659313387E+04  0.18659313415E+04  0.10100000352E+00 0. -1.
        3   -1    0    0  501    0  0.00000000000E+00  0.00000000000E+00 -0.82343203431E+03  0.82343204051E+03  0.10100000352E+00 0.  1.
    10030    2    1    2    0    0  0.00000000000E+00  0.00000000000E+00  0.10424993044E+04  0.26893633820E+04  0.24790866464E+04 0.  0.
        5    1    3    3  502    0  0.15085125278E+02 -0.94905934507E+03 -0.34355307002E+03  0.10094513378E+04  0.46999998093E+01 0.  1.
       -5    1    3    3    0  502 -0.15085125278E+02  0.94905934507E+03  0.13860523744E+04  0.16799120442E+04  0.46999998093E+01 0. -1.
</event>
<event>
 5   0  0.2066170E-05  0.2482332E+04  0.7818609E-02  0.8409307E-01
        1   -1    0    0  501    0  0.00000000000E+00  0.00000000000E+00  0.26366283530E+04  0.26366283530E+04  0.50400001928E-02 0. -1.
       -1   -1    0    0    0  501  0.00000000000E+00  0.00000000000E+00 -0.58426623760E+03  0.58426623762E+03  0.50400001928E-02 0.  1.
    10030    2    1    2    0    0  0.00000000000E+00  0.00000000000E+00  0.20523621154E+04  0.32208945906E+04  0.24823319100E+04 0.  0.
        5    1    3    3  502    0  0.58087080809E+03  0.62507137896E+03  0.21956457339E+04  0.23556331216E+04  0.46999998093E+01 0. -1.
       -5    1    3    3    0  502 -0.58087080809E+03 -0.62507137896E+03 -0.14328361854E+03  0.86526146905E+03  0.46999998093E+01 0.  1.
</event>
<event>
 5   0  0.4959347E-05  0.2503076E+04  0.7818609E-02  0.8401890E-01
       -2   -1    0    0    0  501  0.00000000000E+00  0.00000000000E+00  0.85574337425E+03  0.85574337426E+03  0.25500000920E-02 0.  1.
        2   -1    0    0  501    0  0.00000000000E+00  0.00000000000E+00 -0.18303940703E+04  0.18303940703E+04  0.25500000920E-02 0. -1.
    10030    2    1    2    0    0  0.00000000000E+00  0.00000000000E+00 -0.97465069606E+03  0.26861374446E+04  0.25030761858E+04 0.  0.
        3    1    3    3  502    0  0.11424510809E+04 -0.50864328560E+03 -0.43436941144E+03  0.13238539421E+04  0.10100000352E+00 0.  1.
       -3    1    3    3    0  502 -0.11424510809E+04  0.50864328560E+03 -0.54028128462E+03  0.13622835024E+04  0.10100000352E+00 0. -1.
</event>
<event>
 5   0  0.4995256E-05  0.1825352E+04  0.7818609E-02  0.8692933E-01
        2   -1    0    0  501    0  0.00000000000E+00  0.00000000000E+00  0.75305974965E+03  0.75305974966E+03  0.25500000920E-02 0. -1.
       -2   -1    0    0    0  501  0.00000000000E+00  0.00000000000E+00 -0.11061237958E+04  0.11061237958E+04  0.25500000920E-02 0.  1.
    10030    2    1    2    0    0  0.00000000000E+00  0.00000000000E+00 -0.35306404613E+03  0.18591835454E+04  0.18253518113E+04 0.  0.
        2    1    3    3  502    0  0.24489436437E+03 -0.53001465618E+03 -0.89102391388E+03  0.10652757392E+04  0.25500000920E-02 0.  1.
       -2    1    3    3    0  502 -0.24489436437E+03  0.53001465618E+03  0.53795986775E+03  0.79390780622E+03  0.25500000920E-02 0. -1.
</event>
<event>
 5   0  0.5219468E-05  0.2493984E+04  0.7818609E-02  0.8405132E-01
        2   -1    0    0  501    0  0.00000000000E+00  0.00000000000E+00  0.10691759692E+04  0.10691759692E+04  0.25500000920E-02 0. -1.
       -2   -1    0    0    0  501  0.00000000000E+00  0.00000000000E+00 -0.14543811383E+04  0.14543811383E+04  0.25500000920E-02 0.  1.
    10030    2    1    2    0    0  0.00000000000E+00  0.00000000000E+00 -0.38520516914E+03  0.25235571075E+04  0.24939842526E+04 0.  0.
        1    1    3    3  502    0  0.51178383978E+03  0.11359021818E+04 -0.24607711151E+03  0.12699411050E+04  0.50400001928E-02 0.  1.
       -1    1    3    3    0  502 -0.51178383978E+03 -0.11359021818E+04 -0.13912805763E+03  0.12536160025E+04  0.50400001928E-02 0. -1.
</event>
<event>
 5   0  0.2081874E-05  0.2516761E+04  0.7818609E-02  0.8397038E-01
        1   -1    0    0  501    0  0.00000000000E+00  0.00000000000E+00  0.20132343516E+04  0.20132343516E+04  0.50400001928E-02 0. -1.
       -1   -1    0    0    0  501  0.00000000000E+00  0.00000000000E+00 -0.78655619571E+03  0.78655619573E+03  0.50400001928E-02 0.  1.
    10030    2    1    2    0    0  0.00000000000E+00  0.00000000000E+00  0.12266781559E+04  0.27997905473E+04  0.25167613734E+04 0.  0.
        1    1    3    3  502    0  0.30426347066E+03 -0.72418513460E+03 -0.48032711635E+03  0.92072499015E+03  0.50400001928E-02 0.  1.
       -1    1    3    3    0  502 -0.30426347066E+03  0.72418513460E+03  0.17070052722E+04  0.18790655572E+04  0.50400001928E-02 0. -1.
</event>
<event>
 5   0  0.4959042E-05  0.2516215E+04  0.7818609E-02  0.8397231E-01
        2   -1    0    0  501    0  0.00000000000E+00  0.00000000000E+00  0.20642277929E+04  0.20642277929E+04  0.25500000920E-02 0.  1.
       -2   -1    0    0    0  501  0.00000000000E+00  0.00000000000E+00 -0.76679264283E+03  0.76679264283E+03  0.25500000920E-02 0. -1.
    10030    2    1    2    0    0  0.00000000000E+00  0.00000000000E+00  0.12974351501E+04  0.28310204357E+04  0.25162151615E+04 0.  0.
        4    1    3    3  502    0  0.56450414900E+03 -0.20680488321E+03  0.18921556613E+04  0.19853684427E+04  0.12699999809E+01 0.  1.
       -4    1    3    3    0  502 -0.56450414900E+03  0.20680488321E+03 -0.59472051120E+03  0.84565199302E+03  0.12699999809E+01 0. -1.
</event>
<event>
 5   0  0.4959042E-05  0.2502403E+04  0.7818609E-02  0.8402130E-01
        2   -1    0    0  501    0  0.00000000000E+00  0.00000000000E+00  0.11878103610E+04  0.11878103610E+04  0.25500000920E-02 0. -1.
       -2   -1    0    0    0  501  0.00000000000E+00  0.00000000000E+00 -0.13179755287E+04  0.13179755287E+04  0.25500000920E-02 0.  1.
    10030    2    1    2    0    0  0.00000000000E+00  0.00000000000E+00 -0.13016516775E+03  0.25057858897E+04  0.25024028361E+04 0.  0.
        4    1    3    3  502    0 -0.51112247055E+02  0.17639119700E+03 -0.13044056029E+04  0.13172706274E+04  0.12699999809E+01 0.  1.
       -4    1    3    3    0  502  0.51112247055E+02 -0.17639119700E+03  0.11742404351E+04  0.11885152622E+04  0.12699999809E+01 0. -1.
</event>
<event>
 5   0  0.5024070E-05  0.2583484E+04  0.7818609E-02  0.8373833E-01
       -2   -1    0    0    0  501  0.00000000000E+00  0.00000000000E+00  0.10326746035E+04  0.10326746035E+04  0.25500000920E-02 0. -1.
        2   -1    0    0  501    0  0.00000000000E+00  0.00000000000E+00 -0.16158022134E+04  0.16158022134E+04  0.25500000920E-02 0.  1.
    10030    2    1    2    0    0  0.00000000000E+00  0.00000000000E+00 -0.58312760987E+03  0.26484768170E+04  0.25834843991E+04 0.  0.
        5    1    3    3  502    0 -0.57035816634E+02  0.50205621195E+03  0.92714996673E+03  0.10559084596E+04  0.46999998093E+01 0. -1.
       -5    1    3    3    0  502  0.57035816634E+02 -0.50205621195E+03 -0.15102775766E+04  0.15925683573E+04  0.46999998093E+01 0.  1.
</event>
<event>
 5   0  0.2041718E-05  0.2483008E+04  0.7818609E-02  0.8409064E-01
       -1   -1    0    0    0  501  0.00000000000E+00  0.00000000000E+00  0.16125552962E+04  0.16125552962E+04  0.50400001928E-02 0. -1.
        1   -1    0    0  501    0  0.00000000000E+00  0.00000000000E+00 -0.95583252635E+03  0.95583252636E+03  0.50400001928E-02 0.  1.
    10030    2    1    2    0    0  0.00000000000E+00  0.00000000000E+00  0.65672276989E+03  0.25683878226E+04  0.24830085000E+04 0.  0.
        4    1    3    3  502    0 -0.10535430442E+04 -0.59855679727E+03  0.48679163756E+02  0.12126806915E+04  0.12699999809E+01 0.  1.
       -4    1    3    3    0  502  0.10535430442E+04  0.59855679727E+03  0.60804360613E+03  0.13557071311E+04  0.12699999809E+01 0. -1.
</event>
<event>
 5   0  0.2036578E-05  0.2494694E+04  0.7818609E-02  0.8404878E-01
       -1   -1    0    0    0  501  0.00000000000E+00  0.00000000000E+00  0.70896385720E+03  0.70896385722E+03  0.50400001928E-02 0.  1.
        1   -1    0    0  501    0  0.00000000000E+00  0.00000000000E+00 -0.21945748236E+04  0.21945748237E+04  0.50400001928E-02 0. -1.
    10030    2    1    2    0    0  0.00000000000E+00  0.00000000000E+00 -0.14856109664E+04  0.29035386809E+04  0.24946937543E+04 0.  0.
        2    1    3    3  502    0 -0.82351680943E+03  0.82451855407E+03 -0.22508760156E+03  0.11868762403E+04  0.25500000920E-02 0.  1.
       -2    1    3    3    0  502  0.82351680943E+03 -0.82451855407E+03 -0.12605233649E+04  0.17166624406E+04  0.25500000920E-02 0. -1.
</event>
<event>
 5   0  0.4959347E-05  0.2499500E+04  0.7818609E-02  0.8403164E-01
        2   -1    0    0  501    0  0.00000000000E+00  0.00000000000E+00  0.13643379951E+04  0.13643379952E+04  0.25500000920E-02 0. -1.
       -2   -1    0    0    0  501  0.00000000000E+00  0.00000000000E+00 -0.11447864285E+04  0.11447864285E+04  0.25500000920E-02 0.  1.
    10030    2    1    2    0    0  0.00000000000E+00  0.00000000000E+00  0.21955156662E+03  0.25091244237E+04  0.24995004467E+04 0.  0.
        3    1    3    3  502    0  0.28743733951E+03  0.12133423105E+04  0.25453404345E+02  0.12471838968E+04  0.10100000352E+00 0.  1.
       -3    1    3    3    0  502 -0.28743733951E+03 -0.12133423105E+04  0.19409816227E+03  0.12619405269E+04  0.10100000352E+00 0. -1.
</event>
<event>
 5   0  0.5219468E-05  0.2482617E+04  0.7818609E-02  0.8409205E-01
       -2   -1    0    0    0  501  0.00000000000E+00  0.00000000000E+00  0.81039413413E+03  0.81039413414E+03  0.25500000920E-02 0.  1.
        2   -1    0    0  501    0  0.00000000000E+00  0.00000000000E+00 -0.19013543421E+04  0.19013543421E+04  0.25500000920E-02 0. -1.
    10030    2    1    2    0    0  0.00000000000E+00  0.00000000000E+00 -0.10909602080E+04  0.27117484763E+04  0.24826166887E+04 0.  0.
        1    1    3    3  502    0  0.11255173516E+04  0.52348352396E+03 -0.55061471449E+03  0.13579399370E+04  0.50400001928E-02 0. -1.
       -1    1    3    3    0  502 -0.11255173516E+04 -0.52348352396E+03 -0.54034549350E+03  0.13538085393E+04  0.50400001928E-02 0.  1.
</event>
<event>
 5   0  0.4959042E-05  0.2475695E+04  0.7818609E-02  0.8411696E-01
        2   -1    0    0  501    0  0.00000000000E+00  0.00000000000E+00  0.12833835760E+04  0.12833835760E+04  0.25500000920E-02 0.  1.
       -2   -1    0    0    0  501  0.00000000000E+00  0.00000000000E+00 -0.11939274296E+04  0.11939274296E+04  0.25500000920E-02 0. -1.
    10030    2    1    2    0    0  0.00000000000E+00  0.00000000000E+00  0.89456146427E+02  0.24773110056E+04  0.24756953399E+04 0.  0.
        4    1    3    3  502    0  0.14456663634E+03 -0.11278711303E+04 -0.44474597895E+03  0.12209805066E+04  0.12699999809E+01 0. -1.
       -4    1    3    3    0  502 -0.14456663634E+03  0.11278711303E+04  0.53420212538E+03  0.12563304989E+04  0.12699999809E+01 0.  1.
</event>
<event>
 5   0  0.2063930E-05  0.2452168E+04  0.7818609E-02  0.8420227E-01
       -1   -1    0    0    0  501  0.00000000000E+00  0.00000000000E+00  0.12782628254E+04  0.12782628254E+04  0.50400001928E-02 0. -1.
        1   -1    0    0  501    0  0.00000000000E+00  0.00000000000E+00 -0.11760355292E+04  0.11760355292E+04  0.50400001928E-02 0.  1.
    10030    2    1    2    0    0  0.00000000000E+00  0.00000000000E+00  0.10222729614E+03  0.24542983546E+04  0.24521684268E+04 0.  0.
        3    1    3    3  502    0 -0.31577176697E+03  0.65957582821E+03 -0.93388058929E+03  0.11861218518E+04  0.10100000352E+00 0.  1.
       -3    1    3    3    0  502  0.31577176697E+03 -0.65957582821E+03  0.10361078854E+04  0.12681765029E+04  0.10100000352E+00 0. -1.
</event>
<event>
 5   0  0.2081874E-05  0.2435068E+04  0.7818609E-02  0.8426490E-01
       -1   -1    0    0    0  501  0.00000000000E+00  0.00000000000E+00  0.12077147616E+04  0.12077147616E+04  0.50400001928E-02 0. -1.
        1   -1    0    0  501    0  0.00000000000E+00  0.00000000000E+00 -0.12274333470E+04  0.12274333470E+04  0.50400001928E-02 0.  1.
    10030    2    1    2    0    0  0.00000000000E+00  0.00000000000E+00 -0.19718585439E+02  0.24351481086E+04  0.24350682718E+04 0.  0.
        1    1    3    3  502    0 -0.45421061543E+03  0.24044251087E+03 -0.11136479383E+04  0.12265119709E+04  0.50400001928E-02 0.  1.
       -1    1    3    3    0  502  0.45421061543E+03 -0.24044251087E+03  0.10939293529E+04  0.12086361377E+04  0.50400001928E-02 0. -1.
</event>
<event>
 5   0  0.2041718E-05  0.2513316E+04  0.7818609E-02  0.8398257E-01
       -1   -1    0    0    0  501  0.00000000000E+00  0.00000000000E+00  0.11547364684E+04  0.11547364684E+04  0.50400001928E-02 0. -1.
        1   -1    0    0  501    0  0.00000000000E+00  0.00000000000E+00 -0.13675755318E+04  0.13675755318E+04  0.50400001928E-02 0.  1.
    10030    2    1    2    0    0  0.00000000000E+00  0.00000000000E+00 -0.21283906343E+03  0.25223120002E+04  0.25133160086E+04 0.  0.
        4    1    3    3  502    0  0.10231867074E+04  0.72954170971E+03 -0.99643891395E+02  0.12605842544E+04  0.12699999809E+01 0.  1.
       -4    1    3    3    0  502 -0.10231867074E+04 -0.72954170971E+03 -0.11319517203E+03  0.12617277457E+04  0.12699999809E+01 0. -1.
</event>
<event>
 5   0  0.5219468E-05  0.2524307E+04  0.7818609E-02  0.8394377E-01
        2   -1    0    0  501    0  0.00000000000E+00  0.00000000000E+00  0.21465540181E+04  0.21465540181E+04  0.25500000920E-02 0.  1.
       -2   -1    0    0    0  501  0.00000000000E+00  0.00000000000E+00 -0.74213419893E+03  0.74213419893E+03  0.25500000920E-02 0. -1.
    10030    2    1    2    0    0  0.00000000000E+00  0.00000000000E+00  0.14044198192E+04  0.28886882171E+04  0.25243067537E+04 0.  0.
        1    1    3    3  502    0 -0.36637291312E+03  0.79941465004E+03  0.17382967115E+04  0.19480678508E+04  0.50400001928E-02 0.  1.
       -1    1    3    3    0  502  0.36637291312E+03 -0.79941465004E+03 -0.33387689230E+03  0.94062036625E+03  0.50400001928E-02 0. -1.
</event>
<event>
 5   0  0.4959042E-05  0.2472747E+04  0.7818609E-02  0.8412759E-01
       -2   -1    0    0    0  501  0.00000000000E+00  0.00000000000E+00  0.79005938990E+03  0.79005938990E+03  0.25500000920E-02 0.  1.
        2   -1    0    0  501    0  0.00000000000E+00  0.00000000000E+00 -0.19348159875E+04  0.19348159875E+04  0.25500000920E-02 0. -1.
    10030    2    1    2    0    0  0.00000000000E+00  0.00000000000E+00 -0.11447565976E+04  0.27248753774E+04  0.24727470866E+04 0.  0.
        4    1    3    3  502    0  0.48051347554E+03  0.29683297767E+03  0.63958790970E+03  0.85327447164E+03  0.12699999809E+01 0.  1.
       -4    1    3    3    0  502 -0.48051347554E+03 -0.29683297767E+03 -0.17843445073E+04  0.18716009057E+04  0.12699999809E+01 0. -1.
</event>
<event>
 5   0  0.2066170E-05  0.2493666E+04  0.7818609E-02  0.8405245E-01
        1   -1    0    0  501    0  0.00000000000E+00  0.00000000000E+00  0.18594415975E+04  0.18594415975E+04  0.50400001928E-02 0. -1.
       -1   -1    0    0    0  501  0.00000000000E+00  0.00000000000E+00 -0.83605355540E+03  0.83605355542E+03  0.50400001928E-02 0.  1.
    10030    2    1    2    0    0  0.00000000000E+00  0.00000000000E+00  0.10233880421E+04  0.26954951529E+04  0.24936661835E+04 0.  0.
        5    1    3    3  502    0 -0.12155948869E+04  0.22746908771E+03  0.34024522285E+03  0.12826542856E+04  0.46999998093E+01 0.  1.
       -5    1    3    3    0  502  0.12155948869E+04 -0.22746908771E+03  0.68314281926E+03  0.14128408673E+04  0.46999998093E+01 0. -1.
</event>
<event>
 5   0  0.5219468E-05  0.2497003E+04  0.7818609E-02  0.8404054E-01
       -2   -1    0    0    0  501  0.00000000000E+00  0.00000000000E+00  0.11202439770E+04  0.11202439770E+04  0.25500000920E-02 0.  1.
        2   -1    0    0  501    0  0.00000000000E+00  0.00000000000E+00 -0.13914435643E+04  0.13914435643E+04  0.25500000920E-02 0. -1.
    10030    2    1    2    0    0  0.00000000000E+00  0.00000000000E+00 -0.27119958730E+03  0.25116875414E+04  0.24970032217E+04 0.  0.
        1    1    3    3  502    0  0.11195539558E+02  0.62509206548E+03  0.95144548756E+03  0.11384700024E+04  0.50400001928E-02 0.  1.
       -1    1    3    3    0  502 -0.11195539558E+02 -0.62509206548E+03 -0.12226450749E+04  0.13732175390E+04  0.50400001928E-02 0. -1.
</event>
<event>
 5   0  0.2063930E-05  0.2495362E+04  0.7818609E-02  0.8404640E-01
       -1   -1    0    0    0  501  0.00000000000E+00  0.00000000000E+00  0.22643657039E+04  0.22643657039E+04  0.50400001928E-02 0. -1.
        1   -1    0    0  501    0  0.00000000000E+00  0.00000000000E+00 -0.68748068999E+03  0.68748069001E+03  0.50400001928E-02 0.  1.
    10030    2    1    2    0    0  0.00000000000E+00  0.00000000000E+00  0.15768850139E+04  0.29518463939E+04  0.24953618547E+04 0.  0.
        3    1    3    3  502    0  0.74910565373E+03 -0.16674097496E+03  0.19521420982E+04  0.20975749366E+04  0.10100000352E+00 0. -1.
       -3    1    3    3    0  502 -0.74910565373E+03  0.16674097496E+03 -0.37525708428E+03  0.85427145726E+03  0.10100000352E+00 0.  1.
</event>
<event>
 5   0  0.1692125E-05  0.2533772E+04  0.7818609E-02  0.8391052E-01
       -3   -1    0    0    0  501  0.00000000000E+00  0.00000000000E+00  0.23614873172E+04  0.23614873194E+04  0.10100000352E+00 0.  1.
        3   -1    0    0  501    0  0.00000000000E+00  0.00000000000E+00 -0.67965642564E+03  0.67965643315E+03  0.10100000352E+00 0. -1.
    10030    2    1    2    0    0  0.00000000000E+00  0.00000000000E+00  0.16818308916E+04  0.30411437525E+04  0.25337719265E+04 0.  0.
        4    1    3    3  502    0  0.13448358901E+03  0.68257387905E+03 -0.42987312475E+03  0.81779303760E+03  0.12699999809E+01 0. -1.
       -4    1    3    3    0  502 -0.13448358901E+03 -0.68257387905E+03  0.21117040163E+04  0.22233507149E+04  0.12699999809E+01 0.  1.
</event>
<event>
 5   0  0.2066170E-05  0.2264952E+04  0.7818609E-02  0.8491870E-01
       -1   -1    0    0    0  501  0.00000000000E+00  0.00000000000E+00  0.14485504365E+04  0.14485504365E+04  0.50400001928E-02 0.  1.
        1   -1    0    0  501    0  0.00000000000E+00  0.00000000000E+00 -0.88536917226E+03  0.88536917227E+03  0.50400001928E-02 0. -1.
    10030    2    1    2    0    0  0.00000000000E+00  0.00000000000E+00  0.56318126421E+03  0.23339196087E+04  0.22649520091E+04 0.  0.
        5    1    3    3  502    0  0.38709675736E+03 -0.71451988928E+03  0.10943388491E+04  0.13630781996E+04  0.46999998093E+01 0.  1.
       -5    1    3    3    0  502 -0.38709675736E+03  0.71451988928E+03 -0.53115758484E+03  0.97084140913E+03  0.46999998093E+01 0. -1.
</event>
<event>
 5   0  0.2036578E-05  0.2451544E+04  0.7818609E-02  0.8420455E-01
        1   -1    0    0  501    0  0.00000000000E+00  0.00000000000E+00  0.16711119508E+04  0.16711119508E+04  0.50400001928E-02 0. -1.
       -1   -1    0    0    0  501  0.00000000000E+00  0.00000000000E+00 -0.89911176819E+03  0.89911176821E+03  0.50400001928E-02 0.  1.
    10030    2    1    2    0    0  0.00000000000E+00  0.00000000000E+00  0.77200018263E+03  0.25702237190E+04  0.24515435309E+04 0.  0.
        2    1    3    3  502    0  0.89741957868E+03  0.30140150655E+03 -0.43035531908E+03  0.10399088753E+04  0.25500000920E-02 0.  1.
       -2    1    3    3    0  502 -0.89741957868E+03 -0.30140150655E+03  0.12023555017E+04  0.15303148437E+04  0.25500000920E-02 0. -1.
</event>
<event>
 5   0  0.5024070E-05  0.2443438E+04  0.7818609E-02  0.8423418E-01
       -2   -1    0    0    0  501  0.00000000000E+00  0.00000000000E+00  0.11234939170E+04  0.11234939170E+04  0.25500000920E-02 0.  1.
        2   -1    0    0  501    0  0.00000000000E+00  0.00000000000E+00 -0.13285315849E+04  0.13285315849E+04  0.25500000920E-02 0. -1.
    10030    2    1    2    0    0  0.00000000000E+00  0.00000000000E+00 -0.20503766795E+03  0.24520255019E+04  0.24434378684E+04 0.  0.
        5    1    3    3  502    0 -0.60524033222E+03  0.10584066224E+04 -0.18047471167E+03  0.12325313990E+04  0.46999998093E+01 0. -1.
       -5    1    3    3    0  502  0.60524033222E+03 -0.10584066224E+04 -0.24562956282E+02  0.12194941028E+04  0.46999998093E+01 0.  1.
</event>
<event>
 5   0  0.4959042E-05  0.2582807E+04  0.7818609E-02  0.8374065E-01
        2   -1    0    0  501    0  0.00000000000E+00  0.00000000000E+00  0.13732357339E+04  0.13732357339E+04  0.25500000920E-02 0.  1.
       -2   -1    0    0    0  501  0.00000000000E+00  0.00000000000E+00 -0.12144474615E+04  0.12144474615E+04  0.25500000920E-02 0. -1.
    10030    2    1    2    0    0  0.00000000000E+00  0.00000000000E+00  0.15878827234E+03  0.25876831954E+04  0.25828067299E+04 0.  0.
        4    1    3    3  502    0  0.56857455855E+03 -0.65192822309E+03  0.10400755351E+04  0.13527919900E+04  0.12699999809E+01 0.  1.
       -4    1    3    3    0  502 -0.56857455855E+03  0.65192822309E+03 -0.88128726274E+03  0.12348912054E+04  0.12699999809E+01 0. -1.
</event>
<event>
 5   0  0.2081874E-05  0.2598832E+04  0.7818609E-02  0.8368598E-01
        1   -1    0    0  501    0  0.00000000000E+00  0.00000000000E+00  0.11838079032E+04  0.11838079032E+04  0.50400001928E-02 0.  1.
       -1   -1    0    0    0  501  0.00000000000E+00  0.00000000000E+00 -0.14263141201E+04  0.14263141201E+04  0.50400001928E-02 0. -1.
    10030    2    1    2    0    0  0.00000000000E+00  0.00000000000E+00 -0.24250621691E+03  0.26101220233E+04  0.25988319898E+04 0.  0.
        1    1    3    3  502    0  0.89301369063E+03  0.15798392781E+03 -0.10559138005E+04  0.13919002576E+04  0.50400001928E-02 0. -1.
       -1    1    3    3    0  502 -0.89301369063E+03 -0.15798392781E+03  0.81340758360E+03  0.12182217656E+04  0.50400001928E-02 0.  1.
</event>
<event>
 5   0  0.5024070E-05  0.2481796E+04  0.7818609E-02  0.8409500E-01
       -2   -1    0    0    0  501  0.00000000000E+00  0.00000000000E+00  0.67214013905E+03  0.67214013905E+03  0.25500000920E-02 0. -1.
        2   -1    0    0  501    0  0.00000000000E+00  0.00000000000E+00 -0.22909324378E+04  0.22909324378E+04  0.25500000920E-02 0.  1.
    10030    2    1    2    0    0  0.00000000000E+00  0.00000000000E+00 -0.16187922988E+04  0.29630725769E+04  0.24817958396E+04 0.  0.
        5    1    3    3  502    0 -0.19798621585E+03 -0.60725184909E+02  0.65135237132E+03  0.68349695784E+03  0.46999998093E+01 0. -1.
       -5    1    3    3    0  502  0.19798621585E+03  0.60725184909E+02 -0.22701446701E+04  0.22795756190E+04  0.46999998093E+01 0.  1.
</event>
<event>
 5   0  0.2066170E-05  0.2496474E+04  0.7818609E-02  0.8404243E-01
        1   -1    0    0  501    0  0.00000000000E+00  0.00000000000E+00  0.13838855159E+04  0.13838855159E+04  0.50400001928E-02 0.  1.
       -1   -1    0    0    0  501  0.00000000000E+00  0.00000000000E+00 -0.11258847440E+04  0.11258847440E+04  0.50400001928E-02 0. -1.
    10030    2    1    2    0    0  0.00000000000E+00  0.00000000000E+00  0.25800077189E+03  0.25097702599E+04  0.24964739853E+04 0.  0.
        5    1    3    3  502    0 -0.84473691408E+03 -0.79745462306E+03 -0.33011470569E+03  0.12076887591E+04  0.46999998093E+01 0. -1.
       -5    1    3    3    0  502  0.84473691408E+03  0.79745462306E+03  0.58811547758E+03  0.13020815008E+04  0.46999998093E+01 0.  1.
</event>
<event>
 5   0  0.4959347E-05  0.2484261E+04  0.7818609E-02  0.8408614E-01
        2   -1    0    0  501    0  0.00000000000E+00  0.00000000000E+00  0.22984993531E+04  0.22984993531E+04  0.25500000920E-02 0.  1.
       -2   -1    0    0    0  501  0.00000000000E+00  0.00000000000E+00 -0.67125904563E+03  0.67125904564E+03  0.25500000920E-02 0. -1.
    10030    2    1    2    0    0  0.00000000000E+00  0.00000000000E+00  0.16272403075E+04  0.29697583987E+04  0.24842612440E+04 0.  0.
        3    1    3    3  502    0  0.18494076642E+03 -0.71517555479E+03 -0.38013983197E+03  0.83077401458E+03  0.10100000352E+00 0. -1.
       -3    1    3    3    0  502 -0.18494076642E+03  0.71517555479E+03  0.20073801394E+04  0.21389843841E+04  0.10100000352E+00 0.  1.
</event>
<event>
 5   0  0.5024070E-05  0.2224659E+04  0.7818609E-02  0.8508234E-01
       -2   -1    0    0    0  501  0.00000000000E+00  0.00000000000E+00  0.67585304634E+03  0.67585304635E+03  0.25500000920E-02 0.  1.
        2   -1    0    0  501    0  0.00000000000E+00  0.00000000000E+00 -0.18306886766E+04  0.18306886766E+04  0.25500000920E-02 0. -1.
    10030    2    1    2    0    0  0.00000000000E+00  0.00000000000E+00 -0.11548356302E+04  0.25065417229E+04  0.22246586425E+04 0.  0.
        5    1    3    3  502    0 -0.26418537051E+02  0.55694347539E+03  0.50701813078E+03  0.75364013217E+03  0.46999998093E+01 0.  1.
       -5    1    3    3    0  502  0.26418537051E+02 -0.55694347539E+03 -0.16618537610E+04  0.17529015907E+04  0.46999998093E+01 0. -1.
</event>
<event>
 5   0  0.2041718E-05  0.2655664E+04  0.7818609E-02  0.8349535E-01
        1   -1    0    0  501    0  0.00000000000E+00  0.00000000000E+00  0.11557498258E+04  0.11557498258E+04  0.50400001928E-02 0.  1.
       -1   -1    0    0    0  501  0.00000000000E+00  0.00000000000E+00 -0.15255362870E+04  0.15255362870E+04  0.50400001928E-02 0. -1.
    10030    2    1    2    0    0  0.00000000000E+00  0.00000000000E+00 -0.36978646117E+03  0.26812861127E+04  0.26556643597E+04 0.  0.
        4    1    3    3  502    0  0.17937850808E+03  0.92114841898E+03  0.76355569974E+03  0.12098388233E+04  0.12699999809E+01 0.  1.
       -4    1    3    3    0  502 -0.17937850808E+03 -0.92114841898E+03 -0.11333421609E+04  0.14714472894E+04  0.12699999809E+01 0. -1.
</event>
<event>
 5   0  0.4959347E-05  0.2519420E+04  0.7818609E-02  0.8396100E-01
        2   -1    0    0  501    0  0.00000000000E+00  0.00000000000E+00  0.21787970515E+04  0.21787970515E+04  0.25500000920E-02 0. -1.
       -2   -1    0    0    0  501  0.00000000000E+00  0.00000000000E+00 -0.72832342619E+03  0.72832342619E+03  0.25500000920E-02 0.  1.
    10030    2    1    2    0    0  0.00000000000E+00  0.00000000000E+00  0.14504736253E+04  0.29071204777E+04  0.25194197217E+04 0.  0.
        3    1    3    3  502    0  0.11184527880E+04  0.13407958722E+02  0.56627932671E+02  0.11199656894E+04  0.10100000352E+00 0. -1.
       -3    1    3    3    0  502 -0.11184527880E+04 -0.13407958722E+02  0.13938456927E+04  0.17871547884E+04  0.10100000352E+00 0.  1.
</event>
<event>
 5   0  0.4995256E-05  0.2301847E+04  0.7818609E-02  0.8477193E-01
        2   -1    0    0  501    0  0.00000000000E+00  0.00000000000E+00  0.16618174675E+04  0.16618174675E+04  0.25500000920E-02 0. -1.
       -2   -1    0    0    0  501  0.00000000000E+00  0.00000000000E+00 -0.79709405420E+03  0.79709405420E+03  0.25500000920E-02 0.  1.
    10030    2    1    2    0    0  0.00000000000E+00  0.00000000000E+00  0.86472341331E+03  0.24589115217E+04  0.23018469302E+04 0.  0.
        2    1    3    3  502    0 -0.86255741621E+03  0.67975892259E+03  0.64561171820E+02  0.11001116462E+04  0.25500000920E-02 0.  1.
       -2    1    3    3    0  502  0.86255741621E+03 -0.67975892259E+03  0.80016224149E+03  0.13587998756E+04  0.25500000920E-02 0. -1.
</event>
<event>
 5   0  0.4959042E-05  0.2448577E+04  0.7818609E-02  0.8421538E-01
       -2   -1    0    0    0  501  0.00000000000E+00  0.00000000000E+00  0.64845111547E+03  0.64845111548E+03  0.25500000920E-02 0. -1.
        2   -1    0    0  501    0  0.00000000000E+00  0.00000000000E+00 -0.23114811230E+04  0.23114811230E+04  0.25500000920E-02 0.  1.
    10030    2    1    2    0    0  0.00000000000E+00  0.00000000000E+00 -0.16630300075E+04  0.29599322385E+04  0.24485771481E+04 0.  0.
        4    1    3    3  502    0  0.11845687642E+04  0.28656357328E+03 -0.69075386027E+03  0.14008798474E+04  0.12699999809E+01 0.  1.
       -4    1    3    3    0  502 -0.11845687642E+04 -0.28656357328E+03 -0.97227614723E+03  0.15590523910E+04  0.12699999809E+01 0. -1.
</event>
<event>
 5   0  0.5024070E-05  0.2122542E+04  0.7818609E-02  0.8551378E-01
       -2   -1    0    0    0  501  0.00000000000E+00  0.00000000000E+00  0.11239828989E+04  0.11239828989E+04  0.25500000920E-02 0.  1.
        2   -1    0    0  501    0  0.00000000000E+00  0.00000000000E+00 -0.10020584287E+04  0.10020584287E+04  0.25500000920E-02 0. -1.
    10030    2    1    2    0    0  0.00000000000E+00  0.00000000000E+00  0.12192447012E+03  0.21260413276E+04  0.21225423789E+04 0.  0.
        5    1    3    3  502    0  0.54991963926E+03 -0.48969460396E+03 -0.70453710402E+03  0.10191207170E+04  0.46999998093E+01 0. -1.
       -5    1    3    3    0  502 -0.54991963926E+03  0.48969460396E+03  0.82646157414E+03  0.11069206107E+04  0.46999998093E+01 0.  1.
</event>
<event>
 5   0  0.5219468E-05  0.2500410E+04  0.7818609E-02  0.8402840E-01
       -2   -1    0    0    0  501  0.00000000000E+00  0.00000000000E+00  0.92203849449E+03  0.92203849450E+03  0.25500000920E-02 0. -1.
        2   -1    0    0  501    0  0.00000000000E+00  0.00000000000E+00 -0.16951704825E+04  0.16951704825E+04  0.25500000920E-02 0.  1.
    10030    2    1    2    0    0  0.00000000000E+00  0.00000000000E+00 -0.77313198804E+03  0.26172089770E+04  0.25004099181E+04 0.  0.
        1    1    3    3  502    0 -0.31062675404E+03 -0.33379313478E+03 -0.16050329580E+04  0.16685435666E+04  0.50400001928E-02 0.  1.
       -1    1    3    3    0  502  0.31062675404E+03  0.33379313478E+03  0.83190096998E+03  0.94866541047E+03  0.50400001928E-02 0. -1.
</event>
<event>
 5   0  0.5219468E-05  0.2429210E+04  0.7818609E-02  0.8428648E-01
       -2   -1    0    0    0  501  0.00000000000E+00  0.00000000000E+00  0.76526263795E+03  0.76526263796E+03  0.25500000920E-02 0.  1.
        2   -1    0    0  501    0  0.00000000000E+00  0.00000000000E+00 -0.19277887491E+04  0.19277887491E+04  0.25500000920E-02 0. -1.
    10030    2    1    2    0    0  0.00000000000E+00  0.00000000000E+00 -0.11625261111E+04  0.26930513870E+04  0.24292095040E+04 0.  0.
        1    1    3    3  502    0 -0.43757783789E+03 -0.11304179013E+04 -0.66674638800E+03  0.13834268111E+04  0.50400001928E-02 0.  1.
       -1    1    3    3    0  502  0.43757783789E+03  0.11304179013E+04 -0.49577972310E+03  0.13096245759E+04  0.50400001928E-02 0. -1.
</event>
<event>
 5   0  0.2081874E-05  0.2508406E+04  0.7818609E-02  0.8399997E-01
       -1   -1    0    0    0  501  0.00000000000E+00  0.00000000000E+00  0.88225013526E+03  0.88225013527E+03  0.50400001928E-02 0.  1.
        1   -1    0    0  501    0  0.00000000000E+00  0.00000000000E+00 -0.17829699256E+04  0.17829699256E+04  0.50400001928E-02 0. -1.
    10030    2    1    2    0    0  0.00000000000E+00  0.00000000000E+00 -0.90071979034E+03  0.26652200609E+04  0.25084062335E+04 0.  0.
        1    1    3    3  502    0  0.76029642394E+03  0.98897681514E+03 -0.58848551770E+03  0.13792900339E+04  0.50400001928E-02 0. -1.
       -1    1    3    3    0  502 -0.76029642394E+03 -0.98897681514E+03 -0.31223427264E+03  0.12859300269E+04  0.50400001928E-02 0.  1.
</event>
<event>
 5   0  0.2036578E-05  0.2494159E+04  0.7818609E-02  0.8405069E-01
       -1   -1    0    0    0  501  0.00000000000E+00  0.00000000000E+00  0.15803900867E+04  0.15803900867E+04  0.50400001928E-02 0. -1.
        1   -1    0    0  501    0  0.00000000000E+00  0.00000000000E+00 -0.98406540434E+03  0.98406540436E+03  0.50400001928E-02 0.  1.
    10030    2    1    2    0    0  0.00000000000E+00  0.00000000000E+00  0.59632468236E+03  0.25644554911E+04  0.24941589442E+04 0.  0.
        2    1    3    3  502    0  0.24837539670E+03 -0.62745530677E+03  0.13764414639E+04  0.15329649713E+04  0.25500000920E-02 0. -1.
       -2    1    3    3    0  502 -0.24837539670E+03  0.62745530677E+03 -0.78011678149E+03  0.10314905198E+04  0.25500000920E-02 0.  1.
</event>
<event>
 5   0  0.5219468E-05  0.2492700E+04  0.7818609E-02  0.8405591E-01
       -2   -1    0    0    0  501  0.00000000000E+00  0.00000000000E+00  0.14365419712E+04  0.14365419712E+04  0.25500000920E-02 0.  1.
        2   -1    0    0  501    0  0.00000000000E+00  0.00000000000E+00 -0.10813385567E+04  0.10813385567E+04  0.25500000920E-02 0. -1.
    10030    2    1    2    0    0  0.00000000000E+00  0.00000000000E+00  0.35520341454E+03  0.25178805279E+04  0.24926999191E+04 0.  0.
        1    1    3    3  502    0  0.63583987476E+03 -0.32321893486E+03  0.12099955588E+04  0.14045825282E+04  0.50400001928E-02 0.  1.
       -1    1    3    3    0  502 -0.63583987476E+03  0.32321893486E+03 -0.85479214425E+03  0.11132979997E+04  0.50400001928E-02 0. -1.
</event>
<event>
 5   0  0.2066170E-05  0.2593970E+04  0.7818609E-02  0.8370252E-01
        1   -1    0    0  501    0  0.00000000000E+00  0.00000000000E+00  0.17045274941E+04  0.17045274941E+04  0.50400001928E-02 0. -1.
       -1   -1    0    0    0  501  0.00000000000E+00  0.00000000000E+00 -0.98688347544E+03  0.98688347545E+03  0.50400001928E-02 0.  1.
    10030    2    1    2    0    0  0.00000000000E+00  0.00000000000E+00  0.71764401863E+03  0.26914109695E+04  0.25939699438E+04 0.  0.
        5    1    3    3  502    0 -0.75794935122E+03 -0.56146259303E+03  0.12824411406E+04  0.15919814168E+04  0.46999998093E+01 0. -1.
       -5    1    3    3    0  502  0.75794935122E+03  0.56146259303E+03 -0.56479712197E+03  0.10994295527E+04  0.46999998093E+01 0.  1.
</event>
<event>
 5   0  0.5024070E-05  0.2459927E+04  0.7818609E-02  0.8417402E-01
        2   -1    0    0  501    0  0.00000000000E+00  0.00000000000E+00  0.23653374188E+04  0.23653374188E+04  0.25500000920E-02 0. -1.
       -2   -1    0    0    0  501  0.00000000000E+00  0.00000000000E+00 -0.63957505225E+03  0.63957505225E+03  0.25500000920E-02 0.  1.
    10030    2    1    2    0    0  0.00000000000E+00  0.00000000000E+00  0.17257623666E+04  0.30049124711E+04  0.24599274812E+04 0.  0.
        5    1    3    3  502    0  0.77631588157E+03  0.33940976731E+03 -0.22622984513E+03  0.87696486301E+03  0.46999998093E+01 0.  1.
       -5    1    3    3    0  502 -0.77631588157E+03 -0.33940976731E+03  0.19519922117E+04  0.21279476081E+04  0.46999998093E+01 0. -1.
</event>
<event>
 5   0  0.2063930E-05  0.2494099E+04  0.7818609E-02  0.8405091E-01
       -1   -1    0    0    0  501  0.00000000000E+00  0.00000000000E+00  0.18821122262E+04  0.18821122262E+04  0.50400001928E-02 0. -1.
        1   -1    0    0  501    0  0.00000000000E+00  0.00000000000E+00 -0.82626997809E+03  0.82626997811E+03  0.50400001928E-02 0.  1.
    10030    2    1    2    0    0  0.00000000000E+00  0.00000000000E+00  0.10558422481E+04  0.27083822043E+04  0.24940992987E+04 0.  0.
        3    1    3    3  502    0 -0.12414597025E+04  0.11693049834E+03  0.54466971387E+03  0.13607204128E+04  0.10100000352E+00 0.  1.
       -3    1    3    3    0  502  0.12414597025E+04 -0.11693049834E+03  0.51117253420E+03  0.13476617915E+04  0.10100000352E+00 0. -1.
</event>
<event>
 5   0  0.4995256E-05  0.2491130E+04  0.7818609E-02  0.8406152E-01
       -2   -1    0    0    0  501  0.00000000000E+00  0.00000000000E+00  0.80575206327E+03  0.80575206327E+03  0.25500000920E-02 0. -1.
        2   -1    0    0  501    0  0.00000000000E+00  0.00000000000E+00 -0.19254457087E+04  0.19254457087E+04  0.25500000920E-02 0.  1.
    10030    2    1    2    0    0  0.00000000000E+00  0.00000000000E+00 -0.11196936454E+04  0.27311977720E+04  0.24911297457E+04 0.  0.
        2    1    3    3  502    0  0.11057498532E+04  0.56266710666E+03 -0.43897322342E+03  0.13160450227E+04  0.25500000920E-02 0. -1.
       -2    1    3    3    0  502 -0.11057498532E+04 -0.56266710666E+03 -0.68072042200E+03  0.14151527493E+04  0.25500000920E-02 0.  1.
</event>
<event>
 5   0  0.2041718E-05  0.2216816E+04  0.7818609E-02  0.8511461E-01
        1   -1    0    0  501    0  0.00000000000E+00  0.00000000000E+00  0.98987455447E+03  0.98987455448E+03  0.50400001928E-02 0.  1.
       -1   -1    0    0    0  501  0.00000000000E+00  0.00000000000E+00 -0.12411355209E+04  0.12411355209E+04  0.50400001928E-02 0. -1.
    10030    2    1    2    0    0  0.00000000000E+00  0.00000000000E+00 -0.25126096644E+03  0.22310100754E+04  0.22168161591E+04 0.  0.
        4    1    3    3  502    0  0.65522949416E+03 -0.24665319449E+03  0.73917550469E+03  0.10181087997E+04  0.12699999809E+01 0.  1.
       -4    1    3    3    0  502 -0.65522949416E+03  0.24665319449E+03 -0.99043647113E+03  0.12129012757E+04  0.12699999809E+01 0. -1.
</event>
<event>
 5   0  0.2066170E-05  0.2533921E+04  0.7818609E-02  0.8391000E-01
       -1   -1    0    0    0  501  0.00000000000E+00  0.00000000000E+00  0.13698802543E+04  0.13698802543E+04  0.50400001928E-02 0. -1.
        1   -1    0    0  501    0  0.00000000000E+00  0.00000000000E+00 -0.11717729815E+04  0.11717729815E+04  0.50400001928E-02 0.  1.
    10030    2    1    2    0    0  0.00000000000E+00  0.00000000000E+00  0.19810727288E+03  0.25416532358E+04  0.25339208116E+04 0.  0.
        5    1    3    3  502    0  0.39215666672E+03 -0.91154508707E+03 -0.69104625662E+03  0.12092428688E+04  0.46999998093E+01 0.  1.
       -5    1    3    3    0  502 -0.39215666672E+03  0.91154508707E+03  0.88915352950E+03  0.13324103670E+04  0.46999998093E+01 0. -1.
</event>
<event>
 5   0  0.2081874E-05  0.2504797E+04  0.7818609E-02  0.8401279E-01
       -1   -1    0    0    0  501  0.00000000000E+00  0.00000000000E+00  0.96077546412E+03  0.96077546413E+03  0.50400001928E-02 0.  1.
        1   -1    0    0  501    0  0.00000000000E+00  0.00000000000E+00 -0.16325369460E+04  0.16325369460E+04  0.50400001928E-02 0. -1.
    10030    2    1    2    0    0  0.00000000000E+00  0.00000000000E+00 -0.67176148191E+03  0.25933124102E+04  0.25047965522E+04 0.  0.
        1    1    3    3  502    0  0.23147307176E+03 -0.85265651309E+03 -0.12548850052E+04  0.15347114675E+04  0.50400001928E-02 0. -1.
       -1    1    3    3    0  502 -0.23147307176E+03  0.85265651309E+03  0.58312352331E+03  0.10586009426E+04  0.50400001928E-02 0.  1.
</event>
<event>
 5   0  0.2036578E-05  0.2313215E+04  0.7818609E-02  0.8472729E-01
        1   -1    0    0  501    0  0.00000000000E+00  0.00000000000E+00  0.14339800097E+04  0.14339800097E+04  0.50400001928E-02 0. -1.
       -1   -1    0    0    0  501  0.00000000000E+00  0.00000000000E+00 -0.93288690740E+03  0.93288690741E+03  0.50400001928E-02 0.  1.
    10030    2    1    2    0    0  0.00000000000E+00  0.00000000000E+00  0.50109310225E+03  0.23668669171E+04  0.23132152312E+04 0.  0.
        2    1    3    3  502    0  0.95827583609E+03 -0.58616002113E+03  0.53237096184E+03  0.12430989460E+04  0.25500000920E-02 0. -1.
       -2    1    3    3    0  502 -0.95827583609E+03  0.58616002113E+03 -0.31277859586E+02  0.11237679711E+04  0.25500000920E-02 0.  1.
</event>
<event>
 5   0  0.4959347E-05  0.2501465E+04  0.7818609E-02  0.8402464E-01
        2   -1    0    0  501    0  0.00000000000E+00  0.00000000000E+00  0.13846332034E+04  0.13846332034E+04  0.25500000920E-02 0. -1.
       -2   -1    0    0    0  501  0.00000000000E+00  0.00000000000E+00 -0.11297810064E+04  0.11297810064E+04  0.25500000920E-02 0.  1.
    10030    2    1    2    0    0  0.00000000000E+00  0.00000000000E+00  0.25485219702E+03  0.25144142098E+04  0.25014654057E+04 0.  0.
        3    1    3    3  502    0 -0.58302912658E+03 -0.10792223482E+04 -0.11815076691E+03  0.12323162959E+04  0.10100000352E+00 0. -1.
       -3    1    3    3    0  502  0.58302912658E+03  0.10792223482E+04  0.37300296393E+03  0.12820979138E+04  0.10100000352E+00 0.  1.
</event>
<event>
 5   0  0.5219468E-05  0.2450172E+04  0.7818609E-02  0.8420955E-01
        2   -1    0    0  501    0  0.00000000000E+00  0.00000000000E+00  0.14818261528E+04  0.14818261528E+04  0.25500000920E-02 0.  1.
       -2   -1    0    0    0  501  0.00000000000E+00  0.00000000000E+00 -0.10128286956E+04  0.10128286956E+04  0.25500000920E-02 0. -1.
    10030    2    1    2    0    0  0.00000000000E+00  0.00000000000E+00  0.46899745722E+03  0.24946548484E+04  0.24501722792E+04 0.  0.
        1    1    3    3  502    0 -0.60050706322E+03  0.81018090219E+03  0.94270886154E+03  0.13804715951E+04  0.50400001928E-02 0.  1.
       -1    1    3    3    0  502  0.60050706322E+03 -0.81018090219E+03 -0.47371140433E+03  0.11141832533E+04  0.50400001928E-02 0. -1.
</event>
<event>
 5   0  0.2036578E-05  0.2546394E+04  0.7818609E-02  0.8386641E-01
        1   -1    0    0  501    0  0.00000000000E+00  0.00000000000E+00  0.19803386461E+04  0.19803386461E+04  0.50400001928E-02 0.  1.
       -1   -1    0    0    0  501  0.00000000000E+00  0.00000000000E+00 -0.81856233448E+03  0.81856233449E+03  0.50400001928E-02 0. -1.
    10030    2    1    2    0    0  0.00000000000E+00  0.00000000000E+00  0.11617763117E+04  0.27989009806E+04  0.25463940192E+04 0.  0.
        2    1    3    3  502    0 -0.78900108500E+03  0.96729391833E+03  0.30532832299E+03  0.12850702788E+04  0.25500000920E-02 0.  1.
       -2    1    3    3    0  502  0.78900108500E+03 -0.96729391833E+03  0.85644798866E+03  0.15138307018E+04  0.25500000920E-02 0. -1.
</event>
<event>
 5   0  0.2041718E-05  0.2618457E+04  0.7818609E-02  0.8361959E-01
       -1   -1    0    0    0  501  0.00000000000E+00  0.00000000000E+00  0.75536830330E+03  0.75536830331E+03  0.50400001928E-02 0.  1.
        1   -1    0    0  501    0  0.00000000000E+00  0.00000000000E+00 -0.22691975473E+04  0.22691975473E+04  0.50400001928E-02 0. -1.
    10030    2    1    2    0    0  0.00000000000E+00  0.00000000000E+00 -0.15138292440E+04  0.30245658506E+04  0.26184574858E+04 0.  0.
        4    1    3    3  502    0  0.30566867551E+03 -0.49561096575E+03  0.59756099429E+03  0.83435263729E+03  0.12699999809E+01 0.  1.
       -4    1    3    3    0  502 -0.30566867551E+03  0.49561096575E+03 -0.21113902383E+04  0.21902132133E+04  0.12699999809E+01 0. -1.
</event>
<event>
 5   0  0.2063930E-05  0.2572790E+04  0.7818609E-02  0.8377503E-01
        1   -1    0    0  501    0  0.00000000000E+00  0.00000000000E+00  0.13154187267E+04  0.13154187267E+04  0.50400001928E-02 0.  1.
       -1   -1    0    0    0  501  0.00000000000E+00  0.00000000000E+00 -0.12580121138E+04  0.12580121138E+04  0.50400001928E-02 0. -1.
    10030    2    1    2    0    0  0.00000000000E+00  0.00000000000E+00  0.57406612918E+02  0.25734308405E+04  0.25727904640E+04 0.  0.
        3    1    3    3  502    0  0.87774931604E+03 -0.28157406600E+03  0.92619185400E+03  0.13067360778E+04  0.10100000352E+00 0.  1.
       -3    1    3    3    0  502 -0.87774931604E+03  0.28157406600E+03 -0.86878524108E+03  0.12666947627E+04  0.10100000352E+00 0. -1.
</event>
<event>
 5   0  0.2041718E-05  0.2478963E+04  0.7818609E-02  0.8410518E-01
        1   -1    0    0  501    0  0.00000000000E+00  0.00000000000E+00  0.24090683822E+04  0.24090683822E+04  0.50400001928E-02 0.  1.
       -1   -1    0    0    0  501  0.00000000000E+00  0.00000000000E+00 -0.63772153928E+03  0.63772153930E+03  0.50400001928E-02 0. -1.
    10030    2    1    2    0    0  0.00000000000E+00  0.00000000000E+00  0.17713468430E+04  0.30467899215E+04  0.24789633293E+04 0.  0.
        4    1    3    3  502    0  0.11015546223E+04  0.40058231375E+03  0.13810073246E+04  0.18113728549E+04  0.12699999809E+01 0.  1.
       -4    1    3    3    0  502 -0.11015546223E+04 -0.40058231375E+03  0.39033951836E+03  0.12354170666E+04  0.12699999809E+01 0. -1.
</event>
<event>
 5   0  0.4995256E-05  0.2465016E+04  0.7818609E-02  0.8415556E-01
        2   -1    0    0  501    0  0.00000000000E+00  0.00000000000E+00  0.20601868234E+04  0.20601868234E+04  0.25500000920E-02 0. -1.
       -2   -1    0    0    0  501  0.00000000000E+00  0.00000000000E+00 -0.73734881638E+03  0.73734881639E+03  0.25500000920E-02 0.  1.
    10030    2    1    2    0    0  0.00000000000E+00  0.00000000000E+00  0.13228380071E+04  0.27975356398E+04  0.24650162805E+04 0.  0.
        2    1    3    3  502    0 -0.10245349328E+04  0.32976533303E+03  0.13429795010E+04  0.17210493727E+04  0.25500000920E-02 0. -1.
       -2    1    3    3    0  502  0.10245349328E+04 -0.32976533303E+03 -0.20141493896E+02  0.10764862671E+04  0.25500000920E-02 0.  1.
</event>
<event>
 5   0  0.5219468E-05  0.2529425E+04  0.7818609E-02  0.8392577E-01
        2   -1    0    0  501    0  0.00000000000E+00  0.00000000000E+00  0.14722132689E+04  0.14722132689E+04  0.25500000920E-02 0.  1.
       -2   -1    0    0    0  501  0.00000000000E+00  0.00000000000E+00 -0.10864581568E+04  0.10864581568E+04  0.25500000920E-02 0. -1.
    10030    2    1    2    0    0  0.00000000000E+00  0.00000000000E+00  0.38575511203E+03  0.25586714257E+04  0.25294253217E+04 0.  0.
        1    1    3    3  502    0  0.22263966681E+03  0.60085768371E+03 -0.91009643799E+03  0.11130471256E+04  0.50400001928E-02 0. -1.
       -1    1    3    3    0  502 -0.22263966681E+03 -0.60085768371E+03  0.12958515500E+04  0.14456243001E+04  0.50400001928E-02 0.  1.
</event>
<event>
 5   0  0.2081874E-05  0.2421544E+04  0.7818609E-02  0.8431482E-01
        1   -1    0    0  501    0  0.00000000000E+00  0.00000000000E+00  0.15667161757E+04  0.15667161757E+04  0.50400001928E-02 0.  1.
       -1   -1    0    0    0  501  0.00000000000E+00  0.00000000000E+00 -0.93569513085E+03  0.93569513086E+03  0.50400001928E-02 0. -1.
    10030    2    1    2    0    0  0.00000000000E+00  0.00000000000E+00  0.63102104484E+03  0.25024113066E+04  0.24215438852E+04 0.  0.
        1    1    3    3  502    0  0.36245478842E+03  0.76082028050E+03  0.12138795560E+04  0.14777430593E+04  0.50400001928E-02 0.  1.
       -1    1    3    3    0  502 -0.36245478842E+03 -0.76082028050E+03 -0.58285851115E+03  0.10246682472E+04  0.50400001928E-02 0. -1.
</event>
<event>
 5   0  0.4995256E-05  0.2460519E+04  0.7818609E-02  0.8417187E-01
       -2   -1    0    0    0  501  0.00000000000E+00  0.00000000000E+00  0.10394980289E+04  0.10394980289E+04  0.25500000920E-02 0. -1.
        2   -1    0    0  501    0  0.00000000000E+00  0.00000000000E+00 -0.14560281715E+04  0.14560281715E+04  0.25500000920E-02 0.  1.
    10030    2    1    2    0    0  0.00000000000E+00  0.00000000000E+00 -0.41653014259E+03  0.24955262005E+04  0.24605189813E+04 0.  0.
        2    1    3    3  502    0 -0.11801068717E+04  0.17054334417E+02  0.14394410681E+03  0.11889756032E+04  0.25500000920E-02 0. -1.
       -2    1    3    3    0  502  0.11801068717E+04 -0.17054334417E+02 -0.56047424940E+03  0.13065505973E+04  0.25500000920E-02 0.  1.
</event>
<event>
 5   0  0.2063930E-05  0.2506903E+04  0.7818609E-02  0.8400531E-01
       -1   -1    0    0    0  501  0.00000000000E+00  0.00000000000E+00  0.10228850840E+04  0.10228850840E+04  0.50400001928E-02 0. -1.
        1   -1    0    0  501    0  0.00000000000E+00  0.00000000000E+00 -0.15359891456E+04  0.15359891456E+04  0.50400001928E-02 0.  1.
    10030    2    1    2    0    0  0.00000000000E+00  0.00000000000E+00 -0.51310406161E+03  0.25588742297E+04  0.25069027794E+04 0.  0.
        3    1    3    3  502    0  0.94091668294E+02  0.10482248619E+03  0.10147807881E+04  0.10245101530E+04  0.10100000352E+00 0. -1.
       -3    1    3    3    0  502 -0.94091668294E+02 -0.10482248619E+03 -0.15278848497E+04  0.15343640766E+04  0.10100000352E+00 0.  1.
</event>
<event>
 5   0  0.5219468E-05  0.2151257E+04  0.7818609E-02  0.8538995E-01
        2   -1    0    0  501    0  0.00000000000E+00  0.00000000000E+00  0.12087990639E+04  0.12087990639E+04  0.25500000920E-02 0. -1.
       -2   -1    0    0    0  501  0.00000000000E+00  0.00000000000E+00 -0.95712865523E+03  0.95712865524E+03  0.25500000920E-02 0.  1.
    10030    2    1    2    0    0  0.00000000000E+00  0.00000000000E+00  0.25167040865E+03  0.21659277191E+04  0.21512565839E+04 0.  0.
        1    1    3    3  502    0  0.52460607687E+03 -0.80084749784E+03  0.61949320397E+03  0.11403245505E+04  0.50400001928E-02 0. -1.
       -1    1    3    3    0  502 -0.52460607687E+03  0.80084749784E+03 -0.36782279532E+03  0.10256031686E+04  0.50400001928E-02 0.  1.
</event>
<event>
 5   0  0.2063930E-05  0.2521569E+04  0.7818609E-02  0.8395342E-01
       -1   -1    0    0    0  501  0.00000000000E+00  0.00000000000E+00  0.11704291980E+04  0.11704291981E+04  0.50400001928E-02 0. -1.
        1   -1    0    0  501    0  0.00000000000E+00  0.00000000000E+00 -0.13581151087E+04  0.13581151088E+04  0.50400001928E-02 0.  1.
    10030    2    1    2    0    0  0.00000000000E+00  0.00000000000E+00 -0.18768591070E+03  0.25285443068E+04  0.25215690176E+04 0.  0.
        3    1    3    3  502    0 -0.98849187529E+03 -0.78049593990E+03 -0.36347905532E+02  0.12600044762E+04  0.10100000352E+00 0.  1.
       -3    1    3    3    0  502  0.98849187529E+03  0.78049593990E+03 -0.15133800517E+03  0.12685398306E+04  0.10100000352E+00 0. -1.
</event>
<event>
 5   0  0.5024070E-05  0.1760918E+04  0.7818609E-02  0.8727364E-01
        2   -1    0    0  501    0  0.00000000000E+00  0.00000000000E+00  0.11269138517E+04  0.11269138517E+04  0.25500000920E-02 0. -1.
       -2   -1    0    0    0  501  0.00000000000E+00  0.00000000000E+00 -0.68790330619E+03  0.68790330620E+03  0.25500000920E-02 0.  1.
    10030    2    1    2    0    0  0.00000000000E+00  0.00000000000E+00  0.43901054547E+03  0.18148171579E+04  0.17609176748E+04 0.  0.
        5    1    3    3  502    0 -0.83200757648E+03 -0.26884697683E+03  0.32596456276E+03  0.93316144929E+03  0.46999998093E+01 0. -1.
       -5    1    3    3    0  502  0.83200757648E+03  0.26884697683E+03  0.11304598271E+03  0.88165570858E+03  0.46999998093E+01 0.  1.
</event>
<event>
 5   0  0.5219468E-05  0.2537922E+04  0.7818609E-02  0.8389599E-01
       -2   -1    0    0    0  501  0.00000000000E+00  0.00000000000E+00  0.68245480014E+03  0.68245480014E+03  0.25500000920E-02 0. -1.
        2   -1    0    0  501    0  0.00000000000E+00  0.00000000000E+00 -0.23595136157E+04  0.23595136157E+04  0.25500000920E-02 0.  1.
    10030    2    1    2    0    0  0.00000000000E+00  0.00000000000E+00 -0.16770588155E+04  0.30419684158E+04  0.25379215063E+04 0.  0.
        1    1    3    3  502    0 -0.85455486517E+03  0.89799158522E+03 -0.51333695036E+03  0.13417032941E+04  0.50400001928E-02 0. -1.
       -1    1    3    3    0  502  0.85455486517E+03 -0.89799158522E+03 -0.11637218652E+04  0.17002651217E+04  0.50400001928E-02 0.  1.
</event>
<event>
 5   0  0.2036578E-05  0.2441185E+04  0.7818609E-02  0.8424244E-01
       -1   -1    0    0    0  501  0.00000000000E+00  0.00000000000E+00  0.93956903877E+03  0.93956903878E+03  0.50400001928E-02 0. -1.
        1   -1    0    0  501    0  0.00000000000E+00  0.00000000000E+00 -0.15856689589E+04  0.15856689589E+04  0.50400001928E-02 0.  1.
    10030    2    1    2    0    0  0.00000000000E+00  0.00000000000E+00 -0.64609992011E+03  0.25252379977E+04  0.24411845154E+04 0.  0.
        2    1    3    3  502    0  0.41867260206E+03 -0.31775416798E+03  0.81651184037E+03  0.97105408935E+03  0.25500000920E-02 0. -1.
       -2    1    3    3    0  502 -0.41867260206E+03  0.31775416798E+03 -0.14626117605E+04  0.15541839083E+04  0.25500000920E-02 0.  1.
</event>
<event>
 5   0  0.4995256E-05  0.2452013E+04  0.7818609E-02  0.8420283E-01
        2   -1    0    0  501    0  0.00000000000E+00  0.00000000000E+00  0.49436424881E+03  0.49436424881E+03  0.25500000920E-02 0. -1.
       -2   -1    0    0    0  501  0.00000000000E+00  0.00000000000E+00 -0.30404548516E+04  0.30404548516E+04  0.25500000920E-02 0.  1.
    10030    2    1    2    0    0  0.00000000000E+00  0.00000000000E+00 -0.25460906028E+04  0.35348191004E+04  0.24520131963E+04 0.  0.
        2    1    3    3  502    0  0.10022249616E+04  0.55835176717E+03 -0.18962439608E+04  0.22162925638E+04  0.25500000920E-02 0.  1.
       -2    1    3    3    0  502 -0.10022249616E+04 -0.55835176717E+03 -0.64984664201E+03  0.13185265366E+04  0.25500000920E-02 0. -1.
</event>
<event>
 5   0  0.5219468E-05  0.2520840E+04  0.7818609E-02  0.8395599E-01
       -2   -1    0    0    0  501  0.00000000000E+00  0.00000000000E+00  0.20762200602E+04  0.20762200602E+04  0.25500000920E-02 0.  1.
        2   -1    0    0  501    0  0.00000000000E+00  0.00000000000E+00 -0.76516868754E+03  0.76516868754E+03  0.25500000920E-02 0. -1.
    10030    2    1    2    0    0  0.00000000000E+00  0.00000000000E+00  0.13110513727E+04  0.28413887478E+04  0.25208400017E+04 0.  0.
        1    1    3    3  502    0 -0.67618994458E+03  0.80381647406E+03  0.14407480749E+04  0.17830055470E+04  0.50400001928E-02 0.  1.
       -1    1    3    3    0  502  0.67618994458E+03 -0.80381647406E+03 -0.12969670223E+03  0.10583832008E+04  0.50400001928E-02 0. -1.
</event>
<event>
 5   0  0.2036578E-05  0.2501729E+04  0.7818609E-02  0.8402370E-01
       -1   -1    0    0    0  501  0.00000000000E+00  0.00000000000E+00  0.11076952940E+04  0.11076952940E+04  0.50400001928E-02 0.  1.
        1   -1    0    0  501    0  0.00000000000E+00  0.00000000000E+00 -0.14125385774E+04  0.14125385774E+04  0.50400001928E-02 0. -1.
    10030    2    1    2    0    0  0.00000000000E+00  0.00000000000E+00 -0.30484328341E+03  0.25202338713E+04  0.25017292697E+04 0.  0.
        2    1    3    3  502    0  0.92805725727E+03  0.10125050034E+03 -0.99111822615E+03  0.13615642749E+04  0.25500000920E-02 0. -1.
       -2    1    3    3    0  502 -0.92805725727E+03 -0.10125050034E+03  0.68627494274E+03  0.11586695964E+04  0.25500000920E-02 0.  1.
</event>
<event>
 5   0  0.2041718E-05  0.2521706E+04  0.7818609E-02  0.8395293E-01
        1   -1    0    0  501    0  0.00000000000E+00  0.00000000000E+00  0.62841663558E+03  0.62841663560E+03  0.50400001928E-02 0. -1.
       -1   -1    0    0    0  501  0.00000000000E+00  0.00000000000E+00 -0.25297705463E+04  0.25297705463E+04  0.50400001928E-02 0.  1.
    10030    2    1    2    0    0  0.00000000000E+00  0.00000000000E+00 -0.19013539107E+04  0.31581871819E+04  0.25217056890E+04 0.  0.
        4    1    3    3  502    0 -0.69518611942E+03  0.39938383880E+03 -0.21694100896E+04  0.23128192625E+04  0.12699999809E+01 0.  1.
       -4    1    3    3    0  502  0.69518611942E+03 -0.39938383880E+03  0.26805617881E+03  0.84536791945E+03  0.12699999809E+01 0. -1.
</event>
<event>
 5   0  0.5024070E-05  0.2478183E+04  0.7818609E-02  0.8410799E-01
        2   -1    0    0  501    0  0.00000000000E+00  0.00000000000E+00  0.15984927640E+04  0.15984927640E+04  0.25500000920E-02 0.  1.
       -2   -1    0    0    0  501  0.00000000000E+00  0.00000000000E+00 -0.96049736220E+03  0.96049736220E+03  0.25500000920E-02 0. -1.
    10030    2    1    2    0    0  0.00000000000E+00  0.00000000000E+00  0.63799540178E+03  0.25589901262E+04  0.24781832727E+04 0.  0.
        5    1    3    3  502    0  0.19607225642E+03 -0.13296492393E+03  0.15748799744E+04  0.15926057342E+04  0.46999998093E+01 0.  1.
       -5    1    3    3    0  502 -0.19607225642E+03  0.13296492393E+03 -0.93688457262E+03  0.96638439202E+03  0.46999998093E+01 0. -1.
</event>
<event>
 5   0  0.2066170E-05  0.2530863E+04  0.7818609E-02  0.8392072E-01
       -1   -1    0    0    0  501  0.00000000000E+00  0.00000000000E+00  0.12071471825E+04  0.12071471825E+04  0.50400001928E-02 0. -1.
        1   -1    0    0  501    0  0.00000000000E+00  0.00000000000E+00 -0.13265295156E+04  0.13265295157E+04  0.50400001928E-02 0.  1.
    10030    2    1    2    0    0  0.00000000000E+00  0.00000000000E+00 -0.11938233311E+03  0.25336766982E+04  0.25308625940E+04 0.  0.
        5    1    3    3  502    0  0.97058585538E+03  0.57052970599E+03  0.51866499743E+03  0.12395872368E+04  0.46999998093E+01 0. -1.
       -5    1    3    3    0  502 -0.97058585538E+03 -0.57052970599E+03 -0.63804733054E+03  0.12940894614E+04  0.46999998093E+01 0.  1.
</event>
<event>
 5   0  0.2063930E-05  0.2488935E+04  0.7818609E-02  0.8406938E-01
       -1   -1    0    0    0  501  0.00000000000E+00  0.00000000000E+00  0.89454533124E+03  0.89454533125E+03  0.50400001928E-02 0. -1.
        1   -1    0    0  501    0  0.00000000000E+00  0.00000000000E+00 -0.17312698369E+04  0.17312698369E+04  0.50400001928E-02 0.  1.
    10030    2    1    2    0    0  0.00000000000E+00  0.00000000000E+00 -0.83672450568E+03  0.26258151682E+04  0.24889349929E+04 0.  0.
        3    1    3    3  502    0 -0.11890315189E+04 -0.87469583949E+02 -0.79470512068E+03  0.14328304575E+04  0.10100000352E+00 0.  1.
       -3    1    3    3    0  502  0.11890315189E+04  0.87469583949E+02 -0.42019384999E+02  0.11929847107E+04  0.10100000352E+00 0. -1.
</event>
<event>
 5   0  0.4959347E-05  0.2493511E+04  0.7818609E-02  0.8405301E-01
       -2   -1    0    0    0  501  0.00000000000E+00  0.00000000000E+00  0.91137172510E+03  0.91137172511E+03  0.25500000920E-02 0.  1.
        2   -1    0    0  501    0  0.00000000000E+00  0.00000000000E+00 -0.17055594997E+04  0.17055594997E+04  0.25500000920E-02 0. -1.
    10030    2    1    2    0    0  0.00000000000E+00  0.00000000000E+00 -0.79418777455E+03  0.26169312248E+04  0.24935105402E+04 0.  0.
        3    1    3    3  502    0  0.74748370246E+03 -0.95670546798E+03 -0.99544518428E+02  0.12181651609E+04  0.10100000352E+00 0.  1.
       -3    1    3    3    0  502 -0.74748370246E+03  0.95670546798E+03 -0.69464325613E+03  0.13987660639E+04  0.10100000352E+00 0. -1.
</event>
<event>
 5   0  0.5024070E-05  0.1562247E+04  0.7818609E-02  0.8844083E-01
       -2   -1    0    0    0  501  0.00000000000E+00  0.00000000000E+00  0.30689961548E+03  0.30689961549E+03  0.25500000920E-02 0. -1.
        2   -1    0    0  501    0  0.00000000000E+00  0.00000000000E+00 -0.19881215328E+04  0.19881215328E+04  0.25500000920E-02 0.  1.
    10030    2    1    2    0    0  0.00000000000E+00  0.00000000000E+00 -0.16812219173E+04  0.22950211483E+04  0.15622467589E+04 0.  0.
        5    1    3    3  502    0  0.38629909159E+03  0.60636369538E+03 -0.39206225893E+03  0.81892540815E+03  0.46999998093E+01 0. -1.
       -5    1    3    3    0  502 -0.38629909159E+03 -0.60636369538E+03 -0.12891596584E+04  0.14760957401E+04  0.46999998093E+01 0.  1.
</event>
<event>
 5   0  0.2066170E-05  0.2508047E+04  0.7818609E-02  0.8400124E-01
       -1   -1    0    0    0  501  0.00000000000E+00  0.00000000000E+00  0.11558878756E+04  0.11558878756E+04  0.50400001928E-02 0. -1.
        1   -1    0    0  501    0  0.00000000000E+00  0.00000000000E+00 -0.13604905034E+04  0.13604905034E+04  0.50400001928E-02 0.  1.
    10030    2    1    2    0    0  0.00000000000E+00  0.00000000000E+00 -0.20460262783E+03  0.25163783790E+04  0.25080466325E+04 0.  0.
        5    1    3    3  502    0  0.98516806358E+03 -0.74527683071E+03  0.11419018785E+03  0.12405866181E+04  0.46999998093E+01 0.  1.
       -5    1    3    3    0  502 -0.98516806358E+03  0.74527683071E+03 -0.31879281568E+03  0.12757917609E+04  0.46999998093E+01 0. -1.
</event>
<event>
 5   0  0.2036578E-05  0.2453433E+04  0.7818609E-02  0.8419766E-01
        1   -1    0    0  501    0  0.00000000000E+00  0.00000000000E+00  0.16799624875E+04  0.16799624875E+04  0.50400001928E-02 0. -1.
       -1   -1    0    0    0  501  0.00000000000E+00  0.00000000000E+00 -0.89575429882E+03  0.89575429884E+03  0.50400001928E-02 0.  1.
    10030    2    1    2    0    0  0.00000000000E+00  0.00000000000E+00  0.78420818871E+03  0.25757167864E+04  0.24534332028E+04 0.  0.
        2    1    3    3  502    0 -0.11267844377E+04  0.10273211108E+02  0.90112573725E+03  0.14428362008E+04  0.25500000920E-02 0. -1.
       -2    1    3    3    0  502  0.11267844377E+04 -0.10273211108E+02 -0.11691754854E+03  0.11328805856E+04  0.25500000920E-02 0.  1.
</event>
<event>
 5   0  0.4959042E-05  0.2487419E+04  0.7818609E-02  0.8407481E-01
        2   -1    0    0  501    0  0.00000000000E+00  0.00000000000E+00  0.10305746385E+04  0.10305746386E+04  0.25500000920E-02 0. -1.
       -2   -1    0    0    0  501  0.00000000000E+00  0.00000000000E+00 -0.15009227795E+04  0.15009227796E+04  0.25500000920E-02 0.  1.
    10030    2    1    2    0    0  0.00000000000E+00  0.00000000000E+00 -0.47034814100E+03  0.25314974181E+04  0.24874187030E+04 0.  0.
        4    1    3    3  502    0 -0.11311983953E+04 -0.51555617333E+03 -0.19704877264E+03  0.12586650901E+04  0.12699999809E+01 0. -1.
       -4    1    3    3    0  502  0.11311983953E+04  0.51555617333E+03 -0.27329936836E+03  0.12728323280E+04  0.12699999809E+01 0.  1.
</event>
<event>
 5   0  0.1692125E-05  0.2526267E+04  0.7818609E-02  0.8393687E-01
       -4   -1    0    0    0  501  0.00000000000E+00  0.00000000000E+00  0.17352983870E+04  0.17352988517E+04  0.12699999809E+01 0.  1.
        4   -1    0    0  501    0  0.00000000000E+00  0.00000000000E+00 -0.91944105087E+03  0.91944192798E+03  0.12699999809E+01 0. -1.
    10030    2    1    2    0    0  0.00000000000E+00  0.00000000000E+00  0.81585733612E+03  0.26547407797E+04  0.25262670909E+04 0.  0.
        2    1    3    3  502    0  0.15981203917E+03  0.11413213304E+04  0.95128489121E+03  0.14943551155E+04  0.25500000920E-02 0. -1.
       -2    1    3    3    0  502 -0.15981203917E+03 -0.11413213304E+04 -0.13542755509E+03  0.11603856642E+04  0.25500000920E-02 0.  1.
</event>
<event>
 5   0  0.2081874E-05  0.2472570E+04  0.7818609E-02  0.8412823E-01
       -1   -1    0    0    0  501  0.00000000000E+00  0.00000000000E+00  0.11984792960E+04  0.11984792961E+04  0.50400001928E-02 0.  1.
        1   -1    0    0  501    0  0.00000000000E+00  0.00000000000E+00 -0.12752833277E+04  0.12752833277E+04  0.50400001928E-02 0. -1.
    10030    2    1    2    0    0  0.00000000000E+00  0.00000000000E+00 -0.76804031601E+02  0.24737626237E+04  0.24725700514E+04 0.  0.
        1    1    3    3  502    0  0.87394259746E+03 -0.75082442299E+03 -0.48682315534E+03  0.12508036466E+04  0.50400001928E-02 0. -1.
       -1    1    3    3    0  502 -0.87394259746E+03  0.75082442299E+03  0.41001912374E+03  0.12229589771E+04  0.50400001928E-02 0.  1.
</event>
<event>
 5   0  0.4995256E-05  0.2497565E+04  0.7818609E-02  0.8403854E-01
       -2   -1    0    0    0  501  0.00000000000E+00  0.00000000000E+00  0.88188244451E+03  0.88188244452E+03  0.25500000920E-02 0.  1.
        2   -1    0    0  501    0  0.00000000000E+00  0.00000000000E+00 -0.17683278653E+04  0.17683278653E+04  0.25500000920E-02 0. -1.
    10030    2    1    2    0    0  0.00000000000E+00  0.00000000000E+00 -0.88644542083E+03  0.26502103099E+04  0.24975646543E+04 0.  0.
        2    1    3    3  502    0  0.91137282927E+03  0.15342899340E+03 -0.13343825238E+04  0.16231813238E+04  0.25500000920E-02 0. -1.
       -2    1    3    3    0  502 -0.91137282927E+03 -0.15342899340E+03  0.44793710302E+03  0.10270289861E+04  0.25500000920E-02 0.  1.
</event>
<event>
 5   0  0.2036578E-05  0.2499178E+04  0.7818609E-02  0.8403278E-01
       -1   -1    0    0    0  501  0.00000000000E+00  0.00000000000E+00  0.10303260841E+04  0.10303260841E+04  0.50400001928E-02 0.  1.
        1   -1    0    0  501    0  0.00000000000E+00  0.00000000000E+00 -0.15155136265E+04  0.15155136265E+04  0.50400001928E-02 0. -1.
    10030    2    1    2    0    0  0.00000000000E+00  0.00000000000E+00 -0.48518754240E+03  0.25458397106E+04  0.24991784412E+04 0.  0.
        2    1    3    3  502    0  0.41388477327E+03 -0.11586950685E+04 -0.46483762174E+03  0.13152752115E+04  0.25500000920E-02 0.  1.
       -2    1    3    3    0  502 -0.41388477327E+03  0.11586950685E+04 -0.20349920663E+02  0.12305644991E+04  0.25500000920E-02 0. -1.
</event>
<event>
 5   0  0.5219468E-05  0.2506377E+04  0.7818609E-02  0.8400717E-01
       -2   -1    0    0    0  501  0.00000000000E+00  0.00000000000E+00  0.21156468705E+04  0.21156468705E+04  0.25500000920E-02 0.  1.
        2   -1    0    0  501    0  0.00000000000E+00  0.00000000000E+00 -0.74231710128E+03  0.74231710129E+03  0.25500000920E-02 0. -1.
    10030    2    1    2    0    0  0.00000000000E+00  0.00000000000E+00  0.13733297692E+04  0.28579639718E+04  0.25063765497E+04 0.  0.
        1    1    3    3  502    0 -0.10816943535E+04 -0.13037419261E+03 -0.19405890538E+02  0.10896956883E+04  0.50400001928E-02 0. -1.
       -1    1    3    3    0  502  0.10816943535E+04  0.13037419261E+03  0.13927356597E+04  0.17682682835E+04  0.50400001928E-02 0.  1.
</event>
<event>
 5   0  0.2063930E-05  0.2555893E+04  0.7818609E-02  0.8383340E-01
        1   -1    0    0  501    0  0.00000000000E+00  0.00000000000E+00  0.97950770469E+03  0.97950770470E+03  0.50400001928E-02 0. -1.
       -1   -1    0    0    0  501  0.00000000000E+00  0.00000000000E+00 -0.16673139462E+04  0.16673139462E+04  0.50400001928E-02 0.  1.
    10030    2    1    2    0    0  0.00000000000E+00  0.00000000000E+00 -0.68780624148E+03  0.26468216509E+04  0.25558926867E+04 0.  0.
        3    1    3    3  502    0  0.51657360223E+03  0.40164587784E+03 -0.14806710929E+04  0.16188127110E+04  0.10100000352E+00 0.  1.
       -3    1    3    3    0  502 -0.51657360223E+03 -0.40164587784E+03  0.79286485141E+03  0.10280089399E+04  0.10100000352E+00 0. -1.
</event>
<event>
 5   0  0.2063930E-05  0.2513800E+04  0.7818609E-02  0.8398086E-01
       -1   -1    0    0    0  501  0.00000000000E+00  0.00000000000E+00  0.69804614163E+03  0.69804614164E+03  0.50400001928E-02 0. -1.
        1   -1    0    0  501    0  0.00000000000E+00  0.00000000000E+00 -0.22631702429E+04  0.22631702429E+04  0.50400001928E-02 0.  1.
    10030    2    1    2    0    0  0.00000000000E+00  0.00000000000E+00 -0.15651241013E+04  0.29612163845E+04  0.25137997183E+04 0.  0.
        3    1    3    3  502    0 -0.10182570312E+04 -0.24806989504E+03 -0.15998922793E+04  0.19126006823E+04  0.10100000352E+00 0. -1.
       -3    1    3    3    0  502  0.10182570312E+04  0.24806989504E+03  0.34768178054E+02  0.10486157022E+04  0.10100000352E+00 0.  1.
</event>
<event>
 5   0  0.4959042E-05  0.2506257E+04  0.7818609E-02  0.8400760E-01
       -2   -1    0    0    0  501  0.00000000000E+00  0.00000000000E+00  0.11832987353E+04  0.11832987353E+04  0.25500000920E-02 0. -1.
        2   -1    0    0  501    0  0.00000000000E+00  0.00000000000E+00 -0.13270787838E+04  0.13270787838E+04  0.25500000920E-02 0.  1.
    10030    2    1    2    0    0  0.00000000000E+00  0.00000000000E+00 -0.14378004843E+03  0.25103775191E+04  0.25062566880E+04 0.  0.
        4    1    3    3  502    0 -0.74733988753E+03  0.69018366866E+03 -0.80484356855E+03  0.12971681413E+04  0.12699999809E+01 0.  1.
       -4    1    3    3    0  502  0.74733988753E+03 -0.69018366866E+03  0.66106352012E+03  0.12132093779E+04  0.12699999809E+01 0. -1.
</event>
<event>
 5   0  0.5219468E-05  0.2495034E+04  0.7818609E-02  0.8404757E-01
       -2   -1    0    0    0  501  0.00000000000E+00  0.00000000000E+00  0.13415123036E+04  0.13415123036E+04  0.25500000920E-02 0.  1.
        2   -1    0    0  501    0  0.00000000000E+00  0.00000000000E+00 -0.11601076030E+04  0.11601076031E+04  0.25500000920E-02 0. -1.
    10030    2    1    2    0    0  0.00000000000E+00  0.00000000000E+00  0.18140470056E+03  0.25016199067E+04  0.24950339661E+04 0.  0.
        1    1    3    3  502    0 -0.69751508970E+03  0.12096384287E+03 -0.93920869183E+03  0.11761260640E+04  0.50400001928E-02 0. -1.
       -1    1    3    3    0  502  0.69751508970E+03 -0.12096384287E+03  0.11206133924E+04  0.13254938426E+04  0.50400001928E-02 0.  1.
</event>
<event>
 5   0  0.2036578E-05  0.2472948E+04  0.7818609E-02  0.8412687E-01
        1   -1    0    0  501    0  0.00000000000E+00  0.00000000000E+00  0.89913816665E+03  0.89913816666E+03  0.50400001928E-02 0.  1.
       -1   -1    0    0    0  501  0.00000000000E+00  0.00000000000E+00 -0.17003709874E+04  0.17003709874E+04  0.50400001928E-02 0. -1.
    10030    2    1    2    0    0  0.00000000000E+00  0.00000000000E+00 -0.80123282074E+03  0.25995091541E+04  0.24729484040E+04 0.  0.
        2    1    3    3  502    0 -0.10252718269E+04 -0.67865607113E+03 -0.26310853428E+03  0.12573712589E+04  0.25500000920E-02 0.  1.
       -2    1    3    3    0  502  0.10252718269E+04  0.67865607113E+03 -0.53812428646E+03  0.13421378951E+04  0.25500000920E-02 0. -1.
</event>
<event>
 5   0  0.2041718E-05  0.2424350E+04  0.7818609E-02  0.8430443E-01
       -1   -1    0    0    0  501  0.00000000000E+00  0.00000000000E+00  0.12472624887E+04  0.12472624887E+04  0.50400001928E-02 0.  1.
        1   -1    0    0  501    0  0.00000000000E+00  0.00000000000E+00 -0.11780746794E+04  0.11780746794E+04  0.50400001928E-02 0. -1.
    10030    2    1    2    0    0  0.00000000000E+00  0.00000000000E+00  0.69187809317E+02  0.24253371681E+04  0.24243501038E+04 0.  0.
        4    1    3    3  502    0  0.28220000854E+01  0.85129943107E+03  0.89787516983E+03  0.12372954855E+04  0.12699999809E+01 0.  1.
       -4    1    3    3    0  502 -0.28220000854E+01 -0.85129943107E+03 -0.82868736052E+03  0.11880416825E+04  0.12699999809E+01 0. -1.
</event>
<event>
 5   0  0.2066170E-05  0.2488402E+04  0.7818609E-02  0.8407129E-01
       -1   -1    0    0    0  501  0.00000000000E+00  0.00000000000E+00  0.89225699731E+03  0.89225699732E+03  0.50400001928E-02 0.  1.
        1   -1    0    0  501    0  0.00000000000E+00  0.00000000000E+00 -0.17349668685E+04  0.17349668685E+04  0.50400001928E-02 0. -1.
    10030    2    1    2    0    0  0.00000000000E+00  0.00000000000E+00 -0.84270987122E+03  0.26272238659E+04  0.24884021609E+04 0.  0.
        5    1    3    3  502    0  0.89270189421E+03  0.48756860009E+03  0.33511840317E+03  0.10709651002E+04  0.46999998093E+01 0.  1.
       -5    1    3    3    0  502 -0.89270189421E+03 -0.48756860009E+03 -0.11778282744E+04  0.15562587657E+04  0.46999998093E+01 0. -1.
</event>
<event>
 5   0  0.4995256E-05  0.2475946E+04  0.7818609E-02  0.8411605E-01
       -2   -1    0    0    0  501  0.00000000000E+00  0.00000000000E+00  0.14065266999E+04  0.14065266999E+04  0.25500000920E-02 0.  1.
        2   -1    0    0  501    0  0.00000000000E+00  0.00000000000E+00 -0.10896180722E+04  0.10896180722E+04  0.25500000920E-02 0. -1.
    10030    2    1    2    0    0  0.00000000000E+00  0.00000000000E+00  0.31690862773E+03  0.24961447721E+04  0.24759458082E+04 0.  0.
        2    1    3    3  502    0  0.35506082004E+03 -0.32387215387E+02  0.13536467836E+04  0.13998131063E+04  0.25500000920E-02 0.  1.
       -2    1    3    3    0  502 -0.35506082004E+03  0.32387215387E+02 -0.10367381559E+04  0.10963316659E+04  0.25500000920E-02 0. -1.
</event>
<event>
 5   0  0.2041718E-05  0.2471581E+04  0.7818609E-02  0.8413180E-01
        1   -1    0    0  501    0  0.00000000000E+00  0.00000000000E+00  0.16918142706E+04  0.16918142706E+04  0.50400001928E-02 0.  1.
       -1   -1    0    0    0  501  0.00000000000E+00  0.00000000000E+00 -0.90268686447E+03  0.90268686449E+03  0.50400001928E-02 0. -1.
    10030    2    1    2    0    0  0.00000000000E+00  0.00000000000E+00  0.78912740611E+03  0.25945011351E+04  0.24715812908E+04 0.  0.
        4    1    3    3  502    0 -0.59728288371E+03  0.68404518080E+03 -0.48528078558E+03  0.10296425138E+04  0.12699999809E+01 0. -1.
       -4    1    3    3    0  502  0.59728288371E+03 -0.68404518080E+03  0.12744081917E+04  0.15648586212E+04  0.12699999809E+01 0.  1.
</event>
<event>
 5   0  0.5024070E-05  0.2474155E+04  0.7818609E-02  0.8412251E-01
        2   -1    0    0  501    0  0.00000000000E+00  0.00000000000E+00  0.15905822993E+04  0.15905822993E+04  0.25500000920E-02 0.  1.
       -2   -1    0    0    0  501  0.00000000000E+00  0.00000000000E+00 -0.96213847239E+03  0.96213847239E+03  0.25500000920E-02 0. -1.
    10030    2    1    2    0    0  0.00000000000E+00  0.00000000000E+00  0.62844382694E+03  0.25527207717E+04  0.24741547435E+04 0.  0.
        5    1    3    3  502    0  0.60547087808E+03  0.29321137744E+03 -0.75690168400E+03  0.10126648731E+04  0.46999998093E+01 0. -1.
       -5    1    3    3    0  502 -0.60547087808E+03 -0.29321137744E+03  0.13853455109E+04  0.15400558986E+04  0.46999998093E+01 0.  1.
</event>
<event>
 5   0  0.2066170E-05  0.2456528E+04  0.7818609E-02  0.8418639E-01
        1   -1    0    0  501    0  0.00000000000E+00  0.00000000000E+00  0.20702147890E+04  0.20702147890E+04  0.50400001928E-02 0.  1.
       -1   -1    0    0    0  501  0.00000000000E+00  0.00000000000E+00 -0.72873212582E+03  0.72873212584E+03  0.50400001928E-02 0. -1.
    10030    2    1    2    0    0  0.00000000000E+00  0.00000000000E+00  0.13414826632E+04  0.27989469149E+04  0.24565276503E+04 0.  0.
        5    1    3    3  502    0 -0.49429105819E+03 -0.53558960066E+03 -0.45571886677E+03  0.85958225090E+03  0.46999998093E+01 0. -1.
       -5    1    3    3    0  502  0.49429105819E+03  0.53558960066E+03  0.17972015300E+04  0.19393646640E+04  0.46999998093E+01 0.  1.
</event>
<event>
 5   0  0.2081874E-05  0.1892352E+04  0.7818609E-02  0.8658672E-01
       -1   -1    0    0    0  501  0.00000000000E+00  0.00000000000E+00  0.73413518193E+03  0.73413518195E+03  0.50400001928E-02 0. -1.
        1   -1    0    0  501    0  0.00000000000E+00  0.00000000000E+00 -0.12194611508E+04  0.12194611508E+04  0.50400001928E-02 0.  1.
    10030    2    1    2    0    0  0.00000000000E+00  0.00000000000E+00 -0.48532596885E+03  0.19535963327E+04  0.18923523285E+04 0.  0.
        1    1    3    3  502    0  0.12872717849E+03 -0.45043865312E+03 -0.10913287393E+04  0.11876296073E+04  0.50400001928E-02 0.  1.
       -1    1    3    3    0  502 -0.12872717849E+03  0.45043865312E+03  0.60600277048E+03  0.76596672549E+03  0.50400001928E-02 0. -1.
</event>
<event>
 5   0  0.4995256E-05  0.2458139E+04  0.7818609E-02  0.8418052E-01
       -2   -1    0    0    0  501  0.00000000000E+00  0.00000000000E+00  0.14735596657E+04  0.14735596657E+04  0.25500000920E-02 0. -1.
        2   -1    0    0  501    0  0.00000000000E+00  0.00000000000E+00 -0.10251446975E+04  0.10251446975E+04  0.25500000920E-02 0.  1.
    10030    2    1    2    0    0  0.00000000000E+00  0.00000000000E+00  0.44841496822E+03  0.24987043632E+04  0.24581390341E+04 0.  0.
        2    1    3    3  502    0  0.78581539901E+03  0.43746863581E+02  0.11838160855E+04  0.14215625746E+04  0.25500000920E-02 0. -1.
       -2    1    3    3    0  502 -0.78581539901E+03 -0.43746863581E+02 -0.73540111724E+03  0.10771417886E+04  0.25500000920E-02 0.  1.
</event>
<event>
 5   0  0.2066170E-05  0.2581086E+04  0.7818609E-02  0.8374654E-01
        1   -1    0    0  501    0  0.00000000000E+00  0.00000000000E+00  0.21847800249E+04  0.21847800249E+04  0.50400001928E-02 0. -1.
       -1   -1    0    0    0  501  0.00000000000E+00  0.00000000000E+00 -0.76232000009E+03  0.76232000010E+03  0.50400001928E-02 0.  1.
    10030    2    1    2    0    0  0.00000000000E+00  0.00000000000E+00  0.14224600248E+04  0.29471000250E+04  0.25810862123E+04 0.  0.
        5    1    3    3  502    0  0.11615551088E+03  0.42449361576E+03  0.20964401331E+04  0.21421415112E+04  0.46999998093E+01 0. -1.
       -5    1    3    3    0  502 -0.11615551088E+03 -0.42449361576E+03 -0.67398010828E+03  0.80495851377E+03  0.46999998093E+01 0.  1.
</event>
<event>
 5   0  0.5219468E-05  0.2615756E+04  0.7818609E-02  0.8362869E-01
       -2   -1    0    0    0  501  0.00000000000E+00  0.00000000000E+00  0.10165604481E+04  0.10165604481E+04  0.25500000920E-02 0.  1.
        2   -1    0    0  501    0  0.00000000000E+00  0.00000000000E+00 -0.16826783490E+04  0.16826783490E+04  0.25500000920E-02 0. -1.
    10030    2    1    2    0    0  0.00000000000E+00  0.00000000000E+00 -0.66611790091E+03  0.26992387971E+04  0.26157555363E+04 0.  0.
        1    1    3    3  502    0 -0.83727289420E+03  0.55090001079E+03 -0.12001305749E+04  0.15635952539E+04  0.50400001928E-02 0. -1.
       -1    1    3    3    0  502  0.83727289420E+03 -0.55090001079E+03  0.53401267396E+03  0.11356435432E+04  0.50400001928E-02 0.  1.
</event>
<event>
 5   0  0.2081874E-05  0.2076524E+04  0.7818609E-02  0.8571656E-01
        1   -1    0    0  501    0  0.00000000000E+00  0.00000000000E+00  0.20748977698E+04  0.20748977698E+04  0.50400001928E-02 0.  1.
       -1   -1    0    0    0  501  0.00000000000E+00  0.00000000000E+00 -0.51953791493E+03  0.51953791495E+03  0.50400001928E-02 0. -1.
    10030    2    1    2    0    0  0.00000000000E+00  0.00000000000E+00  0.15553598548E+04  0.25944356847E+04  0.20765240774E+04 0.  0.
        1    1    3    3  502    0  0.56746018370E+03 -0.77871814815E+03  0.29447037459E+03  0.10075345234E+04  0.50400001928E-02 0. -1.
       -1    1    3    3    0  502 -0.56746018370E+03  0.77871814815E+03  0.12608894803E+04  0.15869011613E+04  0.50400001928E-02 0.  1.
</event>
<event>
 5   0  0.2036578E-05  0.2435567E+04  0.7818609E-02  0.8426306E-01
       -1   -1    0    0    0  501  0.00000000000E+00  0.00000000000E+00  0.83252176812E+03  0.83252176814E+03  0.50400001928E-02 0. -1.
        1   -1    0    0  501    0  0.00000000000E+00  0.00000000000E+00 -0.17813314307E+04  0.17813314307E+04  0.50400001928E-02 0.  1.
    10030    2    1    2    0    0  0.00000000000E+00  0.00000000000E+00 -0.94880966253E+03  0.26138531988E+04  0.24355674429E+04 0.  0.
        2    1    3    3  502    0  0.53913630170E+03  0.21190397819E+03 -0.16239958586E+04  0.17242197646E+04  0.25500000920E-02 0.  1.
       -2    1    3    3    0  502 -0.53913630170E+03 -0.21190397819E+03  0.67518619612E+03  0.88963343418E+03  0.25500000920E-02 0. -1.
</event>
<event>
 5   0  0.4959042E-05  0.2459537E+04  0.7818609E-02  0.8417544E-01
        2   -1    0    0  501    0  0.00000000000E+00  0.00000000000E+00  0.21755776648E+04  0.21755776648E+04  0.25500000920E-02 0. -1.
       -2   -1    0    0    0  501  0.00000000000E+00  0.00000000000E+00 -0.69513952427E+03  0.69513952428E+03  0.25500000920E-02 0.  1.
    10030    2    1    2    0    0  0.00000000000E+00  0.00000000000E+00  0.14804381405E+04  0.28707171891E+04  0.24595365603E+04 0.  0.
        4    1    3    3  502    0  0.88376835588E+03  0.16303824897E+03  0.17200234945E+04  0.19406469056E+04  0.12699999809E+01 0. -1.
       -4    1    3    3    0  502 -0.88376835588E+03 -0.16303824897E+03 -0.23958535401E+03  0.93007028349E+03  0.12699999809E+01 0.  1.
</event>
<event>
 5   0  0.4995256E-05  0.2520328E+04  0.7818609E-02  0.8395779E-01
       -2   -1    0    0    0  501  0.00000000000E+00  0.00000000000E+00  0.10697048808E+04  0.10697048808E+04  0.25500000920E-02 0.  1.
        2   -1    0    0  501    0  0.00000000000E+00  0.00000000000E+00 -0.14845335758E+04  0.14845335758E+04  0.25500000920E-02 0. -1.
    10030    2    1    2    0    0  0.00000000000E+00  0.00000000000E+00 -0.41482869501E+03  0.25542384566E+04  0.25203276071E+04 0.  0.
        2    1    3    3  502    0  0.65301165304E+03 -0.10268248493E+03 -0.12947173197E+04  0.14537059021E+04  0.25500000920E-02 0. -1.
       -2    1    3    3    0  502 -0.65301165304E+03  0.10268248493E+03  0.87988862472E+03  0.11005325546E+04  0.25500000920E-02 0.  1.
</event>
<event>
 5   0  0.4959042E-05  0.2545902E+04  0.7818609E-02  0.8386813E-01
        2   -1    0    0  501    0  0.00000000000E+00  0.00000000000E+00  0.12261817318E+04  0.12261817318E+04  0.25500000920E-02 0. -1.
       -2   -1    0    0    0  501  0.00000000000E+00  0.00000000000E+00 -0.13215038359E+04  0.13215038359E+04  0.25500000920E-02 0.  1.
    10030    2    1    2    0    0  0.00000000000E+00  0.00000000000E+00 -0.95322104081E+02  0.25476855677E+04  0.25459016965E+04 0.  0.
        4    1    3    3  502    0 -0.14062011809E+02 -0.26789969788E+03 -0.12928939402E+04  0.13204333916E+04  0.12699999809E+01 0.  1.
       -4    1    3    3    0  502  0.14062011809E+02  0.26789969788E+03  0.11975718361E+04  0.12272521761E+04  0.12699999809E+01 0. -1.
</event>
<event>
 5   0  0.2036578E-05  0.2549899E+04  0.7818609E-02  0.8385421E-01
       -1   -1    0    0    0  501  0.00000000000E+00  0.00000000000E+00  0.11767329702E+04  0.11767329703E+04  0.50400001928E-02 0.  1.
        1   -1    0    0  501    0  0.00000000000E+00  0.00000000000E+00 -0.13813632627E+04  0.13813632627E+04  0.50400001928E-02 0. -1.
    10030    2    1    2    0    0  0.00000000000E+00  0.00000000000E+00 -0.20463029243E+03  0.25580962329E+04  0.25498985824E+04 0.  0.
        2    1    3    3  502    0  0.49090135459E+03  0.11331872880E+04  0.21556014608E+03  0.12536202560E+04  0.25500000920E-02 0. -1.
       -2    1    3    3    0  502 -0.49090135459E+03 -0.11331872880E+04 -0.42019043851E+03  0.13044759769E+04  0.25500000920E-02 0.  1.
</event>
<event>
 5   0  0.5219468E-05  0.2470106E+04  0.7818609E-02  0.8413713E-01
        2   -1    0    0  501    0  0.00000000000E+00  0.00000000000E+00  0.22445904403E+04  0.22445904403E+04  0.25500000920E-02 0. -1.
       -2   -1    0    0    0  501  0.00000000000E+00  0.00000000000E+00 -0.67957007571E+03  0.67957007571E+03  0.25500000920E-02 0.  1.
    10030    2    1    2    0    0  0.00000000000E+00  0.00000000000E+00  0.15650203646E+04  0.29241605160E+04  0.24701064718E+04 0.  0.
        1    1    3    3  502    0 -0.10057308506E+01 -0.78857134869E+03  0.19077683866E+04  0.20643221649E+04  0.50400001928E-02 0. -1.
       -1    1    3    3    0  502  0.10057308506E+01  0.78857134869E+03 -0.34274802201E+03  0.85983835114E+03  0.50400001928E-02 0.  1.
</event>
<event>
 5   0  0.2041718E-05  0.2489846E+04  0.7818609E-02  0.8406612E-01
        1   -1    0    0  501    0  0.00000000000E+00  0.00000000000E+00  0.77921891829E+03  0.77921891830E+03  0.50400001928E-02 0. -1.
       -1   -1    0    0    0  501  0.00000000000E+00  0.00000000000E+00 -0.19889575808E+04  0.19889575808E+04  0.50400001928E-02 0.  1.
    10030    2    1    2    0    0  0.00000000000E+00  0.00000000000E+00 -0.12097386626E+04  0.27681764991E+04  0.24898460793E+04 0.  0.
        4    1    3    3  502    0 -0.12128958939E+04 -0.19126172034E+03 -0.83308160446E+03  0.14838207667E+04  0.12699999809E+01 0.  1.
       -4    1    3    3    0  502  0.12128958939E+04  0.19126172034E+03 -0.37665705809E+03  0.12843557324E+04  0.12699999809E+01 0. -1.
</event>
<event>
 5   0  0.2036578E-05  0.2462171E+04  0.7818609E-02  0.8416587E-01
       -1   -1    0    0    0  501  0.00000000000E+00  0.00000000000E+00  0.60532711628E+03  0.60532711630E+03  0.50400001928E-02 0. -1.
        1   -1    0    0  501    0  0.00000000000E+00  0.00000000000E+00 -0.25037240173E+04  0.25037240173E+04  0.50400001928E-02 0.  1.
    10030    2    1    2    0    0  0.00000000000E+00  0.00000000000E+00 -0.18983969010E+04  0.31090511336E+04  0.24621714314E+04 0.  0.
        2    1    3    3  502    0  0.97328559205E+03  0.59822367858E+03 -0.36997175263E+03  0.12008478301E+04  0.25500000920E-02 0.  1.
       -2    1    3    3    0  502 -0.97328559205E+03 -0.59822367858E+03 -0.15284251484E+04  0.19082033035E+04  0.25500000920E-02 0. -1.
</event>
<event>
 5   0  0.2081874E-05  0.2468875E+04  0.7818609E-02  0.8414159E-01
        1   -1    0    0  501    0  0.00000000000E+00  0.00000000000E+00  0.15839044538E+04  0.15839044538E+04  0.50400001928E-02 0. -1.
       -1   -1    0    0    0  501  0.00000000000E+00  0.00000000000E+00 -0.96207541930E+03  0.96207541931E+03  0.50400001928E-02 0.  1.
    10030    2    1    2    0    0  0.00000000000E+00  0.00000000000E+00  0.62182903447E+03  0.25459798731E+04  0.24688746760E+04 0.  0.
        1    1    3    3  502    0 -0.43168159267E+03 -0.41283363132E+03  0.14249565347E+04  0.15450830821E+04  0.50400001928E-02 0. -1.
       -1    1    3    3    0  502  0.43168159267E+03  0.41283363132E+03 -0.80312750025E+03  0.10008967910E+04  0.50400001928E-02 0.  1.
</event>
<event>
 5   0  0.5219468E-05  0.2530454E+04  0.7818609E-02  0.8392216E-01
       -2   -1    0    0    0  501  0.00000000000E+00  0.00000000000E+00  0.71121973224E+03  0.71121973224E+03  0.25500000920E-02 0.  1.
        2   -1    0    0  501    0  0.00000000000E+00  0.00000000000E+00 -0.22507794554E+04  0.22507794554E+04  0.25500000920E-02 0. -1.
    10030    2    1    2    0    0  0.00000000000E+00  0.00000000000E+00 -0.15395597231E+04  0.29619991876E+04  0.25304535258E+04 0.  0.
        1    1    3    3  502    0  0.76239197085E+02 -0.10427663707E+04  0.64204520875E+02  0.10475191356E+04  0.50400001928E-02 0.  1.
       -1    1    3    3    0  502 -0.76239197085E+02  0.10427663707E+04 -0.16037642440E+04  0.19144800520E+04  0.50400001928E-02 0. -1.
</event>
<event>
 5   0  0.2063930E-05  0.2262522E+04  0.7818609E-02  0.8492846E-01
       -1   -1    0    0    0  501  0.00000000000E+00  0.00000000000E+00  0.54124511065E+03  0.54124511067E+03  0.50400001928E-02 0. -1.
        1   -1    0    0  501    0  0.00000000000E+00  0.00000000000E+00 -0.23644592195E+04  0.23644592195E+04  0.50400001928E-02 0.  1.
    10030    2    1    2    0    0  0.00000000000E+00  0.00000000000E+00 -0.18232141088E+04  0.29057043302E+04  0.22625224789E+04 0.  0.
        3    1    3    3  502    0  0.33216869416E+03 -0.30891616806E+03 -0.22425455230E+04  0.22879632150E+04  0.10100000352E+00 0.  1.
       -3    1    3    3    0  502 -0.33216869416E+03  0.30891616806E+03  0.41933141416E+03  0.61774111517E+03  0.10100000352E+00 0. -1.
</event>
<event>
 5   0  0.2066170E-05  0.2556120E+04  0.7818609E-02  0.8383261E-01
       -1   -1    0    0    0  501  0.00000000000E+00  0.00000000000E+00  0.94529971789E+03  0.94529971790E+03  0.50400001928E-02 0.  1.
        1   -1    0    0  501    0  0.00000000000E+00  0.00000000000E+00 -0.17279573688E+04  0.17279573688E+04  0.50400001928E-02 0. -1.
    10030    2    1    2    0    0  0.00000000000E+00  0.00000000000E+00 -0.78265765091E+03  0.26732570867E+04  0.25561201954E+04 0.  0.
        5    1    3    3  502    0  0.12577605650E+04 -0.19658058962E+03 -0.27296110672E+03  0.13019736644E+04  0.46999998093E+01 0. -1.
       -5    1    3    3    0  502 -0.12577605650E+04  0.19658058962E+03 -0.50969654419E+03  0.13712834223E+04  0.46999998093E+01 0.  1.
</event>
<event>
 5   0  0.2063930E-05  0.2499982E+04  0.7818609E-02  0.8402992E-01
       -1   -1    0    0    0  501  0.00000000000E+00  0.00000000000E+00  0.14684795102E+04  0.14684795102E+04  0.50400001928E-02 0.  1.
        1   -1    0    0  501    0  0.00000000000E+00  0.00000000000E+00 -0.10640105546E+04  0.10640105546E+04  0.50400001928E-02 0. -1.
    10030    2    1    2    0    0  0.00000000000E+00  0.00000000000E+00  0.40446895559E+03  0.25324900648E+04  0.24999821584E+04 0.  0.
        3    1    3    3  502    0  0.88477031265E+03  0.18961764439E+03 -0.67136224510E+03  0.11267211863E+04  0.10100000352E+00 0. -1.
       -3    1    3    3    0  502 -0.88477031265E+03 -0.18961764439E+03  0.10758312007E+04  0.14057688785E+04  0.10100000352E+00 0.  1.
</event>
<event>
 5   0  0.4995256E-05  0.2493723E+04  0.7818609E-02  0.8405225E-01
       -2   -1    0    0    0  501  0.00000000000E+00  0.00000000000E+00  0.11926084298E+04  0.11926084298E+04  0.25500000920E-02 0. -1.
        2   -1    0    0  501    0  0.00000000000E+00  0.00000000000E+00 -0.13035824304E+04  0.13035824304E+04  0.25500000920E-02 0.  1.
    10030    2    1    2    0    0  0.00000000000E+00  0.00000000000E+00 -0.11097400061E+03  0.24961908603E+04  0.24937228358E+04 0.  0.
        2    1    3    3  502    0  0.67374525745E+03 -0.84107888350E+03  0.57228361716E+03  0.12201864196E+04  0.25500000920E-02 0.  1.
       -2    1    3    3    0  502 -0.67374525745E+03  0.84107888350E+03 -0.68325761777E+03  0.12760044406E+04  0.25500000920E-02 0. -1.
</event>
<event>
 5   0  0.4995256E-05  0.2461429E+04  0.7818609E-02  0.8416857E-01
        2   -1    0    0  501    0  0.00000000000E+00  0.00000000000E+00  0.12957075191E+04  0.12957075191E+04  0.25500000920E-02 0. -1.
       -2   -1    0    0    0  501  0.00000000000E+00  0.00000000000E+00 -0.11689814232E+04  0.11689814232E+04  0.25500000920E-02 0.  1.
    10030    2    1    2    0    0  0.00000000000E+00  0.00000000000E+00  0.12672609586E+03  0.24646889424E+04  0.24614288694E+04 0.  0.
        2    1    3    3  502    0 -0.16131801288E+03 -0.77962881713E+03  0.10031226884E+04  0.12806637817E+04  0.25500000920E-02 0. -1.
       -2    1    3    3    0  502  0.16131801288E+03  0.77962881713E+03 -0.87639659249E+03  0.11840251607E+04  0.25500000920E-02 0.  1.
</event>
<event>
 5   0  0.4959042E-05  0.2548172E+04  0.7818609E-02  0.8386022E-01
        2   -1    0    0  501    0  0.00000000000E+00  0.00000000000E+00  0.15837423499E+04  0.15837423499E+04  0.25500000920E-02 0.  1.
       -2   -1    0    0    0  501  0.00000000000E+00  0.00000000000E+00 -0.10249743056E+04  0.10249743057E+04  0.25500000920E-02 0. -1.
    10030    2    1    2    0    0  0.00000000000E+00  0.00000000000E+00  0.55876804422E+03  0.26087166555E+04  0.25481720628E+04 0.  0.
        4    1    3    3  502    0  0.78786507050E+03  0.18830643181E+03 -0.72739581318E+03  0.10887134442E+04  0.12699999809E+01 0. -1.
       -4    1    3    3    0  502 -0.78786507050E+03 -0.18830643181E+03  0.12861638574E+04  0.15200032114E+04  0.12699999809E+01 0.  1.
</event>
<event>
 5   0  0.1692125E-05  0.2462228E+04  0.7818609E-02  0.8416567E-01
       -3   -1    0    0    0  501  0.00000000000E+00  0.00000000000E+00  0.93060624220E+03  0.93060624768E+03  0.10100000352E+00 0.  1.
        3   -1    0    0  501    0  0.00000000000E+00  0.00000000000E+00 -0.16286611583E+04  0.16286611614E+04  0.10100000352E+00 0. -1.
    10030    2    1    2    0    0  0.00000000000E+00  0.00000000000E+00 -0.69805491608E+03  0.25592674091E+04  0.24622284633E+04 0.  0.
        5    1    3    3  502    0 -0.10863701664E+04  0.46500522200E+03 -0.70787298065E+03  0.13775108862E+04  0.46999998093E+01 0.  1.
       -5    1    3    3    0  502  0.10863701664E+04 -0.46500522200E+03  0.98180645732E+01  0.11817565229E+04  0.46999998093E+01 0. -1.
</event>
<event>
 5   0  0.2063930E-05  0.2457561E+04  0.7818609E-02  0.8418262E-01
        1   -1    0    0  501    0  0.00000000000E+00  0.00000000000E+00  0.10258002956E+04  0.10258002957E+04  0.50400001928E-02 0.  1.
       -1   -1    0    0    0  501  0.00000000000E+00  0.00000000000E+00 -0.14719256880E+04  0.14719256880E+04  0.50400001928E-02 0. -1.
    10030    2    1    2    0    0  0.00000000000E+00  0.00000000000E+00 -0.44612539238E+03  0.24977259837E+04  0.24575612350E+04 0.  0.
        3    1    3    3  502    0 -0.26255248083E+03 -0.46108152608E+03 -0.13494956978E+04  0.14500581462E+04  0.10100000352E+00 0. -1.
       -3    1    3    3    0  502  0.26255248083E+03  0.46108152608E+03  0.90337030538E+03  0.10476678375E+04  0.10100000352E+00 0.  1.
</event>
<event>
 5   0  0.2041718E-05  0.2502172E+04  0.7818609E-02  0.8402212E-01
       -1   -1    0    0    0  501  0.00000000000E+00  0.00000000000E+00  0.17424690460E+04  0.17424690460E+04  0.50400001928E-02 0.  1.
        1   -1    0    0  501    0  0.00000000000E+00  0.00000000000E+00 -0.89827460615E+03  0.89827460616E+03  0.50400001928E-02 0. -1.
    10030    2    1    2    0    0  0.00000000000E+00  0.00000000000E+00  0.84419443989E+03  0.26407436522E+04  0.25021716137E+04 0.  0.
        4    1    3    3  502    0  0.10386732767E+04 -0.13131150491E+03  0.11449591993E+04  0.15514567568E+04  0.12699999809E+01 0.  1.
       -4    1    3    3    0  502 -0.10386732767E+04  0.13131150491E+03 -0.30076475944E+03  0.10892868954E+04  0.12699999809E+01 0. -1.
</event>
<event>
 5   0  0.5024070E-05  0.2445829E+04  0.7818609E-02  0.8422542E-01
        2   -1    0    0  501    0  0.00000000000E+00  0.00000000000E+00  0.18794792651E+04  0.18794792651E+04  0.25500000920E-02 0. -1.
       -2   -1    0    0    0  501  0.00000000000E+00  0.00000000000E+00 -0.79570998871E+03  0.79570998872E+03  0.25500000920E-02 0.  1.
    10030    2    1    2    0    0  0.00000000000E+00  0.00000000000E+00  0.10837692764E+04  0.26751892538E+04  0.24458294502E+04 0.  0.
        5    1    3    3  502    0 -0.52719703371E+02  0.12001024662E+04  0.29133346136E+03  0.12360916520E+04  0.46999998093E+01 0.  1.
       -5    1    3    3    0  502  0.52719703371E+02 -0.12001024662E+04  0.79243581506E+03  0.14390976018E+04  0.46999998093E+01 0. -1.
</event>
<event>
 5   0  0.2066170E-05  0.2469325E+04  0.7818609E-02  0.8413996E-01
       -1   -1    0    0    0  501  0.00000000000E+00  0.00000000000E+00  0.10790651432E+04  0.10790651432E+04  0.50400001928E-02 0. -1.
        1   -1    0    0  501    0  0.00000000000E+00  0.00000000000E+00 -0.14126964487E+04  0.14126964487E+04  0.50400001928E-02 0.  1.
    10030    2    1    2    0    0  0.00000000000E+00  0.00000000000E+00 -0.33363130552E+03  0.24917615919E+04  0.24693250055E+04 0.  0.
        5    1    3    3  502    0 -0.47513160934E+03  0.13110671346E+03 -0.13091039897E+04  0.13988260658E+04  0.46999998093E+01 0.  1.
       -5    1    3    3    0  502  0.47513160934E+03 -0.13110671346E+03  0.97547268422E+03  0.10929355261E+04  0.46999998093E+01 0. -1.
</event>
<event>
 5   0  0.2036578E-05  0.2580625E+04  0.7818609E-02  0.8374812E-01
       -1   -1    0    0    0  501  0.00000000000E+00  0.00000000000E+00  0.10174181102E+04  0.10174181102E+04  0.50400001928E-02 0. -1.
        1   -1    0    0  501    0  0.00000000000E+00  0.00000000000E+00 -0.16364028497E+04  0.16364028497E+04  0.50400001928E-02 0.  1.
    10030    2    1    2    0    0  0.00000000000E+00  0.00000000000E+00 -0.61898473956E+03  0.26538209599E+04  0.25806246491E+04 0.  0.
        2    1    3    3  502    0 -0.97020505852E+03  0.36550023980E+03 -0.10994053804E+04  0.15111520345E+04  0.25500000920E-02 0.  1.
       -2    1    3    3    0  502  0.97020505852E+03 -0.36550023980E+03  0.48042064088E+03  0.11426689254E+04  0.25500000920E-02 0. -1.
</event>
<event>
 5   0  0.5024070E-05  0.2535176E+04  0.7818609E-02  0.8390560E-01
        2   -1    0    0  501    0  0.00000000000E+00  0.00000000000E+00  0.13632315204E+04  0.13632315204E+04  0.25500000920E-02 0.  1.
       -2   -1    0    0    0  501  0.00000000000E+00  0.00000000000E+00 -0.11786544635E+04  0.11786544635E+04  0.25500000920E-02 0. -1.
    10030    2    1    2    0    0  0.00000000000E+00  0.00000000000E+00  0.18457705688E+03  0.25418859839E+04  0.25351756675E+04 0.  0.
        5    1    3    3  502    0  0.20293349632E+03 -0.31659403856E+03  0.13060061603E+04  0.13590761458E+04  0.46999998093E+01 0.  1.
       -5    1    3    3    0  502 -0.20293349632E+03  0.31659403856E+03 -0.11214291034E+04  0.11828098381E+04  0.46999998093E+01 0. -1.
</event>
<event>
 5   0  0.2063930E-05  0.2465939E+04  0.7818609E-02  0.8415222E-01
        1   -1    0    0  501    0  0.00000000000E+00  0.00000000000E+00  0.16667442219E+04  0.16667442219E+04  0.50400001928E-02 0.  1.
       -1   -1    0    0    0  501  0.00000000000E+00  0.00000000000E+00 -0.91208554200E+03  0.91208554202E+03  0.50400001928E-02 0. -1.
    10030    2    1    2    0    0  0.00000000000E+00  0.00000000000E+00  0.75465867988E+03  0.25788297639E+04  0.24659386100E+04 0.  0.
        3    1    3    3  502    0 -0.95150893668E+03 -0.33327026285E+03  0.11195938692E+04  0.15066282776E+04  0.10100000352E+00 0.  1.
       -3    1    3    3    0  502  0.95150893668E+03  0.33327026285E+03 -0.36493518931E+03  0.10722014863E+04  0.10100000352E+00 0. -1.
</event>
<event>
 5   0  0.2063930E-05  0.2380607E+04  0.7818609E-02  0.8446800E-01
       -1   -1    0    0    0  501  0.00000000000E+00  0.00000000000E+00  0.77293772337E+03  0.77293772339E+03  0.50400001928E-02 0. -1.
        1   -1    0    0  501    0  0.00000000000E+00  0.00000000000E+00 -0.18330360964E+04  0.18330360964E+04  0.50400001928E-02 0.  1.
    10030    2    1    2    0    0  0.00000000000E+00  0.00000000000E+00 -0.10600983730E+04  0.26059738198E+04  0.23806072731E+04 0.  0.
        3    1    3    3  502    0  0.10334380796E+04  0.51983286667E+03 -0.83695125682E+03  0.14278332852E+04  0.10100000352E+00 0.  1.
       -3    1    3    3    0  502 -0.10334380796E+04 -0.51983286667E+03 -0.22314711620E+03  0.11781405346E+04  0.10100000352E+00 0. -1.
</event>
<event>
 5   0  0.2063930E-05  0.2319801E+04  0.7818609E-02  0.8470154E-01
        1   -1    0    0  501    0  0.00000000000E+00  0.00000000000E+00  0.24235454244E+04  0.24235454244E+04  0.50400001928E-02 0. -1.
       -1   -1    0    0    0  501  0.00000000000E+00  0.00000000000E+00 -0.55512444941E+03  0.55512444943E+03  0.50400001928E-02 0.  1.
    10030    2    1    2    0    0  0.00000000000E+00  0.00000000000E+00  0.18684209750E+04  0.29786698738E+04  0.23198011289E+04 0.  0.
        3    1    3    3  502    0 -0.56560381264E+03 -0.28435655220E+03  0.21821578714E+04  0.22721310058E+04  0.10100000352E+00 0. -1.
       -3    1    3    3    0  502  0.56560381264E+03  0.28435655220E+03 -0.31373689641E+03  0.70653886802E+03  0.10100000352E+00 0.  1.
</event>
<event>
 5   0  0.2036578E-05  0.2330309E+04  0.7818609E-02  0.8466066E-01
        1   -1    0    0  501    0  0.00000000000E+00  0.00000000000E+00  0.11536647963E+04  0.11536647963E+04  0.50400001928E-02 0.  1.
       -1   -1    0    0    0  501  0.00000000000E+00  0.00000000000E+00 -0.11767586622E+04  0.11767586623E+04  0.50400001928E-02 0. -1.
    10030    2    1    2    0    0  0.00000000000E+00  0.00000000000E+00 -0.23093865994E+02  0.23304234585E+04  0.23303090287E+04 0.  0.
        2    1    3    3  502    0 -0.68930033784E+03  0.74394475623E+02 -0.94803060747E+03  0.11744920291E+04  0.25500000920E-02 0. -1.
       -2    1    3    3    0  502  0.68930033784E+03 -0.74394475623E+02  0.92493674147E+03  0.11559314294E+04  0.25500000920E-02 0.  1.
</event>
<event>
 5   0  0.2041718E-05  0.2432842E+04  0.7818609E-02  0.8427309E-01
       -1   -1    0    0    0  501  0.00000000000E+00  0.00000000000E+00  0.14147272168E+04  0.14147272168E+04  0.50400001928E-02 0.  1.
        1   -1    0    0  501    0  0.00000000000E+00  0.00000000000E+00 -0.10459118616E+04  0.10459118616E+04  0.50400001928E-02 0. -1.
    10030    2    1    2    0    0  0.00000000000E+00  0.00000000000E+00  0.36881535520E+03  0.24606390785E+04  0.24328419407E+04 0.  0.
        4    1    3    3  502    0 -0.39028782092E+03  0.17863912070E+03  0.13355870091E+04  0.14028652075E+04  0.12699999809E+01 0.  1.
       -4    1    3    3    0  502  0.39028782092E+03 -0.17863912070E+03 -0.96677165387E+03  0.10577738710E+04  0.12699999809E+01 0. -1.
</event>
<event>
 5   0  0.2041718E-05  0.2521832E+04  0.7818609E-02  0.8395249E-01
        1   -1    0    0  501    0  0.00000000000E+00  0.00000000000E+00  0.27132888114E+04  0.27132888115E+04  0.50400001928E-02 0. -1.
       -1   -1    0    0    0  501  0.00000000000E+00  0.00000000000E+00 -0.58597118704E+03  0.58597118707E+03  0.50400001928E-02 0.  1.
    10030    2    1    2    0    0  0.00000000000E+00  0.00000000000E+00  0.21273176244E+04  0.32992599985E+04  0.25218319259E+04 0.  0.
        4    1    3    3  502    0 -0.31486936177E+03 -0.12185331388E+04  0.11645043676E+04  0.17146538311E+04  0.12699999809E+01 0.  1.
       -4    1    3    3    0  502  0.31486936177E+03  0.12185331388E+04  0.96281325683E+03  0.15846061674E+04  0.12699999809E+01 0. -1.
</event>
<event>
 5   0  0.4959347E-05  0.2538103E+04  0.7818609E-02  0.8389536E-01
       -2   -1    0    0    0  501  0.00000000000E+00  0.00000000000E+00  0.15855943655E+04  0.15855943655E+04  0.25500000920E-02 0.  1.
        2   -1    0    0  501    0  0.00000000000E+00  0.00000000000E+00 -0.10157019485E+04  0.10157019485E+04  0.25500000920E-02 0. -1.
    10030    2    1    2    0    0  0.00000000000E+00  0.00000000000E+00  0.56989241700E+03  0.26012963140E+04  0.25381026666E+04 0.  0.
        3    1    3    3  502    0 -0.25858437264E+02  0.41153919567E+03  0.15150194082E+04  0.15701327924E+04  0.10100000352E+00 0.  1.
       -3    1    3    3    0  502  0.25858437264E+02 -0.41153919567E+03 -0.94512699123E+03  0.10311635215E+04  0.10100000352E+00 0. -1.
</event>
<event>
 5   0  0.4959042E-05  0.2506358E+04  0.7818609E-02  0.8400724E-01
        2   -1    0    0  501    0  0.00000000000E+00  0.00000000000E+00  0.17421041331E+04  0.17421041331E+04  0.25500000920E-02 0.  1.
       -2   -1    0    0    0  501  0.00000000000E+00  0.00000000000E+00 -0.90147199570E+03  0.90147199570E+03  0.25500000920E-02 0. -1.
    10030    2    1    2    0    0  0.00000000000E+00  0.00000000000E+00  0.84063213735E+03  0.26435761288E+04  0.25063583858E+04 0.  0.
        4    1    3    3  502    0  0.29641233793E+03  0.42390895557E+03 -0.78362092444E+03  0.93894751866E+03  0.12699999809E+01 0. -1.
       -4    1    3    3    0  502 -0.29641233793E+03 -0.42390895557E+03  0.16242530618E+04  0.17046286101E+04  0.12699999809E+01 0.  1.
</event>
<event>
 5   0  0.4959042E-05  0.2480000E+04  0.7818609E-02  0.8410146E-01
        2   -1    0    0  501    0  0.00000000000E+00  0.00000000000E+00  0.15586000769E+04  0.15586000769E+04  0.25500000920E-02 0. -1.
       -2   -1    0    0    0  501  0.00000000000E+00  0.00000000000E+00 -0.98652617330E+03  0.98652617331E+03  0.25500000920E-02 0.  1.
    10030    2    1    2    0    0  0.00000000000E+00  0.00000000000E+00  0.57207390356E+03  0.25451262502E+04  0.24799998141E+04 0.  0.
        4    1    3    3  502    0  0.20950020575E+03  0.55740454126E+03  0.14022613791E+04  0.15234594668E+04  0.12699999809E+01 0. -1.
       -4    1    3    3    0  502 -0.20950020575E+03 -0.55740454126E+03 -0.83018747552E+03  0.10216667834E+04  0.12699999809E+01 0.  1.
</event>
<event>
 5   0  0.2066170E-05  0.2487831E+04  0.7818609E-02  0.8407334E-01
       -1   -1    0    0    0  501  0.00000000000E+00  0.00000000000E+00  0.17314928345E+04  0.17314928345E+04  0.50400001928E-02 0.  1.
        1   -1    0    0  501    0  0.00000000000E+00  0.00000000000E+00 -0.89363648523E+03  0.89363648525E+03  0.50400001928E-02 0. -1.
    10030    2    1    2    0    0  0.00000000000E+00  0.00000000000E+00  0.83785634929E+03  0.26251293198E+04  0.24878305174E+04 0.  0.
        5    1    3    3  502    0  0.60905196619E+03 -0.95791140346E+03 -0.11783446687E+03  0.11412473903E+04  0.46999998093E+01 0. -1.
       -5    1    3    3    0  502 -0.60905196619E+03  0.95791140346E+03  0.95569081616E+03  0.14838819294E+04  0.46999998093E+01 0.  1.
</event>
<event>
 5   0  0.2063930E-05  0.2457127E+04  0.7818609E-02  0.8418420E-01
        1   -1    0    0  501    0  0.00000000000E+00  0.00000000000E+00  0.80727837247E+03  0.80727837249E+03  0.50400001928E-02 0.  1.
       -1   -1    0    0    0  501  0.00000000000E+00  0.00000000000E+00 -0.18697001906E+04  0.18697001906E+04  0.50400001928E-02 0. -1.
    10030    2    1    2    0    0  0.00000000000E+00  0.00000000000E+00 -0.10624218181E+04  0.26769785631E+04  0.24571272062E+04 0.  0.
        3    1    3    3  502    0 -0.56436035017E+03 -0.36714088101E+03 -0.16508146020E+04  0.17828303037E+04  0.10100000352E+00 0. -1.
       -3    1    3    3    0  502  0.56436035017E+03  0.36714088101E+03  0.58839278392E+03  0.89414825937E+03  0.10100000352E+00 0.  1.
</event>
<event>
 5   0  0.4959042E-05  0.2511541E+04  0.7818609E-02  0.8398886E-01
        2   -1    0    0  501    0  0.00000000000E+00  0.00000000000E+00  0.16012792629E+04  0.16012792629E+04  0.25500000920E-02 0.  1.
       -2   -1    0    0    0  501  0.00000000000E+00  0.00000000000E+00 -0.98481210559E+03  0.98481210559E+03  0.25500000920E-02 0. -1.
    10030    2    1    2    0    0  0.00000000000E+00  0.00000000000E+00  0.61646715735E+03  0.25860913685E+04  0.25115407244E+04 0.  0.
        4    1    3    3  502    0  0.27391635223E+03 -0.61314727687E+03  0.14008521087E+04  0.15535018489E+04  0.12699999809E+01 0.  1.
       -4    1    3    3    0  502 -0.27391635223E+03  0.61314727687E+03 -0.78438495138E+03  0.10325895196E+04  0.12699999809E+01 0. -1.
</event>
<event>
 5   0  0.5024070E-05  0.2519021E+04  0.7818609E-02  0.8396240E-01
        2   -1    0    0  501    0  0.00000000000E+00  0.00000000000E+00  0.15990441332E+04  0.15990441332E+04  0.25500000920E-02 0. -1.
       -2   -1    0    0    0  501  0.00000000000E+00  0.00000000000E+00 -0.99207180157E+03  0.99207180158E+03  0.25500000920E-02 0.  1.
    10030    2    1    2    0    0  0.00000000000E+00  0.00000000000E+00  0.60697233166E+03  0.25911159348E+04  0.25190209162E+04 0.  0.
        5    1    3    3  502    0  0.58145288433E+03  0.21039091576E+03 -0.82518388236E+03  0.10311655172E+04  0.46999998093E+01 0.  1.
       -5    1    3    3    0  502 -0.58145288433E+03 -0.21039091576E+03  0.14321562140E+04  0.15599504176E+04  0.46999998093E+01 0. -1.
</event>
<event>
 5   0  0.2066170E-05  0.2483177E+04  0.7818609E-02  0.8409004E-01
       -1   -1    0    0    0  501  0.00000000000E+00  0.00000000000E+00  0.63675333967E+03  0.63675333969E+03  0.50400001928E-02 0. -1.
        1   -1    0    0  501    0  0.00000000000E+00  0.00000000000E+00 -0.24209396912E+04  0.24209396912E+04  0.50400001928E-02 0.  1.
    10030    2    1    2    0    0  0.00000000000E+00  0.00000000000E+00 -0.17841863515E+04  0.30576930309E+04  0.24831765411E+04 0.  0.
        5    1    3    3  502    0 -0.30690548363E+03  0.38355692714E+03 -0.22961783285E+04  0.23481405193E+04  0.46999998093E+01 0.  1.
       -5    1    3    3    0  502  0.30690548363E+03 -0.38355692714E+03  0.51199197695E+03  0.70955251159E+03  0.46999998093E+01 0. -1.
</event>
<event>
 5   0  0.2063930E-05  0.2450420E+04  0.7818609E-02  0.8420865E-01
        1   -1    0    0  501    0  0.00000000000E+00  0.00000000000E+00  0.19192369826E+04  0.19192369826E+04  0.50400001928E-02 0. -1.
       -1   -1    0    0    0  501  0.00000000000E+00  0.00000000000E+00 -0.78215423738E+03  0.78215423740E+03  0.50400001928E-02 0.  1.
    10030    2    1    2    0    0  0.00000000000E+00  0.00000000000E+00  0.11370827452E+04  0.27013912200E+04  0.24504198322E+04 0.  0.
        3    1    3    3  502    0 -0.97083375972E+03  0.39174165403E+03 -0.13317249698E+03  0.10553267914E+04  0.10100000352E+00 0.  1.
       -3    1    3    3    0  502  0.97083375972E+03 -0.39174165403E+03  0.12702552422E+04  0.16460644286E+04  0.10100000352E+00 0. -1.
</event>
<event>
 5   0  0.4995256E-05  0.2510600E+04  0.7818609E-02  0.8399219E-01
        2   -1    0    0  501    0  0.00000000000E+00  0.00000000000E+00  0.19568081538E+04  0.19568081538E+04  0.25500000920E-02 0. -1.
       -2   -1    0    0    0  501  0.00000000000E+00  0.00000000000E+00 -0.80528000591E+03  0.80528000592E+03  0.25500000920E-02 0.  1.
    10030    2    1    2    0    0  0.00000000000E+00  0.00000000000E+00  0.11515281479E+04  0.27620881597E+04  0.25106003120E+04 0.  0.
        2    1    3    3  502    0  0.72679061697E+01  0.12179441943E+04  0.91007398040E+03  0.15204195252E+04  0.25500000920E-02 0. -1.
       -2    1    3    3    0  502 -0.72679061697E+01 -0.12179441943E+04  0.24145416745E+03  0.12416686345E+04  0.25500000920E-02 0.  1.
</event>
<event>
 5   0  0.5024070E-05  0.2504828E+04  0.7818609E-02  0.8401268E-01
        2   -1    0    0  501    0  0.00000000000E+00  0.00000000000E+00  0.14770919830E+04  0.14770919830E+04  0.25500000920E-02 0. -1.
       -2   -1    0    0    0  501  0.00000000000E+00  0.00000000000E+00 -0.10619114435E+04  0.10619114435E+04  0.25500000920E-02 0.  1.
    10030    2    1    2    0    0  0.00000000000E+00  0.00000000000E+00  0.41518053952E+03  0.25390034264E+04  0.25048280418E+04 0.  0.
        5    1    3    3  502    0 -0.80974761811E+03 -0.45664022748E+02 -0.75975863417E+03  0.11113197920E+04  0.46999998093E+01 0.  1.
       -5    1    3    3    0  502  0.80974761811E+03  0.45664022748E+02  0.11749391737E+04  0.14276836344E+04  0.46999998093E+01 0. -1.
</event>
<event>
 5   0  0.5219468E-05  0.2524137E+04  0.7818609E-02  0.8394437E-01
       -2   -1    0    0    0  501  0.00000000000E+00  0.00000000000E+00  0.69773332414E+03  0.69773332415E+03  0.25500000920E-02 0. -1.
        2   -1    0    0  501    0  0.00000000000E+00  0.00000000000E+00 -0.22828441593E+04  0.22828441593E+04  0.25500000920E-02 0.  1.
    10030    2    1    2    0    0  0.00000000000E+00  0.00000000000E+00 -0.15851108352E+04  0.29805774834E+04  0.25241366396E+04 0.  0.
        1    1    3    3  502    0  0.10863965484E+04 -0.53748638312E+03 -0.12078106564E+04  0.17111270128E+04  0.50400001928E-02 0.  1.
       -1    1    3    3    0  502 -0.10863965484E+04  0.53748638312E+03 -0.37730017879E+03  0.12694504706E+04  0.50400001928E-02 0. -1.
</event>
<event>
 5   0  0.4959042E-05  0.2150606E+04  0.7818609E-02  0.8539273E-01
        2   -1    0    0  501    0  0.00000000000E+00  0.00000000000E+00  0.13847657135E+04  0.13847657135E+04  0.25500000920E-02 0.  1.
       -2   -1    0    0    0  501  0.00000000000E+00  0.00000000000E+00 -0.83499789251E+03  0.83499789252E+03  0.25500000920E-02 0. -1.
    10030    2    1    2    0    0  0.00000000000E+00  0.00000000000E+00  0.54976782097E+03  0.22197636060E+04  0.21506059168E+04 0.  0.
        4    1    3    3  502    0  0.45077372682E+03  0.48154479489E+03 -0.60165558670E+03  0.89278967299E+03  0.12699999809E+01 0. -1.
       -4    1    3    3    0  502 -0.45077372682E+03 -0.48154479489E+03  0.11514234077E+04  0.13269739330E+04  0.12699999809E+01 0.  1.
</event>
<event>
 5   0  0.5024070E-05  0.2485825E+04  0.7818609E-02  0.8408053E-01
        2   -1    0    0  501    0  0.00000000000E+00  0.00000000000E+00  0.11279456844E+04  0.11279456844E+04  0.25500000920E-02 0.  1.
       -2   -1    0    0    0  501  0.00000000000E+00  0.00000000000E+00 -0.13695979127E+04  0.13695979127E+04  0.25500000920E-02 0. -1.
    10030    2    1    2    0    0  0.00000000000E+00  0.00000000000E+00 -0.24165222834E+03  0.24975435971E+04  0.24858254605E+04 0.  0.
        5    1    3    3  502    0 -0.12310715279E+04 -0.13435594884E+03 -0.22725628303E+03  0.12590695517E+04  0.46999998093E+01 0. -1.
       -5    1    3    3    0  502  0.12310715279E+04  0.13435594884E+03 -0.14395945307E+02  0.12384740454E+04  0.46999998093E+01 0.  1.
</event>
<event>
 5   0  0.4959347E-05  0.1862864E+04  0.7818609E-02  0.8673566E-01
        2   -1    0    0  501    0  0.00000000000E+00  0.00000000000E+00  0.15380663397E+04  0.15380663397E+04  0.25500000920E-02 0. -1.
       -2   -1    0    0    0  501  0.00000000000E+00  0.00000000000E+00 -0.56406224993E+03  0.56406224993E+03  0.25500000920E-02 0.  1.
    10030    2    1    2    0    0  0.00000000000E+00  0.00000000000E+00  0.97400408977E+03  0.21021285896E+04  0.18628635593E+04 0.  0.
        3    1    3    3  502    0  0.99158962357E+02  0.90564173989E+03  0.70565647007E+03  0.11523760345E+04  0.10100000352E+00 0.  1.
       -3    1    3    3    0  502 -0.99158962357E+02 -0.90564173989E+03  0.26834761970E+03  0.94975255517E+03  0.10100000352E+00 0. -1.
</event>
<event>
 5   0  0.2041718E-05  0.1891718E+04  0.7818609E-02  0.8658990E-01
        1   -1    0    0  501    0  0.00000000000E+00  0.00000000000E+00  0.11859163490E+04  0.11859163490E+04  0.50400001928E-02 0.  1.
       -1   -1    0    0    0  501  0.00000000000E+00  0.00000000000E+00 -0.75439495562E+03  0.75439495563E+03  0.50400001928E-02 0. -1.
    10030    2    1    2    0    0  0.00000000000E+00  0.00000000000E+00  0.43152139338E+03  0.19403113046E+04  0.18917180673E+04 0.  0.
        4    1    3    3  502    0 -0.90765133030E+02  0.47632141003E+03  0.10487345936E+04  0.11554073982E+04  0.12699999809E+01 0.  1.
       -4    1    3    3    0  502  0.90765133030E+02 -0.47632141003E+03 -0.61721320020E+03  0.78490390649E+03  0.12699999809E+01 0. -1.
</event>
<event>
 5   0  0.5024070E-05  0.2450090E+04  0.7818609E-02  0.8420985E-01
       -2   -1    0    0    0  501  0.00000000000E+00  0.00000000000E+00  0.18520293987E+04  0.18520293987E+04  0.25500000920E-02 0.  1.
        2   -1    0    0  501    0  0.00000000000E+00  0.00000000000E+00 -0.81031921287E+03  0.81031921288E+03  0.25500000920E-02 0. -1.
    10030    2    1    2    0    0  0.00000000000E+00  0.00000000000E+00  0.10417101858E+04  0.26623486116E+04  0.24500897980E+04 0.  0.
        5    1    3    3  502    0 -0.88924576097E+03 -0.70271118596E+03  0.15656154903E+02  0.11335026420E+04  0.46999998093E+01 0. -1.
       -5    1    3    3    0  502  0.88924576097E+03  0.70271118596E+03  0.10260540309E+04  0.15288459696E+04  0.46999998093E+01 0.  1.
</event>
<event>
 5   0  0.2066170E-05  0.2482119E+04  0.7818609E-02  0.8409383E-01
       -1   -1    0    0    0  501  0.00000000000E+00  0.00000000000E+00  0.13304652501E+04  0.13304652501E+04  0.50400001928E-02 0.  1.
        1   -1    0    0  501    0  0.00000000000E+00  0.00000000000E+00 -0.11576619161E+04  0.11576619161E+04  0.50400001928E-02 0. -1.
    10030    2    1    2    0    0  0.00000000000E+00  0.00000000000E+00  0.17280333400E+03  0.24881271663E+04  0.24821192162E+04 0.  0.
        5    1    3    3  502    0 -0.93038468098E+03 -0.72924226417E+03  0.46520113992E+03  0.12703716484E+04  0.46999998093E+01 0.  1.
       -5    1    3    3    0  502  0.93038468098E+03  0.72924226417E+03 -0.29239780592E+03  0.12177555179E+04  0.46999998093E+01 0. -1.
</event>
<event>
 5   0  0.2066170E-05  0.2534630E+04  0.7818609E-02  0.8390751E-01
        1   -1    0    0  501    0  0.00000000000E+00  0.00000000000E+00  0.13461844171E+04  0.13461844171E+04  0.50400001928E-02 0.  1.
       -1   -1    0    0    0  501  0.00000000000E+00  0.00000000000E+00 -0.11930659734E+04  0.11930659734E+04  0.50400001928E-02 0. -1.
    10030    2    1    2    0    0  0.00000000000E+00  0.00000000000E+00  0.15311844367E+03  0.25392503905E+04  0.25346296155E+04 0.  0.
        5    1    3    3  502    0  0.11450696897E+04  0.44485182444E+03  0.38855431809E+03  0.12884387017E+04  0.46999998093E+01 0.  1.
       -5    1    3    3    0  502 -0.11450696897E+04 -0.44485182444E+03 -0.23543587441E+03  0.12508116888E+04  0.46999998093E+01 0. -1.
</event>
<event>
 5   0  0.2066170E-05  0.2516737E+04  0.7818609E-02  0.8397047E-01
       -1   -1    0    0    0  501  0.00000000000E+00  0.00000000000E+00  0.60894891701E+03  0.60894891703E+03  0.50400001928E-02 0. -1.
        1   -1    0    0  501    0  0.00000000000E+00  0.00000000000E+00 -0.26003672179E+04  0.26003672179E+04  0.50400001928E-02 0.  1.
    10030    2    1    2    0    0  0.00000000000E+00  0.00000000000E+00 -0.19914183009E+04  0.32093161350E+04  0.25167366181E+04 0.  0.
        5    1    3    3  502    0  0.78925185258E+03  0.67290774568E+03 -0.87056859137E+02  0.10408286640E+04  0.46999998093E+01 0. -1.
       -5    1    3    3    0  502 -0.78925185258E+03 -0.67290774568E+03 -0.19043614418E+04  0.21684874710E+04  0.46999998093E+01 0.  1.
</event>
<event>
 5   0  0.2081874E-05  0.2226657E+04  0.7818609E-02  0.8507414E-01
       -1   -1    0    0    0  501  0.00000000000E+00  0.00000000000E+00  0.13702933821E+04  0.13702933821E+04  0.50400001928E-02 0. -1.
        1   -1    0    0  501    0  0.00000000000E+00  0.00000000000E+00 -0.90455134964E+03  0.90455134965E+03  0.50400001928E-02 0.  1.
    10030    2    1    2    0    0  0.00000000000E+00  0.00000000000E+00  0.46574203243E+03  0.22748447317E+04  0.22266573407E+04 0.  0.
        1    1    3    3  502    0  0.37889656119E+03 -0.90604148422E+03 -0.30290836869E+03  0.10277291740E+04  0.50400001928E-02 0.  1.
       -1    1    3    3    0  502 -0.37889656119E+03  0.90604148422E+03  0.76865040112E+03  0.12471155577E+04  0.50400001928E-02 0. -1.
</event>
<event>
 5   0  0.4959347E-05  0.2293948E+04  0.7818609E-02  0.8480311E-01
       -2   -1    0    0    0  501  0.00000000000E+00  0.00000000000E+00  0.72632654815E+03  0.72632654816E+03  0.25500000920E-02 0. -1.
        2   -1    0    0  501    0  0.00000000000E+00  0.00000000000E+00 -0.18112365395E+04  0.18112365395E+04  0.25500000920E-02 0.  1.
    10030    2    1    2    0    0  0.00000000000E+00  0.00000000000E+00 -0.10849099914E+04  0.25375630877E+04  0.22939478492E+04 0.  0.
        3    1    3    3  502    0 -0.77726989931E+03  0.74608377838E+03 -0.97762826343E+03  0.14548355688E+04  0.10100000352E+00 0.  1.
       -3    1    3    3    0  502  0.77726989931E+03 -0.74608377838E+03 -0.10728172796E+03  0.10827275189E+04  0.10100000352E+00 0. -1.
</event>
<event>
 5   0  0.2036578E-05  0.2539348E+04  0.7818609E-02  0.8389100E-01
       -1   -1    0    0    0  501  0.00000000000E+00  0.00000000000E+00  0.81891461599E+03  0.81891461600E+03  0.50400001928E-02 0. -1.
        1   -1    0    0  501    0  0.00000000000E+00  0.00000000000E+00 -0.19685475274E+04  0.19685475274E+04  0.50400001928E-02 0.  1.
    10030    2    1    2    0    0  0.00000000000E+00  0.00000000000E+00 -0.11496329114E+04  0.27874621434E+04  0.25393482176E+04 0.  0.
        2    1    3    3  502    0  0.43096893475E+03 -0.25023234040E+03  0.70707019666E+03  0.86504260584E+03  0.25500000920E-02 0. -1.
       -2    1    3    3    0  502 -0.43096893475E+03  0.25023234040E+03 -0.18567031081E+04  0.19224195376E+04  0.25500000920E-02 0.  1.
</event>
<event>
 5   0  0.2041718E-05  0.2508388E+04  0.7818609E-02  0.8400003E-01
       -1   -1    0    0    0  501  0.00000000000E+00  0.00000000000E+00  0.26195060378E+04  0.26195060378E+04  0.50400001928E-02 0. -1.
        1   -1    0    0  501    0  0.00000000000E+00  0.00000000000E+00 -0.60049570839E+03  0.60049570841E+03  0.50400001928E-02 0.  1.
    10030    2    1    2    0    0  0.00000000000E+00  0.00000000000E+00  0.20190103294E+04  0.32200017462E+04  0.25083876366E+04 0.  0.
        4    1    3    3  502    0 -0.27475247498E+03 -0.76175594261E+03 -0.21992205984E+03  0.83912356892E+03  0.12699999809E+01 0.  1.
       -4    1    3    3    0  502  0.27475247498E+03  0.76175594261E+03  0.22389323892E+04  0.23808781773E+04  0.12699999809E+01 0. -1.
</event>
<event>
 5   0  0.4959042E-05  0.2492309E+04  0.7818609E-02  0.8405731E-01
       -2   -1    0    0    0  501  0.00000000000E+00  0.00000000000E+00  0.71513749375E+03  0.71513749375E+03  0.25500000920E-02 0.  1.
        2   -1    0    0  501    0  0.00000000000E+00  0.00000000000E+00 -0.21714711559E+04  0.21714711559E+04  0.25500000920E-02 0. -1.
    10030    2    1    2    0    0  0.00000000000E+00  0.00000000000E+00 -0.14563336622E+04  0.28866086497E+04  0.24923085204E+04 0.  0.
        4    1    3    3  502    0  0.10546627932E+04  0.66204091371E+03 -0.78355586620E+03  0.14712488529E+04  0.12699999809E+01 0.  1.
       -4    1    3    3    0  502 -0.10546627932E+04 -0.66204091371E+03 -0.67277779596E+03  0.14153597968E+04  0.12699999809E+01 0. -1.
</event>
<event>
 5   0  0.4995256E-05  0.2377250E+04  0.7818609E-02  0.8448070E-01
        2   -1    0    0  501    0  0.00000000000E+00  0.00000000000E+00  0.13089845178E+04  0.13089845178E+04  0.25500000920E-02 0. -1.
       -2   -1    0    0    0  501  0.00000000000E+00  0.00000000000E+00 -0.10793325557E+04  0.10793325557E+04  0.25500000920E-02 0.  1.
    10030    2    1    2    0    0  0.00000000000E+00  0.00000000000E+00  0.22965196213E+03  0.23883170736E+04  0.23772501804E+04 0.  0.
        2    1    3    3  502    0 -0.59008515760E+03 -0.31245966269E+02  0.11509626375E+04  0.12937897033E+04  0.25500000920E-02 0. -1.
       -2    1    3    3    0  502  0.59008515760E+03  0.31245966269E+02 -0.92131067534E+03  0.10945273702E+04  0.25500000920E-02 0.  1.
</event>
<event>
 5   0  0.2081874E-05  0.2498709E+04  0.7818609E-02  0.8403446E-01
       -1   -1    0    0    0  501  0.00000000000E+00  0.00000000000E+00  0.14982768266E+04  0.14982768266E+04  0.50400001928E-02 0.  1.
        1   -1    0    0  501    0  0.00000000000E+00  0.00000000000E+00 -0.10417875529E+04  0.10417875529E+04  0.50400001928E-02 0. -1.
    10030    2    1    2    0    0  0.00000000000E+00  0.00000000000E+00  0.45648927371E+03  0.25400643795E+04  0.24987085855E+04 0.  0.
        1    1    3    3  502    0  0.80120015928E+03 -0.30525026497E+03  0.11520129579E+04  0.14360477968E+04  0.50400001928E-02 0. -1.
       -1    1    3    3    0  502 -0.80120015928E+03  0.30525026497E+03 -0.69552368423E+03  0.11040165827E+04  0.50400001928E-02 0.  1.
</event>
<event>
 5   0  0.5024070E-05  0.2456343E+04  0.7818609E-02  0.8418706E-01
       -2   -1    0    0    0  501  0.00000000000E+00  0.00000000000E+00  0.65283135582E+03  0.65283135583E+03  0.25500000920E-02 0.  1.
        2   -1    0    0  501    0  0.00000000000E+00  0.00000000000E+00 -0.23105585593E+04  0.23105585593E+04  0.25500000920E-02 0. -1.
    10030    2    1    2    0    0  0.00000000000E+00  0.00000000000E+00 -0.16577272035E+04  0.29633899151E+04  0.24563428726E+04 0.  0.
        5    1    3    3  502    0  0.11553188521E+04 -0.40530412921E+03 -0.71220862077E+03  0.14164378902E+04  0.46999998093E+01 0. -1.
       -5    1    3    3    0  502 -0.11553188521E+04  0.40530412921E+03 -0.94551858269E+03  0.15469520249E+04  0.46999998093E+01 0.  1.
</event>
<event>
 5   0  0.2063930E-05  0.2457108E+04  0.7818609E-02  0.8418427E-01
        1   -1    0    0  501    0  0.00000000000E+00  0.00000000000E+00  0.17450250654E+04  0.17450250654E+04  0.50400001928E-02 0.  1.
       -1   -1    0    0    0  501  0.00000000000E+00  0.00000000000E+00 -0.86494190447E+03  0.86494190448E+03  0.50400001928E-02 0. -1.
    10030    2    1    2    0    0  0.00000000000E+00  0.00000000000E+00  0.88008316088E+03  0.26099669698E+04  0.24571083032E+04 0.  0.
        3    1    3    3  502    0  0.10135285150E+04  0.97612003855E+02 -0.29016722568E+03  0.10587564324E+04  0.10100000352E+00 0. -1.
       -3    1    3    3    0  502 -0.10135285150E+04 -0.97612003855E+02  0.11702503866E+04  0.15512105375E+04  0.10100000352E+00 0.  1.
</event>
<event>
 5   0  0.4959042E-05  0.2544131E+04  0.7818609E-02  0.8387430E-01
        2   -1    0    0  501    0  0.00000000000E+00  0.00000000000E+00  0.20837050710E+04  0.20837050710E+04  0.25500000920E-02 0. -1.
       -2   -1    0    0    0  501  0.00000000000E+00  0.00000000000E+00 -0.77657360060E+03  0.77657360060E+03  0.25500000920E-02 0.  1.
    10030    2    1    2    0    0  0.00000000000E+00  0.00000000000E+00  0.13071314704E+04  0.28602786716E+04  0.25441307746E+04 0.  0.
        4    1    3    3  502    0  0.90683416239E+03 -0.88557571121E+03  0.53270745511E+03  0.13749077729E+04  0.12699999809E+01 0. -1.
       -4    1    3    3    0  502 -0.90683416239E+03  0.88557571121E+03  0.77442401528E+03  0.14853708987E+04  0.12699999809E+01 0.  1.
</event>
<event>
 5   0  0.2036578E-05  0.2290437E+04  0.7818609E-02  0.8481701E-01
       -1   -1    0    0    0  501  0.00000000000E+00  0.00000000000E+00  0.63630511498E+03  0.63630511500E+03  0.50400001928E-02 0.  1.
        1   -1    0    0  501    0  0.00000000000E+00  0.00000000000E+00 -0.20611576480E+04  0.20611576480E+04  0.50400001928E-02 0. -1.
    10030    2    1    2    0    0  0.00000000000E+00  0.00000000000E+00 -0.14248525330E+04  0.26974627630E+04  0.22904367743E+04 0.  0.
        2    1    3    3  502    0  0.36454470978E+03  0.84592107059E+03 -0.15138293789E+04  0.17720481628E+04  0.25500000920E-02 0.  1.
       -2    1    3    3    0  502 -0.36454470978E+03 -0.84592107059E+03  0.88976845854E+02  0.92541460016E+03  0.25500000920E-02 0. -1.
</event>
<event>
 5   0  0.2081874E-05  0.2509889E+04  0.7818609E-02  0.8399471E-01
        1   -1    0    0  501    0  0.00000000000E+00  0.00000000000E+00  0.17588515062E+04  0.17588515062E+04  0.50400001928E-02 0.  1.
       -1   -1    0    0    0  501  0.00000000000E+00  0.00000000000E+00 -0.89540552577E+03  0.89540552578E+03  0.50400001928E-02 0. -1.
    10030    2    1    2    0    0  0.00000000000E+00  0.00000000000E+00  0.86344598046E+03  0.26542570320E+04  0.25098887288E+04 0.  0.
        1    1    3    3  502    0  0.92619490617E+03  0.23013315712E+03  0.12935121462E+04  0.16074737779E+04  0.50400001928E-02 0.  1.
       -1    1    3    3    0  502 -0.92619490617E+03 -0.23013315712E+03 -0.43006616572E+03  0.10467832541E+04  0.50400001928E-02 0. -1.
</event>
<event>
 5   0  0.2081874E-05  0.2334241E+04  0.7818609E-02  0.8464542E-01
       -1   -1    0    0    0  501  0.00000000000E+00  0.00000000000E+00  0.10465425945E+04  0.10465425945E+04  0.50400001928E-02 0. -1.
        1   -1    0    0  501    0  0.00000000000E+00  0.00000000000E+00 -0.13015902984E+04  0.13015902984E+04  0.50400001928E-02 0.  1.
    10030    2    1    2    0    0  0.00000000000E+00  0.00000000000E+00 -0.25504770390E+03  0.23481328929E+04  0.23342405085E+04 0.  0.
        1    1    3    3  502    0  0.80418054093E+03 -0.29387542950E+03  0.67035529113E+03  0.10874030195E+04  0.50400001928E-02 0. -1.
       -1    1    3    3    0  502 -0.80418054093E+03  0.29387542950E+03 -0.92540299503E+03  0.12607298734E+04  0.50400001928E-02 0.  1.
</event>
<event>
 5   0  0.2063930E-05  0.2506325E+04  0.7818609E-02  0.8400736E-01
       -1   -1    0    0    0  501  0.00000000000E+00  0.00000000000E+00  0.19128391283E+04  0.19128391283E+04  0.50400001928E-02 0.  1.
        1   -1    0    0  501    0  0.00000000000E+00  0.00000000000E+00 -0.82098726023E+03  0.82098726024E+03  0.50400001928E-02 0. -1.
    10030    2    1    2    0    0  0.00000000000E+00  0.00000000000E+00  0.10918518681E+04  0.27338263885E+04  0.25063252424E+04 0.  0.
        3    1    3    3  502    0  0.14476662921E+03  0.11450239443E+04  0.13366839869E+02  0.11542165709E+04  0.10100000352E+00 0. -1.
       -3    1    3    3    0  502 -0.14476662921E+03 -0.11450239443E+04  0.10784850282E+04  0.15796098177E+04  0.10100000352E+00 0.  1.
</event>
<event>
 5   0  0.4959042E-05  0.2610714E+04  0.7818609E-02  0.8364571E-01
       -2   -1    0    0    0  501  0.00000000000E+00  0.00000000000E+00  0.76512019942E+03  0.76512019942E+03  0.25500000920E-02 0.  1.
        2   -1    0    0  501    0  0.00000000000E+00  0.00000000000E+00 -0.22270451289E+04  0.22270451289E+04  0.25500000920E-02 0. -1.
    10030    2    1    2    0    0  0.00000000000E+00  0.00000000000E+00 -0.14619249295E+04  0.29921653283E+04  0.26107142419E+04 0.  0.
        4    1    3    3  502    0  0.63055928335E+02 -0.79714592534E+03 -0.19134778960E+04  0.20738411095E+04  0.12699999809E+01 0. -1.
       -4    1    3    3    0  502 -0.63055928335E+02  0.79714592534E+03  0.45155296647E+03  0.91832421879E+03  0.12699999809E+01 0.  1.
</event>
<event>
 5   0  0.5219468E-05  0.2420015E+04  0.7818609E-02  0.8432048E-01
       -2   -1    0    0    0  501  0.00000000000E+00  0.00000000000E+00  0.93810136633E+03  0.93810136633E+03  0.25500000920E-02 0.  1.
        2   -1    0    0  501    0  0.00000000000E+00  0.00000000000E+00 -0.15607243475E+04  0.15607243475E+04  0.25500000920E-02 0. -1.
    10030    2    1    2    0    0  0.00000000000E+00  0.00000000000E+00 -0.62262298120E+03  0.24988257139E+04  0.24200145808E+04 0.  0.
        1    1    3    3  502    0 -0.11670615722E+04  0.95658208675E+01 -0.64107611957E+03  0.13315790661E+04  0.50400001928E-02 0. -1.
       -1    1    3    3    0  502  0.11670615722E+04 -0.95658208675E+01  0.18453138372E+02  0.11672466477E+04  0.50400001928E-02 0.  1.
</event>
<event>
 5   0  0.2036578E-05  0.2549681E+04  0.7818609E-02  0.8385497E-01
       -1   -1    0    0    0  501  0.00000000000E+00  0.00000000000E+00  0.92993688114E+03  0.92993688115E+03  0.50400001928E-02 0. -1.
        1   -1    0    0  501    0  0.00000000000E+00  0.00000000000E+00 -0.17476657713E+04  0.17476657713E+04  0.50400001928E-02 0.  1.
    10030    2    1    2    0    0  0.00000000000E+00  0.00000000000E+00 -0.81772889018E+03  0.26776026525E+04  0.25496814363E+04 0.  0.
        2    1    3    3  502    0 -0.63188004584E+03 -0.10876218611E+04 -0.19103257905E+03  0.12722763660E+04  0.25500000920E-02 0. -1.
       -2    1    3    3    0  502  0.63188004584E+03  0.10876218611E+04 -0.62669631113E+03  0.14053262865E+04  0.25500000920E-02 0.  1.
</event>
<event>
 5   0  0.2036578E-05  0.2419256E+04  0.7818609E-02  0.8432329E-01
       -1   -1    0    0    0  501  0.00000000000E+00  0.00000000000E+00  0.14338972396E+04  0.14338972396E+04  0.50400001928E-02 0.  1.
        1   -1    0    0  501    0  0.00000000000E+00  0.00000000000E+00 -0.10204359120E+04  0.10204359120E+04  0.50400001928E-02 0. -1.
    10030    2    1    2    0    0  0.00000000000E+00  0.00000000000E+00  0.41346132760E+03  0.24543331516E+04  0.24192562803E+04 0.  0.
        2    1    3    3  502    0  0.13114089128E+03 -0.23248135401E+03  0.14036480930E+04  0.14288014146E+04  0.25500000920E-02 0.  1.
       -2    1    3    3    0  502 -0.13114089128E+03  0.23248135401E+03 -0.99018676540E+03  0.10255317371E+04  0.25500000920E-02 0. -1.
</event>
<event>
 5   0  0.1692125E-05  0.2486784E+04  0.7818609E-02  0.8407709E-01
       -3   -1    0    0    0  501  0.00000000000E+00  0.00000000000E+00  0.80195720664E+03  0.80195721300E+03  0.10100000352E+00 0.  1.
        3   -1    0    0  501    0  0.00000000000E+00  0.00000000000E+00 -0.19278125474E+04  0.19278125500E+04  0.10100000352E+00 0. -1.
    10030    2    1    2    0    0  0.00000000000E+00  0.00000000000E+00 -0.11258553407E+04  0.27297697630E+04  0.24867836076E+04 0.  0.
        4    1    3    3  502    0 -0.17733416474E+03  0.20396572128E+03 -0.18951763232E+04  0.19143521961E+04  0.12699999809E+01 0. -1.
       -4    1    3    3    0  502  0.17733416474E+03 -0.20396572128E+03  0.76932098253E+03  0.81541756696E+03  0.12699999809E+01 0.  1.
</event>
<event>
 5   0  0.4959042E-05  0.2486832E+04  0.7818609E-02  0.8407692E-01
        2   -1    0    0  501    0  0.00000000000E+00  0.00000000000E+00  0.12348644315E+04  0.12348644315E+04  0.25500000920E-02 0.  1.
       -2   -1    0    0    0  501  0.00000000000E+00  0.00000000000E+00 -0.12520270233E+04  0.12520270233E+04  0.25500000920E-02 0. -1.
    10030    2    1    2    0    0  0.00000000000E+00  0.00000000000E+00 -0.17162591832E+02  0.24868914548E+04  0.24868322327E+04 0.  0.
        4    1    3    3  502    0  0.44414074069E+03 -0.10524730268E+04  0.48247169526E+03  0.12400568614E+04  0.12699999809E+01 0. -1.
       -4    1    3    3    0  502 -0.44414074069E+03  0.10524730268E+04 -0.49963428709E+03  0.12468345935E+04  0.12699999809E+01 0.  1.
</event>
<event>
 5   0  0.2063930E-05  0.2474492E+04  0.7818609E-02  0.8412130E-01
       -1   -1    0    0    0  501  0.00000000000E+00  0.00000000000E+00  0.12383283321E+04  0.12383283321E+04  0.50400001928E-02 0.  1.
        1   -1    0    0  501    0  0.00000000000E+00  0.00000000000E+00 -0.12361643434E+04  0.12361643434E+04  0.50400001928E-02 0. -1.
    10030    2    1    2    0    0  0.00000000000E+00  0.00000000000E+00  0.21639887348E+01  0.24744926755E+04  0.24744917293E+04 0.  0.
        3    1    3    3  502    0 -0.40987091759E+01  0.86021570156E+02 -0.12331635138E+04  0.12361669677E+04  0.10100000352E+00 0. -1.
       -3    1    3    3    0  502  0.40987091759E+01 -0.86021570156E+02  0.12353275026E+04  0.12383257079E+04  0.10100000352E+00 0.  1.
</event>
<event>
 5   0  0.4959042E-05  0.2532341E+04  0.7818609E-02  0.8391554E-01
        2   -1    0    0  501    0  0.00000000000E+00  0.00000000000E+00  0.12025843826E+04  0.12025843826E+04  0.25500000920E-02 0. -1.
       -2   -1    0    0    0  501  0.00000000000E+00  0.00000000000E+00 -0.13331187270E+04  0.13331187270E+04  0.25500000920E-02 0.  1.
    10030    2    1    2    0    0  0.00000000000E+00  0.00000000000E+00 -0.13053434431E+03  0.25357031096E+04  0.25323410207E+04 0.  0.
        4    1    3    3  502    0 -0.89058788237E+02  0.66795566192E+02  0.11976738015E+04  0.12028371723E+04  0.12699999809E+01 0. -1.
       -4    1    3    3    0  502  0.89058788237E+02 -0.66795566192E+02 -0.13282081458E+04  0.13328659373E+04  0.12699999809E+01 0.  1.
</event>
<event>
 5   0  0.2063930E-05  0.2442456E+04  0.7818609E-02  0.8423777E-01
        1   -1    0    0  501    0  0.00000000000E+00  0.00000000000E+00  0.13422425170E+04  0.13422425170E+04  0.50400001928E-02 0.  1.
       -1   -1    0    0    0  501  0.00000000000E+00  0.00000000000E+00 -0.11111244119E+04  0.11111244119E+04  0.50400001928E-02 0. -1.
    10030    2    1    2    0    0  0.00000000000E+00  0.00000000000E+00  0.23111810508E+03  0.24533669289E+04  0.24424564908E+04 0.  0.
        3    1    3    3  502    0  0.91485753771E+03  0.35866414340E+03 -0.61279667449E+03  0.11580691070E+04  0.10100000352E+00 0.  1.
       -3    1    3    3    0  502 -0.91485753771E+03 -0.35866414340E+03  0.84391477958E+03  0.12952978219E+04  0.10100000352E+00 0. -1.
</event>
<event>
 5   0  0.2063930E-05  0.2503122E+04  0.7818609E-02  0.8401874E-01
       -1   -1    0    0    0  501  0.00000000000E+00  0.00000000000E+00  0.17598742321E+04  0.17598742321E+04  0.50400001928E-02 0.  1.
        1   -1    0    0  501    0  0.00000000000E+00  0.00000000000E+00 -0.89006633491E+03  0.89006633493E+03  0.50400001928E-02 0. -1.
    10030    2    1    2    0    0  0.00000000000E+00  0.00000000000E+00  0.86980789716E+03  0.26499405670E+04  0.25031218969E+04 0.  0.
        3    1    3    3  502    0  0.87283945780E+02 -0.65832886832E+03 -0.68816274218E+03  0.95633851537E+03  0.10100000352E+00 0. -1.
       -3    1    3    3    0  502 -0.87283945780E+02  0.65832886832E+03  0.15579706393E+04  0.16936020516E+04  0.10100000352E+00 0.  1.
</event>
<event>
 5   0  0.4959042E-05  0.2298430E+04  0.7818609E-02  0.8478540E-01
       -2   -1    0    0    0  501  0.00000000000E+00  0.00000000000E+00  0.13204005367E+04  0.13204005367E+04  0.25500000920E-02 0. -1.
        2   -1    0    0  501    0  0.00000000000E+00  0.00000000000E+00 -0.10002229645E+04  0.10002229645E+04  0.25500000920E-02 0.  1.
    10030    2    1    2    0    0  0.00000000000E+00  0.00000000000E+00  0.32017757218E+03  0.23206235012E+04  0.22984298459E+04 0.  0.
        4    1    3    3  502    0 -0.85243930481E+03  0.99131688639E+02 -0.61163025363E+03  0.10538372930E+04  0.12699999809E+01 0. -1.
       -4    1    3    3    0  502  0.85243930481E+03 -0.99131688639E+02  0.93180782580E+03  0.12667862082E+04  0.12699999809E+01 0.  1.
</event>
<event>
 5   0  0.5219468E-05  0.2447265E+04  0.7818609E-02  0.8422017E-01
        2   -1    0    0  501    0  0.00000000000E+00  0.00000000000E+00  0.10229610853E+04  0.10229610853E+04  0.25500000920E-02 0. -1.
       -2   -1    0    0    0  501  0.00000000000E+00  0.00000000000E+00 -0.14636686993E+04  0.14636686993E+04  0.25500000920E-02 0.  1.
    10030    2    1    2    0    0  0.00000000000E+00  0.00000000000E+00 -0.44070761395E+03  0.24866297846E+04  0.24472646945E+04 0.  0.
        1    1    3    3  502    0  0.10866460320E+01  0.90947949688E+03  0.61142359970E+03  0.10958982409E+04  0.50400001928E-02 0. -1.
       -1    1    3    3    0  502 -0.10866460320E+01 -0.90947949688E+03 -0.10521312136E+04  0.13907315438E+04  0.50400001928E-02 0.  1.
</event>
<event>
 5   0  0.4959042E-05  0.2521621E+04  0.7818609E-02  0.8395323E-01
       -2   -1    0    0    0  501  0.00000000000E+00  0.00000000000E+00  0.13053186227E+04  0.13053186227E+04  0.25500000920E-02 0. -1.
        2   -1    0    0  501    0  0.00000000000E+00  0.00000000000E+00 -0.12178202207E+04  0.12178202207E+04  0.25500000920E-02 0.  1.
    10030    2    1    2    0    0  0.00000000000E+00  0.00000000000E+00  0.87498401978E+02  0.25231388434E+04  0.25216212350E+04 0.  0.
        4    1    3    3  502    0  0.31798020662E+03  0.12172265319E+04 -0.39306529576E+02  0.12586891824E+04  0.12699999809E+01 0.  1.
       -4    1    3    3    0  502 -0.31798020662E+03 -0.12172265319E+04  0.12680493155E+03  0.12644496610E+04  0.12699999809E+01 0. -1.
</event>
<event>
 5   0  0.4959042E-05  0.2575948E+04  0.7818609E-02  0.8376417E-01
       -2   -1    0    0    0  501  0.00000000000E+00  0.00000000000E+00  0.10896758076E+04  0.10896758076E+04  0.25500000920E-02 0. -1.
        2   -1    0    0  501    0  0.00000000000E+00  0.00000000000E+00 -0.15223580667E+04  0.15223580667E+04  0.25500000920E-02 0.  1.
    10030    2    1    2    0    0  0.00000000000E+00  0.00000000000E+00 -0.43268225904E+03  0.26120338743E+04  0.25759477912E+04 0.  0.
        4    1    3    3  502    0 -0.53767415730E+03 -0.11572848591E+04 -0.39329339792E+02  0.12766950123E+04  0.12699999809E+01 0.  1.
       -4    1    3    3    0  502  0.53767415730E+03  0.11572848591E+04 -0.39335291924E+03  0.13353388620E+04  0.12699999809E+01 0. -1.
</event>
<event>
 5   0  0.2081874E-05  0.2511009E+04  0.7818609E-02  0.8399074E-01
        1   -1    0    0  501    0  0.00000000000E+00  0.00000000000E+00  0.14251100889E+04  0.14251100889E+04  0.50400001928E-02 0.  1.
       -1   -1    0    0    0  501  0.00000000000E+00  0.00000000000E+00 -0.11060842760E+04  0.11060842760E+04  0.50400001928E-02 0. -1.
    10030    2    1    2    0    0  0.00000000000E+00  0.00000000000E+00  0.31902581292E+03  0.25311943649E+04  0.25110092480E+04 0.  0.
        1    1    3    3  502    0  0.36584817426E+03  0.41557447514E+03  0.12954006392E+04  0.14087618135E+04  0.50400001928E-02 0.  1.
       -1    1    3    3    0  502 -0.36584817426E+03 -0.41557447514E+03 -0.97637482632E+03  0.11224325514E+04  0.50400001928E-02 0. -1.
</event>
<event>
 5   0  0.2063930E-05  0.2463622E+04  0.7818609E-02  0.8416061E-01
        1   -1    0    0  501    0  0.00000000000E+00  0.00000000000E+00  0.16784920078E+04  0.16784920078E+04  0.50400001928E-02 0.  1.
       -1   -1    0    0    0  501  0.00000000000E+00  0.00000000000E+00 -0.90400075616E+03  0.90400075618E+03  0.50400001928E-02 0. -1.
    10030    2    1    2    0    0  0.00000000000E+00  0.00000000000E+00  0.77449125159E+03  0.25824927639E+04  0.24636217601E+04 0.  0.
        3    1    3    3  502    0  0.57779418523E+03  0.38234622981E+02  0.15269258452E+04  0.16330372175E+04  0.10100000352E+00 0.  1.
       -3    1    3    3    0  502 -0.57779418523E+03 -0.38234622981E+02 -0.75243459357E+03  0.94945554645E+03  0.10100000352E+00 0. -1.
</event>
<event>
 5   0  0.4995256E-05  0.2532210E+04  0.7818609E-02  0.8391600E-01
        2   -1    0    0  501    0  0.00000000000E+00  0.00000000000E+00  0.15175442413E+04  0.15175442413E+04  0.25500000920E-02 0.  1.
       -2   -1    0    0    0  501  0.00000000000E+00  0.00000000000E+00 -0.10563261553E+04  0.10563261553E+04  0.25500000920E-02 0. -1.
    10030    2    1    2    0    0  0.00000000000E+00  0.00000000000E+00  0.46121808605E+03  0.25738703966E+04  0.25322098443E+04 0.  0.
        2    1    3    3  502    0  0.90936034038E+03  0.40564464852E+03  0.10254837139E+04  0.14293707207E+04  0.25500000920E-02 0.  1.
       -2    1    3    3    0  502 -0.90936034038E+03 -0.40564464852E+03 -0.56426562788E+03  0.11444996760E+04  0.25500000920E-02 0. -1.
</event>
<event>
 5   0  0.2036578E-05  0.2971607E+04  0.7818609E-02  0.8251885E-01
        1   -1    0    0  501    0  0.00000000000E+00  0.00000000000E+00  0.11823667832E+04  0.11823667832E+04  0.50400001928E-02 0.  1.
       -1   -1    0    0    0  501  0.00000000000E+00  0.00000000000E+00 -0.18671125961E+04  0.18671125961E+04  0.50400001928E-02 0. -1.
    10030    2    1    2    0    0  0.00000000000E+00  0.00000000000E+00 -0.68474581293E+03  0.30494793794E+04  0.29716069149E+04 0.  0.
        2    1    3    3  502    0 -0.48914445027E+03  0.79774328343E+03  0.84197463196E+03  0.12588001908E+04  0.25500000920E-02 0.  1.
       -2    1    3    3    0  502  0.48914445027E+03 -0.79774328343E+03 -0.15267204449E+04  0.17906791886E+04  0.25500000920E-02 0. -1.
</event>
<event>
 5   0  0.2041718E-05  0.2530594E+04  0.7818609E-02  0.8392166E-01
       -1   -1    0    0    0  501  0.00000000000E+00  0.00000000000E+00  0.96195916000E+03  0.96195916001E+03  0.50400001928E-02 0.  1.
        1   -1    0    0  501    0  0.00000000000E+00  0.00000000000E+00 -0.16642880461E+04  0.16642880461E+04  0.50400001928E-02 0. -1.
    10030    2    1    2    0    0  0.00000000000E+00  0.00000000000E+00 -0.70232888607E+03  0.26262472061E+04  0.25305945000E+04 0.  0.
        4    1    3    3  502    0 -0.66370460110E+03  0.25963435770E+03 -0.14361785539E+04  0.16032854546E+04  0.12699999809E+01 0. -1.
       -4    1    3    3    0  502  0.66370460110E+03 -0.25963435770E+03  0.73384966783E+03  0.10229617515E+04  0.12699999809E+01 0.  1.
</event>
<event>
 5   0  0.2041718E-05  0.2500509E+04  0.7818609E-02  0.8402804E-01
        1   -1    0    0  501    0  0.00000000000E+00  0.00000000000E+00  0.15540834593E+04  0.15540834594E+04  0.50400001928E-02 0.  1.
       -1   -1    0    0    0  501  0.00000000000E+00  0.00000000000E+00 -0.10058251373E+04  0.10058251373E+04  0.50400001928E-02 0. -1.
    10030    2    1    2    0    0  0.00000000000E+00  0.00000000000E+00  0.54825832208E+03  0.25599085966E+04  0.25005089153E+04 0.  0.
        4    1    3    3  502    0 -0.74721423547E+03 -0.76876574130E+03 -0.38442844510E+03  0.11389103217E+04  0.12699999809E+01 0. -1.
       -4    1    3    3    0  502  0.74721423547E+03  0.76876574130E+03  0.93268676717E+03  0.14209982749E+04  0.12699999809E+01 0.  1.
</event>
<event>
 5   0  0.4995256E-05  0.2449144E+04  0.7818609E-02  0.8421330E-01
       -2   -1    0    0    0  501  0.00000000000E+00  0.00000000000E+00  0.16444027770E+04  0.16444027770E+04  0.25500000920E-02 0.  1.
        2   -1    0    0  501    0  0.00000000000E+00  0.00000000000E+00 -0.91192801503E+03  0.91192801503E+03  0.25500000920E-02 0. -1.
    10030    2    1    2    0    0  0.00000000000E+00  0.00000000000E+00  0.73247476192E+03  0.25563307920E+04  0.24491443080E+04 0.  0.
        2    1    3    3  502    0 -0.11320203458E+04 -0.45778202217E+03  0.26976664211E+03  0.12505232842E+04  0.25500000920E-02 0. -1.
       -2    1    3    3    0  502  0.11320203458E+04  0.45778202217E+03  0.46270811982E+03  0.13058075078E+04  0.25500000920E-02 0.  1.
</event>
<event>
 5   0  0.2081874E-05  0.2532413E+04  0.7818609E-02  0.8391528E-01
        1   -1    0    0  501    0  0.00000000000E+00  0.00000000000E+00  0.98508236447E+03  0.98508236449E+03  0.50400001928E-02 0. -1.
       -1   -1    0    0    0  501  0.00000000000E+00  0.00000000000E+00 -0.16275580452E+04  0.16275580452E+04  0.50400001928E-02 0.  1.
    10030    2    1    2    0    0  0.00000000000E+00  0.00000000000E+00 -0.64247568068E+03  0.26126404096E+04  0.25324128632E+04 0.  0.
        1    1    3    3  502    0  0.12078966676E+04 -0.37957624106E+03 -0.33531734651E+03  0.13097825031E+04  0.50400001928E-02 0.  1.
       -1    1    3    3    0  502 -0.12078966676E+04  0.37957624106E+03 -0.30715833417E+03  0.13028579066E+04  0.50400001928E-02 0. -1.
</event>
<event>
 5   0  0.4995256E-05  0.2533652E+04  0.7818609E-02  0.8391094E-01
       -2   -1    0    0    0  501  0.00000000000E+00  0.00000000000E+00  0.14102716924E+04  0.14102716924E+04  0.25500000920E-02 0.  1.
        2   -1    0    0  501    0  0.00000000000E+00  0.00000000000E+00 -0.11379709256E+04  0.11379709256E+04  0.25500000920E-02 0. -1.
    10030    2    1    2    0    0  0.00000000000E+00  0.00000000000E+00  0.27230076681E+03  0.25482426180E+04  0.25336520544E+04 0.  0.
        2    1    3    3  502    0 -0.43879256334E+03 -0.11560747984E+04 -0.14075369347E+03  0.12445318218E+04  0.25500000920E-02 0.  1.
       -2    1    3    3    0  502  0.43879256334E+03  0.11560747984E+04  0.41305446028E+03  0.13037107963E+04  0.25500000920E-02 0. -1.
</event>
<event>
 5   0  0.4995256E-05  0.2507257E+04  0.7818609E-02  0.8400405E-01
        2   -1    0    0  501    0  0.00000000000E+00  0.00000000000E+00  0.20080412771E+04  0.20080412771E+04  0.25500000920E-02 0.  1.
       -2   -1    0    0    0  501  0.00000000000E+00  0.00000000000E+00 -0.78264546609E+03  0.78264546610E+03  0.25500000920E-02 0. -1.
    10030    2    1    2    0    0  0.00000000000E+00  0.00000000000E+00  0.12253958110E+04  0.27906867432E+04  0.25072569882E+04 0.  0.
        2    1    3    3  502    0 -0.64821471676E+03 -0.53784811364E+03  0.16461645734E+04  0.18491405341E+04  0.25500000920E-02 0.  1.
       -2    1    3    3    0  502  0.64821471676E+03  0.53784811364E+03 -0.42076876238E+03  0.94154620904E+03  0.25500000920E-02 0. -1.
</event>
<event>
 5   0  0.4995256E-05  0.2463651E+04  0.7818609E-02  0.8416051E-01
        2   -1    0    0  501    0  0.00000000000E+00  0.00000000000E+00  0.22763679818E+04  0.22763679818E+04  0.25500000920E-02 0.  1.
       -2   -1    0    0    0  501  0.00000000000E+00  0.00000000000E+00 -0.66658553572E+03  0.66658553572E+03  0.25500000920E-02 0. -1.
    10030    2    1    2    0    0  0.00000000000E+00  0.00000000000E+00  0.16097824461E+04  0.29429535175E+04  0.24636509255E+04 0.  0.
        2    1    3    3  502    0 -0.24325026377E+03 -0.11564469796E+04  0.38961779850E+03  0.12443240480E+04  0.25500000920E-02 0. -1.
       -2    1    3    3    0  502  0.24325026377E+03  0.11564469796E+04  0.12201646476E+04  0.16986294695E+04  0.25500000920E-02 0.  1.
</event>
<event>
 5   0  0.5219468E-05  0.2479638E+04  0.7818609E-02  0.8410276E-01
        2   -1    0    0  501    0  0.00000000000E+00  0.00000000000E+00  0.17839729117E+04  0.17839729117E+04  0.25500000920E-02 0.  1.
       -2   -1    0    0    0  501  0.00000000000E+00  0.00000000000E+00 -0.86164457712E+03  0.86164457713E+03  0.25500000920E-02 0. -1.
    10030    2    1    2    0    0  0.00000000000E+00  0.00000000000E+00  0.92232833463E+03  0.26456174889E+04  0.24796375422E+04 0.  0.
        1    1    3    3  502    0 -0.76280308537E+03 -0.19152669723E+03 -0.56142683448E+03  0.96630798057E+03  0.50400001928E-02 0. -1.
       -1    1    3    3    0  502  0.76280308537E+03  0.19152669723E+03  0.14837551691E+04  0.16793095083E+04  0.50400001928E-02 0.  1.
</event>
<event>
 5   0  0.2036578E-05  0.1945491E+04  0.7818609E-02  0.8632538E-01
       -1   -1    0    0    0  501  0.00000000000E+00  0.00000000000E+00  0.64424844877E+03  0.64424844879E+03  0.50400001928E-02 0. -1.
        1   -1    0    0  501    0  0.00000000000E+00  0.00000000000E+00 -0.14687400612E+04  0.14687400612E+04  0.50400001928E-02 0.  1.
    10030    2    1    2    0    0  0.00000000000E+00  0.00000000000E+00 -0.82449161245E+03  0.21129885100E+04  0.19454906899E+04 0.  0.
        2    1    3    3  502    0  0.77987621725E+03  0.36015521435E+03 -0.90795623497E+03  0.12499212844E+04  0.25500000920E-02 0.  1.
       -2    1    3    3    0  502 -0.77987621725E+03 -0.36015521435E+03  0.83464622517E+02  0.86306722559E+03  0.25500000920E-02 0. -1.
</event>
<event>
 5   0  0.4959042E-05  0.2479760E+04  0.7818609E-02  0.8410232E-01
        2   -1    0    0  501    0  0.00000000000E+00  0.00000000000E+00  0.17186180545E+04  0.17186180545E+04  0.25500000920E-02 0. -1.
       -2   -1    0    0    0  501  0.00000000000E+00  0.00000000000E+00 -0.89449905513E+03  0.89449905513E+03  0.25500000920E-02 0.  1.
    10030    2    1    2    0    0  0.00000000000E+00  0.00000000000E+00  0.82411899934E+03  0.26131171096E+04  0.24797598479E+04 0.  0.
        4    1    3    3  502    0  0.52211298075E+03 -0.18122060947E+03 -0.75751940916E+03  0.93769938792E+03  0.12699999809E+01 0.  1.
       -4    1    3    3    0  502 -0.52211298075E+03  0.18122060947E+03  0.15816384085E+04  0.16754177217E+04  0.12699999809E+01 0. -1.
</event>
<event>
 5   0  0.5024070E-05  0.2600866E+04  0.7818609E-02  0.8367907E-01
       -2   -1    0    0    0  501  0.00000000000E+00  0.00000000000E+00  0.98718312075E+03  0.98718312075E+03  0.25500000920E-02 0.  1.
        2   -1    0    0  501    0  0.00000000000E+00  0.00000000000E+00 -0.17130830019E+04  0.17130830019E+04  0.25500000920E-02 0. -1.
    10030    2    1    2    0    0  0.00000000000E+00  0.00000000000E+00 -0.72589988116E+03  0.27002661227E+04  0.26008664894E+04 0.  0.
        5    1    3    3  502    0 -0.35521916516E+02 -0.94291166491E+03  0.56610154231E+03  0.11003805072E+04  0.46999998093E+01 0.  1.
       -5    1    3    3    0  502  0.35521916516E+02  0.94291166491E+03 -0.12920014235E+04  0.15998856155E+04  0.46999998093E+01 0. -1.
</event>
<event>
 5   0  0.2066170E-05  0.2491483E+04  0.7818609E-02  0.8406026E-01
        1   -1    0    0  501    0  0.00000000000E+00  0.00000000000E+00  0.13512891187E+04  0.13512891187E+04  0.50400001928E-02 0.  1.
       -1   -1    0    0    0  501  0.00000000000E+00  0.00000000000E+00 -0.11484384205E+04  0.11484384206E+04  0.50400001928E-02 0. -1.
    10030    2    1    2    0    0  0.00000000000E+00  0.00000000000E+00  0.20285069815E+03  0.24997275393E+04  0.24914833664E+04 0.  0.
        5    1    3    3  502    0 -0.44554810202E+03  0.56952691767E+03 -0.91631584636E+03  0.11672749639E+04  0.46999998093E+01 0. -1.
       -5    1    3    3    0  502  0.44554810202E+03 -0.56952691767E+03  0.11191665445E+04  0.13324525753E+04  0.46999998093E+01 0.  1.
</event>
<event>
 5   0  0.5024070E-05  0.2484001E+04  0.7818609E-02  0.8408707E-01
       -2   -1    0    0    0  501  0.00000000000E+00  0.00000000000E+00  0.10692815181E+04  0.10692815181E+04  0.25500000920E-02 0.  1.
        2   -1    0    0  501    0  0.00000000000E+00  0.00000000000E+00 -0.14426190016E+04  0.14426190016E+04  0.25500000920E-02 0. -1.
    10030    2    1    2    0    0  0.00000000000E+00  0.00000000000E+00 -0.37333748353E+03  0.25119005197E+04  0.24840014783E+04 0.  0.
        5    1    3    3  502    0 -0.61707257286E+03 -0.10424840737E+04  0.90253899325E+02  0.12147919412E+04  0.46999998093E+01 0.  1.
       -5    1    3    3    0  502  0.61707257286E+03  0.10424840737E+04 -0.46359138286E+03  0.12971085785E+04  0.46999998093E+01 0. -1.
</event>
<event>
 5   0  0.2066170E-05  0.2457208E+04  0.7818609E-02  0.8418391E-01
        1   -1    0    0  501    0  0.00000000000E+00  0.00000000000E+00  0.17218874105E+04  0.17218874106E+04  0.50400001928E-02 0. -1.
       -1   -1    0    0    0  501  0.00000000000E+00  0.00000000000E+00 -0.87663551542E+03  0.87663551544E+03  0.50400001928E-02 0.  1.
    10030    2    1    2    0    0  0.00000000000E+00  0.00000000000E+00  0.84525189513E+03  0.25985229260E+04  0.24572078933E+04 0.  0.
        5    1    3    3  502    0 -0.92167910079E+03 -0.74230410968E+03  0.73586932513E+02  0.11857254668E+04  0.46999998093E+01 0.  1.
       -5    1    3    3    0  502  0.92167910079E+03  0.74230410968E+03  0.77166496261E+03  0.14127974592E+04  0.46999998093E+01 0. -1.
</event>
<event>
 5   0  0.5024070E-05  0.2463371E+04  0.7818609E-02  0.8416152E-01
       -2   -1    0    0    0  501  0.00000000000E+00  0.00000000000E+00  0.19028178292E+04  0.19028178292E+04  0.25500000920E-02 0. -1.
        2   -1    0    0  501    0  0.00000000000E+00  0.00000000000E+00 -0.79726436361E+03  0.79726436362E+03  0.25500000920E-02 0.  1.
    10030    2    1    2    0    0  0.00000000000E+00  0.00000000000E+00  0.11055534656E+04  0.27000821928E+04  0.24633707359E+04 0.  0.
        5    1    3    3  502    0 -0.31057564774E+03 -0.99627553515E+03  0.12698630163E+04  0.16436533531E+04  0.46999998093E+01 0. -1.
       -5    1    3    3    0  502  0.31057564774E+03  0.99627553515E+03 -0.16430955075E+03  0.10564288397E+04  0.46999998093E+01 0.  1.
</event>
<event>
 5   0  0.4995256E-05  0.2369201E+04  0.7818609E-02  0.8451125E-01
        2   -1    0    0  501    0  0.00000000000E+00  0.00000000000E+00  0.14766554371E+04  0.14766554371E+04  0.25500000920E-02 0.  1.
       -2   -1    0    0    0  501  0.00000000000E+00  0.00000000000E+00 -0.95030861016E+03  0.95030861017E+03  0.25500000920E-02 0. -1.
    10030    2    1    2    0    0  0.00000000000E+00  0.00000000000E+00  0.52634682690E+03  0.24269640472E+04  0.23692010266E+04 0.  0.
        2    1    3    3  502    0 -0.51089026565E+03 -0.10598164968E+04  0.40459179182E+03  0.12441520761E+04  0.25500000920E-02 0.  1.
       -2    1    3    3    0  502  0.51089026565E+03  0.10598164968E+04  0.12175503508E+03  0.11828119711E+04  0.25500000920E-02 0. -1.
</event>
<event>
 5   0  0.2081874E-05  0.2430171E+04  0.7818609E-02  0.8428294E-01
       -1   -1    0    0    0  501  0.00000000000E+00  0.00000000000E+00  0.18285811826E+04  0.18285811826E+04  0.50400001928E-02 0.  1.
        1   -1    0    0  501    0  0.00000000000E+00  0.00000000000E+00 -0.80741985080E+03  0.80741985082E+03  0.50400001928E-02 0. -1.
    10030    2    1    2    0    0  0.00000000000E+00  0.00000000000E+00  0.10211613318E+04  0.26360010334E+04  0.24301709781E+04 0.  0.
        1    1    3    3  502    0  0.68528259573E+03  0.16272037943E+03  0.15845643432E+04  0.17340514167E+04  0.50400001928E-02 0.  1.
       -1    1    3    3    0  502 -0.68528259573E+03 -0.16272037943E+03 -0.56340301140E+03  0.90194961676E+03  0.50400001928E-02 0. -1.
</event>
<event>
 5   0  0.2063930E-05  0.2510358E+04  0.7818609E-02  0.8399305E-01
        1   -1    0    0  501    0  0.00000000000E+00  0.00000000000E+00  0.14630881166E+04  0.14630881166E+04  0.50400001928E-02 0.  1.
       -1   -1    0    0    0  501  0.00000000000E+00  0.00000000000E+00 -0.10768143713E+04  0.10768143714E+04  0.50400001928E-02 0. -1.
    10030    2    1    2    0    0  0.00000000000E+00  0.00000000000E+00  0.38627374529E+03  0.25399024880E+04  0.25103579908E+04 0.  0.
        3    1    3    3  502    0 -0.77736611386E+02  0.64693506360E+03 -0.89229201726E+03  0.11048769214E+04  0.10100000352E+00 0. -1.
       -3    1    3    3    0  502  0.77736611386E+02 -0.64693506360E+03  0.12785657625E+04  0.14350255665E+04  0.10100000352E+00 0.  1.
</event>
<event>
 5   0  0.4959042E-05  0.2462453E+04  0.7818609E-02  0.8416485E-01
        2   -1    0    0  501    0  0.00000000000E+00  0.00000000000E+00  0.21769973196E+04  0.21769973196E+04  0.25500000920E-02 0. -1.
       -2   -1    0    0    0  501  0.00000000000E+00  0.00000000000E+00 -0.69633446683E+03  0.69633446684E+03  0.25500000920E-02 0.  1.
    10030    2    1    2    0    0  0.00000000000E+00  0.00000000000E+00  0.14806628527E+04  0.28733317864E+04  0.24624526536E+04 0.  0.
        4    1    3    3  502    0 -0.92391868713E+03  0.10774574275E+03 -0.20091254561E+03  0.95163141467E+03  0.12699999809E+01 0. -1.
       -4    1    3    3    0  502  0.92391868713E+03 -0.10774574275E+03  0.16815753984E+04  0.19217003717E+04  0.12699999809E+01 0.  1.
</event>
<event>
 5   0  0.4959042E-05  0.2523386E+04  0.7818609E-02  0.8394701E-01
        2   -1    0    0  501    0  0.00000000000E+00  0.00000000000E+00  0.14781433084E+04  0.14781433084E+04  0.25500000920E-02 0. -1.
       -2   -1    0    0    0  501  0.00000000000E+00  0.00000000000E+00 -0.10769384409E+04  0.10769384409E+04  0.25500000920E-02 0.  1.
    10030    2    1    2    0    0  0.00000000000E+00  0.00000000000E+00  0.40120486751E+03  0.25550817493E+04  0.25233860981E+04 0.  0.
        4    1    3    3  502    0  0.57926958849E+03  0.73514931885E+03  0.10573209689E+04  0.14120648078E+04  0.12699999809E+01 0. -1.
       -4    1    3    3    0  502 -0.57926958849E+03 -0.73514931885E+03 -0.65611610140E+03  0.11430169415E+04  0.12699999809E+01 0.  1.
</event>
<event>
 5   0  0.5219468E-05  0.2462064E+04  0.7818609E-02  0.8416627E-01
       -2   -1    0    0    0  501  0.00000000000E+00  0.00000000000E+00  0.93571480458E+03  0.93571480459E+03  0.25500000920E-02 0. -1.
        2   -1    0    0  501    0  0.00000000000E+00  0.00000000000E+00 -0.16195525650E+04  0.16195525650E+04  0.25500000920E-02 0.  1.
    10030    2    1    2    0    0  0.00000000000E+00  0.00000000000E+00 -0.68383776041E+03  0.25552673696E+04  0.24620636156E+04 0.  0.
        1    1    3    3  502    0 -0.11540495862E+04  0.31161573834E+03 -0.36668355360E+02  0.11959428849E+04  0.50400001928E-02 0.  1.
       -1    1    3    3    0  502  0.11540495862E+04 -0.31161573834E+03 -0.64716940505E+03  0.13593244846E+04  0.50400001928E-02 0. -1.
</event>
<event>
 5   0  0.1692125E-05  0.2464159E+04  0.7818609E-02  0.8415867E-01
        4   -1    0    0  501    0  0.00000000000E+00  0.00000000000E+00  0.20891655090E+04  0.20891658950E+04  0.12699999809E+01 0. -1.
       -4   -1    0    0    0  501  0.00000000000E+00  0.00000000000E+00 -0.72661422875E+03  0.72661533863E+03  0.12699999809E+01 0.  1.
    10030    2    1    2    0    0  0.00000000000E+00  0.00000000000E+00  0.13625512803E+04  0.28157812337E+04  0.24641586727E+04 0.  0.
        3    1    3    3  502    0  0.15768855811E+03  0.76661779420E+03 -0.40605770489E+03  0.88173204186E+03  0.10100000352E+00 0.  1.
       -3    1    3    3    0  502 -0.15768855811E+03 -0.76661779420E+03  0.17686089852E+04  0.19340491918E+04  0.10100000352E+00 0. -1.
</event>
<event>
 5   0  0.2063930E-05  0.2424006E+04  0.7818609E-02  0.8430570E-01
        1   -1    0    0  501    0  0.00000000000E+00  0.00000000000E+00  0.21342463331E+04  0.21342463331E+04  0.50400001928E-02 0. -1.
       -1   -1    0    0    0  501  0.00000000000E+00  0.00000000000E+00 -0.68827648564E+03  0.68827648566E+03  0.50400001928E-02 0.  1.
    10030    2    1    2    0    0  0.00000000000E+00  0.00000000000E+00  0.14459698475E+04  0.28225228188E+04  0.24240062423E+04 0.  0.
        3    1    3    3  502    0 -0.90206849281E+03  0.74249571027E+03  0.34761291471E+03  0.12189594719E+04  0.10100000352E+00 0.  1.
       -3    1    3    3    0  502  0.90206849281E+03 -0.74249571027E+03  0.10983569328E+04  0.16035633469E+04  0.10100000352E+00 0. -1.
</event>
<event>
 5   0  0.2081874E-05  0.2434428E+04  0.7818609E-02  0.8426725E-01
       -1   -1    0    0    0  501  0.00000000000E+00  0.00000000000E+00  0.12357045966E+04  0.12357045966E+04  0.50400001928E-02 0.  1.
        1   -1    0    0  501    0  0.00000000000E+00  0.00000000000E+00 -0.11990004361E+04  0.11990004361E+04  0.50400001928E-02 0. -1.
    10030    2    1    2    0    0  0.00000000000E+00  0.00000000000E+00  0.36704160504E+02  0.24347050327E+04  0.24344283520E+04 0.  0.
        1    1    3    3  502    0 -0.15594741326E+02  0.11893706361E+04  0.27676999955E+03  0.12212482707E+04  0.50400001928E-02 0. -1.
       -1    1    3    3    0  502  0.15594741326E+02 -0.11893706361E+04 -0.24006583905E+03  0.12134567620E+04  0.50400001928E-02 0.  1.
</event>
<event>
 5   0  0.4995256E-05  0.2453899E+04  0.7818609E-02  0.8419596E-01
       -2   -1    0    0    0  501  0.00000000000E+00  0.00000000000E+00  0.12341546264E+04  0.12341546264E+04  0.25500000920E-02 0.  1.
        2   -1    0    0  501    0  0.00000000000E+00  0.00000000000E+00 -0.12197868734E+04  0.12197868734E+04  0.25500000920E-02 0. -1.
    10030    2    1    2    0    0  0.00000000000E+00  0.00000000000E+00  0.14367752942E+02  0.24539414998E+04  0.24538994381E+04 0.  0.
        2    1    3    3  502    0  0.72558565160E+03 -0.98780056801E+03  0.63586200259E+02  0.12273009838E+04  0.25500000920E-02 0.  1.
       -2    1    3    3    0  502 -0.72558565160E+03  0.98780056801E+03 -0.49218447317E+02  0.12266405160E+04  0.25500000920E-02 0. -1.
</event>
<event>
 5   0  0.2066170E-05  0.2507703E+04  0.7818609E-02  0.8400247E-01
       -1   -1    0    0    0  501  0.00000000000E+00  0.00000000000E+00  0.12500878778E+04  0.12500878778E+04  0.50400001928E-02 0. -1.
        1   -1    0    0  501    0  0.00000000000E+00  0.00000000000E+00 -0.12576259830E+04  0.12576259830E+04  0.50400001928E-02 0.  1.
    10030    2    1    2    0    0  0.00000000000E+00  0.00000000000E+00 -0.75381052229E+01  0.25077138609E+04  0.25077025312E+04 0.  0.
        5    1    3    3  502    0  0.10935119758E+04 -0.61302220022E+03  0.19815942775E+02  0.12537860347E+04  0.46999998093E+01 0. -1.
       -5    1    3    3    0  502 -0.10935119758E+04  0.61302220022E+03 -0.27354047998E+02  0.12539278262E+04  0.46999998093E+01 0.  1.
</event>
<event>
 5   0  0.2063930E-05  0.2585816E+04  0.7818609E-02  0.8373035E-01
       -1   -1    0    0    0  501  0.00000000000E+00  0.00000000000E+00  0.10015440984E+04  0.10015440984E+04  0.50400001928E-02 0. -1.
        1   -1    0    0  501    0  0.00000000000E+00  0.00000000000E+00 -0.16690336795E+04  0.16690336795E+04  0.50400001928E-02 0.  1.
    10030    2    1    2    0    0  0.00000000000E+00  0.00000000000E+00 -0.66748958105E+03  0.26705777779E+04  0.25858157953E+04 0.  0.
        3    1    3    3  502    0 -0.21299035761E+03  0.13020204991E+03  0.97641798471E+03  0.10078241698E+04  0.10100000352E+00 0. -1.
       -3    1    3    3    0  502  0.21299035761E+03 -0.13020204991E+03 -0.16439075658E+04  0.16627536081E+04  0.10100000352E+00 0.  1.
</event>
<event>
 5   0  0.2036578E-05  0.2301728E+04  0.7818609E-02  0.8477240E-01
       -1   -1    0    0    0  501  0.00000000000E+00  0.00000000000E+00  0.11767533373E+04  0.11767533373E+04  0.50400001928E-02 0.  1.
        1   -1    0    0  501    0  0.00000000000E+00  0.00000000000E+00 -0.11255443731E+04  0.11255443731E+04  0.50400001928E-02 0. -1.
    10030    2    1    2    0    0  0.00000000000E+00  0.00000000000E+00  0.51208964119E+02  0.23022977104E+04  0.23017281311E+04 0.  0.
        2    1    3    3  502    0 -0.58084503890E+03  0.72157252348E+03  0.70873778390E+03  0.11663434795E+04  0.25500000920E-02 0.  1.
       -2    1    3    3    0  502  0.58084503890E+03 -0.72157252348E+03 -0.65752881978E+03  0.11359542309E+04  0.25500000920E-02 0. -1.
</event>
<event>
 5   0  0.4995256E-05  0.2539268E+04  0.7818609E-02  0.8389128E-01
        2   -1    0    0  501    0  0.00000000000E+00  0.00000000000E+00  0.18153549997E+04  0.18153549997E+04  0.25500000920E-02 0. -1.
       -2   -1    0    0    0  501  0.00000000000E+00  0.00000000000E+00 -0.88796417567E+03  0.88796417568E+03  0.25500000920E-02 0.  1.
    10030    2    1    2    0    0  0.00000000000E+00  0.00000000000E+00  0.92739082398E+03  0.27033191753E+04  0.25392677731E+04 0.  0.
        2    1    3    3  502    0 -0.43503832319E+03 -0.52225579911E+03  0.16053384474E+04  0.17433074866E+04  0.25500000920E-02 0. -1.
       -2    1    3    3    0  502  0.43503832319E+03  0.52225579911E+03 -0.67794762340E+03  0.96001168869E+03  0.25500000920E-02 0.  1.
</event>
<event>
 5   0  0.5024070E-05  0.2344130E+04  0.7818609E-02  0.8460722E-01
        2   -1    0    0  501    0  0.00000000000E+00  0.00000000000E+00  0.15958769383E+04  0.15958769383E+04  0.25500000920E-02 0. -1.
       -2   -1    0    0    0  501  0.00000000000E+00  0.00000000000E+00 -0.86080327457E+03  0.86080327457E+03  0.25500000920E-02 0.  1.
    10030    2    1    2    0    0  0.00000000000E+00  0.00000000000E+00  0.73507366370E+03  0.24566802128E+04  0.23441297697E+04 0.  0.
        5    1    3    3  502    0  0.54736691362E+03 -0.90339671322E+03  0.89983893560E+03  0.13876124674E+04  0.46999998093E+01 0. -1.
       -5    1    3    3    0  502 -0.54736691362E+03  0.90339671322E+03 -0.16476527190E+03  0.10690677455E+04  0.46999998093E+01 0.  1.
</event>
<event>
 5   0  0.2066170E-05  0.2530896E+04  0.7818609E-02  0.8392061E-01
       -1   -1    0    0    0  501  0.00000000000E+00  0.00000000000E+00  0.81374366594E+03  0.81374366596E+03  0.50400001928E-02 0.  1.
        1   -1    0    0  501    0  0.00000000000E+00  0.00000000000E+00 -0.19678911731E+04  0.19678911731E+04  0.50400001928E-02 0. -1.
    10030    2    1    2    0    0  0.00000000000E+00  0.00000000000E+00 -0.11541475072E+04  0.27816348391E+04  0.25308962661E+04 0.  0.
        5    1    3    3  502    0  0.10279557708E+04  0.71121715281E+03 -0.79360464987E+03  0.14806597636E+04  0.46999998093E+01 0. -1.
       -5    1    3    3    0  502 -0.10279557708E+04 -0.71121715281E+03 -0.36054285732E+03  0.13009750755E+04  0.46999998093E+01 0.  1.
</event>
<event>
 5   0  0.2081874E-05  0.2458811E+04  0.7818609E-02  0.8417808E-01
        1   -1    0    0  501    0  0.00000000000E+00  0.00000000000E+00  0.18647700267E+04  0.18647700267E+04  0.50400001928E-02 0. -1.
       -1   -1    0    0    0  501  0.00000000000E+00  0.00000000000E+00 -0.81052208740E+03  0.81052208741E+03  0.50400001928E-02 0.  1.
    10030    2    1    2    0    0  0.00000000000E+00  0.00000000000E+00  0.10542479393E+04  0.26752921141E+04  0.24588105210E+04 0.  0.
        1    1    3    3  502    0  0.28540141117E-01 -0.61509253165E+03  0.16853144033E+04  0.17940522459E+04  0.50400001928E-02 0. -1.
       -1    1    3    3    0  502 -0.28540141117E-01  0.61509253165E+03 -0.63106646396E+03  0.88123986818E+03  0.50400001928E-02 0.  1.
</event>
<event>
 5   0  0.2066170E-05  0.2526463E+04  0.7818609E-02  0.8393618E-01
       -1   -1    0    0    0  501  0.00000000000E+00  0.00000000000E+00  0.14013962585E+04  0.14013962585E+04  0.50400001928E-02 0. -1.
        1   -1    0    0  501    0  0.00000000000E+00  0.00000000000E+00 -0.11386882389E+04  0.11386882389E+04  0.50400001928E-02 0.  1.
    10030    2    1    2    0    0  0.00000000000E+00  0.00000000000E+00  0.26270801964E+03  0.25400844974E+04  0.25264626952E+04 0.  0.
        5    1    3    3  502    0 -0.32173572391E+03 -0.61915432905E+03 -0.92735031658E+03  0.11605458452E+04  0.46999998093E+01 0.  1.
       -5    1    3    3    0  502  0.32173572391E+03  0.61915432905E+03  0.11900583362E+04  0.13795386522E+04  0.46999998093E+01 0. -1.
</event>
<event>
 5   0  0.5024070E-05  0.2405712E+04  0.7818609E-02  0.8437368E-01
       -2   -1    0    0    0  501  0.00000000000E+00  0.00000000000E+00  0.13354226356E+04  0.13354226356E+04  0.25500000920E-02 0. -1.
        2   -1    0    0  501    0  0.00000000000E+00  0.00000000000E+00 -0.10834492495E+04  0.10834492495E+04  0.25500000920E-02 0.  1.
    10030    2    1    2    0    0  0.00000000000E+00  0.00000000000E+00  0.25197338611E+03  0.24188718851E+04  0.24057120795E+04 0.  0.
        5    1    3    3  502    0  0.28106540855E+03 -0.38687982480E+03  0.12357301606E+04  0.13250376910E+04  0.46999998093E+01 0. -1.
       -5    1    3    3    0  502 -0.28106540855E+03  0.38687982480E+03 -0.98375677453E+03  0.10938341941E+04  0.46999998093E+01 0.  1.
</event>
<event>
 5   0  0.1692125E-05  0.2518711E+04  0.7818609E-02  0.8396350E-01
        3   -1    0    0  501    0  0.00000000000E+00  0.00000000000E+00  0.25653369964E+04  0.25653369984E+04  0.10100000352E+00 0. -1.
       -3   -1    0    0    0  501  0.00000000000E+00  0.00000000000E+00 -0.61823297646E+03  0.61823298471E+03  0.10100000352E+00 0.  1.
    10030    2    1    2    0    0  0.00000000000E+00  0.00000000000E+00  0.19471040200E+04  0.31835699831E+04  0.25187107363E+04 0.  0.
        5    1    3    3  502    0 -0.37980756651E+03  0.73725052968E+03 -0.22432816954E+03  0.85914920051E+03  0.46999998093E+01 0.  1.
       -5    1    3    3    0  502  0.37980756651E+03 -0.73725052968E+03  0.21714321895E+04  0.23244207826E+04  0.46999998093E+01 0. -1.
</event>
<event>
 5   0  0.4995256E-05  0.2503053E+04  0.7818609E-02  0.8401899E-01
        2   -1    0    0  501    0  0.00000000000E+00  0.00000000000E+00  0.32742380720E+04  0.32742380720E+04  0.25500000920E-02 0.  1.
       -2   -1    0    0    0  501  0.00000000000E+00  0.00000000000E+00 -0.47837637756E+03  0.47837637757E+03  0.25500000920E-02 0. -1.
    10030    2    1    2    0    0  0.00000000000E+00  0.00000000000E+00  0.27958616944E+04  0.37526144495E+04  0.25030526548E+04 0.  0.
        2    1    3    3  502    0 -0.69438203636E+03  0.10362069098E+04  0.12448421447E+04  0.17622494539E+04  0.25500000920E-02 0. -1.
       -2    1    3    3    0  502  0.69438203636E+03 -0.10362069098E+04  0.15510195497E+04  0.19903649957E+04  0.25500000920E-02 0.  1.
</event>
<event>
 5   0  0.4995256E-05  0.2464914E+04  0.7818609E-02  0.8415593E-01
        2   -1    0    0  501    0  0.00000000000E+00  0.00000000000E+00  0.12541215320E+04  0.12541215320E+04  0.25500000920E-02 0. -1.
       -2   -1    0    0    0  501  0.00000000000E+00  0.00000000000E+00 -0.12111662873E+04  0.12111662873E+04  0.25500000920E-02 0.  1.
    10030    2    1    2    0    0  0.00000000000E+00  0.00000000000E+00  0.42955244662E+02  0.24652878194E+04  0.24649135642E+04 0.  0.
        2    1    3    3  502    0 -0.34778755861E+03  0.63824145196E+03  0.10169384351E+04  0.12499888470E+04  0.25500000920E-02 0. -1.
       -2    1    3    3    0  502  0.34778755861E+03 -0.63824145196E+03 -0.97398319042E+03  0.12152989723E+04  0.25500000920E-02 0.  1.
</event>
<event>
 5   0  0.5024070E-05  0.2386344E+04  0.7818609E-02  0.8444634E-01
       -2   -1    0    0    0  501  0.00000000000E+00  0.00000000000E+00  0.10369662442E+04  0.10369662442E+04  0.25500000920E-02 0.  1.
        2   -1    0    0  501    0  0.00000000000E+00  0.00000000000E+00 -0.13729080755E+04  0.13729080756E+04  0.25500000920E-02 0. -1.
    10030    2    1    2    0    0  0.00000000000E+00  0.00000000000E+00 -0.33594183140E+03  0.24098743197E+04  0.23863439238E+04 0.  0.
        5    1    3    3  502    0  0.34099157726E+03 -0.53398075285E+03  0.85305069636E+03  0.10626044799E+04  0.46999998093E+01 0.  1.
       -5    1    3    3    0  502 -0.34099157726E+03  0.53398075285E+03 -0.11889925278E+04  0.13472698398E+04  0.46999998093E+01 0. -1.
</event>
<event>
 5   0  0.5219468E-05  0.2521456E+04  0.7818609E-02  0.8395381E-01
       -2   -1    0    0    0  501  0.00000000000E+00  0.00000000000E+00  0.71352917495E+03  0.71352917496E+03  0.25500000920E-02 0. -1.
        2   -1    0    0  501    0  0.00000000000E+00  0.00000000000E+00 -0.22275687750E+04  0.22275687750E+04  0.25500000920E-02 0.  1.
    10030    2    1    2    0    0  0.00000000000E+00  0.00000000000E+00 -0.15140396000E+04  0.29410979499E+04  0.25214561746E+04 0.  0.
        1    1    3    3  502    0 -0.69792389324E+03 -0.45569698359E+02  0.46648566751E+03  0.84070401223E+03  0.50400001928E-02 0. -1.
       -1    1    3    3    0  502  0.69792389324E+03  0.45569698359E+02 -0.19805252675E+04  0.21003939377E+04  0.50400001928E-02 0.  1.
</event>
<event>
 5   0  0.4995256E-05  0.2432665E+04  0.7818609E-02  0.8427375E-01
       -2   -1    0    0    0  501  0.00000000000E+00  0.00000000000E+00  0.96817712046E+03  0.96817712046E+03  0.25500000920E-02 0.  1.
        2   -1    0    0  501    0  0.00000000000E+00  0.00000000000E+00 -0.15280924571E+04  0.15280924571E+04  0.25500000920E-02 0. -1.
    10030    2    1    2    0    0  0.00000000000E+00  0.00000000000E+00 -0.55991533666E+03  0.24962695776E+04  0.24326645103E+04 0.  0.
        2    1    3    3  502    0 -0.31948932708E+03  0.93156129823E+03 -0.10124739335E+04  0.14124387946E+04  0.25500000920E-02 0. -1.
       -2    1    3    3    0  502  0.31948932708E+03 -0.93156129823E+03  0.45255859687E+03  0.10838307830E+04  0.25500000920E-02 0.  1.
</event>
<event>
 5   0  0.5219468E-05  0.2484066E+04  0.7818609E-02  0.8408684E-01
       -2   -1    0    0    0  501  0.00000000000E+00  0.00000000000E+00  0.82730478947E+03  0.82730478948E+03  0.25500000920E-02 0. -1.
        2   -1    0    0  501    0  0.00000000000E+00  0.00000000000E+00 -0.18646651461E+04  0.18646651461E+04  0.25500000920E-02 0.  1.
    10030    2    1    2    0    0  0.00000000000E+00  0.00000000000E+00 -0.10373603567E+04  0.26919699356E+04  0.24840663487E+04 0.  0.
        1    1    3    3  502    0 -0.20685969814E+03 -0.11481107885E+04 -0.56745041175E+02  0.11679765910E+04  0.50400001928E-02 0. -1.
       -1    1    3    3    0  502  0.20685969814E+03  0.11481107885E+04 -0.98061531549E+03  0.15239933446E+04  0.50400001928E-02 0.  1.
</event>
<event>
 5   0  0.2041718E-05  0.2224894E+04  0.7818609E-02  0.8508138E-01
        1   -1    0    0  501    0  0.00000000000E+00  0.00000000000E+00  0.30280695258E+04  0.30280695258E+04  0.50400001928E-02 0.  1.
       -1   -1    0    0    0  501  0.00000000000E+00  0.00000000000E+00 -0.40868893854E+03  0.40868893857E+03  0.50400001928E-02 0. -1.
    10030    2    1    2    0    0  0.00000000000E+00  0.00000000000E+00  0.26193805872E+04  0.34367584644E+04  0.22248941731E+04 0.  0.
        4    1    3    3  502    0  0.97308678394E+03  0.53467646509E+03  0.14162633724E+04  0.17996056135E+04  0.12699999809E+01 0. -1.
       -4    1    3    3    0  502 -0.97308678394E+03 -0.53467646509E+03  0.12031172149E+04  0.16371528508E+04  0.12699999809E+01 0.  1.
</event>
<event>
 5   0  0.2041718E-05  0.2379227E+04  0.7818609E-02  0.8447322E-01
       -1   -1    0    0    0  501  0.00000000000E+00  0.00000000000E+00  0.19983518931E+04  0.19983518932E+04  0.50400001928E-02 0. -1.
        1   -1    0    0  501    0  0.00000000000E+00  0.00000000000E+00 -0.70817397691E+03  0.70817397692E+03  0.50400001928E-02 0.  1.
    10030    2    1    2    0    0  0.00000000000E+00  0.00000000000E+00  0.12901779162E+04  0.27065258701E+04  0.23792274439E+04 0.  0.
        4    1    3    3  502    0  0.48510056319E+03 -0.37903615911E+03  0.18030542677E+04  0.19052551723E+04  0.12699999809E+01 0. -1.
       -4    1    3    3    0  502 -0.48510056319E+03  0.37903615911E+03 -0.51287635148E+03  0.80127069778E+03  0.12699999809E+01 0.  1.
</event>
<event>
 5   0  0.2041718E-05  0.2493178E+04  0.7818609E-02  0.8405420E-01
       -1   -1    0    0    0  501  0.00000000000E+00  0.00000000000E+00  0.78822890045E+03  0.78822890047E+03  0.50400001928E-02 0. -1.
        1   -1    0    0  501    0  0.00000000000E+00  0.00000000000E+00 -0.19714878539E+04  0.19714878539E+04  0.50400001928E-02 0.  1.
    10030    2    1    2    0    0  0.00000000000E+00  0.00000000000E+00 -0.11832589534E+04  0.27597167543E+04  0.24931776538E+04 0.  0.
        4    1    3    3  502    0  0.10212288396E+04 -0.12170561298E+02 -0.13828364877E+04  0.17190970973E+04  0.12699999809E+01 0.  1.
       -4    1    3    3    0  502 -0.10212288396E+04  0.12170561298E+02  0.19957753432E+03  0.10406196570E+04  0.12699999809E+01 0. -1.
</event>
<event>
 5   0  0.4959042E-05  0.2539409E+04  0.7818609E-02  0.8389079E-01
        2   -1    0    0  501    0  0.00000000000E+00  0.00000000000E+00  0.25482742527E+04  0.25482742527E+04  0.25500000920E-02 0.  1.
       -2   -1    0    0    0  501  0.00000000000E+00  0.00000000000E+00 -0.63264387478E+03  0.63264387478E+03  0.25500000920E-02 0. -1.
    10030    2    1    2    0    0  0.00000000000E+00  0.00000000000E+00  0.19156303779E+04  0.31809181275E+04  0.25394094567E+04 0.  0.
        4    1    3    3  502    0 -0.89774705458E+03 -0.76841965152E+03  0.37601349762E+03  0.12400831819E+04  0.12699999809E+01 0. -1.
       -4    1    3    3    0  502  0.89774705458E+03  0.76841965152E+03  0.15396168803E+04  0.19408349456E+04  0.12699999809E+01 0.  1.
</event>
<event>
 5   0  0.2066170E-05  0.2500842E+04  0.7818609E-02  0.8402686E-01
        1   -1    0    0  501    0  0.00000000000E+00  0.00000000000E+00  0.13125007393E+04  0.13125007393E+04  0.50400001928E-02 0.  1.
       -1   -1    0    0    0  501  0.00000000000E+00  0.00000000000E+00 -0.11912777146E+04  0.11912777146E+04  0.50400001928E-02 0. -1.
    10030    2    1    2    0    0  0.00000000000E+00  0.00000000000E+00  0.12122302465E+03  0.25037784539E+04  0.25008421630E+04 0.  0.
        5    1    3    3  502    0 -0.88744313758E+03 -0.67517196226E+03  0.62706578803E+03  0.12793146968E+04  0.46999998093E+01 0.  1.
       -5    1    3    3    0  502  0.88744313758E+03  0.67517196226E+03 -0.50584276338E+03  0.12244637570E+04  0.46999998093E+01 0. -1.
</event>
<event>
 5   0  0.2036578E-05  0.2512562E+04  0.7818609E-02  0.8398524E-01
       -1   -1    0    0    0  501  0.00000000000E+00  0.00000000000E+00  0.92045261408E+03  0.92045261409E+03  0.50400001928E-02 0. -1.
        1   -1    0    0  501    0  0.00000000000E+00  0.00000000000E+00 -0.17146367487E+04  0.17146367487E+04  0.50400001928E-02 0.  1.
    10030    2    1    2    0    0  0.00000000000E+00  0.00000000000E+00 -0.79418413462E+03  0.26350893628E+04  0.25125619416E+04 0.  0.
        2    1    3    3  502    0 -0.11824400318E+04  0.66471468607E+02 -0.83664761381E+03  0.14500214187E+04  0.25500000920E-02 0.  1.
       -2    1    3    3    0  502  0.11824400318E+04 -0.66471468607E+02  0.42463479185E+02  0.11850679441E+04  0.25500000920E-02 0. -1.
</event>
<event>
 5   0  0.2041718E-05  0.2554919E+04  0.7818609E-02  0.8383678E-01
       -1   -1    0    0    0  501  0.00000000000E+00  0.00000000000E+00  0.74871322179E+03  0.74871322181E+03  0.50400001928E-02 0.  1.
        1   -1    0    0  501    0  0.00000000000E+00  0.00000000000E+00 -0.21796095075E+04  0.21796095075E+04  0.50400001928E-02 0. -1.
    10030    2    1    2    0    0  0.00000000000E+00  0.00000000000E+00 -0.14308962857E+04  0.29283227293E+04  0.25549187515E+04 0.  0.
        4    1    3    3  502    0  0.12656143476E+04  0.17046782047E+03 -0.75279735311E+03  0.14824116913E+04  0.12699999809E+01 0.  1.
       -4    1    3    3    0  502 -0.12656143476E+04 -0.17046782047E+03 -0.67809893264E+03  0.14459110381E+04  0.12699999809E+01 0. -1.
</event>
<event>
 5   0  0.2041718E-05  0.2511450E+04  0.7818609E-02  0.8398918E-01
       -1   -1    0    0    0  501  0.00000000000E+00  0.00000000000E+00  0.53688560315E+03  0.53688560318E+03  0.50400001928E-02 0. -1.
        1   -1    0    0  501    0  0.00000000000E+00  0.00000000000E+00 -0.29370219056E+04  0.29370219056E+04  0.50400001928E-02 0.  1.
    10030    2    1    2    0    0  0.00000000000E+00  0.00000000000E+00 -0.24001363024E+04  0.34739075088E+04  0.25114496032E+04 0.  0.
        4    1    3    3  502    0  0.82014099003E+02 -0.27902444643E+03  0.48965811183E+03  0.56951526189E+03  0.12699999809E+01 0. -1.
       -4    1    3    3    0  502 -0.82014099003E+02  0.27902444643E+03 -0.28897944143E+04  0.29043922469E+04  0.12699999809E+01 0.  1.
</event>
<event>
 5   0  0.4959347E-05  0.2492057E+04  0.7818609E-02  0.8405821E-01
       -2   -1    0    0    0  501  0.00000000000E+00  0.00000000000E+00  0.11162375748E+04  0.11162375748E+04  0.25500000920E-02 0.  1.
        2   -1    0    0  501    0  0.00000000000E+00  0.00000000000E+00 -0.13909104410E+04  0.13909104411E+04  0.25500000920E-02 0. -1.
    10030    2    1    2    0    0  0.00000000000E+00  0.00000000000E+00 -0.27467286622E+03  0.25071480159E+04  0.24920565784E+04 0.  0.
        3    1    3    3  502    0 -0.78486322774E+03  0.58318197404E+03 -0.91433137960E+03  0.13386983914E+04  0.10100000352E+00 0. -1.
       -3    1    3    3    0  502  0.78486322774E+03 -0.58318197404E+03  0.63965851338E+03  0.11684496245E+04  0.10100000352E+00 0.  1.
</event>
<event>
 5   0  0.2036578E-05  0.2489728E+04  0.7818609E-02  0.8406654E-01
       -1   -1    0    0    0  501  0.00000000000E+00  0.00000000000E+00  0.15790894346E+04  0.15790894347E+04  0.50400001928E-02 0. -1.
        1   -1    0    0  501    0  0.00000000000E+00  0.00000000000E+00 -0.98137949489E+03  0.98137949490E+03  0.50400001928E-02 0.  1.
    10030    2    1    2    0    0  0.00000000000E+00  0.00000000000E+00  0.59770993976E+03  0.25604689296E+04  0.24897276894E+04 0.  0.
        2    1    3    3  502    0 -0.34674183264E+03  0.10634293229E+04  0.86079992486E+03  0.14114135942E+04  0.25500000920E-02 0. -1.
       -2    1    3    3    0  502  0.34674183264E+03 -0.10634293229E+04 -0.26308998511E+03  0.11490553353E+04  0.25500000920E-02 0.  1.
</event>
<event>
 5   0  0.4959347E-05  0.2583441E+04  0.7818609E-02  0.8373848E-01
       -2   -1    0    0    0  501  0.00000000000E+00  0.00000000000E+00  0.90217518248E+03  0.90217518248E+03  0.25500000920E-02 0.  1.
        2   -1    0    0  501    0  0.00000000000E+00  0.00000000000E+00 -0.18494648621E+04  0.18494648621E+04  0.25500000920E-02 0. -1.
    10030    2    1    2    0    0  0.00000000000E+00  0.00000000000E+00 -0.94728967963E+03  0.27516400446E+04  0.25834405737E+04 0.  0.
        3    1    3    3  502    0 -0.15106026526E+02  0.18971062217E+03 -0.18344507664E+04  0.18442960545E+04  0.10100000352E+00 0. -1.
       -3    1    3    3    0  502  0.15106026526E+02 -0.18971062217E+03  0.88716108678E+03  0.90734399006E+03  0.10100000352E+00 0.  1.
</event>
<event>
 5   0  0.2066170E-05  0.2388494E+04  0.7818609E-02  0.8443824E-01
        1   -1    0    0  501    0  0.00000000000E+00  0.00000000000E+00  0.13249112168E+04  0.13249112169E+04  0.50400001928E-02 0.  1.
       -1   -1    0    0    0  501  0.00000000000E+00  0.00000000000E+00 -0.10764693450E+04  0.10764693450E+04  0.50400001928E-02 0. -1.
    10030    2    1    2    0    0  0.00000000000E+00  0.00000000000E+00  0.24844187182E+03  0.24013805619E+04  0.23884943457E+04 0.  0.
        5    1    3    3  502    0 -0.10797378863E+03  0.66556278215E+03 -0.86678049777E+03  0.10981633200E+04  0.46999998093E+01 0. -1.
       -5    1    3    3    0  502  0.10797378863E+03 -0.66556278215E+03  0.11152223696E+04  0.13032172419E+04  0.46999998093E+01 0.  1.
</event>
<event>
 5   0  0.4959347E-05  0.2493426E+04  0.7818609E-02  0.8405331E-01
       -2   -1    0    0    0  501  0.00000000000E+00  0.00000000000E+00  0.16767122833E+04  0.16767122833E+04  0.25500000920E-02 0.  1.
        2   -1    0    0  501    0  0.00000000000E+00  0.00000000000E+00 -0.92698889760E+03  0.92698889760E+03  0.25500000920E-02 0. -1.
    10030    2    1    2    0    0  0.00000000000E+00  0.00000000000E+00  0.74972338573E+03  0.26037011809E+04  0.24934262942E+04 0.  0.
        3    1    3    3  502    0 -0.65990039054E+03  0.70057858499E+03 -0.45266028727E+03  0.10635695676E+04  0.10100000352E+00 0. -1.
       -3    1    3    3    0  502  0.65990039054E+03 -0.70057858499E+03  0.12023836730E+04  0.15401316134E+04  0.10100000352E+00 0.  1.
</event>
<event>
 5   0  0.2063930E-05  0.2476267E+04  0.7818609E-02  0.8411490E-01
        1   -1    0    0  501    0  0.00000000000E+00  0.00000000000E+00  0.12224141716E+04  0.12224141716E+04  0.50400001928E-02 0.  1.
       -1   -1    0    0    0  501  0.00000000000E+00  0.00000000000E+00 -0.12540544757E+04  0.12540544757E+04  0.50400001928E-02 0. -1.
    10030    2    1    2    0    0  0.00000000000E+00  0.00000000000E+00 -0.31640304056E+02  0.24764686473E+04  0.24762665148E+04 0.  0.
        3    1    3    3  502    0  0.91180935461E+03 -0.53414052128E+03 -0.66106391899E+03  0.12464782031E+04  0.10100000352E+00 0. -1.
       -3    1    3    3    0  502 -0.91180935461E+03  0.53414052128E+03  0.62942361493E+03  0.12299904442E+04  0.10100000352E+00 0.  1.
</event>
<event>
 5   0  0.2066170E-05  0.2563330E+04  0.7818609E-02  0.8380765E-01
       -1   -1    0    0    0  501  0.00000000000E+00  0.00000000000E+00  0.12793926485E+04  0.12793926485E+04  0.50400001928E-02 0. -1.
        1   -1    0    0  501    0  0.00000000000E+00  0.00000000000E+00 -0.12839416973E+04  0.12839416973E+04  0.50400001928E-02 0.  1.
    10030    2    1    2    0    0  0.00000000000E+00  0.00000000000E+00 -0.45490487758E+01  0.25633343459E+04  0.25633303093E+04 0.  0.
        5    1    3    3  502    0 -0.53930412014E+02 -0.12770530066E+04  0.91909527195E+02  0.12815000282E+04  0.46999998093E+01 0. -1.
       -5    1    3    3    0  502  0.53930412014E+02  0.12770530066E+04 -0.96458575971E+02  0.12818343177E+04  0.46999998093E+01 0.  1.
</event>
<event>
 5   0  0.5024070E-05  0.2539853E+04  0.7818609E-02  0.8388924E-01
       -2   -1    0    0    0  501  0.00000000000E+00  0.00000000000E+00  0.68429591808E+03  0.68429591808E+03  0.25500000920E-02 0. -1.
        2   -1    0    0  501    0  0.00000000000E+00  0.00000000000E+00 -0.23567484999E+04  0.23567484999E+04  0.25500000920E-02 0.  1.
    10030    2    1    2    0    0  0.00000000000E+00  0.00000000000E+00 -0.16724525819E+04  0.30410444180E+04  0.25398530497E+04 0.  0.
        5    1    3    3  502    0  0.11616255557E+04  0.49823313623E+03 -0.98326465662E+03  0.16013874186E+04  0.46999998093E+01 0.  1.
       -5    1    3    3    0  502 -0.11616255557E+04 -0.49823313623E+03 -0.68918792525E+03  0.14396569994E+04  0.46999998093E+01 0. -1.
</event>
<event>
 5   0  0.2063930E-05  0.2500020E+04  0.7818609E-02  0.8402979E-01
       -1   -1    0    0    0  501  0.00000000000E+00  0.00000000000E+00  0.12719937616E+04  0.12719937616E+04  0.50400001928E-02 0.  1.
        1   -1    0    0  501    0  0.00000000000E+00  0.00000000000E+00 -0.12284057143E+04  0.12284057143E+04  0.50400001928E-02 0. -1.
    10030    2    1    2    0    0  0.00000000000E+00  0.00000000000E+00  0.43588047379E+02  0.25003994759E+04  0.25000195242E+04 0.  0.
        3    1    3    3  502    0  0.94524549996E+03  0.23195699643E+03 -0.76269199342E+03  0.12365242377E+04  0.10100000352E+00 0. -1.
       -3    1    3    3    0  502 -0.94524549996E+03 -0.23195699643E+03  0.80628004080E+03  0.12638752382E+04  0.10100000352E+00 0.  1.
</event>
<event>
 5   0  0.2036578E-05  0.2479269E+04  0.7818609E-02  0.8410408E-01
        1   -1    0    0  501    0  0.00000000000E+00  0.00000000000E+00  0.71900637397E+03  0.71900637398E+03  0.50400001928E-02 0. -1.
       -1   -1    0    0    0  501  0.00000000000E+00  0.00000000000E+00 -0.21372466782E+04  0.21372466782E+04  0.50400001928E-02 0.  1.
    10030    2    1    2    0    0  0.00000000000E+00  0.00000000000E+00 -0.14182403042E+04  0.28562530522E+04  0.24792692346E+04 0.  0.
        2    1    3    3  502    0 -0.84284190589E+03  0.65301646532E+03 -0.14376349473E+04  0.17898623477E+04  0.25500000920E-02 0.  1.
       -2    1    3    3    0  502  0.84284190589E+03 -0.65301646532E+03  0.19394643047E+02  0.10663907044E+04  0.25500000920E-02 0. -1.
</event>
<event>
 5   0  0.4995256E-05  0.2406477E+04  0.7818609E-02  0.8437083E-01
       -2   -1    0    0    0  501  0.00000000000E+00  0.00000000000E+00  0.84636054577E+03  0.84636054577E+03  0.25500000920E-02 0.  1.
        2   -1    0    0  501    0  0.00000000000E+00  0.00000000000E+00 -0.17105986416E+04  0.17105986416E+04  0.25500000920E-02 0. -1.
    10030    2    1    2    0    0  0.00000000000E+00  0.00000000000E+00 -0.86423809580E+03  0.25569591873E+04  0.24064772593E+04 0.  0.
        2    1    3    3  502    0 -0.87462403216E+03 -0.76813564975E+03 -0.10846748835E+03  0.11690871525E+04  0.25500000920E-02 0.  1.
       -2    1    3    3    0  502  0.87462403216E+03  0.76813564975E+03 -0.75577060745E+03  0.13878720349E+04  0.25500000920E-02 0. -1.
</event>
<event>
 5   0  0.4995256E-05  0.2465686E+04  0.7818609E-02  0.8415313E-01
       -2   -1    0    0    0  501  0.00000000000E+00  0.00000000000E+00  0.93563106287E+03  0.93563106288E+03  0.25500000920E-02 0.  1.
        2   -1    0    0  501    0  0.00000000000E+00  0.00000000000E+00 -0.16244666652E+04  0.16244666652E+04  0.25500000920E-02 0. -1.
    10030    2    1    2    0    0  0.00000000000E+00  0.00000000000E+00 -0.68883560229E+03  0.25600977280E+04  0.24656856836E+04 0.  0.
        2    1    3    3  502    0  0.27131860712E+03  0.15693296121E+02  0.90414155981E+03  0.94410382178E+03  0.25500000920E-02 0.  1.
       -2    1    3    3    0  502 -0.27131860712E+03 -0.15693296121E+02 -0.15929771621E+04  0.16159939063E+04  0.25500000920E-02 0. -1.
</event>
<event>
 5   0  0.4959042E-05  0.2532335E+04  0.7818609E-02  0.8391556E-01
       -2   -1    0    0    0  501  0.00000000000E+00  0.00000000000E+00  0.61153091180E+03  0.61153091181E+03  0.25500000920E-02 0. -1.
        2   -1    0    0  501    0  0.00000000000E+00  0.00000000000E+00 -0.26215853498E+04  0.26215853498E+04  0.25500000920E-02 0.  1.
    10030    2    1    2    0    0  0.00000000000E+00  0.00000000000E+00 -0.20100544380E+04  0.32331162616E+04  0.25323352695E+04 0.  0.
        4    1    3    3  502    0  0.49266576145E+03 -0.24560351400E+03 -0.24608043148E+04  0.25216264845E+04  0.12699999809E+01 0.  1.
       -4    1    3    3    0  502 -0.49266576145E+03  0.24560351400E+03  0.45074987681E+03  0.71148977711E+03  0.12699999809E+01 0. -1.
</event>
<event>
 5   0  0.5219468E-05  0.2347534E+04  0.7818609E-02  0.8459412E-01
        2   -1    0    0  501    0  0.00000000000E+00  0.00000000000E+00  0.14000036086E+04  0.14000036086E+04  0.25500000920E-02 0. -1.
       -2   -1    0    0    0  501  0.00000000000E+00  0.00000000000E+00 -0.98408923631E+03  0.98408923632E+03  0.25500000920E-02 0.  1.
    10030    2    1    2    0    0  0.00000000000E+00  0.00000000000E+00  0.41591437227E+03  0.23840928449E+04  0.23475335840E+04 0.  0.
        1    1    3    3  502    0 -0.28244564414E+02 -0.82646148759E+03 -0.63801743215E+03  0.10444628235E+04  0.50400001928E-02 0.  1.
       -1    1    3    3    0  502  0.28244564414E+02  0.82646148759E+03  0.10539318044E+04  0.13396300214E+04  0.50400001928E-02 0. -1.
</event>
<event>
 5   0  0.2036578E-05  0.2991787E+04  0.7818609E-02  0.8246080E-01
       -1   -1    0    0    0  501  0.00000000000E+00  0.00000000000E+00  0.15530903161E+04  0.15530903161E+04  0.50400001928E-02 0.  1.
        1   -1    0    0  501    0  0.00000000000E+00  0.00000000000E+00 -0.14408029175E+04  0.14408029175E+04  0.50400001928E-02 0. -1.
    10030    2    1    2    0    0  0.00000000000E+00  0.00000000000E+00  0.11228739864E+03  0.29938932336E+04  0.29917867963E+04 0.  0.
        2    1    3    3  502    0 -0.70090025038E+03  0.29942375123E+03  0.13442101290E+04  0.15452561647E+04  0.25500000920E-02 0.  1.
       -2    1    3    3    0  502  0.70090025038E+03 -0.29942375123E+03 -0.12319227303E+04  0.14486370689E+04  0.25500000920E-02 0. -1.
</event>
<event>
 5   0  0.4959042E-05  0.2489839E+04  0.7818609E-02  0.8406614E-01
       -2   -1    0    0    0  501  0.00000000000E+00  0.00000000000E+00  0.98649900911E+03  0.98649900912E+03  0.25500000920E-02 0. -1.
        2   -1    0    0  501    0  0.00000000000E+00  0.00000000000E+00 -0.15710347143E+04  0.15710347143E+04  0.25500000920E-02 0.  1.
    10030    2    1    2    0    0  0.00000000000E+00  0.00000000000E+00 -0.58453570521E+03  0.25575337234E+04  0.24898387008E+04 0.  0.
        4    1    3    3  502    0  0.77444667702E+03 -0.47496342884E+03 -0.11665643911E+04  0.14785912234E+04  0.12699999809E+01 0.  1.
       -4    1    3    3    0  502 -0.77444667702E+03  0.47496342884E+03  0.58202868593E+03  0.10789425001E+04  0.12699999809E+01 0. -1.
</event>
<event>
 5   0  0.4959347E-05  0.1789821E+04  0.7818609E-02  0.8711732E-01
        2   -1    0    0  501    0  0.00000000000E+00  0.00000000000E+00  0.21484063148E+04  0.21484063148E+04  0.25500000920E-02 0.  1.
       -2   -1    0    0    0  501  0.00000000000E+00  0.00000000000E+00 -0.37277142284E+03  0.37277142285E+03  0.25500000920E-02 0. -1.
    10030    2    1    2    0    0  0.00000000000E+00  0.00000000000E+00  0.17756348919E+04  0.25211777376E+04  0.17898206377E+04 0.  0.
        3    1    3    3  502    0  0.27664902008E+03 -0.80337348917E+03  0.49209584182E+03  0.98188694418E+03  0.10100000352E+00 0. -1.
       -3    1    3    3    0  502 -0.27664902008E+03  0.80337348917E+03  0.12835390501E+04  0.15392907935E+04  0.10100000352E+00 0.  1.
</event>
<event>
 5   0  0.2063930E-05  0.1757406E+04  0.7818609E-02  0.8729284E-01
        1   -1    0    0  501    0  0.00000000000E+00  0.00000000000E+00  0.69543775700E+03  0.69543775702E+03  0.50400001928E-02 0. -1.
       -1   -1    0    0    0  501  0.00000000000E+00  0.00000000000E+00 -0.11102627341E+04  0.11102627341E+04  0.50400001928E-02 0.  1.
    10030    2    1    2    0    0  0.00000000000E+00  0.00000000000E+00 -0.41482497707E+03  0.18057004911E+04  0.17574056168E+04 0.  0.
        3    1    3    3  502    0  0.21728937788E+02  0.60513563542E+02 -0.11078424868E+04  0.11097067288E+04  0.10100000352E+00 0.  1.
       -3    1    3    3    0  502 -0.21728937788E+02 -0.60513563542E+02  0.69301750977E+03  0.69599376230E+03  0.10100000352E+00 0. -1.
</event>
<event>
 5   0  0.5024070E-05  0.2544761E+04  0.7818609E-02  0.8387211E-01
        2   -1    0    0  501    0  0.00000000000E+00  0.00000000000E+00  0.18428287493E+04  0.18428287493E+04  0.25500000920E-02 0.  1.
       -2   -1    0    0    0  501  0.00000000000E+00  0.00000000000E+00 -0.87851463125E+03  0.87851463125E+03  0.25500000920E-02 0. -1.
    10030    2    1    2    0    0  0.00000000000E+00  0.00000000000E+00  0.96431411809E+03  0.27213433806E+04  0.25447609076E+04 0.  0.
        5    1    3    3  502    0  0.83541235535E+03  0.38189243988E+03  0.14236911300E+04  0.16943063958E+04  0.46999998093E+01 0.  1.
       -5    1    3    3    0  502 -0.83541235535E+03 -0.38189243988E+03 -0.45937701191E+03  0.10270369848E+04  0.46999998093E+01 0. -1.
</event>
<event>
 5   0  0.2041718E-05  0.1530439E+04  0.7818609E-02  0.8864460E-01
        1   -1    0    0  501    0  0.00000000000E+00  0.00000000000E+00  0.15366509503E+04  0.15366509503E+04  0.50400001928E-02 0.  1.
       -1   -1    0    0    0  501  0.00000000000E+00  0.00000000000E+00 -0.38106287982E+03  0.38106287985E+03  0.50400001928E-02 0. -1.
    10030    2    1    2    0    0  0.00000000000E+00  0.00000000000E+00  0.11555880704E+04  0.19177138301E+04  0.15304386775E+04 0.  0.
        4    1    3    3  502    0  0.53836309800E+03 -0.34479253560E+02 -0.10224932122E+03  0.54907210893E+03  0.12699999809E+01 0. -1.
       -4    1    3    3    0  502 -0.53836309800E+03  0.34479253560E+02  0.12578373917E+04  0.13686417212E+04  0.12699999809E+01 0.  1.
</event>
<event>
 5   0  0.5219468E-05  0.2492009E+04  0.7818609E-02  0.8405838E-01
       -2   -1    0    0    0  501  0.00000000000E+00  0.00000000000E+00  0.14204256602E+04  0.14204256602E+04  0.25500000920E-02 0.  1.
        2   -1    0    0  501    0  0.00000000000E+00  0.00000000000E+00 -0.10930014391E+04  0.10930014391E+04  0.25500000920E-02 0. -1.
    10030    2    1    2    0    0  0.00000000000E+00  0.00000000000E+00  0.32742422103E+03  0.25134270993E+04  0.24920090616E+04 0.  0.
        1    1    3    3  502    0 -0.71236451960E+03 -0.10083482192E+04 -0.59536349811E+01  0.12346111881E+04  0.50400001928E-02 0.  1.
       -1    1    3    3    0  502  0.71236451960E+03  0.10083482192E+04  0.33337785601E+03  0.12788159112E+04  0.50400001928E-02 0. -1.
</event>
<event>
 5   0  0.4995256E-05  0.2473422E+04  0.7818609E-02  0.8412516E-01
       -2   -1    0    0    0  501  0.00000000000E+00  0.00000000000E+00  0.61258460812E+03  0.61258460812E+03  0.25500000920E-02 0. -1.
        2   -1    0    0  501    0  0.00000000000E+00  0.00000000000E+00 -0.24967235066E+04  0.24967235066E+04  0.25500000920E-02 0.  1.
    10030    2    1    2    0    0  0.00000000000E+00  0.00000000000E+00 -0.18841388985E+04  0.31093081147E+04  0.24734222372E+04 0.  0.
        2    1    3    3  502    0 -0.97606087732E+03 -0.25593694052E+03 -0.43224796686E+02  0.10099836320E+04  0.25500000920E-02 0. -1.
       -2    1    3    3    0  502  0.97606087732E+03  0.25593694052E+03 -0.18409141018E+04  0.20993244827E+04  0.25500000920E-02 0.  1.
</event>
<event>
 5   0  0.2066170E-05  0.2477485E+04  0.7818609E-02  0.8411051E-01
       -1   -1    0    0    0  501  0.00000000000E+00  0.00000000000E+00  0.10339996016E+04  0.10339996016E+04  0.50400001928E-02 0.  1.
        1   -1    0    0  501    0  0.00000000000E+00  0.00000000000E+00 -0.14840270253E+04  0.14840270253E+04  0.50400001928E-02 0. -1.
    10030    2    1    2    0    0  0.00000000000E+00  0.00000000000E+00 -0.45002742366E+03  0.25180266269E+04  0.24774853000E+04 0.  0.
        5    1    3    3  502    0 -0.83799781591E+03  0.84109988802E+03  0.13399718395E+03  0.11948500728E+04  0.46999998093E+01 0.  1.
       -5    1    3    3    0  502  0.83799781591E+03 -0.84109988802E+03 -0.58402460761E+03  0.13231765541E+04  0.46999998093E+01 0. -1.
</event>
<event>
 5   0  0.4959042E-05  0.2573484E+04  0.7818609E-02  0.8377264E-01
        2   -1    0    0  501    0  0.00000000000E+00  0.00000000000E+00  0.16893119801E+04  0.16893119801E+04  0.25500000920E-02 0. -1.
       -2   -1    0    0    0  501  0.00000000000E+00  0.00000000000E+00 -0.98010612606E+03  0.98010612607E+03  0.25500000920E-02 0.  1.
    10030    2    1    2    0    0  0.00000000000E+00  0.00000000000E+00  0.70920585400E+03  0.26694181061E+04  0.25734840357E+04 0.  0.
        4    1    3    3  502    0  0.70953550852E+03  0.10588119413E+04  0.17144172875E+03  0.12860471392E+04  0.12699999809E+01 0.  1.
       -4    1    3    3    0  502 -0.70953550852E+03 -0.10588119413E+04  0.53776412525E+03  0.13833709670E+04  0.12699999809E+01 0. -1.
</event>
<event>
 5   0  0.5024070E-05  0.2473879E+04  0.7818609E-02  0.8412351E-01
       -2   -1    0    0    0  501  0.00000000000E+00  0.00000000000E+00  0.74522499179E+03  0.74522499180E+03  0.25500000920E-02 0. -1.
        2   -1    0    0  501    0  0.00000000000E+00  0.00000000000E+00 -0.20530978095E+04  0.20530978095E+04  0.25500000920E-02 0.  1.
    10030    2    1    2    0    0  0.00000000000E+00  0.00000000000E+00 -0.13078728177E+04  0.27983228013E+04  0.24738793812E+04 0.  0.
        5    1    3    3  502    0 -0.87836338054E+03  0.65706525700E+03 -0.73584045338E+01  0.10969654581E+04  0.46999998093E+01 0. -1.
       -5    1    3    3    0  502  0.87836338054E+03 -0.65706525700E+03 -0.13005144132E+04  0.17013573432E+04  0.46999998093E+01 0.  1.
</event>
<event>
 5   0  0.2041718E-05  0.2511842E+04  0.7818609E-02  0.8398779E-01
       -1   -1    0    0    0  501  0.00000000000E+00  0.00000000000E+00  0.10980755281E+04  0.10980755281E+04  0.50400001928E-02 0. -1.
        1   -1    0    0  501    0  0.00000000000E+00  0.00000000000E+00 -0.14364564279E+04  0.14364564279E+04  0.50400001928E-02 0.  1.
    10030    2    1    2    0    0  0.00000000000E+00  0.00000000000E+00 -0.33838089979E+03  0.25345319561E+04  0.25118420737E+04 0.  0.
        4    1    3    3  502    0  0.91199065584E+03  0.15609437206E+03  0.68774169745E+03  0.11528584755E+04  0.12699999809E+01 0.  1.
       -4    1    3    3    0  502 -0.91199065584E+03 -0.15609437206E+03 -0.10261225972E+04  0.13816734805E+04  0.12699999809E+01 0. -1.
</event>
<event>
 5   0  0.4959347E-05  0.2497943E+04  0.7818609E-02  0.8403719E-01
       -2   -1    0    0    0  501  0.00000000000E+00  0.00000000000E+00  0.12275112823E+04  0.12275112823E+04  0.25500000920E-02 0. -1.
        2   -1    0    0  501    0  0.00000000000E+00  0.00000000000E+00 -0.12708071675E+04  0.12708071675E+04  0.25500000920E-02 0.  1.
    10030    2    1    2    0    0  0.00000000000E+00  0.00000000000E+00 -0.43295885214E+02  0.24983184498E+04  0.24979432625E+04 0.  0.
        3    1    3    3  502    0 -0.11625421343E+04  0.93533713896E+02 -0.46856778185E+03  0.12569043504E+04  0.10100000352E+00 0. -1.
       -3    1    3    3    0  502  0.11625421343E+04 -0.93533713896E+02  0.42527189663E+03  0.12414140993E+04  0.10100000352E+00 0.  1.
</event>
<event>
 5   0  0.1692125E-05  0.2542599E+04  0.7818609E-02  0.8387965E-01
       -3   -1    0    0    0  501  0.00000000000E+00  0.00000000000E+00  0.23079392479E+04  0.23079392501E+04  0.10100000352E+00 0.  1.
        3   -1    0    0  501    0  0.00000000000E+00  0.00000000000E+00 -0.70027969945E+03  0.70027970674E+03  0.10100000352E+00 0. -1.
    10030    2    1    2    0    0  0.00000000000E+00  0.00000000000E+00  0.16076595485E+04  0.30082189569E+04  0.25425994707E+04 0.  0.
        2    1    3    3  502    0  0.80889623516E+03 -0.28183588984E+03 -0.30759127938E+03  0.91014118862E+03  0.25500000920E-02 0. -1.
       -2    1    3    3    0  502 -0.80889623516E+03  0.28183588984E+03  0.19152508278E+04  0.20980777682E+04  0.25500000920E-02 0.  1.
</event>
<event>
 5   0  0.2063930E-05  0.2507749E+04  0.7818609E-02  0.8400230E-01
       -1   -1    0    0    0  501  0.00000000000E+00  0.00000000000E+00  0.59642948352E+03  0.59642948355E+03  0.50400001928E-02 0.  1.
        1   -1    0    0  501    0  0.00000000000E+00  0.00000000000E+00 -0.26360210379E+04  0.26360210379E+04  0.50400001928E-02 0. -1.
    10030    2    1    2    0    0  0.00000000000E+00  0.00000000000E+00 -0.20395915543E+04  0.32324505214E+04  0.25077485250E+04 0.  0.
        3    1    3    3  502    0  0.92229472370E+03 -0.82015985915E+03 -0.73472628138E+03  0.14363538807E+04  0.10100000352E+00 0.  1.
       -3    1    3    3    0  502 -0.92229472370E+03  0.82015985915E+03 -0.13048652730E+04  0.17960966407E+04  0.10100000352E+00 0. -1.
</event>
<event>
 5   0  0.2063930E-05  0.2555324E+04  0.7818609E-02  0.8383537E-01
        1   -1    0    0  501    0  0.00000000000E+00  0.00000000000E+00  0.11705108437E+04  0.11705108437E+04  0.50400001928E-02 0.  1.
       -1   -1    0    0    0  501  0.00000000000E+00  0.00000000000E+00 -0.13946220253E+04  0.13946220254E+04  0.50400001928E-02 0. -1.
    10030    2    1    2    0    0  0.00000000000E+00  0.00000000000E+00 -0.22411118169E+03  0.25651328690E+04  0.25553240135E+04 0.  0.
        3    1    3    3  502    0  0.33765781020E+03 -0.31578079546E+03 -0.13077153850E+04  0.13870291439E+04  0.10100000352E+00 0. -1.
       -3    1    3    3    0  502 -0.33765781020E+03  0.31578079546E+03  0.10836042033E+04  0.11781037252E+04  0.10100000352E+00 0.  1.
</event>
<event>
 5   0  0.2081874E-05  0.2517697E+04  0.7818609E-02  0.8396708E-01
       -1   -1    0    0    0  501  0.00000000000E+00  0.00000000000E+00  0.14516844243E+04  0.14516844243E+04  0.50400001928E-02 0. -1.
        1   -1    0    0  501    0  0.00000000000E+00  0.00000000000E+00 -0.10916282463E+04  0.10916282463E+04  0.50400001928E-02 0.  1.
    10030    2    1    2    0    0  0.00000000000E+00  0.00000000000E+00  0.36005617806E+03  0.25433126706E+04  0.25176971401E+04 0.  0.
        1    1    3    3  502    0  0.61636632853E+03  0.49719778681E+03  0.11685477366E+04  0.14116008299E+04  0.50400001928E-02 0. -1.
       -1    1    3    3    0  502 -0.61636632853E+03 -0.49719778681E+03 -0.80849155857E+03  0.11317118407E+04  0.50400001928E-02 0.  1.
</event>
<event>
 5   0  0.4959347E-05  0.2437297E+04  0.7818609E-02  0.8425670E-01
       -2   -1    0    0    0  501  0.00000000000E+00  0.00000000000E+00  0.54616339332E+03  0.54616339332E+03  0.25500000920E-02 0.  1.
        2   -1    0    0  501    0  0.00000000000E+00  0.00000000000E+00 -0.27191583557E+04  0.27191583557E+04  0.25500000920E-02 0. -1.
    10030    2    1    2    0    0  0.00000000000E+00  0.00000000000E+00 -0.21729949624E+04  0.32653217491E+04  0.24372974825E+04 0.  0.
        3    1    3    3  502    0  0.33159493444E+03  0.36379088595E+03 -0.25800450714E+04  0.26265817310E+04  0.10100000352E+00 0. -1.
       -3    1    3    3    0  502 -0.33159493444E+03 -0.36379088595E+03  0.40705010895E+03  0.63874001804E+03  0.10100000352E+00 0.  1.
</event>
<event>
 5   0  0.1692125E-05  0.3189672E+04  0.7818609E-02  0.8191550E-01
       -3   -1    0    0    0  501  0.00000000000E+00  0.00000000000E+00  0.19861016001E+04  0.19861016027E+04  0.10100000352E+00 0.  1.
        3   -1    0    0  501    0  0.00000000000E+00  0.00000000000E+00 -0.12806505666E+04  0.12806505706E+04  0.10100000352E+00 0. -1.
    10030    2    1    2    0    0  0.00000000000E+00  0.00000000000E+00  0.70545103350E+03  0.32667521733E+04  0.31896721777E+04 0.  0.
        3    1    3    3  502    0  0.14075480793E+04 -0.64041396928E+03  0.75225573364E+03  0.17196541358E+04  0.10100000352E+00 0. -1.
       -3    1    3    3    0  502 -0.14075480793E+04  0.64041396928E+03 -0.46804700143E+02  0.15470980375E+04  0.10100000352E+00 0.  1.
</event>
<event>
 5   0  0.4959347E-05  0.2710229E+04  0.7818609E-02  0.8331694E-01
        2   -1    0    0  501    0  0.00000000000E+00  0.00000000000E+00  0.17902221765E+04  0.17902221765E+04  0.25500000920E-02 0. -1.
       -2   -1    0    0    0  501  0.00000000000E+00  0.00000000000E+00 -0.10257583663E+04  0.10257583663E+04  0.25500000920E-02 0.  1.
    10030    2    1    2    0    0  0.00000000000E+00  0.00000000000E+00  0.76446381023E+03  0.28159805428E+04  0.27102290494E+04 0.  0.
        3    1    3    3  502    0  0.12047823345E+04 -0.36910441891E+03 -0.13581780803E+03  0.12673535548E+04  0.10100000352E+00 0.  1.
       -3    1    3    3    0  502 -0.12047823345E+04  0.36910441891E+03  0.90028161826E+03  0.15486269880E+04  0.10100000352E+00 0. -1.
</event>
<event>
 5   0  0.5024070E-05  0.2526072E+04  0.7818609E-02  0.8393756E-01
       -2   -1    0    0    0  501  0.00000000000E+00  0.00000000000E+00  0.22367612109E+04  0.22367612109E+04  0.25500000920E-02 0. -1.
        2   -1    0    0  501    0  0.00000000000E+00  0.00000000000E+00 -0.71320080896E+03  0.71320080897E+03  0.25500000920E-02 0.  1.
    10030    2    1    2    0    0  0.00000000000E+00  0.00000000000E+00  0.15235604020E+04  0.29499620199E+04  0.25260719745E+04 0.  0.
        5    1    3    3  502    0 -0.51979370574E+03  0.78046940330E+03 -0.22632435024E+03  0.96465682371E+03  0.46999998093E+01 0.  1.
       -5    1    3    3    0  502  0.51979370574E+03 -0.78046940330E+03  0.17498847522E+04  0.19853051962E+04  0.46999998093E+01 0. -1.
</event>
<event>
 5   0  0.2041718E-05  0.2509393E+04  0.7818609E-02  0.8399647E-01
        1   -1    0    0  501    0  0.00000000000E+00  0.00000000000E+00  0.13546666934E+04  0.13546666934E+04  0.50400001928E-02 0.  1.
       -1   -1    0    0    0  501  0.00000000000E+00  0.00000000000E+00 -0.11621037004E+04  0.11621037004E+04  0.50400001928E-02 0. -1.
    10030    2    1    2    0    0  0.00000000000E+00  0.00000000000E+00  0.19256299305E+03  0.25167703938E+04  0.25093928965E+04 0.  0.
        4    1    3    3  502    0 -0.16037692233E+03 -0.98787476183E+03 -0.66267588445E+03  0.12003158930E+04  0.12699999809E+01 0. -1.
       -4    1    3    3    0  502  0.16037692233E+03  0.98787476183E+03  0.85523887750E+03  0.13164545008E+04  0.12699999809E+01 0.  1.
</event>
<event>
 5   0  0.2041718E-05  0.2535079E+04  0.7818609E-02  0.8390594E-01
        1   -1    0    0  501    0  0.00000000000E+00  0.00000000000E+00  0.25549717738E+04  0.25549717739E+04  0.50400001928E-02 0. -1.
       -1   -1    0    0    0  501  0.00000000000E+00  0.00000000000E+00 -0.62883525756E+03  0.62883525758E+03  0.50400001928E-02 0.  1.
    10030    2    1    2    0    0  0.00000000000E+00  0.00000000000E+00  0.19261365163E+04  0.31838070314E+04  0.25350789601E+04 0.  0.
        4    1    3    3  502    0  0.58272127371E+03  0.11252917847E+04  0.99879056383E+03  0.16135147619E+04  0.12699999809E+01 0.  1.
       -4    1    3    3    0  502 -0.58272127371E+03 -0.11252917847E+04  0.92734595246E+03  0.15702922696E+04  0.12699999809E+01 0. -1.
</event>
<event>
 5   0  0.4995256E-05  0.2567988E+04  0.7818609E-02  0.8379157E-01
       -2   -1    0    0    0  501  0.00000000000E+00  0.00000000000E+00  0.97494239843E+03  0.97494239844E+03  0.25500000920E-02 0. -1.
        2   -1    0    0  501    0  0.00000000000E+00  0.00000000000E+00 -0.16910136387E+04  0.16910136387E+04  0.25500000920E-02 0.  1.
    10030    2    1    2    0    0  0.00000000000E+00  0.00000000000E+00 -0.71607124026E+03  0.26659560371E+04  0.25679882342E+04 0.  0.
        2    1    3    3  502    0  0.11096296429E+04 -0.63743717829E+03 -0.24897162958E+03  0.13036836169E+04  0.25500000920E-02 0.  1.
       -2    1    3    3    0  502 -0.11096296429E+04  0.63743717829E+03 -0.46709961068E+03  0.13622724202E+04  0.25500000920E-02 0. -1.
</event>
<event>
 5   0  0.4959347E-05  0.2207443E+04  0.7818609E-02  0.8515337E-01
        2   -1    0    0  501    0  0.00000000000E+00  0.00000000000E+00  0.13908094484E+04  0.13908094484E+04  0.25500000920E-02 0. -1.
       -2   -1    0    0    0  501  0.00000000000E+00  0.00000000000E+00 -0.87589347609E+03  0.87589347609E+03  0.25500000920E-02 0.  1.
    10030    2    1    2    0    0  0.00000000000E+00  0.00000000000E+00  0.51491597231E+03  0.22667029245E+04  0.22074427941E+04 0.  0.
        3    1    3    3  502    0  0.96396248310E+03  0.47395383815E+03 -0.30149219102E+01  0.10741810878E+04  0.10100000352E+00 0.  1.
       -3    1    3    3    0  502 -0.96396248310E+03 -0.47395383815E+03  0.51793089422E+03  0.11925218367E+04  0.10100000352E+00 0. -1.
</event>
<event>
 5   0  0.2081874E-05  0.2520084E+04  0.7818609E-02  0.8395865E-01
        1   -1    0    0  501    0  0.00000000000E+00  0.00000000000E+00  0.21572047376E+04  0.21572047376E+04  0.50400001928E-02 0. -1.
       -1   -1    0    0    0  501  0.00000000000E+00  0.00000000000E+00 -0.73600162455E+03  0.73600162457E+03  0.50400001928E-02 0.  1.
    10030    2    1    2    0    0  0.00000000000E+00  0.00000000000E+00  0.14212031131E+04  0.28932063622E+04  0.25200842775E+04 0.  0.
        1    1    3    3  502    0 -0.10321999565E+04  0.33360834192E+03  0.14465917098E+04  0.18081368451E+04  0.50400001928E-02 0. -1.
       -1    1    3    3    0  502  0.10321999565E+04 -0.33360834192E+03 -0.25388596678E+02  0.10850695171E+04  0.50400001928E-02 0.  1.
</event>
<event>
 5   0  0.5024070E-05  0.2495965E+04  0.7818609E-02  0.8404425E-01
        2   -1    0    0  501    0  0.00000000000E+00  0.00000000000E+00  0.10841873834E+04  0.10841873834E+04  0.25500000920E-02 0. -1.
       -2   -1    0    0    0  501  0.00000000000E+00  0.00000000000E+00 -0.14365226467E+04  0.14365226467E+04  0.25500000920E-02 0.  1.
    10030    2    1    2    0    0  0.00000000000E+00  0.00000000000E+00 -0.35233526338E+03  0.25207100301E+04  0.24959645266E+04 0.  0.
        5    1    3    3  502    0 -0.27660831093E+03  0.11845005810E+04 -0.45801124750E+03  0.12997500440E+04  0.46999998093E+01 0. -1.
       -5    1    3    3    0  502  0.27660831093E+03 -0.11845005810E+04  0.10567598412E+03  0.12209599861E+04  0.46999998093E+01 0.  1.
</event>
<event>
 5   0  0.2041718E-05  0.2451668E+04  0.7818609E-02  0.8420409E-01
        1   -1    0    0  501    0  0.00000000000E+00  0.00000000000E+00  0.25745631862E+04  0.25745631862E+04  0.50400001928E-02 0. -1.
       -1   -1    0    0    0  501  0.00000000000E+00  0.00000000000E+00 -0.58365984469E+03  0.58365984472E+03  0.50400001928E-02 0.  1.
    10030    2    1    2    0    0  0.00000000000E+00  0.00000000000E+00  0.19909033415E+04  0.31582230309E+04  0.24516681255E+04 0.  0.
        4    1    3    3  502    0  0.36180969385E+03 -0.48428802140E+03 -0.37828844583E+03  0.71312334373E+03  0.12699999809E+01 0.  1.
       -4    1    3    3    0  502 -0.36180969385E+03  0.48428802140E+03  0.23691917873E+04  0.24450996872E+04  0.12699999809E+01 0. -1.
</event>
<event>
 5   0  0.2066170E-05  0.2496888E+04  0.7818609E-02  0.8404095E-01
       -1   -1    0    0    0  501  0.00000000000E+00  0.00000000000E+00  0.76457594879E+03  0.76457594881E+03  0.50400001928E-02 0. -1.
        1   -1    0    0  501    0  0.00000000000E+00  0.00000000000E+00 -0.20385317310E+04  0.20385317310E+04  0.50400001928E-02 0.  1.
    10030    2    1    2    0    0  0.00000000000E+00  0.00000000000E+00 -0.12739557822E+04  0.28031076798E+04  0.24968879289E+04 0.  0.
        5    1    3    3  502    0  0.81479233430E+03 -0.94587109895E+03 -0.64328454920E+03  0.14044200885E+04  0.46999998093E+01 0. -1.
       -5    1    3    3    0  502 -0.81479233430E+03  0.94587109895E+03 -0.63067123303E+03  0.13986875913E+04  0.46999998093E+01 0.  1.
</event>
<event>
 5   0  0.4995256E-05  0.2501036E+04  0.7818609E-02  0.8402617E-01
        2   -1    0    0  501    0  0.00000000000E+00  0.00000000000E+00  0.12395492186E+04  0.12395492186E+04  0.25500000920E-02 0. -1.
       -2   -1    0    0    0  501  0.00000000000E+00  0.00000000000E+00 -0.12615835897E+04  0.12615835897E+04  0.25500000920E-02 0.  1.
    10030    2    1    2    0    0  0.00000000000E+00  0.00000000000E+00 -0.22034371103E+02  0.25011328083E+04  0.25010357477E+04 0.  0.
        2    1    3    3  502    0  0.62451028814E+03 -0.37844611617E+03  0.10041874144E+04  0.12416226988E+04  0.25500000920E-02 0. -1.
       -2    1    3    3    0  502 -0.62451028814E+03  0.37844611617E+03 -0.10262217855E+04  0.12595101095E+04  0.25500000920E-02 0.  1.
</event>
<event>
 5   0  0.2081874E-05  0.2444264E+04  0.7818609E-02  0.8423115E-01
        1   -1    0    0  501    0  0.00000000000E+00  0.00000000000E+00  0.19369581650E+04  0.19369581650E+04  0.50400001928E-02 0.  1.
       -1   -1    0    0    0  501  0.00000000000E+00  0.00000000000E+00 -0.77110958638E+03  0.77110958640E+03  0.50400001928E-02 0. -1.
    10030    2    1    2    0    0  0.00000000000E+00  0.00000000000E+00  0.11658485786E+04  0.27080677514E+04  0.24442643142E+04 0.  0.
        1    1    3    3  502    0  0.26492388029E+03  0.52260818368E+03 -0.60535216266E+03  0.84246971273E+03  0.50400001928E-02 0. -1.
       -1    1    3    3    0  502 -0.26492388029E+03 -0.52260818368E+03  0.17712007412E+04  0.18655980386E+04  0.50400001928E-02 0.  1.
</event>
<event>
 5   0  0.2036578E-05  0.2492138E+04  0.7818609E-02  0.8405792E-01
        1   -1    0    0  501    0  0.00000000000E+00  0.00000000000E+00  0.19948911275E+04  0.19948911275E+04  0.50400001928E-02 0. -1.
       -1   -1    0    0    0  501  0.00000000000E+00  0.00000000000E+00 -0.77833202414E+03  0.77833202416E+03  0.50400001928E-02 0.  1.
    10030    2    1    2    0    0  0.00000000000E+00  0.00000000000E+00  0.12165591033E+04  0.27732231516E+04  0.24921377564E+04 0.  0.
        2    1    3    3  502    0  0.36631501066E+03  0.57097323987E+03 -0.55483264837E+03  0.87637685694E+03  0.25500000920E-02 0.  1.
       -2    1    3    3    0  502 -0.36631501066E+03 -0.57097323987E+03  0.17713917517E+04  0.18968462947E+04  0.25500000920E-02 0. -1.
</event>
<event>
 5   0  0.5024070E-05  0.2286312E+04  0.7818609E-02  0.8483338E-01
        2   -1    0    0  501    0  0.00000000000E+00  0.00000000000E+00  0.12762567547E+04  0.12762567547E+04  0.25500000920E-02 0. -1.
       -2   -1    0    0    0  501  0.00000000000E+00  0.00000000000E+00 -0.10239360570E+04  0.10239360570E+04  0.25500000920E-02 0.  1.
    10030    2    1    2    0    0  0.00000000000E+00  0.00000000000E+00  0.25232069769E+03  0.23001928117E+04  0.22863117103E+04 0.  0.
        5    1    3    3  502    0 -0.17449669230E+03 -0.79017108906E+03  0.93850538962E+03  0.12392069649E+04  0.46999998093E+01 0. -1.
       -5    1    3    3    0  502  0.17449669230E+03  0.79017108906E+03 -0.68618469193E+03  0.10609858468E+04  0.46999998093E+01 0.  1.
</event>
<event>
 5   0  0.4959042E-05  0.2644225E+04  0.7818609E-02  0.8353332E-01
        2   -1    0    0  501    0  0.00000000000E+00  0.00000000000E+00  0.74797412544E+03  0.74797412545E+03  0.25500000920E-02 0. -1.
       -2   -1    0    0    0  501  0.00000000000E+00  0.00000000000E+00 -0.23369536342E+04  0.23369536342E+04  0.25500000920E-02 0.  1.
    10030    2    1    2    0    0  0.00000000000E+00  0.00000000000E+00 -0.15889795087E+04  0.30849277596E+04  0.26442245372E+04 0.  0.
        4    1    3    3  502    0  0.57314452566E+02 -0.12747316266E+04 -0.11982196459E+04  0.17504164073E+04  0.12699999809E+01 0.  1.
       -4    1    3    3    0  502 -0.57314452566E+02  0.12747316266E+04 -0.39075986285E+03  0.13345113523E+04  0.12699999809E+01 0. -1.
</event>
<event>
 5   0  0.2036578E-05  0.2506975E+04  0.7818609E-02  0.8400505E-01
        1   -1    0    0  501    0  0.00000000000E+00  0.00000000000E+00  0.11461649401E+04  0.11461649401E+04  0.50400001928E-02 0. -1.
       -1   -1    0    0    0  501  0.00000000000E+00  0.00000000000E+00 -0.13708591119E+04  0.13708591119E+04  0.50400001928E-02 0.  1.
    10030    2    1    2    0    0  0.00000000000E+00  0.00000000000E+00 -0.22469417176E+03  0.25170240520E+04  0.25069747920E+04 0.  0.
        2    1    3    3  502    0  0.74062096352E+03  0.10027481980E+04  0.19355304849E+02  0.12467549832E+04  0.25500000920E-02 0.  1.
       -2    1    3    3    0  502 -0.74062096352E+03 -0.10027481980E+04 -0.24404947661E+03  0.12702690688E+04  0.25500000920E-02 0. -1.
</event>
<event>
 5   0  0.2063930E-05  0.2538278E+04  0.7818609E-02  0.8389474E-01
        1   -1    0    0  501    0  0.00000000000E+00  0.00000000000E+00  0.19388324437E+04  0.19388324437E+04  0.50400001928E-02 0.  1.
       -1   -1    0    0    0  501  0.00000000000E+00  0.00000000000E+00 -0.83076459455E+03  0.83076459456E+03  0.50400001928E-02 0. -1.
    10030    2    1    2    0    0  0.00000000000E+00  0.00000000000E+00  0.11080678492E+04  0.27695970383E+04  0.25382776436E+04 0.  0.
        3    1    3    3  502    0  0.84975486029E+03  0.61234396938E+02 -0.47237339549E+03  0.97415071161E+03  0.10100000352E+00 0. -1.
       -3    1    3    3    0  502 -0.84975486029E+03 -0.61234396938E+02  0.15804412446E+04  0.17954463267E+04  0.10100000352E+00 0.  1.
</event>
<event>
 5   0  0.2036578E-05  0.2348232E+04  0.7818609E-02  0.8459143E-01
        1   -1    0    0  501    0  0.00000000000E+00  0.00000000000E+00  0.14019749931E+04  0.14019749931E+04  0.50400001928E-02 0.  1.
       -1   -1    0    0    0  501  0.00000000000E+00  0.00000000000E+00 -0.98328997286E+03  0.98328997287E+03  0.50400001928E-02 0. -1.
    10030    2    1    2    0    0  0.00000000000E+00  0.00000000000E+00  0.41868502022E+03  0.23852649660E+04  0.23482316350E+04 0.  0.
        2    1    3    3  502    0 -0.10264360891E+04  0.51637937596E+03  0.45466585845E+03  0.12356940349E+04  0.25500000920E-02 0.  1.
       -2    1    3    3    0  502  0.10264360891E+04 -0.51637937596E+03 -0.35980838229E+02  0.11495709311E+04  0.25500000920E-02 0. -1.
</event>
<event>
 5   0  0.4959347E-05  0.2483115E+04  0.7818609E-02  0.8409026E-01
       -2   -1    0    0    0  501  0.00000000000E+00  0.00000000000E+00  0.87688100969E+03  0.87688100969E+03  0.25500000920E-02 0.  1.
        2   -1    0    0  501    0  0.00000000000E+00  0.00000000000E+00 -0.17578958965E+04  0.17578958965E+04  0.25500000920E-02 0. -1.
    10030    2    1    2    0    0  0.00000000000E+00  0.00000000000E+00 -0.88101488681E+03  0.26347769062E+04  0.24831154050E+04 0.  0.
        3    1    3    3  502    0 -0.65131715344E+03 -0.90484661776E+03  0.13921762631E+03  0.11235403837E+04  0.10100000352E+00 0.  1.
       -3    1    3    3    0  502  0.65131715344E+03  0.90484661776E+03 -0.10202325131E+04  0.15112365225E+04  0.10100000352E+00 0. -1.
</event>
<event>
 5   0  0.1692125E-05  0.2463973E+04  0.7818609E-02  0.8415934E-01
        3   -1    0    0  501    0  0.00000000000E+00  0.00000000000E+00  0.14309662764E+04  0.14309662799E+04  0.10100000352E+00 0.  1.
       -3   -1    0    0    0  501  0.00000000000E+00  0.00000000000E+00 -0.10606751888E+04  0.10606751936E+04  0.10100000352E+00 0. -1.
    10030    2    1    2    0    0  0.00000000000E+00  0.00000000000E+00  0.37029108755E+03  0.24916414736E+04  0.24639727562E+04 0.  0.
        4    1    3    3  502    0 -0.39291192153E+03  0.20326750063E+03 -0.97758848931E+03  0.10730229831E+04  0.12699999809E+01 0. -1.
       -4    1    3    3    0  502  0.39291192153E+03 -0.20326750063E+03  0.13478795769E+04  0.14186184905E+04  0.12699999809E+01 0.  1.
</event>
<event>
 5   0  0.2041718E-05  0.2396206E+04  0.7818609E-02  0.8440925E-01
        1   -1    0    0  501    0  0.00000000000E+00  0.00000000000E+00  0.19756799478E+04  0.19756799478E+04  0.50400001928E-02 0. -1.
       -1   -1    0    0    0  501  0.00000000000E+00  0.00000000000E+00 -0.72656019967E+03  0.72656019969E+03  0.50400001928E-02 0.  1.
    10030    2    1    2    0    0  0.00000000000E+00  0.00000000000E+00  0.12491197481E+04  0.27022401475E+04  0.23962056818E+04 0.  0.
        4    1    3    3  502    0  0.79219393504E+03  0.54951884084E+03  0.14266719014E+04  0.17218991011E+04  0.12699999809E+01 0. -1.
       -4    1    3    3    0  502 -0.79219393504E+03 -0.54951884084E+03 -0.17755215333E+03  0.98034104637E+03  0.12699999809E+01 0.  1.
</event>
<event>
 5   0  0.2063930E-05  0.2507482E+04  0.7818609E-02  0.8400325E-01
        1   -1    0    0  501    0  0.00000000000E+00  0.00000000000E+00  0.92332318873E+03  0.92332318874E+03  0.50400001928E-02 0.  1.
       -1   -1    0    0    0  501  0.00000000000E+00  0.00000000000E+00 -0.17024010133E+04  0.17024010133E+04  0.50400001928E-02 0. -1.
    10030    2    1    2    0    0  0.00000000000E+00  0.00000000000E+00 -0.77907782455E+03  0.26257242020E+04  0.25074818700E+04 0.  0.
        3    1    3    3  502    0 -0.59255397222E+03  0.87729504219E+03  0.31377221491E+03  0.11041828717E+04  0.10100000352E+00 0.  1.
       -3    1    3    3    0  502  0.59255397222E+03 -0.87729504219E+03 -0.10928500395E+04  0.15215413304E+04  0.10100000352E+00 0. -1.
</event>
<event>
 5   0  0.5219468E-05  0.2511405E+04  0.7818609E-02  0.8398934E-01
        2   -1    0    0  501    0  0.00000000000E+00  0.00000000000E+00  0.16121395622E+04  0.16121395622E+04  0.25500000920E-02 0.  1.
       -2   -1    0    0    0  501  0.00000000000E+00  0.00000000000E+00 -0.97807216807E+03  0.97807216807E+03  0.25500000920E-02 0. -1.
    10030    2    1    2    0    0  0.00000000000E+00  0.00000000000E+00  0.63406739408E+03  0.25902117302E+04  0.25114050544E+04 0.  0.
        1    1    3    3  502    0 -0.24828865405E+03  0.56929359377E+03 -0.80856307646E+03  0.10195669180E+04  0.50400001928E-02 0. -1.
       -1    1    3    3    0  502  0.24828865405E+03 -0.56929359377E+03  0.14426304705E+04  0.15706448122E+04  0.50400001928E-02 0.  1.
</event>
<event>
 5   0  0.2081874E-05  0.2353552E+04  0.7818609E-02  0.8457101E-01
        1   -1    0    0  501    0  0.00000000000E+00  0.00000000000E+00  0.13012323913E+04  0.13012323913E+04  0.50400001928E-02 0. -1.
       -1   -1    0    0    0  501  0.00000000000E+00  0.00000000000E+00 -0.10642234090E+04  0.10642234090E+04  0.50400001928E-02 0.  1.
    10030    2    1    2    0    0  0.00000000000E+00  0.00000000000E+00  0.23700898229E+03  0.23654558003E+04  0.23535521846E+04 0.  0.
        1    1    3    3  502    0 -0.10227535405E+04  0.40339208863E+03 -0.30320315345E+03  0.11404745215E+04  0.50400001928E-02 0.  1.
       -1    1    3    3    0  502  0.10227535405E+04 -0.40339208863E+03  0.54021213574E+03  0.12249812788E+04  0.50400001928E-02 0. -1.
</event>
<event>
 5   0  0.4959347E-05  0.2475554E+04  0.7818609E-02  0.8411747E-01
        2   -1    0    0  501    0  0.00000000000E+00  0.00000000000E+00  0.22156806466E+04  0.22156806466E+04  0.25500000920E-02 0. -1.
       -2   -1    0    0    0  501  0.00000000000E+00  0.00000000000E+00 -0.69147694872E+03  0.69147694873E+03  0.25500000920E-02 0.  1.
    10030    2    1    2    0    0  0.00000000000E+00  0.00000000000E+00  0.15242036979E+04  0.29071575953E+04  0.24755541544E+04 0.  0.
        3    1    3    3  502    0 -0.47582501130E+02  0.91348800151E+03 -0.21717026635E+03  0.94015283763E+03  0.10100000352E+00 0.  1.
       -3    1    3    3    0  502  0.47582501130E+02 -0.91348800151E+03  0.17413739642E+04  0.19670047577E+04  0.10100000352E+00 0. -1.
</event>
<event>
 5   0  0.4959347E-05  0.2482572E+04  0.7818609E-02  0.8409221E-01
       -2   -1    0    0    0  501  0.00000000000E+00  0.00000000000E+00  0.12503467442E+04  0.12503467442E+04  0.25500000920E-02 0. -1.
        2   -1    0    0  501    0  0.00000000000E+00  0.00000000000E+00 -0.12322906039E+04  0.12322906039E+04  0.25500000920E-02 0.  1.
    10030    2    1    2    0    0  0.00000000000E+00  0.00000000000E+00  0.18056140290E+02  0.24826373481E+04  0.24825716864E+04 0.  0.
        3    1    3    3  502    0 -0.96049585452E+03 -0.28767547762E+03 -0.72275700327E+03  0.12359964251E+04  0.10100000352E+00 0.  1.
       -3    1    3    3    0  502  0.96049585452E+03  0.28767547762E+03  0.74081314356E+03  0.12466409230E+04  0.10100000352E+00 0. -1.
</event>
<event>
 5   0  0.4959042E-05  0.2478287E+04  0.7818609E-02  0.8410762E-01
        2   -1    0    0  501    0  0.00000000000E+00  0.00000000000E+00  0.16766769028E+04  0.16766769028E+04  0.25500000920E-02 0. -1.
       -2   -1    0    0    0  501  0.00000000000E+00  0.00000000000E+00 -0.91578548468E+03  0.91578548469E+03  0.25500000920E-02 0.  1.
    10030    2    1    2    0    0  0.00000000000E+00  0.00000000000E+00  0.76089141816E+03  0.25924623875E+04  0.24782868035E+04 0.  0.
        4    1    3    3  502    0  0.10427245873E+03  0.43401678491E+03  0.15896557455E+04  0.16511360687E+04  0.12699999809E+01 0. -1.
       -4    1    3    3    0  502 -0.10427245873E+03 -0.43401678491E+03 -0.82876432738E+03  0.94132631880E+03  0.12699999809E+01 0.  1.
</event>
<event>
 5   0  0.2066170E-05  0.2517862E+04  0.7818609E-02  0.8396650E-01
        1   -1    0    0  501    0  0.00000000000E+00  0.00000000000E+00  0.12799001799E+04  0.12799001800E+04  0.50400001928E-02 0. -1.
       -1   -1    0    0    0  501  0.00000000000E+00  0.00000000000E+00 -0.12383056838E+04  0.12383056838E+04  0.50400001928E-02 0.  1.
    10030    2    1    2    0    0  0.00000000000E+00  0.00000000000E+00  0.41594496113E+02  0.25182058638E+04  0.25178623216E+04 0.  0.
        5    1    3    3  502    0  0.25366796303E+03 -0.81911377050E+03 -0.90106099955E+03  0.12438761270E+04  0.46999998093E+01 0.  1.
       -5    1    3    3    0  502 -0.25366796303E+03  0.81911377050E+03  0.94265549566E+03  0.12743297368E+04  0.46999998093E+01 0. -1.
</event>
<event>
 5   0  0.4959042E-05  0.2306504E+04  0.7818609E-02  0.8475361E-01
        2   -1    0    0  501    0  0.00000000000E+00  0.00000000000E+00  0.25154375527E+04  0.25154375527E+04  0.25500000920E-02 0.  1.
       -2   -1    0    0    0  501  0.00000000000E+00  0.00000000000E+00 -0.52873111836E+03  0.52873111836E+03  0.25500000920E-02 0. -1.
    10030    2    1    2    0    0  0.00000000000E+00  0.00000000000E+00  0.19867064344E+04  0.30441686711E+04  0.23065039436E+04 0.  0.
        4    1    3    3  502    0  0.32778888700E+03  0.57137375360E+03  0.22427105941E+04  0.23374485968E+04  0.12699999809E+01 0.  1.
       -4    1    3    3    0  502 -0.32778888700E+03 -0.57137375360E+03 -0.25600415974E+03  0.70672007432E+03  0.12699999809E+01 0. -1.
</event>
<event>
 5   0  0.2066170E-05  0.2730444E+04  0.7818609E-02  0.8325194E-01
       -1   -1    0    0    0  501  0.00000000000E+00  0.00000000000E+00  0.16693593857E+04  0.16693593857E+04  0.50400001928E-02 0.  1.
        1   -1    0    0  501    0  0.00000000000E+00  0.00000000000E+00 -0.11164952243E+04  0.11164952243E+04  0.50400001928E-02 0. -1.
    10030    2    1    2    0    0  0.00000000000E+00  0.00000000000E+00  0.55286416141E+03  0.27858546101E+04  0.27304444927E+04 0.  0.
        5    1    3    3  502    0 -0.18155553963E+03  0.19474491774E+01  0.16569775175E+04  0.16669021537E+04  0.46999998093E+01 0.  1.
       -5    1    3    3    0  502  0.18155553963E+03 -0.19474491774E+01 -0.11041133561E+04  0.11189524564E+04  0.46999998093E+01 0. -1.
</event>
<event>
 5   0  0.5219468E-05  0.2495527E+04  0.7818609E-02  0.8404581E-01
        2   -1    0    0  501    0  0.00000000000E+00  0.00000000000E+00  0.21022911012E+04  0.21022911012E+04  0.25500000920E-02 0.  1.
       -2   -1    0    0    0  501  0.00000000000E+00  0.00000000000E+00 -0.74057930776E+03  0.74057930776E+03  0.25500000920E-02 0. -1.
    10030    2    1    2    0    0  0.00000000000E+00  0.00000000000E+00  0.13617117934E+04  0.28428704090E+04  0.24955266285E+04 0.  0.
        1    1    3    3  502    0  0.63413211903E+03 -0.10085519685E+04  0.11034506168E+04  0.16238546368E+04  0.50400001928E-02 0.  1.
       -1    1    3    3    0  502 -0.63413211903E+03  0.10085519685E+04  0.25826117659E+03  0.12190157722E+04  0.50400001928E-02 0. -1.
</event>
<event>
 5   0  0.2036578E-05  0.2493597E+04  0.7818609E-02  0.8405270E-01
       -1   -1    0    0    0  501  0.00000000000E+00  0.00000000000E+00  0.86013163371E+03  0.86013163372E+03  0.50400001928E-02 0.  1.
        1   -1    0    0  501    0  0.00000000000E+00  0.00000000000E+00 -0.18072896462E+04  0.18072896462E+04  0.50400001928E-02 0. -1.
    10030    2    1    2    0    0  0.00000000000E+00  0.00000000000E+00 -0.94715801253E+03  0.26674212800E+04  0.24935973982E+04 0.  0.
        2    1    3    3  502    0  0.30312628329E+03 -0.10391587246E+04  0.18823287627E+03  0.10987119797E+04  0.25500000920E-02 0.  1.
       -2    1    3    3    0  502 -0.30312628329E+03  0.10391587246E+04 -0.11353908888E+04  0.15687093003E+04  0.25500000920E-02 0. -1.
</event>
<event>
 5   0  0.5024070E-05  0.2489205E+04  0.7818609E-02  0.8406841E-01
       -2   -1    0    0    0  501  0.00000000000E+00  0.00000000000E+00  0.10885595838E+04  0.10885595838E+04  0.25500000920E-02 0.  1.
        2   -1    0    0  501    0  0.00000000000E+00  0.00000000000E+00 -0.14230139320E+04  0.14230139320E+04  0.25500000920E-02 0. -1.
    10030    2    1    2    0    0  0.00000000000E+00  0.00000000000E+00 -0.33445434816E+03  0.25115735159E+04  0.24892050568E+04 0.  0.
        5    1    3    3  502    0 -0.56392371251E+03  0.10942411681E+04 -0.35228656263E+03  0.12804302401E+04  0.46999998093E+01 0.  1.
       -5    1    3    3    0  502  0.56392371251E+03 -0.10942411681E+04  0.17832214461E+02  0.12311432758E+04  0.46999998093E+01 0. -1.
</event>
<event>
 5   0  0.2063930E-05  0.2391462E+04  0.7818609E-02  0.8442707E-01
        1   -1    0    0  501    0  0.00000000000E+00  0.00000000000E+00  0.12984514407E+04  0.12984514408E+04  0.50400001928E-02 0.  1.
       -1   -1    0    0    0  501  0.00000000000E+00  0.00000000000E+00 -0.11011366981E+04  0.11011366981E+04  0.50400001928E-02 0. -1.
    10030    2    1    2    0    0  0.00000000000E+00  0.00000000000E+00  0.19731474263E+03  0.23995881389E+04  0.23914619229E+04 0.  0.
        3    1    3    3  502    0 -0.41412140155E+03 -0.50012528189E+03 -0.90882153454E+03  0.11169505023E+04  0.10100000352E+00 0. -1.
       -3    1    3    3    0  502  0.41412140155E+03  0.50012528189E+03  0.11061362772E+04  0.12826376365E+04  0.10100000352E+00 0.  1.
</event>
<event>
 5   0  0.2063930E-05  0.2521538E+04  0.7818609E-02  0.8395352E-01
       -1   -1    0    0    0  501  0.00000000000E+00  0.00000000000E+00  0.12192851869E+04  0.12192851869E+04  0.50400001928E-02 0.  1.
        1   -1    0    0  501    0  0.00000000000E+00  0.00000000000E+00 -0.13036641814E+04  0.13036641814E+04  0.50400001928E-02 0. -1.
    10030    2    1    2    0    0  0.00000000000E+00  0.00000000000E+00 -0.84378994499E+02  0.25229493682E+04  0.25215379632E+04 0.  0.
        3    1    3    3  502    0  0.56265091102E+03 -0.98939303984E+03 -0.58476951008E+03  0.12796210475E+04  0.10100000352E+00 0. -1.
       -3    1    3    3    0  502 -0.56265091102E+03  0.98939303984E+03  0.50039051558E+03  0.12433283208E+04  0.10100000352E+00 0.  1.
</event>
<event>
 5   0  0.2063930E-05  0.2520905E+04  0.7818609E-02  0.8395576E-01
       -1   -1    0    0    0  501  0.00000000000E+00  0.00000000000E+00  0.91199135292E+03  0.91199135294E+03  0.50400001928E-02 0. -1.
        1   -1    0    0  501    0  0.00000000000E+00  0.00000000000E+00 -0.17420567062E+04  0.17420567062E+04  0.50400001928E-02 0.  1.
    10030    2    1    2    0    0  0.00000000000E+00  0.00000000000E+00 -0.83006535329E+03  0.26540480592E+04  0.25209051171E+04 0.  0.
        3    1    3    3  502    0 -0.26675742586E+03  0.54037384411E+03  0.75049508954E+03  0.96250002871E+03  0.10100000352E+00 0. -1.
       -3    1    3    3    0  502  0.26675742586E+03 -0.54037384411E+03 -0.15805604428E+04  0.16915480304E+04  0.10100000352E+00 0.  1.
</event>
<event>
 5   0  0.2036578E-05  0.2157269E+04  0.7818609E-02  0.8536427E-01
        1   -1    0    0  501    0  0.00000000000E+00  0.00000000000E+00  0.10717131833E+04  0.10717131833E+04  0.50400001928E-02 0. -1.
       -1   -1    0    0    0  501  0.00000000000E+00  0.00000000000E+00 -0.10856003777E+04  0.10856003777E+04  0.50400001928E-02 0.  1.
    10030    2    1    2    0    0  0.00000000000E+00  0.00000000000E+00 -0.13887194355E+02  0.21573135610E+04  0.21572688628E+04 0.  0.
        2    1    3    3  502    0 -0.30156368065E+03 -0.83875381065E+03 -0.61441287192E+03  0.10825672199E+04  0.25500000920E-02 0.  1.
       -2    1    3    3    0  502  0.30156368065E+03  0.83875381065E+03  0.60052567756E+03  0.10747463411E+04  0.25500000920E-02 0. -1.
</event>
<event>
 5   0  0.2066170E-05  0.2507443E+04  0.7818609E-02  0.8400339E-01
       -1   -1    0    0    0  501  0.00000000000E+00  0.00000000000E+00  0.10725055881E+04  0.10725055881E+04  0.50400001928E-02 0.  1.
        1   -1    0    0  501    0  0.00000000000E+00  0.00000000000E+00 -0.14655564435E+04  0.14655564435E+04  0.50400001928E-02 0. -1.
    10030    2    1    2    0    0  0.00000000000E+00  0.00000000000E+00 -0.39305085545E+03  0.25380620316E+04  0.25074429009E+04 0.  0.
        5    1    3    3  502    0 -0.67458747424E+03  0.66214954949E+03 -0.10301630733E+04  0.13981302993E+04  0.46999998093E+01 0. -1.
       -5    1    3    3    0  502  0.67458747424E+03 -0.66214954949E+03  0.63711221780E+03  0.11399317323E+04  0.46999998093E+01 0.  1.
</event>
<event>
 5   0  0.5024070E-05  0.2493570E+04  0.7818609E-02  0.8405280E-01
        2   -1    0    0  501    0  0.00000000000E+00  0.00000000000E+00  0.49562354121E+03  0.49562354121E+03  0.25500000920E-02 0. -1.
       -2   -1    0    0    0  501  0.00000000000E+00  0.00000000000E+00 -0.31363982091E+04  0.31363982091E+04  0.25500000920E-02 0.  1.
    10030    2    1    2    0    0  0.00000000000E+00  0.00000000000E+00 -0.26407746679E+04  0.36320217503E+04  0.24935699606E+04 0.  0.
        5    1    3    3  502    0  0.46622943282E+03 -0.11531296713E+04 -0.11953204448E+04  0.17250770935E+04  0.46999998093E+01 0. -1.
       -5    1    3    3    0  502 -0.46622943282E+03  0.11531296713E+04 -0.14454542231E+04  0.19069446568E+04  0.46999998093E+01 0.  1.
</event>
<event>
 5   0  0.1692125E-05  0.2377170E+04  0.7818609E-02  0.8448100E-01
        3   -1    0    0  501    0  0.00000000000E+00  0.00000000000E+00  0.13295925958E+04  0.13295925996E+04  0.10100000352E+00 0. -1.
       -3   -1    0    0    0  501  0.00000000000E+00  0.00000000000E+00 -0.10625318807E+04  0.10625318855E+04  0.10100000352E+00 0.  1.
    10030    2    1    2    0    0  0.00000000000E+00  0.00000000000E+00  0.26706071509E+03  0.23921244851E+04  0.23771701930E+04 0.  0.
        4    1    3    3  502    0 -0.14728384861E+02  0.98688717491E+03  0.79994236086E+03  0.12704615755E+04  0.12699999809E+01 0. -1.
       -4    1    3    3    0  502  0.14728384861E+02 -0.98688717491E+03 -0.53288164577E+03  0.11216629095E+04  0.12699999809E+01 0.  1.
</event>
<event>
 5   0  0.5219468E-05  0.2490236E+04  0.7818609E-02  0.8406472E-01
       -2   -1    0    0    0  501  0.00000000000E+00  0.00000000000E+00  0.62584427171E+03  0.62584427172E+03  0.25500000920E-02 0. -1.
        2   -1    0    0  501    0  0.00000000000E+00  0.00000000000E+00 -0.24771631501E+04  0.24771631501E+04  0.25500000920E-02 0.  1.
    10030    2    1    2    0    0  0.00000000000E+00  0.00000000000E+00 -0.18513188784E+04  0.31030074218E+04  0.24902356255E+04 0.  0.
        1    1    3    3  502    0  0.12350657597E+04 -0.13277178047E+03 -0.81917629559E+03  0.14879736489E+04  0.50400001928E-02 0.  1.
       -1    1    3    3    0  502 -0.12350657597E+04  0.13277178047E+03 -0.10321425828E+04  0.16150337730E+04  0.50400001928E-02 0. -1.
</event>
<event>
 5   0  0.2081874E-05  0.2453023E+04  0.7818609E-02  0.8419915E-01
        1   -1    0    0  501    0  0.00000000000E+00  0.00000000000E+00  0.15485739304E+04  0.15485739304E+04  0.50400001928E-02 0. -1.
       -1   -1    0    0    0  501  0.00000000000E+00  0.00000000000E+00 -0.97142973010E+03  0.97142973011E+03  0.50400001928E-02 0.  1.
    10030    2    1    2    0    0  0.00000000000E+00  0.00000000000E+00  0.57714420031E+03  0.25200036605E+04  0.24530232410E+04 0.  0.
        1    1    3    3  502    0 -0.50027080449E+03  0.25394761041E+03 -0.83188336543E+03  0.10033893563E+04  0.50400001928E-02 0.  1.
       -1    1    3    3    0  502  0.50027080449E+03 -0.25394761041E+03  0.14090275657E+04  0.15166143042E+04  0.50400001928E-02 0. -1.
</event>
<event>
 5   0  0.4959042E-05  0.2486040E+04  0.7818609E-02  0.8407976E-01
       -2   -1    0    0    0  501  0.00000000000E+00  0.00000000000E+00  0.56035654361E+03  0.56035654361E+03  0.25500000920E-02 0. -1.
        2   -1    0    0  501    0  0.00000000000E+00  0.00000000000E+00 -0.27573486545E+04  0.27573486545E+04  0.25500000920E-02 0.  1.
    10030    2    1    2    0    0  0.00000000000E+00  0.00000000000E+00 -0.21969921109E+04  0.33177051981E+04  0.24860397113E+04 0.  0.
        4    1    3    3  502    0 -0.10169821569E+04 -0.52057493713E+03 -0.17520715629E+04  0.20916518226E+04  0.12699999809E+01 0.  1.
       -4    1    3    3    0  502  0.10169821569E+04  0.52057493713E+03 -0.44492054799E+03  0.12260533755E+04  0.12699999809E+01 0. -1.
</event>
<event>
 5   0  0.4959347E-05  0.2446265E+04  0.7818609E-02  0.8422383E-01
       -2   -1    0    0    0  501  0.00000000000E+00  0.00000000000E+00  0.13215505165E+04  0.13215505165E+04  0.25500000920E-02 0.  1.
        2   -1    0    0  501    0  0.00000000000E+00  0.00000000000E+00 -0.11320435543E+04  0.11320435543E+04  0.25500000920E-02 0. -1.
    10030    2    1    2    0    0  0.00000000000E+00  0.00000000000E+00  0.18950696214E+03  0.24535940708E+04  0.24462646986E+04 0.  0.
        3    1    3    3  502    0 -0.56441921278E+03 -0.98575599871E+03 -0.36022308078E+03  0.11916562486E+04  0.10100000352E+00 0. -1.
       -3    1    3    3    0  502  0.56441921278E+03  0.98575599871E+03  0.54973004293E+03  0.12619378222E+04  0.10100000352E+00 0.  1.
</event>
<event>
 5   0  0.2063930E-05  0.1842748E+04  0.7818609E-02  0.8683891E-01
        1   -1    0    0  501    0  0.00000000000E+00  0.00000000000E+00  0.90856098434E+03  0.90856098436E+03  0.50400001928E-02 0.  1.
       -1   -1    0    0    0  501  0.00000000000E+00  0.00000000000E+00 -0.93436817954E+03  0.93436817956E+03  0.50400001928E-02 0. -1.
    10030    2    1    2    0    0  0.00000000000E+00  0.00000000000E+00 -0.25807195199E+02  0.18429291639E+04  0.18427484614E+04 0.  0.
        3    1    3    3  502    0  0.75227672893E+03 -0.17285842735E+03  0.49026615210E+03  0.91441851627E+03  0.10100000352E+00 0.  1.
       -3    1    3    3    0  502 -0.75227672893E+03  0.17285842735E+03 -0.51607334730E+03  0.92851064765E+03  0.10100000352E+00 0. -1.
</event>
<event>
 5   0  0.2066170E-05  0.2457963E+04  0.7818609E-02  0.8418116E-01
        1   -1    0    0  501    0  0.00000000000E+00  0.00000000000E+00  0.20386827399E+04  0.20386827400E+04  0.50400001928E-02 0.  1.
       -1   -1    0    0    0  501  0.00000000000E+00  0.00000000000E+00 -0.74086816324E+03  0.74086816325E+03  0.50400001928E-02 0. -1.
    10030    2    1    2    0    0  0.00000000000E+00  0.00000000000E+00  0.12978145767E+04  0.27795509032E+04  0.24579626824E+04 0.  0.
        5    1    3    3  502    0 -0.10438278551E+03 -0.74944248250E+03 -0.44620216586E+03  0.87845219750E+03  0.46999998093E+01 0. -1.
       -5    1    3    3    0  502  0.10438278551E+03  0.74944248250E+03  0.17440167426E+04  0.19010987057E+04  0.46999998093E+01 0.  1.
</event>
<event>
 5   0  0.2041718E-05  0.2506442E+04  0.7818609E-02  0.8400694E-01
       -1   -1    0    0    0  501  0.00000000000E+00  0.00000000000E+00  0.75938509224E+03  0.75938509226E+03  0.50400001928E-02 0. -1.
        1   -1    0    0  501    0  0.00000000000E+00  0.00000000000E+00 -0.20682030426E+04  0.20682030426E+04  0.50400001928E-02 0.  1.
    10030    2    1    2    0    0  0.00000000000E+00  0.00000000000E+00 -0.13088179504E+04  0.28275881349E+04  0.25064417474E+04 0.  0.
        4    1    3    3  502    0  0.87120907536E+03  0.89426600875E+03 -0.53163460978E+03  0.13569649659E+04  0.12699999809E+01 0.  1.
       -4    1    3    3    0  502 -0.87120907536E+03 -0.89426600875E+03 -0.77718334057E+03  0.14706231690E+04  0.12699999809E+01 0. -1.
</event>
<event>
 5   0  0.5024070E-05  0.2627408E+04  0.7818609E-02  0.8358950E-01
       -2   -1    0    0    0  501  0.00000000000E+00  0.00000000000E+00  0.11823974610E+04  0.11823974610E+04  0.25500000920E-02 0. -1.
        2   -1    0    0  501    0  0.00000000000E+00  0.00000000000E+00 -0.14595926691E+04  0.14595926691E+04  0.25500000920E-02 0.  1.
    10030    2    1    2    0    0  0.00000000000E+00  0.00000000000E+00 -0.27719520812E+03  0.26419901301E+04  0.26274083551E+04 0.  0.
        5    1    3    3  502    0 -0.75529717298E+03 -0.91305872142E+03 -0.70888404768E+03  0.13808290015E+04  0.46999998093E+01 0.  1.
       -5    1    3    3    0  502  0.75529717298E+03  0.91305872142E+03  0.43168883956E+03  0.12611611287E+04  0.46999998093E+01 0. -1.
</event>
<event>
 5   0  0.4995256E-05  0.2498565E+04  0.7818609E-02  0.8403497E-01
        2   -1    0    0  501    0  0.00000000000E+00  0.00000000000E+00  0.95619738779E+03  0.95619738780E+03  0.25500000920E-02 0.  1.
       -2   -1    0    0    0  501  0.00000000000E+00  0.00000000000E+00 -0.16322012506E+04  0.16322012506E+04  0.25500000920E-02 0. -1.
    10030    2    1    2    0    0  0.00000000000E+00  0.00000000000E+00 -0.67600386276E+03  0.25883986384E+04  0.24985648458E+04 0.  0.
        2    1    3    3  502    0 -0.94939133199E+03 -0.30676900644E+03 -0.11168682358E+04  0.14976133616E+04  0.25500000920E-02 0. -1.
       -2    1    3    3    0  502  0.94939133199E+03  0.30676900644E+03  0.44086437307E+03  0.10907852768E+04  0.25500000920E-02 0.  1.
</event>
<event>
 5   0  0.4959347E-05  0.1725174E+04  0.7818609E-02  0.8747135E-01
        2   -1    0    0  501    0  0.00000000000E+00  0.00000000000E+00  0.11862596196E+04  0.11862596196E+04  0.25500000920E-02 0.  1.
       -2   -1    0    0    0  501  0.00000000000E+00  0.00000000000E+00 -0.62722922155E+03  0.62722922155E+03  0.25500000920E-02 0. -1.
    10030    2    1    2    0    0  0.00000000000E+00  0.00000000000E+00  0.55903039808E+03  0.18134888412E+04  0.17251744234E+04 0.  0.
        3    1    3    3  502    0  0.53552986633E+03 -0.42569779270E+03 -0.27278154054E+03  0.73649210959E+03  0.10100000352E+00 0. -1.
       -3    1    3    3    0  502 -0.53552986633E+03  0.42569779270E+03  0.83181193862E+03  0.10769967316E+04  0.10100000352E+00 0.  1.
</event>
<event>
 5   0  0.4995256E-05  0.2539862E+04  0.7818609E-02  0.8388921E-01
       -2   -1    0    0    0  501  0.00000000000E+00  0.00000000000E+00  0.83014330920E+03  0.83014330921E+03  0.25500000920E-02 0. -1.
        2   -1    0    0  501    0  0.00000000000E+00  0.00000000000E+00 -0.19427061236E+04  0.19427061236E+04  0.25500000920E-02 0.  1.
    10030    2    1    2    0    0  0.00000000000E+00  0.00000000000E+00 -0.11125628144E+04  0.27728494328E+04  0.25398617996E+04 0.  0.
        2    1    3    3  502    0 -0.11795667215E+04  0.46504303601E+03 -0.63410756789E+03  0.14176512559E+04  0.25500000920E-02 0.  1.
       -2    1    3    3    0  502  0.11795667215E+04 -0.46504303601E+03 -0.47845524652E+03  0.13551981769E+04  0.25500000920E-02 0. -1.
</event>
<event>
 5   0  0.4959347E-05  0.2473963E+04  0.7818609E-02  0.8412321E-01
        2   -1    0    0  501    0  0.00000000000E+00  0.00000000000E+00  0.14509716937E+04  0.14509716937E+04  0.25500000920E-02 0.  1.
       -2   -1    0    0    0  501  0.00000000000E+00  0.00000000000E+00 -0.10545503441E+04  0.10545503441E+04  0.25500000920E-02 0. -1.
    10030    2    1    2    0    0  0.00000000000E+00  0.00000000000E+00  0.39642134961E+03  0.25055220378E+04  0.24739625695E+04 0.  0.
        3    1    3    3  502    0 -0.37649808353E+03  0.24653961571E+03  0.13651199852E+04  0.14373883168E+04  0.10100000352E+00 0.  1.
       -3    1    3    3    0  502  0.37649808353E+03 -0.24653961571E+03 -0.96869863560E+03  0.10681337210E+04  0.10100000352E+00 0. -1.
</event>
<event>
 5   0  0.5024070E-05  0.2471406E+04  0.7818609E-02  0.8413244E-01
       -2   -1    0    0    0  501  0.00000000000E+00  0.00000000000E+00  0.14058755044E+04  0.14058755044E+04  0.25500000920E-02 0. -1.
        2   -1    0    0  501    0  0.00000000000E+00  0.00000000000E+00 -0.10861292038E+04  0.10861292038E+04  0.25500000920E-02 0.  1.
    10030    2    1    2    0    0  0.00000000000E+00  0.00000000000E+00  0.31974630060E+03  0.24920047082E+04  0.24714064354E+04 0.  0.
        5    1    3    3  502    0  0.15813278135E+03  0.99901199830E+03  0.87565538706E+03  0.13378435619E+04  0.46999998093E+01 0. -1.
       -5    1    3    3    0  502 -0.15813278135E+03 -0.99901199830E+03 -0.55590908646E+03  0.11541611463E+04  0.46999998093E+01 0.  1.
</event>
<event>
 5   0  0.4959042E-05  0.2477204E+04  0.7818609E-02  0.8411152E-01
        2   -1    0    0  501    0  0.00000000000E+00  0.00000000000E+00  0.98020956468E+03  0.98020956468E+03  0.25500000920E-02 0. -1.
       -2   -1    0    0    0  501  0.00000000000E+00  0.00000000000E+00 -0.15651088271E+04  0.15651088271E+04  0.25500000920E-02 0.  1.
    10030    2    1    2    0    0  0.00000000000E+00  0.00000000000E+00 -0.58489926239E+03  0.25453183918E+04  0.24772037801E+04 0.  0.
        4    1    3    3  502    0 -0.55865786244E+03  0.90739309459E+03  0.35631677645E+03  0.11235764742E+04  0.12699999809E+01 0. -1.
       -4    1    3    3    0  502  0.55865786244E+03 -0.90739309459E+03 -0.94121603885E+03  0.14217419175E+04  0.12699999809E+01 0.  1.
</event>
<event>
 5   0  0.4959042E-05  0.2492432E+04  0.7818609E-02  0.8405687E-01
        2   -1    0    0  501    0  0.00000000000E+00  0.00000000000E+00  0.77991941763E+03  0.77991941763E+03  0.25500000920E-02 0. -1.
       -2   -1    0    0    0  501  0.00000000000E+00  0.00000000000E+00 -0.19913013091E+04  0.19913013091E+04  0.25500000920E-02 0.  1.
    10030    2    1    2    0    0  0.00000000000E+00  0.00000000000E+00 -0.12113818914E+04  0.27712207267E+04  0.24924321915E+04 0.  0.
        4    1    3    3  502    0 -0.54707713262E+03  0.54667890472E+03  0.48080249032E+03  0.91067220310E+03  0.12699999809E+01 0. -1.
       -4    1    3    3    0  502  0.54707713262E+03 -0.54667890472E+03 -0.16921843818E+04  0.18605485236E+04  0.12699999809E+01 0.  1.
</event>
<event>
 5   0  0.2081874E-05  0.2495265E+04  0.7818609E-02  0.8404674E-01
       -1   -1    0    0    0  501  0.00000000000E+00  0.00000000000E+00  0.71618687204E+03  0.71618687205E+03  0.50400001928E-02 0.  1.
        1   -1    0    0  501    0  0.00000000000E+00  0.00000000000E+00 -0.21734375376E+04  0.21734375376E+04  0.50400001928E-02 0. -1.
    10030    2    1    2    0    0  0.00000000000E+00  0.00000000000E+00 -0.14572506656E+04  0.28896244097E+04  0.24952654621E+04 0.  0.
        1    1    3    3  502    0 -0.16131255689E+03  0.95902634634E+03  0.17645327305E+03  0.98837696836E+03  0.50400001928E-02 0.  1.
       -1    1    3    3    0  502  0.16131255689E+03 -0.95902634634E+03 -0.16337039386E+04  0.19012474413E+04  0.50400001928E-02 0. -1.
</event>
<event>
 5   0  0.4995256E-05  0.2505959E+04  0.7818609E-02  0.8400866E-01
        2   -1    0    0  501    0  0.00000000000E+00  0.00000000000E+00  0.13237454153E+04  0.13237454153E+04  0.25500000920E-02 0. -1.
       -2   -1    0    0    0  501  0.00000000000E+00  0.00000000000E+00 -0.11859968029E+04  0.11859968029E+04  0.25500000920E-02 0.  1.
    10030    2    1    2    0    0  0.00000000000E+00  0.00000000000E+00  0.13774861244E+03  0.25097422182E+04  0.25059591620E+04 0.  0.
        2    1    3    3  502    0  0.51305186717E+03  0.11378689514E+04 -0.40789220859E+02  0.12488521647E+04  0.25500000920E-02 0.  1.
       -2    1    3    3    0  502 -0.51305186717E+03 -0.11378689514E+04  0.17853783330E+03  0.12608900534E+04  0.25500000920E-02 0. -1.
</event>
<event>
 5   0  0.2066170E-05  0.1591222E+04  0.7818609E-02  0.8825959E-01
        1   -1    0    0  501    0  0.00000000000E+00  0.00000000000E+00  0.91096199612E+03  0.91096199613E+03  0.50400001928E-02 0. -1.
       -1   -1    0    0    0  501  0.00000000000E+00  0.00000000000E+00 -0.69486645837E+03  0.69486645839E+03  0.50400001928E-02 0.  1.
    10030    2    1    2    0    0  0.00000000000E+00  0.00000000000E+00  0.21609553774E+03  0.16058284545E+04  0.15912220913E+04 0.  0.
        5    1    3    3  502    0  0.43288540558E+02 -0.75778293204E+03  0.34870260793E+03  0.83529902946E+03  0.46999998093E+01 0.  1.
       -5    1    3    3    0  502 -0.43288540558E+02  0.75778293204E+03 -0.13260707019E+03  0.77052942507E+03  0.46999998093E+01 0. -1.
</event>
<event>
 5   0  0.2081874E-05  0.2431130E+04  0.7818609E-02  0.8427940E-01
        1   -1    0    0  501    0  0.00000000000E+00  0.00000000000E+00  0.15010915662E+04  0.15010915662E+04  0.50400001928E-02 0. -1.
       -1   -1    0    0    0  501  0.00000000000E+00  0.00000000000E+00 -0.98434897709E+03  0.98434897710E+03  0.50400001928E-02 0.  1.
    10030    2    1    2    0    0  0.00000000000E+00  0.00000000000E+00  0.51674258912E+03  0.24854405433E+04  0.24311297355E+04 0.  0.
        1    1    3    3  502    0  0.57624803826E+03  0.32599899312E+03 -0.78384417927E+03  0.10260354977E+04  0.50400001928E-02 0.  1.
       -1    1    3    3    0  502 -0.57624803826E+03 -0.32599899312E+03  0.13005867684E+04  0.14594050456E+04  0.50400001928E-02 0. -1.
</event>
<event>
 5   0  0.2066170E-05  0.2668144E+04  0.7818609E-02  0.8345416E-01
       -1   -1    0    0    0  501  0.00000000000E+00  0.00000000000E+00  0.17297084026E+04  0.17297084026E+04  0.50400001928E-02 0. -1.
        1   -1    0    0  501    0  0.00000000000E+00  0.00000000000E+00 -0.10289299408E+04  0.10289299408E+04  0.50400001928E-02 0.  1.
    10030    2    1    2    0    0  0.00000000000E+00  0.00000000000E+00  0.70077846174E+03  0.27586383434E+04  0.26681444971E+04 0.  0.
        5    1    3    3  502    0  0.37035838189E+03  0.53911725904E+03 -0.85176431903E+03  0.10739354241E+04  0.46999998093E+01 0.  1.
       -5    1    3    3    0  502 -0.37035838189E+03 -0.53911725904E+03  0.15525427808E+04  0.16847029193E+04  0.46999998093E+01 0. -1.
</event>
<event>
 5   0  0.5219468E-05  0.2482609E+04  0.7818609E-02  0.8409207E-01
        2   -1    0    0  501    0  0.00000000000E+00  0.00000000000E+00  0.15285634012E+04  0.15285634012E+04  0.25500000920E-02 0.  1.
       -2   -1    0    0    0  501  0.00000000000E+00  0.00000000000E+00 -0.10080297942E+04  0.10080297942E+04  0.25500000920E-02 0. -1.
    10030    2    1    2    0    0  0.00000000000E+00  0.00000000000E+00  0.52053360704E+03  0.25365931954E+04  0.24826094745E+04 0.  0.
        1    1    3    3  502    0  0.35840378146E+03 -0.30562500887E+03 -0.91317380579E+03  0.10274951660E+04  0.50400001928E-02 0. -1.
       -1    1    3    3    0  502 -0.35840378146E+03  0.30562500887E+03  0.14337074128E+04  0.15090980294E+04  0.50400001928E-02 0.  1.
</event>
<event>
 5   0  0.4959347E-05  0.2485714E+04  0.7818609E-02  0.8408093E-01
       -2   -1    0    0    0  501  0.00000000000E+00  0.00000000000E+00  0.84076501959E+03  0.84076501959E+03  0.25500000920E-02 0. -1.
        2   -1    0    0  501    0  0.00000000000E+00  0.00000000000E+00 -0.18372478325E+04  0.18372478325E+04  0.25500000920E-02 0.  1.
    10030    2    1    2    0    0  0.00000000000E+00  0.00000000000E+00 -0.99648281288E+03  0.26780128521E+04  0.24857141508E+04 0.  0.
        3    1    3    3  502    0 -0.60370216013E+03 -0.66963910383E+03 -0.14198868240E+04  0.16819487003E+04  0.10100000352E+00 0.  1.
       -3    1    3    3    0  502  0.60370216013E+03  0.66963910383E+03  0.42340401108E+03  0.99606415172E+03  0.10100000352E+00 0. -1.
</event>
<event>
 5   0  0.5024070E-05  0.2509837E+04  0.7818609E-02  0.8399489E-01
       -2   -1    0    0    0  501  0.00000000000E+00  0.00000000000E+00  0.10499100782E+04  0.10499100782E+04  0.25500000920E-02 0. -1.
        2   -1    0    0  501    0  0.00000000000E+00  0.00000000000E+00 -0.14999576333E+04  0.14999576333E+04  0.25500000920E-02 0.  1.
    10030    2    1    2    0    0  0.00000000000E+00  0.00000000000E+00 -0.45004755516E+03  0.25498677115E+04  0.25098371549E+04 0.  0.
        5    1    3    3  502    0 -0.11733637844E+04  0.15750266971E+03  0.19779784438E+03  0.12003065187E+04  0.46999998093E+01 0.  1.
       -5    1    3    3    0  502  0.11733637844E+04 -0.15750266971E+03 -0.64784539954E+03  0.13495611928E+04  0.46999998093E+01 0. -1.
</event>
<event>
 5   0  0.2066170E-05  0.2465554E+04  0.7818609E-02  0.8415361E-01
        1   -1    0    0  501    0  0.00000000000E+00  0.00000000000E+00  0.14832895301E+04  0.14832895301E+04  0.50400001928E-02 0.  1.
       -1   -1    0    0    0  501  0.00000000000E+00  0.00000000000E+00 -0.10245733752E+04  0.10245733752E+04  0.50400001928E-02 0. -1.
    10030    2    1    2    0    0  0.00000000000E+00  0.00000000000E+00  0.45871615490E+03  0.25078629053E+04  0.24655538610E+04 0.  0.
        5    1    3    3  502    0 -0.67295346190E+03  0.17635296102E+03  0.12645402831E+04  0.14432778480E+04  0.46999998093E+01 0.  1.
       -5    1    3    3    0  502  0.67295346190E+03 -0.17635296102E+03 -0.80582412824E+03  0.10645850574E+04  0.46999998093E+01 0. -1.
</event>
<event>
 5   0  0.4959347E-05  0.2541765E+04  0.7818609E-02  0.8388256E-01
        2   -1    0    0  501    0  0.00000000000E+00  0.00000000000E+00  0.23423548215E+04  0.23423548215E+04  0.25500000920E-02 0.  1.
       -2   -1    0    0    0  501  0.00000000000E+00  0.00000000000E+00 -0.68953768926E+03  0.68953768927E+03  0.25500000920E-02 0. -1.
    10030    2    1    2    0    0  0.00000000000E+00  0.00000000000E+00  0.16528171322E+04  0.30318925107E+04  0.25417646870E+04 0.  0.
        3    1    3    3  502    0 -0.77775824512E+03  0.42541911275E+03  0.19126387895E+04  0.21080978295E+04  0.10100000352E+00 0.  1.
       -3    1    3    3    0  502  0.77775824512E+03 -0.42541911275E+03 -0.25982165728E+03  0.92379468127E+03  0.10100000352E+00 0. -1.
</event>
<event>
 5   0  0.4959042E-05  0.2416421E+04  0.7818609E-02  0.8433381E-01
        2   -1    0    0  501    0  0.00000000000E+00  0.00000000000E+00  0.14490947229E+04  0.14490947229E+04  0.25500000920E-02 0.  1.
       -2   -1    0    0    0  501  0.00000000000E+00  0.00000000000E+00 -0.10073688961E+04  0.10073688961E+04  0.25500000920E-02 0. -1.
    10030    2    1    2    0    0  0.00000000000E+00  0.00000000000E+00  0.44172582687E+03  0.24564636190E+04  0.24164212806E+04 0.  0.
        4    1    3    3  502    0 -0.38197036653E+03 -0.69430765829E+03 -0.70628480048E+03  0.10615103945E+04  0.12699999809E+01 0. -1.
       -4    1    3    3    0  502  0.38197036653E+03  0.69430765829E+03  0.11480106274E+04  0.13949532245E+04  0.12699999809E+01 0.  1.
</event>
<event>
 5   0  0.5024070E-05  0.2497208E+04  0.7818609E-02  0.8403981E-01
       -2   -1    0    0    0  501  0.00000000000E+00  0.00000000000E+00  0.11470562940E+04  0.11470562940E+04  0.25500000920E-02 0.  1.
        2   -1    0    0  501    0  0.00000000000E+00  0.00000000000E+00 -0.13591417452E+04  0.13591417452E+04  0.25500000920E-02 0. -1.
    10030    2    1    2    0    0  0.00000000000E+00  0.00000000000E+00 -0.21208545116E+03  0.25061980392E+04  0.24972081157E+04 0.  0.
        5    1    3    3  502    0 -0.75543541617E+03  0.60432649204E+03  0.68616380425E+03  0.11860590345E+04  0.46999998093E+01 0.  1.
       -5    1    3    3    0  502  0.75543541617E+03 -0.60432649204E+03 -0.89824925541E+03  0.13201390047E+04  0.46999998093E+01 0. -1.
</event>
<event>
 5   0  0.2066170E-05  0.2069646E+04  0.7818609E-02  0.8574734E-01
       -1   -1    0    0    0  501  0.00000000000E+00  0.00000000000E+00  0.56496892594E+03  0.56496892596E+03  0.50400001928E-02 0. -1.
        1   -1    0    0  501    0  0.00000000000E+00  0.00000000000E+00 -0.18954290343E+04  0.18954290343E+04  0.50400001928E-02 0.  1.
    10030    2    1    2    0    0  0.00000000000E+00  0.00000000000E+00 -0.13304601083E+04  0.24603979602E+04  0.20696458689E+04 0.  0.
        5    1    3    3  502    0 -0.81317555279E+03 -0.46937782479E+03 -0.14804487508E+03  0.95053111316E+03  0.46999998093E+01 0. -1.
       -5    1    3    3    0  502  0.81317555279E+03  0.46937782479E+03 -0.11824152332E+04  0.15098668471E+04  0.46999998093E+01 0.  1.
</event>
<event>
 5   0  0.4959347E-05  0.2627622E+04  0.7818609E-02  0.8358879E-01
        2   -1    0    0  501    0  0.00000000000E+00  0.00000000000E+00  0.10786142509E+04  0.10786142509E+04  0.25500000920E-02 0.  1.
       -2   -1    0    0    0  501  0.00000000000E+00  0.00000000000E+00 -0.16002932581E+04  0.16002932581E+04  0.25500000920E-02 0. -1.
    10030    2    1    2    0    0  0.00000000000E+00  0.00000000000E+00 -0.52167900714E+03  0.26789075090E+04  0.26276218250E+04 0.  0.
        3    1    3    3  502    0  0.93164013121E+03 -0.34235762553E+03  0.61673805307E+03  0.11685580491E+04  0.10100000352E+00 0.  1.
       -3    1    3    3    0  502 -0.93164013121E+03  0.34235762553E+03 -0.11384170602E+04  0.15103494599E+04  0.10100000352E+00 0. -1.
</event>
<event>
 5   0  0.5219468E-05  0.2452827E+04  0.7818609E-02  0.8419987E-01
       -2   -1    0    0    0  501  0.00000000000E+00  0.00000000000E+00  0.12536787692E+04  0.12536787692E+04  0.25500000920E-02 0. -1.
        2   -1    0    0  501    0  0.00000000000E+00  0.00000000000E+00 -0.11997409896E+04  0.11997409896E+04  0.25500000920E-02 0.  1.
    10030    2    1    2    0    0  0.00000000000E+00  0.00000000000E+00  0.53937779556E+02  0.24534197588E+04  0.24528267833E+04 0.  0.
        1    1    3    3  502    0  0.57560406625E+03  0.31242096400E+03 -0.10101824085E+04  0.12039083845E+04  0.50400001928E-02 0.  1.
       -1    1    3    3    0  502 -0.57560406625E+03 -0.31242096400E+03  0.10641201880E+04  0.12495113743E+04  0.50400001928E-02 0. -1.
</event>
<event>
 5   0  0.4959042E-05  0.2452742E+04  0.7818609E-02  0.8420017E-01
       -2   -1    0    0    0  501  0.00000000000E+00  0.00000000000E+00  0.88872750805E+03  0.88872750806E+03  0.25500000920E-02 0. -1.
        2   -1    0    0  501    0  0.00000000000E+00  0.00000000000E+00 -0.16922915892E+04  0.16922915892E+04  0.25500000920E-02 0.  1.
    10030    2    1    2    0    0  0.00000000000E+00  0.00000000000E+00 -0.80356408116E+03  0.25810190973E+04  0.24527422098E+04 0.  0.
        4    1    3    3  502    0 -0.16620803683E+03 -0.79564910138E+03 -0.13681240161E+04  0.15913665638E+04  0.12699999809E+01 0.  1.
       -4    1    3    3    0  502  0.16620803683E+03  0.79564910138E+03  0.56455993492E+03  0.98965253350E+03  0.12699999809E+01 0. -1.
</event>
<event>
 5   0  0.5219468E-05  0.2550493E+04  0.7818609E-02  0.8385215E-01
       -2   -1    0    0    0  501  0.00000000000E+00  0.00000000000E+00  0.76770564102E+03  0.76770564102E+03  0.25500000920E-02 0.  1.
        2   -1    0    0  501    0  0.00000000000E+00  0.00000000000E+00 -0.21183302149E+04  0.21183302149E+04  0.25500000920E-02 0. -1.
    10030    2    1    2    0    0  0.00000000000E+00  0.00000000000E+00 -0.13506245739E+04  0.28860358560E+04  0.25504933292E+04 0.  0.
        1    1    3    3  502    0 -0.78446075044E+02 -0.10895956204E+03 -0.21103104701E+04  0.21145770861E+04  0.50400001928E-02 0. -1.
       -1    1    3    3    0  502  0.78446075044E+02  0.10895956204E+03  0.75968589613E+03  0.77145876990E+03  0.50400001928E-02 0.  1.
</event>
<event>
 5   0  0.4959347E-05  0.2438574E+04  0.7818609E-02  0.8425202E-01
       -2   -1    0    0    0  501  0.00000000000E+00  0.00000000000E+00  0.14193445482E+04  0.14193445482E+04  0.25500000920E-02 0. -1.
        2   -1    0    0  501    0  0.00000000000E+00  0.00000000000E+00 -0.10474278882E+04  0.10474278882E+04  0.25500000920E-02 0.  1.
    10030    2    1    2    0    0  0.00000000000E+00  0.00000000000E+00  0.37191665999E+03  0.24667724364E+04  0.24385742250E+04 0.  0.
        3    1    3    3  502    0 -0.22505324029E+03 -0.10791889089E+03  0.13932267677E+04  0.14154067558E+04  0.10100000352E+00 0. -1.
       -3    1    3    3    0  502  0.22505324029E+03  0.10791889089E+03 -0.10213101077E+04  0.10513656806E+04  0.10100000352E+00 0.  1.
</event>
<event>
 5   0  0.4995256E-05  0.2421927E+04  0.7818609E-02  0.8431340E-01
       -2   -1    0    0    0  501  0.00000000000E+00  0.00000000000E+00  0.17659690171E+04  0.17659690171E+04  0.25500000920E-02 0.  1.
        2   -1    0    0  501    0  0.00000000000E+00  0.00000000000E+00 -0.83038400594E+03  0.83038400595E+03  0.25500000920E-02 0. -1.
    10030    2    1    2    0    0  0.00000000000E+00  0.00000000000E+00  0.93558501119E+03  0.25963530231E+04  0.24219268584E+04 0.  0.
        2    1    3    3  502    0 -0.88524125990E+03  0.37653719568E+03 -0.32070692392E+03  0.10140440222E+04  0.25500000920E-02 0. -1.
       -2    1    3    3    0  502  0.88524125990E+03 -0.37653719568E+03  0.12562919351E+04  0.15823090009E+04  0.25500000920E-02 0.  1.
</event>
<event>
 5   0  0.5219468E-05  0.2573252E+04  0.7818609E-02  0.8377344E-01
        2   -1    0    0  501    0  0.00000000000E+00  0.00000000000E+00  0.16015803669E+04  0.16015803669E+04  0.25500000920E-02 0. -1.
       -2   -1    0    0    0  501  0.00000000000E+00  0.00000000000E+00 -0.10336077778E+04  0.10336077778E+04  0.25500000920E-02 0.  1.
    10030    2    1    2    0    0  0.00000000000E+00  0.00000000000E+00  0.56797258904E+03  0.26351881447E+04  0.25732515804E+04 0.  0.
        1    1    3    3  502    0  0.10817034528E+04 -0.48875164120E+03 -0.22439520256E+03  0.12080205849E+04  0.50400001928E-02 0.  1.
       -1    1    3    3    0  502 -0.10817034528E+04  0.48875164120E+03  0.79236779160E+03  0.14271675598E+04  0.50400001928E-02 0. -1.
</event>
<event>
 5   0  0.4995256E-05  0.2509636E+04  0.7818609E-02  0.8399561E-01
       -2   -1    0    0    0  501  0.00000000000E+00  0.00000000000E+00  0.94995016889E+03  0.94995016890E+03  0.25500000920E-02 0. -1.
        2   -1    0    0  501    0  0.00000000000E+00  0.00000000000E+00 -0.16575273586E+04  0.16575273586E+04  0.25500000920E-02 0.  1.
    10030    2    1    2    0    0  0.00000000000E+00  0.00000000000E+00 -0.70757718975E+03  0.26074775275E+04  0.25096361444E+04 0.  0.
        2    1    3    3  502    0 -0.80634748327E+02 -0.91958030791E+03  0.52931215066E+03  0.10640964515E+04  0.25500000920E-02 0. -1.
       -2    1    3    3    0  502  0.80634748327E+02  0.91958030791E+03 -0.12368893404E+04  0.15433810760E+04  0.25500000920E-02 0.  1.
</event>
<event>
 5   0  0.2081874E-05  0.2461678E+04  0.7818609E-02  0.8416767E-01
       -1   -1    0    0    0  501  0.00000000000E+00  0.00000000000E+00  0.78299105049E+03  0.78299105051E+03  0.50400001928E-02 0. -1.
        1   -1    0    0  501    0  0.00000000000E+00  0.00000000000E+00 -0.19348427736E+04  0.19348427736E+04  0.50400001928E-02 0.  1.
    10030    2    1    2    0    0  0.00000000000E+00  0.00000000000E+00 -0.11518517231E+04  0.27178338241E+04  0.24616779447E+04 0.  0.
        1    1    3    3  502    0 -0.10613500116E+04 -0.61125935547E+03 -0.44132713666E+03  0.13018723011E+04  0.50400001928E-02 0.  1.
       -1    1    3    3    0  502  0.10613500116E+04  0.61125935547E+03 -0.71052458649E+03  0.14159615231E+04  0.50400001928E-02 0. -1.
</event>
<event>
 5   0  0.2036578E-05  0.2162592E+04  0.7818609E-02  0.8534162E-01
       -1   -1    0    0    0  501  0.00000000000E+00  0.00000000000E+00  0.72468918118E+03  0.72468918120E+03  0.50400001928E-02 0.  1.
        1   -1    0    0  501    0  0.00000000000E+00  0.00000000000E+00 -0.16133824619E+04  0.16133824620E+04  0.50400001928E-02 0. -1.
    10030    2    1    2    0    0  0.00000000000E+00  0.00000000000E+00 -0.88869328077E+03  0.23380716432E+04  0.21625917926E+04 0.  0.
        2    1    3    3  502    0  0.42694943355E+03 -0.97895374907E+03 -0.26162205480E+03  0.10995828123E+04  0.25500000920E-02 0.  1.
       -2    1    3    3    0  502 -0.42694943355E+03  0.97895374907E+03 -0.62707122597E+03  0.12384888308E+04  0.25500000920E-02 0. -1.
</event>
<event>
 5   0  0.2041718E-05  0.2484429E+04  0.7818609E-02  0.8408554E-01
        1   -1    0    0  501    0  0.00000000000E+00  0.00000000000E+00  0.93517305216E+03  0.93517305217E+03  0.50400001928E-02 0.  1.
       -1   -1    0    0    0  501  0.00000000000E+00  0.00000000000E+00 -0.16500658276E+04  0.16500658276E+04  0.50400001928E-02 0. -1.
    10030    2    1    2    0    0  0.00000000000E+00  0.00000000000E+00 -0.71489277541E+03  0.25852388797E+04  0.24844291870E+04 0.  0.
        4    1    3    3  502    0  0.34398874374E+03 -0.11920778015E+04 -0.29399900435E+03  0.12750744167E+04  0.12699999809E+01 0.  1.
       -4    1    3    3    0  502 -0.34398874374E+03  0.11920778015E+04 -0.42089377106E+03  0.13101644630E+04  0.12699999809E+01 0. -1.
</event>
<event>
 5   0  0.2066170E-05  0.2426809E+04  0.7818609E-02  0.8429534E-01
       -1   -1    0    0    0  501  0.00000000000E+00  0.00000000000E+00  0.97257278105E+03  0.97257278106E+03  0.50400001928E-02 0.  1.
        1   -1    0    0  501    0  0.00000000000E+00  0.00000000000E+00 -0.15138717206E+04  0.15138717206E+04  0.50400001928E-02 0. -1.
    10030    2    1    2    0    0  0.00000000000E+00  0.00000000000E+00 -0.54129893955E+03  0.24864445017E+04  0.24268089579E+04 0.  0.
        5    1    3    3  502    0  0.87264276709E+03 -0.38410290748E+02 -0.11335738306E+04  0.14310808743E+04  0.46999998093E+01 0. -1.
       -5    1    3    3    0  502 -0.87264276709E+03  0.38410290748E+02  0.59227489105E+03  0.10553636274E+04  0.46999998093E+01 0.  1.
</event>
<event>
 5   0  0.4959347E-05  0.2489328E+04  0.7818609E-02  0.8406797E-01
       -2   -1    0    0    0  501  0.00000000000E+00  0.00000000000E+00  0.11482540628E+04  0.11482540628E+04  0.25500000920E-02 0.  1.
        2   -1    0    0  501    0  0.00000000000E+00  0.00000000000E+00 -0.13491684197E+04  0.13491684197E+04  0.25500000920E-02 0. -1.
    10030    2    1    2    0    0  0.00000000000E+00  0.00000000000E+00 -0.20091435688E+03  0.24974224825E+04  0.24893277159E+04 0.  0.
        3    1    3    3  502    0 -0.43263858658E+03 -0.60216691883E+03 -0.11034114405E+04  0.13293975937E+04  0.10100000352E+00 0. -1.
       -3    1    3    3    0  502  0.43263858658E+03  0.60216691883E+03  0.90249708365E+03  0.11680248888E+04  0.10100000352E+00 0.  1.
</event>
<event>
 5   0  0.4959347E-05  0.3269441E+04  0.7818609E-02  0.8170715E-01
       -2   -1    0    0    0  501  0.00000000000E+00  0.00000000000E+00  0.11590403226E+04  0.11590403226E+04  0.25500000920E-02 0. -1.
        2   -1    0    0  501    0  0.00000000000E+00  0.00000000000E+00 -0.23056246392E+04  0.23056246392E+04  0.25500000920E-02 0.  1.
    10030    2    1    2    0    0  0.00000000000E+00  0.00000000000E+00 -0.11465843166E+04  0.34646649618E+04  0.32694414971E+04 0.  0.
        3    1    3    3  502    0 -0.11241273077E+04  0.42787686201E+02  0.68362534645E+03  0.13163725211E+04  0.10100000352E+00 0. -1.
       -3    1    3    3    0  502  0.11241273077E+04 -0.42787686201E+02 -0.18302096630E+04  0.21482924407E+04  0.10100000352E+00 0.  1.
</event>
<event>
 5   0  0.2063930E-05  0.2550040E+04  0.7818609E-02  0.8385372E-01
        1   -1    0    0  501    0  0.00000000000E+00  0.00000000000E+00  0.13208989156E+04  0.13208989156E+04  0.50400001928E-02 0. -1.
       -1   -1    0    0    0  501  0.00000000000E+00  0.00000000000E+00 -0.12307343162E+04  0.12307343162E+04  0.50400001928E-02 0.  1.
    10030    2    1    2    0    0  0.00000000000E+00  0.00000000000E+00  0.90164599408E+02  0.25516332318E+04  0.25500397046E+04 0.  0.
        3    1    3    3  502    0  0.14543707673E+03  0.11415334852E+04  0.59444721739E+03  0.12952289935E+04  0.10100000352E+00 0. -1.
       -3    1    3    3    0  502 -0.14543707673E+03 -0.11415334852E+04 -0.50428261798E+03  0.12564042383E+04  0.10100000352E+00 0.  1.
</event>
<event>
 5   0  0.2041718E-05  0.2510003E+04  0.7818609E-02  0.8399431E-01
        1   -1    0    0  501    0  0.00000000000E+00  0.00000000000E+00  0.17664685075E+04  0.17664685075E+04  0.50400001928E-02 0.  1.
       -1   -1    0    0    0  501  0.00000000000E+00  0.00000000000E+00 -0.89162552522E+03  0.89162552524E+03  0.50400001928E-02 0. -1.
    10030    2    1    2    0    0  0.00000000000E+00  0.00000000000E+00  0.87484298229E+03  0.26580940327E+04  0.25100027178E+04 0.  0.
        4    1    3    3  502    0  0.59765605912E+03  0.91869787950E+03 -0.21006722046E+03  0.11159428340E+04  0.12699999809E+01 0. -1.
       -4    1    3    3    0  502 -0.59765605912E+03 -0.91869787950E+03  0.10849102027E+04  0.15421511987E+04  0.12699999809E+01 0.  1.
</event>
<event>
 5   0  0.2066170E-05  0.2466965E+04  0.7818609E-02  0.8414850E-01
       -1   -1    0    0    0  501  0.00000000000E+00  0.00000000000E+00  0.14748226101E+04  0.14748226102E+04  0.50400001928E-02 0. -1.
        1   -1    0    0  501    0  0.00000000000E+00  0.00000000000E+00 -0.10316356806E+04  0.10316356807E+04  0.50400001928E-02 0.  1.
    10030    2    1    2    0    0  0.00000000000E+00  0.00000000000E+00  0.44318692950E+03  0.25064582908E+04  0.24669654455E+04 0.  0.
        5    1    3    3  502    0  0.37906878052E+03  0.55572811463E+03  0.12720357179E+04  0.14389662385E+04  0.46999998093E+01 0. -1.
       -5    1    3    3    0  502 -0.37906878052E+03 -0.55572811463E+03 -0.82884878843E+03  0.10674920524E+04  0.46999998093E+01 0.  1.
</event>
<event>
 5   0  0.4959042E-05  0.2088200E+04  0.7818609E-02  0.8566459E-01
        2   -1    0    0  501    0  0.00000000000E+00  0.00000000000E+00  0.12283425513E+04  0.12283425513E+04  0.25500000920E-02 0. -1.
       -2   -1    0    0    0  501  0.00000000000E+00  0.00000000000E+00 -0.88749232920E+03  0.88749232920E+03  0.25500000920E-02 0.  1.
    10030    2    1    2    0    0  0.00000000000E+00  0.00000000000E+00  0.34085022207E+03  0.21158348805E+04  0.20881997911E+04 0.  0.
        4    1    3    3  502    0 -0.34442963264E+03 -0.37881646246E+03  0.10924174882E+04  0.12064457160E+04  0.12699999809E+01 0. -1.
       -4    1    3    3    0  502  0.34442963264E+03  0.37881646246E+03 -0.75156726616E+03  0.90938916451E+03  0.12699999809E+01 0.  1.
</event>
<event>
 5   0  0.4959042E-05  0.2014687E+04  0.7818609E-02  0.8599785E-01
       -2   -1    0    0    0  501  0.00000000000E+00  0.00000000000E+00  0.12129420054E+04  0.12129420054E+04  0.25500000920E-02 0.  1.
        2   -1    0    0  501    0  0.00000000000E+00  0.00000000000E+00 -0.83659468889E+03  0.83659468890E+03  0.25500000920E-02 0. -1.
    10030    2    1    2    0    0  0.00000000000E+00  0.00000000000E+00  0.37634731650E+03  0.20495366943E+04  0.20146869133E+04 0.  0.
        4    1    3    3  502    0  0.30958257314E+03  0.80795429038E+03 -0.33660585364E+03  0.92840541712E+03  0.12699999809E+01 0. -1.
       -4    1    3    3    0  502 -0.30958257314E+03 -0.80795429038E+03  0.71295317013E+03  0.11211312772E+04  0.12699999809E+01 0.  1.
</event>
<event>
 5   0  0.4959347E-05  0.2464741E+04  0.7818609E-02  0.8415655E-01
       -2   -1    0    0    0  501  0.00000000000E+00  0.00000000000E+00  0.11297825892E+04  0.11297825892E+04  0.25500000920E-02 0. -1.
        2   -1    0    0  501    0  0.00000000000E+00  0.00000000000E+00 -0.13442739006E+04  0.13442739006E+04  0.25500000920E-02 0.  1.
    10030    2    1    2    0    0  0.00000000000E+00  0.00000000000E+00 -0.21449131141E+03  0.24740564897E+04  0.24647411612E+04 0.  0.
        3    1    3    3  502    0  0.53467739176E+03 -0.87064952603E+03 -0.79892669713E+03  0.12969943670E+04  0.10100000352E+00 0.  1.
       -3    1    3    3    0  502 -0.53467739176E+03  0.87064952603E+03  0.58443538572E+03  0.11770621227E+04  0.10100000352E+00 0. -1.
</event>
<event>
 5   0  0.2081874E-05  0.2444746E+04  0.7818609E-02  0.8422939E-01
       -1   -1    0    0    0  501  0.00000000000E+00  0.00000000000E+00  0.70971566003E+03  0.70971566005E+03  0.50400001928E-02 0.  1.
        1   -1    0    0  501    0  0.00000000000E+00  0.00000000000E+00 -0.21053439898E+04  0.21053439898E+04  0.50400001928E-02 0. -1.
    10030    2    1    2    0    0  0.00000000000E+00  0.00000000000E+00 -0.13956283297E+04  0.28150596498E+04  0.24447458758E+04 0.  0.
        1    1    3    3  502    0 -0.14993465790E+02 -0.10291603818E+04  0.61459784278E+02  0.10311029050E+04  0.50400001928E-02 0.  1.
       -1    1    3    3    0  502  0.14993465790E+02  0.10291603818E+04 -0.14570881140E+04  0.17839567449E+04  0.50400001928E-02 0. -1.
</event>
<event>
 5   0  0.4959042E-05  0.2495965E+04  0.7818609E-02  0.8404424E-01
       -2   -1    0    0    0  501  0.00000000000E+00  0.00000000000E+00  0.12082861713E+04  0.12082861713E+04  0.25500000920E-02 0.  1.
        2   -1    0    0  501    0  0.00000000000E+00  0.00000000000E+00 -0.12889835010E+04  0.12889835010E+04  0.25500000920E-02 0. -1.
    10030    2    1    2    0    0  0.00000000000E+00  0.00000000000E+00 -0.80697329745E+02  0.24972696723E+04  0.24959654959E+04 0.  0.
        4    1    3    3  502    0  0.71451979672E+03 -0.10107299194E+04  0.11893821631E+03  0.12434876043E+04  0.12699999809E+01 0.  1.
       -4    1    3    3    0  502 -0.71451979672E+03  0.10107299194E+04 -0.19963554606E+03  0.12537820680E+04  0.12699999809E+01 0. -1.
</event>
<event>
 5   0  0.2041718E-05  0.2332121E+04  0.7818609E-02  0.8465363E-01
        1   -1    0    0  501    0  0.00000000000E+00  0.00000000000E+00  0.10884660134E+04  0.10884660134E+04  0.50400001928E-02 0.  1.
       -1   -1    0    0    0  501  0.00000000000E+00  0.00000000000E+00 -0.12491860130E+04  0.12491860130E+04  0.50400001928E-02 0. -1.
    10030    2    1    2    0    0  0.00000000000E+00  0.00000000000E+00 -0.16071999960E+03  0.23376520265E+04  0.23321205112E+04 0.  0.
        4    1    3    3  502    0  0.98947124627E+03  0.24991338182E+03  0.48505670076E+03  0.11299520616E+04  0.12699999809E+01 0.  1.
       -4    1    3    3    0  502 -0.98947124627E+03 -0.24991338182E+03 -0.64577670036E+03  0.12076999649E+04  0.12699999809E+01 0. -1.
</event>
<event>
 5   0  0.5219468E-05  0.2401661E+04  0.7818609E-02  0.8438882E-01
       -2   -1    0    0    0  501  0.00000000000E+00  0.00000000000E+00  0.86774909284E+03  0.86774909285E+03  0.25500000920E-02 0.  1.
        2   -1    0    0  501    0  0.00000000000E+00  0.00000000000E+00 -0.16617631609E+04  0.16617631609E+04  0.25500000920E-02 0. -1.
    10030    2    1    2    0    0  0.00000000000E+00  0.00000000000E+00 -0.79401406803E+03  0.25295122537E+04  0.24016606549E+04 0.  0.
        1    1    3    3  502    0 -0.35972968635E+03 -0.56962566225E+03  0.64994988096E+03  0.93611628023E+03  0.50400001928E-02 0.  1.
       -1    1    3    3    0  502  0.35972968635E+03  0.56962566225E+03 -0.14439639490E+04  0.15933959735E+04  0.50400001928E-02 0. -1.
</event>
<event>
 5   0  0.5024070E-05  0.2377868E+04  0.7818609E-02  0.8447836E-01
       -2   -1    0    0    0  501  0.00000000000E+00  0.00000000000E+00  0.77671542191E+03  0.77671542191E+03  0.25500000920E-02 0.  1.
        2   -1    0    0  501    0  0.00000000000E+00  0.00000000000E+00 -0.18199248076E+04  0.18199248076E+04  0.25500000920E-02 0. -1.
    10030    2    1    2    0    0  0.00000000000E+00  0.00000000000E+00 -0.10432093857E+04  0.25966402295E+04  0.23778676707E+04 0.  0.
        5    1    3    3  502    0  0.45788904531E+03  0.15071555852E+03 -0.17084092442E+04  0.17751230361E+04  0.46999998093E+01 0. -1.
       -5    1    3    3    0  502 -0.45788904531E+03 -0.15071555852E+03  0.66519985852E+03  0.82151719347E+03  0.46999998093E+01 0.  1.
</event>
<event>
 5   0  0.2081874E-05  0.2511292E+04  0.7818609E-02  0.8398974E-01
       -1   -1    0    0    0  501  0.00000000000E+00  0.00000000000E+00  0.97114459310E+03  0.97114459311E+03  0.50400001928E-02 0. -1.
        1   -1    0    0  501    0  0.00000000000E+00  0.00000000000E+00 -0.16234937985E+04  0.16234937986E+04  0.50400001928E-02 0.  1.
    10030    2    1    2    0    0  0.00000000000E+00  0.00000000000E+00 -0.65234920545E+03  0.25946383917E+04  0.25112922764E+04 0.  0.
        1    1    3    3  502    0  0.80248671140E+03  0.10112470441E+03 -0.13184854152E+04  0.15468079771E+04  0.50400001928E-02 0.  1.
       -1    1    3    3    0  502 -0.80248671140E+03 -0.10112470441E+03  0.66613620974E+03  0.10478304146E+04  0.50400001928E-02 0. -1.
</event>
<event>
 5   0  0.2081874E-05  0.2547457E+04  0.7818609E-02  0.8386271E-01
        1   -1    0    0  501    0  0.00000000000E+00  0.00000000000E+00  0.15833960330E+04  0.15833960330E+04  0.50400001928E-02 0.  1.
       -1   -1    0    0    0  501  0.00000000000E+00  0.00000000000E+00 -0.10246232395E+04  0.10246232395E+04  0.50400001928E-02 0. -1.
    10030    2    1    2    0    0  0.00000000000E+00  0.00000000000E+00  0.55877279351E+03  0.26080192726E+04  0.25474570637E+04 0.  0.
        1    1    3    3  502    0  0.58244235958E+03 -0.10815892662E+04 -0.65231564603E+02  0.12301746217E+04  0.50400001928E-02 0. -1.
       -1    1    3    3    0  502 -0.58244235958E+03  0.10815892662E+04  0.62400435812E+03  0.13778446509E+04  0.50400001928E-02 0.  1.
</event>
<event>
 5   0  0.2041718E-05  0.2490281E+04  0.7818609E-02  0.8406456E-01
       -1   -1    0    0    0  501  0.00000000000E+00  0.00000000000E+00  0.23194289797E+04  0.23194289797E+04  0.50400001928E-02 0. -1.
        1   -1    0    0  501    0  0.00000000000E+00  0.00000000000E+00 -0.66842940843E+03  0.66842940845E+03  0.50400001928E-02 0.  1.
    10030    2    1    2    0    0  0.00000000000E+00  0.00000000000E+00  0.16509995713E+04  0.29878583882E+04  0.24902807399E+04 0.  0.
        4    1    3    3  502    0 -0.22029222848E+02 -0.62556583646E+03 -0.46592772258E+03  0.78032567430E+03  0.12699999809E+01 0.  1.
       -4    1    3    3    0  502  0.22029222848E+02  0.62556583646E+03  0.21169272939E+04  0.22075327139E+04  0.12699999809E+01 0. -1.
</event>
<event>
 5   0  0.4959042E-05  0.2538285E+04  0.7818609E-02  0.8389472E-01
       -2   -1    0    0    0  501  0.00000000000E+00  0.00000000000E+00  0.80035960470E+03  0.80035960470E+03  0.25500000920E-02 0. -1.
        2   -1    0    0  501    0  0.00000000000E+00  0.00000000000E+00 -0.20124991689E+04  0.20124991689E+04  0.25500000920E-02 0.  1.
    10030    2    1    2    0    0  0.00000000000E+00  0.00000000000E+00 -0.12121395642E+04  0.28128587736E+04  0.25382852789E+04 0.  0.
        4    1    3    3  502    0 -0.51555827714E+03  0.55450181662E+03  0.52266221978E+03  0.92002717930E+03  0.12699999809E+01 0. -1.
       -4    1    3    3    0  502  0.51555827714E+03 -0.55450181662E+03 -0.17348017840E+04  0.18928315943E+04  0.12699999809E+01 0.  1.
</event>
<event>
 5   0  0.2081874E-05  0.2420120E+04  0.7818609E-02  0.8432009E-01
        1   -1    0    0  501    0  0.00000000000E+00  0.00000000000E+00  0.14059197800E+04  0.14059197800E+04  0.50400001928E-02 0.  1.
       -1   -1    0    0    0  501  0.00000000000E+00  0.00000000000E+00 -0.10414857447E+04  0.10414857447E+04  0.50400001928E-02 0. -1.
    10030    2    1    2    0    0  0.00000000000E+00  0.00000000000E+00  0.36443403531E+03  0.24474055247E+04  0.24201201698E+04 0.  0.
        1    1    3    3  502    0 -0.24550348633E+03 -0.15525370207E+03 -0.10057053219E+04  0.10468136741E+04  0.50400001928E-02 0. -1.
       -1    1    3    3    0  502  0.24550348633E+03  0.15525370207E+03  0.13701393572E+04  0.14005918506E+04  0.50400001928E-02 0.  1.
</event>
<event>
 5   0  0.5219468E-05  0.2428173E+04  0.7818609E-02  0.8429031E-01
        2   -1    0    0  501    0  0.00000000000E+00  0.00000000000E+00  0.13365390138E+04  0.13365390138E+04  0.25500000920E-02 0.  1.
       -2   -1    0    0    0  501  0.00000000000E+00  0.00000000000E+00 -0.11028532455E+04  0.11028532455E+04  0.25500000920E-02 0. -1.
    10030    2    1    2    0    0  0.00000000000E+00  0.00000000000E+00  0.23368576838E+03  0.24393922593E+04  0.24281732962E+04 0.  0.
        1    1    3    3  502    0  0.39758919236E+03  0.11445535145E+04  0.39503588246E+02  0.12122872791E+04  0.50400001928E-02 0. -1.
       -1    1    3    3    0  502 -0.39758919236E+03 -0.11445535145E+04  0.19418218014E+03  0.12271049802E+04  0.50400001928E-02 0.  1.
</event>
<event>
 5   0  0.1692125E-05  0.2465242E+04  0.7818609E-02  0.8415474E-01
       -3   -1    0    0    0  501  0.00000000000E+00  0.00000000000E+00  0.87113785209E+03  0.87113785794E+03  0.10100000352E+00 0.  1.
        3   -1    0    0  501    0  0.00000000000E+00  0.00000000000E+00 -0.17441035541E+04  0.17441035570E+04  0.10100000352E+00 0. -1.
    10030    2    1    2    0    0  0.00000000000E+00  0.00000000000E+00 -0.87296570199E+03  0.26152414149E+04  0.24652420858E+04 0.  0.
        2    1    3    3  502    0 -0.63480051344E+03  0.99978898857E+03 -0.79904526805E+03  0.14286437813E+04  0.25500000920E-02 0.  1.
       -2    1    3    3    0  502  0.63480051344E+03 -0.99978898857E+03 -0.73920433937E+02  0.11865976336E+04  0.25500000920E-02 0. -1.
</event>
<event>
 5   0  0.4959347E-05  0.2482129E+04  0.7818609E-02  0.8409380E-01
       -2   -1    0    0    0  501  0.00000000000E+00  0.00000000000E+00  0.15663213009E+04  0.15663213009E+04  0.25500000920E-02 0. -1.
        2   -1    0    0  501    0  0.00000000000E+00  0.00000000000E+00 -0.98334946757E+03  0.98334946757E+03  0.25500000920E-02 0.  1.
    10030    2    1    2    0    0  0.00000000000E+00  0.00000000000E+00  0.58297183333E+03  0.25496707685E+04  0.24821291000E+04 0.  0.
        3    1    3    3  502    0 -0.54898993230E+03  0.68168391028E+03  0.11952906845E+04  0.14814866621E+04  0.10100000352E+00 0. -1.
       -3    1    3    3    0  502  0.54898993230E+03 -0.68168391028E+03 -0.61231885121E+03  0.10681841064E+04  0.10100000352E+00 0.  1.
</event>
<event>
 5   0  0.2081874E-05  0.2473570E+04  0.7818609E-02  0.8412462E-01
       -1   -1    0    0    0  501  0.00000000000E+00  0.00000000000E+00  0.11545971813E+04  0.11545971813E+04  0.50400001928E-02 0.  1.
        1   -1    0    0  501    0  0.00000000000E+00  0.00000000000E+00 -0.13248236251E+04  0.13248236251E+04  0.50400001928E-02 0. -1.
    10030    2    1    2    0    0  0.00000000000E+00  0.00000000000E+00 -0.17022644377E+03  0.24794208064E+04  0.24735703938E+04 0.  0.
        1    1    3    3  502    0  0.75417590810E+03  0.97280946032E+03  0.35579523200E+02  0.12314241548E+04  0.50400001928E-02 0.  1.
       -1    1    3    3    0  502 -0.75417590810E+03 -0.97280946032E+03 -0.20580596697E+03  0.12479966516E+04  0.50400001928E-02 0. -1.
</event>
<event>
 5   0  0.1692125E-05  0.2492897E+04  0.7818609E-02  0.8405520E-01
        3   -1    0    0  501    0  0.00000000000E+00  0.00000000000E+00  0.14649675986E+04  0.14649676021E+04  0.10100000352E+00 0.  1.
       -3   -1    0    0    0  501  0.00000000000E+00  0.00000000000E+00 -0.10605241635E+04  0.10605241683E+04  0.10100000352E+00 0. -1.
    10030    2    1    2    0    0  0.00000000000E+00  0.00000000000E+00  0.40444343508E+03  0.25254917704E+04  0.24928967468E+04 0.  0.
        2    1    3    3  502    0  0.71027643847E+03  0.54613498170E+03 -0.67564021190E+03  0.11221611886E+04  0.25500000920E-02 0. -1.
       -2    1    3    3    0  502 -0.71027643847E+03 -0.54613498170E+03  0.10800836470E+04  0.14033305818E+04  0.25500000920E-02 0.  1.
</event>
<event>
 5   0  0.5024070E-05  0.2485865E+04  0.7818609E-02  0.8408038E-01
       -2   -1    0    0    0  501  0.00000000000E+00  0.00000000000E+00  0.93367801312E+03  0.93367801312E+03  0.25500000920E-02 0.  1.
        2   -1    0    0  501    0  0.00000000000E+00  0.00000000000E+00 -0.16546190089E+04  0.16546190089E+04  0.25500000920E-02 0. -1.
    10030    2    1    2    0    0  0.00000000000E+00  0.00000000000E+00 -0.72094099581E+03  0.25882970221E+04  0.24858651522E+04 0.  0.
        5    1    3    3  502    0 -0.71622739305E+03 -0.88314914657E+03 -0.88307404941E+03  0.14397138467E+04  0.46999998093E+01 0. -1.
       -5    1    3    3    0  502  0.71622739305E+03  0.88314914657E+03  0.16213305360E+03  0.11485831754E+04  0.46999998093E+01 0.  1.
</event>
<event>
 5   0  0.2081874E-05  0.2587996E+04  0.7818609E-02  0.8372290E-01
        1   -1    0    0  501    0  0.00000000000E+00  0.00000000000E+00  0.13574746139E+04  0.13574746139E+04  0.50400001928E-02 0.  1.
       -1   -1    0    0    0  501  0.00000000000E+00  0.00000000000E+00 -0.12334896907E+04  0.12334896907E+04  0.50400001928E-02 0. -1.
    10030    2    1    2    0    0  0.00000000000E+00  0.00000000000E+00  0.12398492324E+03  0.25909643046E+04  0.25879960909E+04 0.  0.
        1    1    3    3  502    0 -0.43157630889E+03  0.95413041535E+03 -0.69901616910E+03  0.12590657507E+04  0.50400001928E-02 0. -1.
       -1    1    3    3    0  502  0.43157630889E+03 -0.95413041535E+03  0.82300109234E+03  0.13318985539E+04  0.50400001928E-02 0.  1.
</event>
<event>
 5   0  0.2066170E-05  0.2498176E+04  0.7818609E-02  0.8403636E-01
        1   -1    0    0  501    0  0.00000000000E+00  0.00000000000E+00  0.31110539610E+04  0.31110539610E+04  0.50400001928E-02 0. -1.
       -1   -1    0    0    0  501  0.00000000000E+00  0.00000000000E+00 -0.50150878933E+03  0.50150878936E+03  0.50400001928E-02 0.  1.
    10030    2    1    2    0    0  0.00000000000E+00  0.00000000000E+00  0.26095451717E+04  0.36125627504E+04  0.24981760591E+04 0.  0.
        5    1    3    3  502    0 -0.10130825355E+04  0.28876642587E+03  0.22753461282E+04  0.25073779862E+04  0.46999998093E+01 0. -1.
       -5    1    3    3    0  502  0.10130825355E+04 -0.28876642587E+03  0.33419904347E+03  0.11051847642E+04  0.46999998093E+01 0.  1.
</event>
<event>
 5   0  0.2063930E-05  0.2478347E+04  0.7818609E-02  0.8410740E-01
        1   -1    0    0  501    0  0.00000000000E+00  0.00000000000E+00  0.13678594185E+04  0.13678594185E+04  0.50400001928E-02 0. -1.
       -1   -1    0    0    0  501  0.00000000000E+00  0.00000000000E+00 -0.11225942041E+04  0.11225942041E+04  0.50400001928E-02 0.  1.
    10030    2    1    2    0    0  0.00000000000E+00  0.00000000000E+00  0.24526521435E+03  0.24904536226E+04  0.24783470744E+04 0.  0.
        3    1    3    3  502    0 -0.30590800683E+03 -0.83455886490E+02 -0.10811366822E+04  0.11266770298E+04  0.10100000352E+00 0.  1.
       -3    1    3    3    0  502  0.30590800683E+03  0.83455886490E+02  0.13264018966E+04  0.13637765928E+04  0.10100000352E+00 0. -1.
</event>
<event>
 5   0  0.4959042E-05  0.2463587E+04  0.7818609E-02  0.8416074E-01
       -2   -1    0    0    0  501  0.00000000000E+00  0.00000000000E+00  0.85577117421E+03  0.85577117422E+03  0.25500000920E-02 0. -1.
        2   -1    0    0  501    0  0.00000000000E+00  0.00000000000E+00 -0.17730378681E+04  0.17730378681E+04  0.25500000920E-02 0.  1.
    10030    2    1    2    0    0  0.00000000000E+00  0.00000000000E+00 -0.91726669386E+03  0.26288090423E+04  0.24635865711E+04 0.  0.
        4    1    3    3  502    0 -0.55457927016E+03 -0.91984908348E+03 -0.11020949058E+04  0.15389266706E+04  0.12699999809E+01 0.  1.
       -4    1    3    3    0  502  0.55457927016E+03  0.91984908348E+03  0.18482821193E+03  0.10898823717E+04  0.12699999809E+01 0. -1.
</event>
<event>
 5   0  0.2036578E-05  0.2502934E+04  0.7818609E-02  0.8401941E-01
        1   -1    0    0  501    0  0.00000000000E+00  0.00000000000E+00  0.10268949230E+04  0.10268949230E+04  0.50400001928E-02 0.  1.
       -1   -1    0    0    0  501  0.00000000000E+00  0.00000000000E+00 -0.15251512907E+04  0.15251512907E+04  0.50400001928E-02 0. -1.
    10030    2    1    2    0    0  0.00000000000E+00  0.00000000000E+00 -0.49825636771E+03  0.25520462138E+04  0.25029343717E+04 0.  0.
        2    1    3    3  502    0  0.46142934633E+01  0.80563763423E+03  0.72731430242E+03  0.10853844406E+04  0.25500000920E-02 0.  1.
       -2    1    3    3    0  502 -0.46142934633E+01 -0.80563763423E+03 -0.12255706701E+04  0.14666617732E+04  0.25500000920E-02 0. -1.
</event>
<event>
 5   0  0.1692125E-05  0.2031588E+04  0.7818609E-02  0.8591993E-01
        3   -1    0    0  501    0  0.00000000000E+00  0.00000000000E+00  0.13087784332E+04  0.13087784371E+04  0.10100000352E+00 0.  1.
       -3   -1    0    0    0  501  0.00000000000E+00  0.00000000000E+00 -0.78839758937E+03  0.78839759584E+03  0.10100000352E+00 0. -1.
    10030    2    1    2    0    0  0.00000000000E+00  0.00000000000E+00  0.52038084384E+03  0.20971760329E+04  0.20315883172E+04 0.  0.
        5    1    3    3  502    0 -0.31495621729E+03 -0.32381161166E+03 -0.67899755920E+03  0.81554347159E+03  0.46999998093E+01 0. -1.
       -5    1    3    3    0  502  0.31495621729E+03  0.32381161166E+03  0.11993784030E+04  0.12816325614E+04  0.46999998093E+01 0.  1.
</event>
<event>
 5   0  0.5219468E-05  0.2439493E+04  0.7818609E-02  0.8424864E-01
        2   -1    0    0  501    0  0.00000000000E+00  0.00000000000E+00  0.20030316969E+04  0.20030316969E+04  0.25500000920E-02 0. -1.
       -2   -1    0    0    0  501  0.00000000000E+00  0.00000000000E+00 -0.74276492905E+03  0.74276492905E+03  0.25500000920E-02 0.  1.
    10030    2    1    2    0    0  0.00000000000E+00  0.00000000000E+00  0.12602667678E+04  0.27457966259E+04  0.24394931410E+04 0.  0.
        1    1    3    3  502    0  0.71129997945E+03 -0.72390162656E+03  0.13916982199E+04  0.17224416277E+04  0.50400001928E-02 0. -1.
       -1    1    3    3    0  502 -0.71129997945E+03  0.72390162656E+03 -0.13143145206E+03  0.10233549982E+04  0.50400001928E-02 0.  1.
</event>
<event>
 5   0  0.4959042E-05  0.2524218E+04  0.7818609E-02  0.8394408E-01
        2   -1    0    0  501    0  0.00000000000E+00  0.00000000000E+00  0.14707842208E+04  0.14707842208E+04  0.25500000920E-02 0. -1.
       -2   -1    0    0    0  501  0.00000000000E+00  0.00000000000E+00 -0.10830403523E+04  0.10830403523E+04  0.25500000920E-02 0.  1.
    10030    2    1    2    0    0  0.00000000000E+00  0.00000000000E+00  0.38774386856E+03  0.25538245731E+04  0.25242176298E+04 0.  0.
        4    1    3    3  502    0  0.39289756106E+02 -0.60144137225E+03  0.13157703799E+04  0.14472486707E+04  0.12699999809E+01 0. -1.
       -4    1    3    3    0  502 -0.39289756106E+02  0.60144137225E+03 -0.92802651134E+03  0.11065759024E+04  0.12699999809E+01 0.  1.
</event>
<event>
 5   0  0.4959042E-05  0.2550870E+04  0.7818609E-02  0.8385084E-01
       -2   -1    0    0    0  501  0.00000000000E+00  0.00000000000E+00  0.15117859110E+04  0.15117859110E+04  0.25500000920E-02 0. -1.
        2   -1    0    0  501    0  0.00000000000E+00  0.00000000000E+00 -0.10760351620E+04  0.10760351620E+04  0.25500000920E-02 0.  1.
    10030    2    1    2    0    0  0.00000000000E+00  0.00000000000E+00  0.43575074898E+03  0.25878210729E+04  0.25508702810E+04 0.  0.
        4    1    3    3  502    0 -0.28825465239E+03  0.12396298304E+04  0.30251243869E+03  0.13081621648E+04  0.12699999809E+01 0. -1.
       -4    1    3    3    0  502  0.28825465239E+03 -0.12396298304E+04  0.13323831029E+03  0.12796589081E+04  0.12699999809E+01 0.  1.
</event>
<event>
 5   0  0.4995256E-05  0.2502647E+04  0.7818609E-02  0.8402043E-01
       -2   -1    0    0    0  501  0.00000000000E+00  0.00000000000E+00  0.11375144544E+04  0.11375144544E+04  0.25500000920E-02 0.  1.
        2   -1    0    0  501    0  0.00000000000E+00  0.00000000000E+00 -0.13765192274E+04  0.13765192274E+04  0.25500000920E-02 0. -1.
    10030    2    1    2    0    0  0.00000000000E+00  0.00000000000E+00 -0.23900477302E+03  0.25140336818E+04  0.25026470130E+04 0.  0.
        2    1    3    3  502    0 -0.12150236366E+04  0.33313655810E+02 -0.41820740989E+03  0.12854142036E+04  0.25500000920E-02 0. -1.
       -2    1    3    3    0  502  0.12150236366E+04 -0.33313655810E+02  0.17920263687E+03  0.12286194782E+04  0.25500000920E-02 0.  1.
</event>
<event>
 5   0  0.4959347E-05  0.2447567E+04  0.7818609E-02  0.8421907E-01
       -2   -1    0    0    0  501  0.00000000000E+00  0.00000000000E+00  0.46771399408E+03  0.46771399409E+03  0.25500000920E-02 0. -1.
        2   -1    0    0  501    0  0.00000000000E+00  0.00000000000E+00 -0.32020545998E+04  0.32020545998E+04  0.25500000920E-02 0.  1.
    10030    2    1    2    0    0  0.00000000000E+00  0.00000000000E+00 -0.27343406057E+04  0.36697685939E+04  0.24475667477E+04 0.  0.
        3    1    3    3  502    0 -0.10385455715E+04 -0.20360070264E+02 -0.23373047221E+04  0.25577304023E+04  0.10100000352E+00 0.  1.
       -3    1    3    3    0  502  0.10385455715E+04  0.20360070264E+02 -0.39703588362E+03  0.11120381916E+04  0.10100000352E+00 0. -1.
</event>
<event>
 5   0  0.2063930E-05  0.2399839E+04  0.7818609E-02  0.8439564E-01
        1   -1    0    0  501    0  0.00000000000E+00  0.00000000000E+00  0.11615111543E+04  0.11615111543E+04  0.50400001928E-02 0. -1.
       -1   -1    0    0    0  501  0.00000000000E+00  0.00000000000E+00 -0.12395981085E+04  0.12395981085E+04  0.50400001928E-02 0.  1.
    10030    2    1    2    0    0  0.00000000000E+00  0.00000000000E+00 -0.78086954210E+02  0.24011092629E+04  0.23998391863E+04 0.  0.
        3    1    3    3  502    0 -0.19202280034E+03 -0.11230633420E+04 -0.41562411818E+03  0.12128014857E+04  0.10100000352E+00 0.  1.
       -3    1    3    3    0  502  0.19202280034E+03  0.11230633420E+04  0.33753716397E+03  0.11883077772E+04  0.10100000352E+00 0. -1.
</event>
<event>
 5   0  0.2041718E-05  0.2035360E+04  0.7818609E-02  0.8590265E-01
        1   -1    0    0  501    0  0.00000000000E+00  0.00000000000E+00  0.11421459116E+04  0.11421459116E+04  0.50400001928E-02 0. -1.
       -1   -1    0    0    0  501  0.00000000000E+00  0.00000000000E+00 -0.90677799105E+03  0.90677799107E+03  0.50400001928E-02 0.  1.
    10030    2    1    2    0    0  0.00000000000E+00  0.00000000000E+00  0.23536792055E+03  0.20489239027E+04  0.20353601895E+04 0.  0.
        4    1    3    3  502    0  0.89540531196E+03  0.11897135828E+03  0.58960040022E+03  0.10786728427E+04  0.12699999809E+01 0. -1.
       -4    1    3    3    0  502 -0.89540531196E+03 -0.11897135828E+03 -0.35423247968E+03  0.97025105995E+03  0.12699999809E+01 0.  1.
</event>
<event>
 5   0  0.4959347E-05  0.2555983E+04  0.7818609E-02  0.8383308E-01
       -2   -1    0    0    0  501  0.00000000000E+00  0.00000000000E+00  0.10320055015E+04  0.10320055015E+04  0.25500000920E-02 0.  1.
        2   -1    0    0  501    0  0.00000000000E+00  0.00000000000E+00 -0.15826100726E+04  0.15826100726E+04  0.25500000920E-02 0. -1.
    10030    2    1    2    0    0  0.00000000000E+00  0.00000000000E+00 -0.55060457118E+03  0.26146155741E+04  0.25559830216E+04 0.  0.
        3    1    3    3  502    0  0.65505964845E+03 -0.76321525702E+03 -0.10818441354E+04  0.14771551764E+04  0.10100000352E+00 0. -1.
       -3    1    3    3    0  502 -0.65505964845E+03  0.76321525702E+03  0.53123956423E+03  0.11374603977E+04  0.10100000352E+00 0.  1.
</event>
<event>
 5   0  0.4995256E-05  0.1830395E+04  0.7818609E-02  0.8690301E-01
       -2   -1    0    0    0  501  0.00000000000E+00  0.00000000000E+00  0.11835605556E+04  0.11835605556E+04  0.25500000920E-02 0.  1.
        2   -1    0    0  501    0  0.00000000000E+00  0.00000000000E+00 -0.70768367923E+03  0.70768367924E+03  0.25500000920E-02 0. -1.
    10030    2    1    2    0    0  0.00000000000E+00  0.00000000000E+00  0.47587687635E+03  0.18912442348E+04  0.18303950268E+04 0.  0.
        2    1    3    3  502    0 -0.74375317709E+03 -0.14760382126E+02 -0.31288789959E+03  0.80702261123E+03  0.25500000920E-02 0. -1.
       -2    1    3    3    0  502  0.74375317709E+03  0.14760382126E+02  0.78876477593E+03  0.10842216236E+04  0.25500000920E-02 0.  1.
</event>
<event>
 5   0  0.2081874E-05  0.2507131E+04  0.7818609E-02  0.8400449E-01
       -1   -1    0    0    0  501  0.00000000000E+00  0.00000000000E+00  0.98451399484E+03  0.98451399485E+03  0.50400001928E-02 0. -1.
        1   -1    0    0  501    0  0.00000000000E+00  0.00000000000E+00 -0.15961445358E+04  0.15961445358E+04  0.50400001928E-02 0.  1.
    10030    2    1    2    0    0  0.00000000000E+00  0.00000000000E+00 -0.61163054098E+03  0.25806585307E+04  0.25071311360E+04 0.  0.
        1    1    3    3  502    0  0.74567547834E+03  0.22123323339E+03 -0.13177285985E+04  0.15301583977E+04  0.50400001928E-02 0.  1.
       -1    1    3    3    0  502 -0.74567547834E+03 -0.22123323339E+03  0.70609805755E+03  0.10505001330E+04  0.50400001928E-02 0. -1.
</event>
<event>
 5   0  0.5219468E-05  0.2450112E+04  0.7818609E-02  0.8420977E-01
        2   -1    0    0  501    0  0.00000000000E+00  0.00000000000E+00  0.26021844601E+04  0.26021844601E+04  0.25500000920E-02 0.  1.
       -2   -1    0    0    0  501  0.00000000000E+00  0.00000000000E+00 -0.57673172831E+03  0.57673172831E+03  0.25500000920E-02 0. -1.
    10030    2    1    2    0    0  0.00000000000E+00  0.00000000000E+00  0.20254527318E+04  0.31789161885E+04  0.24501121126E+04 0.  0.
        1    1    3    3  502    0  0.47292899226E+03 -0.99945832255E+03  0.32840695445E+03  0.11534426288E+04  0.50400001928E-02 0. -1.
       -1    1    3    3    0  502 -0.47292899226E+03  0.99945832255E+03  0.16970457774E+04  0.20254735596E+04  0.50400001928E-02 0.  1.
</event>
<event>
 5   0  0.2036578E-05  0.2488689E+04  0.7818609E-02  0.8407026E-01
       -1   -1    0    0    0  501  0.00000000000E+00  0.00000000000E+00  0.51935594350E+03  0.51935594352E+03  0.50400001928E-02 0.  1.
        1   -1    0    0  501    0  0.00000000000E+00  0.00000000000E+00 -0.29813712992E+04  0.29813712992E+04  0.50400001928E-02 0. -1.
    10030    2    1    2    0    0  0.00000000000E+00  0.00000000000E+00 -0.24620153557E+04  0.35007272428E+04  0.24886887343E+04 0.  0.
        2    1    3    3  502    0 -0.16072779018E+03  0.31342786607E+03  0.44776484716E+03  0.56970501852E+03  0.25500000920E-02 0.  1.
       -2    1    3    3    0  502  0.16072779018E+03 -0.31342786607E+03 -0.29097802029E+04  0.29310222242E+04  0.25500000920E-02 0. -1.
</event>
<event>
 5   0  0.5024070E-05  0.2485715E+04  0.7818609E-02  0.8408092E-01
       -2   -1    0    0    0  501  0.00000000000E+00  0.00000000000E+00  0.64293926560E+03  0.64293926561E+03  0.25500000920E-02 0. -1.
        2   -1    0    0  501    0  0.00000000000E+00  0.00000000000E+00 -0.24025524106E+04  0.24025524106E+04  0.25500000920E-02 0.  1.
    10030    2    1    2    0    0  0.00000000000E+00  0.00000000000E+00 -0.17596131450E+04  0.30454916762E+04  0.24857154161E+04 0.  0.
        5    1    3    3  502    0  0.11816605300E+03 -0.80059201737E+02  0.63285337323E+03  0.64876665595E+03  0.46999998093E+01 0. -1.
       -5    1    3    3    0  502 -0.11816605300E+03  0.80059201737E+02 -0.23924665182E+04  0.23967250203E+04  0.46999998093E+01 0.  1.
</event>
<event>
 5   0  0.2036578E-05  0.2608273E+04  0.7818609E-02  0.8365396E-01
        1   -1    0    0  501    0  0.00000000000E+00  0.00000000000E+00  0.11791583298E+04  0.11791583298E+04  0.50400001928E-02 0. -1.
       -1   -1    0    0    0  501  0.00000000000E+00  0.00000000000E+00 -0.14423614532E+04  0.14423614532E+04  0.50400001928E-02 0.  1.
    10030    2    1    2    0    0  0.00000000000E+00  0.00000000000E+00 -0.26320312346E+03  0.26215197830E+04  0.26082733922E+04 0.  0.
        2    1    3    3  502    0 -0.53975026048E+03  0.10364139151E+04 -0.71358319154E+03  0.13691914104E+04  0.25500000920E-02 0.  1.
       -2    1    3    3    0  502  0.53975026048E+03 -0.10364139151E+04  0.45038006808E+03  0.12523283726E+04  0.25500000920E-02 0. -1.
</event>
<event>
 5   0  0.2063930E-05  0.3368992E+04  0.7818609E-02  0.8145559E-01
       -1   -1    0    0    0  501  0.00000000000E+00  0.00000000000E+00  0.18508300484E+04  0.18508300484E+04  0.50400001928E-02 0.  1.
        1   -1    0    0  501    0  0.00000000000E+00  0.00000000000E+00 -0.15331105406E+04  0.15331105406E+04  0.50400001928E-02 0. -1.
    10030    2    1    2    0    0  0.00000000000E+00  0.00000000000E+00  0.31771950780E+03  0.33839405891E+04  0.33689921675E+04 0.  0.
        3    1    3    3  502    0  0.67742310038E+03  0.15125458606E+04  0.46157716883E+03  0.17203925512E+04  0.10100000352E+00 0. -1.
       -3    1    3    3    0  502 -0.67742310038E+03 -0.15125458606E+04 -0.14385766104E+03  0.16635480378E+04  0.10100000352E+00 0.  1.
</event>
<event>
 5   0  0.2066170E-05  0.2485272E+04  0.7818609E-02  0.8408251E-01
       -1   -1    0    0    0  501  0.00000000000E+00  0.00000000000E+00  0.15035963498E+04  0.15035963498E+04  0.50400001928E-02 0. -1.
        1   -1    0    0  501    0  0.00000000000E+00  0.00000000000E+00 -0.10269675363E+04  0.10269675363E+04  0.50400001928E-02 0.  1.
    10030    2    1    2    0    0  0.00000000000E+00  0.00000000000E+00  0.47662881347E+03  0.25305638861E+04  0.24852723304E+04 0.  0.
        5    1    3    3  502    0 -0.46777692821E+03 -0.11405444729E+04  0.39757974007E+03  0.12952793864E+04  0.46999998093E+01 0. -1.
       -5    1    3    3    0  502  0.46777692821E+03  0.11405444729E+04  0.79049073400E+02  0.12352844997E+04  0.46999998093E+01 0.  1.
</event>
<event>
 5   0  0.5219468E-05  0.2524570E+04  0.7818609E-02  0.8394284E-01
       -2   -1    0    0    0  501  0.00000000000E+00  0.00000000000E+00  0.10031831673E+04  0.10031831673E+04  0.25500000920E-02 0.  1.
        2   -1    0    0  501    0  0.00000000000E+00  0.00000000000E+00 -0.15883077622E+04  0.15883077622E+04  0.25500000920E-02 0. -1.
    10030    2    1    2    0    0  0.00000000000E+00  0.00000000000E+00 -0.58512459486E+03  0.25914909295E+04  0.25245701508E+04 0.  0.
        1    1    3    3  502    0 -0.92626950170E+03 -0.71976510721E+03  0.18597820924E+03  0.11876973073E+04  0.50400001928E-02 0.  1.
       -1    1    3    3    0  502  0.92626950170E+03  0.71976510721E+03 -0.77110280410E+03  0.14037936222E+04  0.50400001928E-02 0. -1.
</event>
<event>
 5   0  0.2063930E-05  0.2529047E+04  0.7818609E-02  0.8392710E-01
        1   -1    0    0  501    0  0.00000000000E+00  0.00000000000E+00  0.32343028572E+04  0.32343028572E+04  0.50400001928E-02 0. -1.
       -1   -1    0    0    0  501  0.00000000000E+00  0.00000000000E+00 -0.49439410144E+03  0.49439410147E+03  0.50400001928E-02 0.  1.
    10030    2    1    2    0    0  0.00000000000E+00  0.00000000000E+00  0.27399087557E+04  0.37286969586E+04  0.25290474530E+04 0.  0.
        3    1    3    3  502    0 -0.85757185501E+03 -0.91559445432E+03  0.16043597868E+04  0.20365934859E+04  0.10100000352E+00 0. -1.
       -3    1    3    3    0  502  0.85757185501E+03  0.91559445432E+03  0.11355489690E+04  0.16921034727E+04  0.10100000352E+00 0.  1.
</event>
<event>
 5   0  0.4995256E-05  0.2493882E+04  0.7818609E-02  0.8405168E-01
       -2   -1    0    0    0  501  0.00000000000E+00  0.00000000000E+00  0.10018104160E+04  0.10018104160E+04  0.25500000920E-02 0.  1.
        2   -1    0    0  501    0  0.00000000000E+00  0.00000000000E+00 -0.15520525202E+04  0.15520525202E+04  0.25500000920E-02 0. -1.
    10030    2    1    2    0    0  0.00000000000E+00  0.00000000000E+00 -0.55024210416E+03  0.25538629362E+04  0.24938824198E+04 0.  0.
        2    1    3    3  502    0 -0.17463831712E+03 -0.81309339541E+03  0.67633369344E+03  0.10719359479E+04  0.25500000920E-02 0.  1.
       -2    1    3    3    0  502  0.17463831712E+03  0.81309339541E+03 -0.12265757976E+04  0.14819269883E+04  0.25500000920E-02 0. -1.
</event>
<event>
 5   0  0.2041718E-05  0.2441144E+04  0.7818609E-02  0.8424259E-01
       -1   -1    0    0    0  501  0.00000000000E+00  0.00000000000E+00  0.11937471437E+04  0.11937471437E+04  0.50400001928E-02 0.  1.
        1   -1    0    0  501    0  0.00000000000E+00  0.00000000000E+00 -0.12479996378E+04  0.12479996378E+04  0.50400001928E-02 0. -1.
    10030    2    1    2    0    0  0.00000000000E+00  0.00000000000E+00 -0.54252494155E+02  0.24417467815E+04  0.24411439966E+04 0.  0.
        4    1    3    3  502    0 -0.85834061966E+03  0.18316010973E+03 -0.87556806371E+03  0.12397246840E+04  0.12699999809E+01 0. -1.
       -4    1    3    3    0  502  0.85834061966E+03 -0.18316010973E+03  0.82131556955E+03  0.12020220975E+04  0.12699999809E+01 0.  1.
</event>
<event>
 5   0  0.2066170E-05  0.2532931E+04  0.7818609E-02  0.8391347E-01
       -1   -1    0    0    0  501  0.00000000000E+00  0.00000000000E+00  0.21504030362E+04  0.21504030362E+04  0.50400001928E-02 0. -1.
        1   -1    0    0  501    0  0.00000000000E+00  0.00000000000E+00 -0.74587667036E+03  0.74587667038E+03  0.50400001928E-02 0.  1.
    10030    2    1    2    0    0  0.00000000000E+00  0.00000000000E+00  0.14045263658E+04  0.28962797066E+04  0.25329314689E+04 0.  0.
        5    1    3    3  502    0 -0.62011151567E+03  0.44089673207E+03  0.18599093749E+04  0.20095305903E+04  0.46999998093E+01 0. -1.
       -5    1    3    3    0  502  0.62011151567E+03 -0.44089673207E+03 -0.45538300914E+03  0.88674911629E+03  0.46999998093E+01 0.  1.
</event>
<event>
 5   0  0.5024070E-05  0.2494178E+04  0.7818609E-02  0.8405063E-01
       -2   -1    0    0    0  501  0.00000000000E+00  0.00000000000E+00  0.19119328828E+04  0.19119328828E+04  0.25500000920E-02 0.  1.
        2   -1    0    0  501    0  0.00000000000E+00  0.00000000000E+00 -0.81343382591E+03  0.81343382591E+03  0.25500000920E-02 0. -1.
    10030    2    1    2    0    0  0.00000000000E+00  0.00000000000E+00  0.10984990569E+04  0.27253667087E+04  0.24941779245E+04 0.  0.
        5    1    3    3  502    0  0.40170762351E+03  0.43590616466E+03  0.17481394273E+04  0.18459135263E+04  0.46999998093E+01 0.  1.
       -5    1    3    3    0  502 -0.40170762351E+03 -0.43590616466E+03 -0.64964037044E+03  0.87945318242E+03  0.46999998093E+01 0. -1.
</event>
<event>
 5   0  0.2066170E-05  0.2471927E+04  0.7818609E-02  0.8413055E-01
        1   -1    0    0  501    0  0.00000000000E+00  0.00000000000E+00  0.10288859229E+04  0.10288859229E+04  0.50400001928E-02 0.  1.
       -1   -1    0    0    0  501  0.00000000000E+00  0.00000000000E+00 -0.14847186921E+04  0.14847186921E+04  0.50400001928E-02 0. -1.
    10030    2    1    2    0    0  0.00000000000E+00  0.00000000000E+00 -0.45583276923E+03  0.25136046150E+04  0.24719273143E+04 0.  0.
        5    1    3    3  502    0  0.23603064802E+03  0.85632596564E+03 -0.11018126377E+04  0.14152801153E+04  0.46999998093E+01 0. -1.
       -5    1    3    3    0  502 -0.23603064802E+03 -0.85632596564E+03  0.64597986842E+03  0.10983244997E+04  0.46999998093E+01 0.  1.
</event>
<event>
 5   0  0.2036578E-05  0.2500914E+04  0.7818609E-02  0.8402660E-01
       -1   -1    0    0    0  501  0.00000000000E+00  0.00000000000E+00  0.78814105645E+03  0.78814105647E+03  0.50400001928E-02 0.  1.
        1   -1    0    0  501    0  0.00000000000E+00  0.00000000000E+00 -0.19839626143E+04  0.19839626143E+04  0.50400001928E-02 0. -1.
    10030    2    1    2    0    0  0.00000000000E+00  0.00000000000E+00 -0.11958215579E+04  0.27721036708E+04  0.25009137457E+04 0.  0.
        2    1    3    3  502    0  0.47248999875E+02  0.10419909645E+03  0.78232724685E+03  0.79064899978E+03  0.25500000920E-02 0.  1.
       -2    1    3    3    0  502 -0.47248999875E+02 -0.10419909645E+03 -0.19781488047E+04  0.19814546710E+04  0.25500000920E-02 0. -1.
</event>
<event>
 5   0  0.5219468E-05  0.2545006E+04  0.7818609E-02  0.8387125E-01
        2   -1    0    0  501    0  0.00000000000E+00  0.00000000000E+00  0.16026717249E+04  0.16026717250E+04  0.25500000920E-02 0. -1.
       -2   -1    0    0    0  501  0.00000000000E+00  0.00000000000E+00 -0.10103529908E+04  0.10103529908E+04  0.25500000920E-02 0.  1.
    10030    2    1    2    0    0  0.00000000000E+00  0.00000000000E+00  0.59231873415E+03  0.26130247157E+04  0.25450062244E+04 0.  0.
        1    1    3    3  502    0  0.89377928154E+03 -0.42798153217E+03  0.11157767293E+04  0.14923026857E+04  0.50400001928E-02 0. -1.
       -1    1    3    3    0  502 -0.89377928154E+03  0.42798153217E+03 -0.52345799515E+03  0.11207220301E+04  0.50400001928E-02 0.  1.
</event>
<event>
 5   0  0.2041718E-05  0.2494816E+04  0.7818609E-02  0.8404835E-01
       -1   -1    0    0    0  501  0.00000000000E+00  0.00000000000E+00  0.91734715743E+03  0.91734715744E+03  0.50400001928E-02 0. -1.
        1   -1    0    0  501    0  0.00000000000E+00  0.00000000000E+00 -0.16962241688E+04  0.16962241688E+04  0.50400001928E-02 0.  1.
    10030    2    1    2    0    0  0.00000000000E+00  0.00000000000E+00 -0.77887701139E+03  0.26135713263E+04  0.24948157604E+04 0.  0.
        4    1    3    3  502    0 -0.14676341018E+03 -0.12385460203E+04 -0.41260597622E+03  0.13136898597E+04  0.12699999809E+01 0.  1.
       -4    1    3    3    0  502  0.14676341018E+03  0.12385460203E+04 -0.36627103517E+03  0.12998814666E+04  0.12699999809E+01 0. -1.
</event>
<event>
 5   0  0.5219468E-05  0.2468995E+04  0.7818609E-02  0.8414115E-01
        2   -1    0    0  501    0  0.00000000000E+00  0.00000000000E+00  0.19172118178E+04  0.19172118178E+04  0.25500000920E-02 0.  1.
       -2   -1    0    0    0  501  0.00000000000E+00  0.00000000000E+00 -0.79489586190E+03  0.79489586191E+03  0.25500000920E-02 0. -1.
    10030    2    1    2    0    0  0.00000000000E+00  0.00000000000E+00  0.11223159559E+04  0.27121076797E+04  0.24689947269E+04 0.  0.
        1    1    3    3  502    0 -0.66029236590E+03 -0.39080469390E+03  0.16234774306E+04  0.17956595682E+04  0.50400001928E-02 0.  1.
       -1    1    3    3    0  502  0.66029236590E+03  0.39080469390E+03 -0.50116147472E+03  0.91644811147E+03  0.50400001928E-02 0. -1.
</event>
<event>
 5   0  0.5219468E-05  0.2448147E+04  0.7818609E-02  0.8421695E-01
        2   -1    0    0  501    0  0.00000000000E+00  0.00000000000E+00  0.26386505589E+04  0.26386505589E+04  0.25500000920E-02 0. -1.
       -2   -1    0    0    0  501  0.00000000000E+00  0.00000000000E+00 -0.56784933152E+03  0.56784933152E+03  0.25500000920E-02 0.  1.
    10030    2    1    2    0    0  0.00000000000E+00  0.00000000000E+00  0.20708012273E+04  0.32064998904E+04  0.24481470184E+04 0.  0.
        1    1    3    3  502    0 -0.64412893847E+03 -0.10394987582E+04  0.96491379894E+03  0.15577286018E+04  0.50400001928E-02 0. -1.
       -1    1    3    3    0  502  0.64412893847E+03  0.10394987582E+04  0.11058874284E+04  0.16487712885E+04  0.50400001928E-02 0.  1.
</event>
<event>
 5   0  0.2041718E-05  0.2463915E+04  0.7818609E-02  0.8415955E-01
        1   -1    0    0  501    0  0.00000000000E+00  0.00000000000E+00  0.12280750607E+04  0.12280750607E+04  0.50400001928E-02 0. -1.
       -1   -1    0    0    0  501  0.00000000000E+00  0.00000000000E+00 -0.12358520634E+04  0.12358520635E+04  0.50400001928E-02 0.  1.
    10030    2    1    2    0    0  0.00000000000E+00  0.00000000000E+00 -0.77770027898E+01  0.24639271241E+04  0.24639148506E+04 0.  0.
        4    1    3    3  502    0 -0.32489110429E+02  0.40590108836E+03  0.11588323239E+04  0.12282936146E+04  0.12699999809E+01 0. -1.
       -4    1    3    3    0  502  0.32489110429E+02 -0.40590108836E+03 -0.11666093267E+04  0.12356335095E+04  0.12699999809E+01 0.  1.
</event>
<event>
 5   0  0.2063930E-05  0.2455416E+04  0.7818609E-02  0.8419043E-01
       -1   -1    0    0    0  501  0.00000000000E+00  0.00000000000E+00  0.11330587558E+04  0.11330587558E+04  0.50400001928E-02 0.  1.
        1   -1    0    0  501    0  0.00000000000E+00  0.00000000000E+00 -0.13302639448E+04  0.13302639448E+04  0.50400001928E-02 0. -1.
    10030    2    1    2    0    0  0.00000000000E+00  0.00000000000E+00 -0.19720518900E+03  0.24633227006E+04  0.24554162256E+04 0.  0.
        3    1    3    3  502    0 -0.28459207452E+03  0.79788876578E+03 -0.99008541093E+03  0.13030304151E+04  0.10100000352E+00 0. -1.
       -3    1    3    3    0  502  0.28459207452E+03 -0.79788876578E+03  0.79288022194E+03  0.11602922856E+04  0.10100000352E+00 0.  1.
</event>
<event>
 5   0  0.4959042E-05  0.2711060E+04  0.7818609E-02  0.8331425E-01
       -2   -1    0    0    0  501  0.00000000000E+00  0.00000000000E+00  0.99781111870E+03  0.99781111870E+03  0.25500000920E-02 0. -1.
        2   -1    0    0  501    0  0.00000000000E+00  0.00000000000E+00 -0.18414930152E+04  0.18414930152E+04  0.25500000920E-02 0.  1.
    10030    2    1    2    0    0  0.00000000000E+00  0.00000000000E+00 -0.84368189648E+03  0.28393041339E+04  0.27110604608E+04 0.  0.
        4    1    3    3  502    0 -0.92479542401E+03 -0.41291800256E+03  0.52172854831E+03  0.11392761492E+04  0.12699999809E+01 0. -1.
       -4    1    3    3    0  502  0.92479542401E+03  0.41291800256E+03 -0.13654104448E+04  0.17000279847E+04  0.12699999809E+01 0.  1.
</event>
<event>
 5   0  0.2041718E-05  0.2528638E+04  0.7818609E-02  0.8392854E-01
        1   -1    0    0  501    0  0.00000000000E+00  0.00000000000E+00  0.99434518835E+03  0.99434518836E+03  0.50400001928E-02 0. -1.
       -1   -1    0    0    0  501  0.00000000000E+00  0.00000000000E+00 -0.16075930664E+04  0.16075930664E+04  0.50400001928E-02 0.  1.
    10030    2    1    2    0    0  0.00000000000E+00  0.00000000000E+00 -0.61324787802E+03  0.26019382547E+04  0.25286379182E+04 0.  0.
        4    1    3    3  502    0  0.10172886156E+04  0.75067579708E+03 -0.31744240655E+03  0.13035189197E+04  0.12699999809E+01 0. -1.
       -4    1    3    3    0  502 -0.10172886156E+04 -0.75067579708E+03 -0.29580547146E+03  0.12984193350E+04  0.12699999809E+01 0.  1.
</event>
<event>
 5   0  0.2081874E-05  0.2481844E+04  0.7818609E-02  0.8409482E-01
        1   -1    0    0  501    0  0.00000000000E+00  0.00000000000E+00  0.20068202138E+04  0.20068202138E+04  0.50400001928E-02 0.  1.
       -1   -1    0    0    0  501  0.00000000000E+00  0.00000000000E+00 -0.76732709727E+03  0.76732709729E+03  0.50400001928E-02 0. -1.
    10030    2    1    2    0    0  0.00000000000E+00  0.00000000000E+00  0.12394931165E+04  0.27741473111E+04  0.24818440962E+04 0.  0.
        1    1    3    3  502    0 -0.12854635522E+03  0.90043340684E+03 -0.32382048677E+03  0.96548650600E+03  0.50400001928E-02 0. -1.
       -1    1    3    3    0  502  0.12854635522E+03 -0.90043340684E+03  0.15633136033E+04  0.18086608051E+04  0.50400001928E-02 0.  1.
</event>
<event>
 5   0  0.2066170E-05  0.2470510E+04  0.7818609E-02  0.8413568E-01
       -1   -1    0    0    0  501  0.00000000000E+00  0.00000000000E+00  0.91883179719E+03  0.91883179720E+03  0.50400001928E-02 0.  1.
        1   -1    0    0  501    0  0.00000000000E+00  0.00000000000E+00 -0.16606460218E+04  0.16606460218E+04  0.50400001928E-02 0. -1.
    10030    2    1    2    0    0  0.00000000000E+00  0.00000000000E+00 -0.74181422456E+03  0.25794778190E+04  0.24705095577E+04 0.  0.
        5    1    3    3  502    0 -0.60035160341E+03 -0.53935239581E+03  0.60549218155E+03  0.10089429749E+04  0.46999998093E+01 0.  1.
       -5    1    3    3    0  502  0.60035160341E+03  0.53935239581E+03 -0.13473064061E+04  0.15705348441E+04  0.46999998093E+01 0. -1.
</event>
<event>
 5   0  0.4959042E-05  0.2458844E+04  0.7818609E-02  0.8417796E-01
       -2   -1    0    0    0  501  0.00000000000E+00  0.00000000000E+00  0.62550479487E+03  0.62550479488E+03  0.25500000920E-02 0. -1.
        2   -1    0    0  501    0  0.00000000000E+00  0.00000000000E+00 -0.24164132452E+04  0.24164132452E+04  0.25500000920E-02 0.  1.
    10030    2    1    2    0    0  0.00000000000E+00  0.00000000000E+00 -0.17909084503E+04  0.30419180401E+04  0.24588436886E+04 0.  0.
        4    1    3    3  502    0  0.34856976917E+03  0.37193961295E+03  0.48860825880E+03  0.70610169461E+03  0.12699999809E+01 0. -1.
       -4    1    3    3    0  502 -0.34856976917E+03 -0.37193961295E+03 -0.22795167091E+04  0.23358163455E+04  0.12699999809E+01 0.  1.
</event>
<event>
 5   0  0.4995256E-05  0.2388612E+04  0.7818609E-02  0.8443779E-01
       -2   -1    0    0    0  501  0.00000000000E+00  0.00000000000E+00  0.88800377347E+03  0.88800377348E+03  0.25500000920E-02 0. -1.
        2   -1    0    0  501    0  0.00000000000E+00  0.00000000000E+00 -0.16062625366E+04  0.16062625366E+04  0.25500000920E-02 0.  1.
    10030    2    1    2    0    0  0.00000000000E+00  0.00000000000E+00 -0.71825876317E+03  0.24942663101E+04  0.23886123116E+04 0.  0.
        2    1    3    3  502    0 -0.76917207907E+03 -0.48236034736E+03  0.45112362049E+03  0.10138095052E+04  0.25500000920E-02 0. -1.
       -2    1    3    3    0  502  0.76917207907E+03  0.48236034736E+03 -0.11693823837E+04  0.14804568049E+04  0.25500000920E-02 0.  1.
</event>
<event>
 5   0  0.2066170E-05  0.1665943E+04  0.7818609E-02  0.8781030E-01
       -1   -1    0    0    0  501  0.00000000000E+00  0.00000000000E+00  0.84780801474E+03  0.84780801475E+03  0.50400001928E-02 0.  1.
        1   -1    0    0  501    0  0.00000000000E+00  0.00000000000E+00 -0.81839436682E+03  0.81839436683E+03  0.50400001928E-02 0. -1.
    10030    2    1    2    0    0  0.00000000000E+00  0.00000000000E+00  0.29413647920E+02  0.16662023816E+04  0.16659427402E+04 0.  0.
        5    1    3    3  502    0  0.62221807280E+03  0.28494139911E+03 -0.46020639833E+03  0.82471749715E+03  0.46999998093E+01 0. -1.
       -5    1    3    3    0  502 -0.62221807280E+03 -0.28494139911E+03  0.48962004625E+03  0.84148488443E+03  0.46999998093E+01 0.  1.
</event>
<event>
 5   0  0.2081874E-05  0.2442867E+04  0.7818609E-02  0.8423627E-01
       -1   -1    0    0    0  501  0.00000000000E+00  0.00000000000E+00  0.11399926213E+04  0.11399926213E+04  0.50400001928E-02 0. -1.
        1   -1    0    0  501    0  0.00000000000E+00  0.00000000000E+00 -0.13086930068E+04  0.13086930068E+04  0.50400001928E-02 0.  1.
    10030    2    1    2    0    0  0.00000000000E+00  0.00000000000E+00 -0.16870038544E+03  0.24486856281E+04  0.24428674719E+04 0.  0.
        1    1    3    3  502    0 -0.85175791236E+02  0.15702427796E+03 -0.12955279663E+04  0.13077860110E+04  0.50400001928E-02 0.  1.
       -1    1    3    3    0  502  0.85175791236E+02 -0.15702427796E+03  0.11268275808E+04  0.11408996171E+04  0.50400001928E-02 0. -1.
</event>
<event>
 5   0  0.4959347E-05  0.2231097E+04  0.7818609E-02  0.8505595E-01
       -2   -1    0    0    0  501  0.00000000000E+00  0.00000000000E+00  0.65572592314E+03  0.65572592314E+03  0.25500000920E-02 0. -1.
        2   -1    0    0  501    0  0.00000000000E+00  0.00000000000E+00 -0.18978179835E+04  0.18978179835E+04  0.25500000920E-02 0.  1.
    10030    2    1    2    0    0  0.00000000000E+00  0.00000000000E+00 -0.12420920603E+04  0.25535439066E+04  0.22310969940E+04 0.  0.
        3    1    3    3  502    0  0.11042860794E+04 -0.79962387040E+02 -0.77716643805E+03  0.13527118730E+04  0.10100000352E+00 0. -1.
       -3    1    3    3    0  502 -0.11042860794E+04  0.79962387040E+02 -0.46492562226E+03  0.12008320336E+04  0.10100000352E+00 0.  1.
</event>
<event>
 5   0  0.4959042E-05  0.2582304E+04  0.7818609E-02  0.8374237E-01
        2   -1    0    0  501    0  0.00000000000E+00  0.00000000000E+00  0.17412298141E+04  0.17412298141E+04  0.25500000920E-02 0.  1.
       -2   -1    0    0    0  501  0.00000000000E+00  0.00000000000E+00 -0.95741115796E+03  0.95741115796E+03  0.25500000920E-02 0. -1.
    10030    2    1    2    0    0  0.00000000000E+00  0.00000000000E+00  0.78381865617E+03  0.26986409721E+04  0.25823035086E+04 0.  0.
        4    1    3    3  502    0  0.29475686927E+03 -0.41252233848E+03  0.16328461825E+04  0.17097498532E+04  0.12699999809E+01 0.  1.
       -4    1    3    3    0  502 -0.29475686927E+03  0.41252233848E+03 -0.84902752634E+03  0.98889111894E+03  0.12699999809E+01 0. -1.
</event>
<event>
 5   0  0.4959042E-05  0.1773091E+04  0.7818609E-02  0.8720742E-01
        2   -1    0    0  501    0  0.00000000000E+00  0.00000000000E+00  0.14618936670E+04  0.14618936670E+04  0.25500000920E-02 0.  1.
       -2   -1    0    0    0  501  0.00000000000E+00  0.00000000000E+00 -0.53763339185E+03  0.53763339185E+03  0.25500000920E-02 0. -1.
    10030    2    1    2    0    0  0.00000000000E+00  0.00000000000E+00  0.92426027512E+03  0.19995270588E+04  0.17730909178E+04 0.  0.
        4    1    3    3  502    0  0.75230565508E+03  0.81806550447E+02 -0.58700985156E+02  0.75901484104E+03  0.12699999809E+01 0. -1.
       -4    1    3    3    0  502 -0.75230565508E+03 -0.81806550447E+02  0.98296126027E+03  0.12405122178E+04  0.12699999809E+01 0.  1.
</event>
<event>
 5   0  0.2063930E-05  0.2505250E+04  0.7818609E-02  0.8401117E-01
       -1   -1    0    0    0  501  0.00000000000E+00  0.00000000000E+00  0.97587990127E+03  0.97587990128E+03  0.50400001928E-02 0. -1.
        1   -1    0    0  501    0  0.00000000000E+00  0.00000000000E+00 -0.16078513545E+04  0.16078513545E+04  0.50400001928E-02 0.  1.
    10030    2    1    2    0    0  0.00000000000E+00  0.00000000000E+00 -0.63197145322E+03  0.25837312558E+04  0.25052503437E+04 0.  0.
        3    1    3    3  502    0  0.61203335599E+03 -0.84617698017E+03  0.39739822996E+03  0.11173744556E+04  0.10100000352E+00 0. -1.
       -3    1    3    3    0  502 -0.61203335599E+03  0.84617698017E+03 -0.10293696832E+04  0.14663568002E+04  0.10100000352E+00 0.  1.
</event>
<event>
 5   0  0.2063930E-05  0.2366914E+04  0.7818609E-02  0.8451995E-01
       -1   -1    0    0    0  501  0.00000000000E+00  0.00000000000E+00  0.16809264744E+04  0.16809264744E+04  0.50400001928E-02 0. -1.
        1   -1    0    0  501    0  0.00000000000E+00  0.00000000000E+00 -0.83321334142E+03  0.83321334143E+03  0.50400001928E-02 0.  1.
    10030    2    1    2    0    0  0.00000000000E+00  0.00000000000E+00  0.84771313299E+03  0.25141398158E+04  0.23669139101E+04 0.  0.
        3    1    3    3  502    0  0.10018332040E+02 -0.58379148779E+03  0.15172833790E+04  0.16257495904E+04  0.10100000352E+00 0. -1.
       -3    1    3    3    0  502 -0.10018332040E+02  0.58379148779E+03 -0.66957024600E+03  0.88839022548E+03  0.10100000352E+00 0.  1.
</event>
<event>
 5   0  0.2063930E-05  0.2477249E+04  0.7818609E-02  0.8411136E-01
       -1   -1    0    0    0  501  0.00000000000E+00  0.00000000000E+00  0.10939769694E+04  0.10939769694E+04  0.50400001928E-02 0. -1.
        1   -1    0    0  501    0  0.00000000000E+00  0.00000000000E+00 -0.14023974685E+04  0.14023974685E+04  0.50400001928E-02 0.  1.
    10030    2    1    2    0    0  0.00000000000E+00  0.00000000000E+00 -0.30842049914E+03  0.24963744380E+04  0.24772489036E+04 0.  0.
        3    1    3    3  502    0  0.73834111455E+03  0.76717520785E+03 -0.79193500372E+03  0.13269764358E+04  0.10100000352E+00 0.  1.
       -3    1    3    3    0  502 -0.73834111455E+03 -0.76717520785E+03  0.48351450458E+03  0.11693980021E+04  0.10100000352E+00 0. -1.
</event>
<event>
 5   0  0.2036578E-05  0.2583818E+04  0.7818609E-02  0.8373719E-01
        1   -1    0    0  501    0  0.00000000000E+00  0.00000000000E+00  0.28194134264E+04  0.28194134264E+04  0.50400001928E-02 0. -1.
       -1   -1    0    0    0  501  0.00000000000E+00  0.00000000000E+00 -0.59197722930E+03  0.59197722932E+03  0.50400001928E-02 0.  1.
    10030    2    1    2    0    0  0.00000000000E+00  0.00000000000E+00  0.22274361971E+04  0.34113906558E+04  0.25838177555E+04 0.  0.
        2    1    3    3  502    0 -0.12246676300E+04  0.33530904180E+03  0.14283397835E+04  0.19111246674E+04  0.25500000920E-02 0. -1.
       -2    1    3    3    0  502  0.12246676300E+04 -0.33530904180E+03  0.79909641366E+03  0.15002659883E+04  0.25500000920E-02 0.  1.
</event>
<event>
 5   0  0.4959347E-05  0.2515705E+04  0.7818609E-02  0.8397412E-01
        2   -1    0    0  501    0  0.00000000000E+00  0.00000000000E+00  0.18741607326E+04  0.18741607326E+04  0.25500000920E-02 0. -1.
       -2   -1    0    0    0  501  0.00000000000E+00  0.00000000000E+00 -0.84421416088E+03  0.84421416089E+03  0.25500000920E-02 0.  1.
    10030    2    1    2    0    0  0.00000000000E+00  0.00000000000E+00  0.10299465717E+04  0.27183748935E+04  0.25157050942E+04 0.  0.
        3    1    3    3  502    0  0.82853630861E+03  0.90836190254E+03  0.22786237707E+03  0.12504059476E+04  0.10100000352E+00 0.  1.
       -3    1    3    3    0  502 -0.82853630861E+03 -0.90836190254E+03  0.80208419466E+03  0.14679689459E+04  0.10100000352E+00 0. -1.
</event>
<event>
 5   0  0.4959347E-05  0.2700877E+04  0.7818609E-02  0.8334720E-01
       -2   -1    0    0    0  501  0.00000000000E+00  0.00000000000E+00  0.12501131954E+04  0.12501131954E+04  0.25500000920E-02 0.  1.
        2   -1    0    0  501    0  0.00000000000E+00  0.00000000000E+00 -0.14588152190E+04  0.14588152190E+04  0.25500000920E-02 0. -1.
    10030    2    1    2    0    0  0.00000000000E+00  0.00000000000E+00 -0.20870202362E+03  0.27089284144E+04  0.27008770093E+04 0.  0.
        3    1    3    3  502    0 -0.13002629082E+04  0.24116687195E+03  0.17003177665E+03  0.13333251314E+04  0.10100000352E+00 0.  1.
       -3    1    3    3    0  502  0.13002629082E+04 -0.24116687195E+03 -0.37873380027E+03  0.13756032830E+04  0.10100000352E+00 0. -1.
</event>
<event>
 5   0  0.2063930E-05  0.2465079E+04  0.7818609E-02  0.8415533E-01
       -1   -1    0    0    0  501  0.00000000000E+00  0.00000000000E+00  0.11043482729E+04  0.11043482729E+04  0.50400001928E-02 0.  1.
        1   -1    0    0  501    0  0.00000000000E+00  0.00000000000E+00 -0.13756109821E+04  0.13756109821E+04  0.50400001928E-02 0. -1.
    10030    2    1    2    0    0  0.00000000000E+00  0.00000000000E+00 -0.27126270920E+03  0.24799592550E+04  0.24650789945E+04 0.  0.
        3    1    3    3  502    0  0.12219310127E+04  0.37622912696E+02 -0.29349484698E+03  0.12572470397E+04  0.10100000352E+00 0.  1.
       -3    1    3    3    0  502 -0.12219310127E+04 -0.37622912696E+02  0.22232137776E+02  0.12227122154E+04  0.10100000352E+00 0. -1.
</event>
<event>
 5   0  0.4995256E-05  0.2472214E+04  0.7818609E-02  0.8412952E-01
       -2   -1    0    0    0  501  0.00000000000E+00  0.00000000000E+00  0.11323295047E+04  0.11323295047E+04  0.25500000920E-02 0. -1.
        2   -1    0    0  501    0  0.00000000000E+00  0.00000000000E+00 -0.13493960091E+04  0.13493960091E+04  0.25500000920E-02 0.  1.
    10030    2    1    2    0    0  0.00000000000E+00  0.00000000000E+00 -0.21706650439E+03  0.24817255138E+04  0.24722143230E+04 0.  0.
        2    1    3    3  502    0 -0.85495252804E+03 -0.68196549403E+03 -0.68689228555E+03  0.12914494850E+04  0.25500000920E-02 0.  1.
       -2    1    3    3    0  502  0.85495252804E+03  0.68196549403E+03  0.46982578117E+03  0.11902760289E+04  0.25500000920E-02 0. -1.
</event>
<event>
 5   0  0.5219468E-05  0.2547470E+04  0.7818609E-02  0.8386266E-01
        2   -1    0    0  501    0  0.00000000000E+00  0.00000000000E+00  0.16425855252E+04  0.16425855252E+04  0.25500000920E-02 0.  1.
       -2   -1    0    0    0  501  0.00000000000E+00  0.00000000000E+00 -0.98771190643E+03  0.98771190643E+03  0.25500000920E-02 0. -1.
    10030    2    1    2    0    0  0.00000000000E+00  0.00000000000E+00  0.65487361882E+03  0.26302974317E+04  0.25474703379E+04 0.  0.
        1    1    3    3  502    0  0.12724165208E+04 -0.41283427329E+02  0.28545581179E+03  0.13046965717E+04  0.50400001928E-02 0.  1.
       -1    1    3    3    0  502 -0.12724165208E+04  0.41283427329E+02  0.36941780702E+03  0.13256008600E+04  0.50400001928E-02 0. -1.
</event>
<event>
 5   0  0.4959042E-05  0.2480065E+04  0.7818609E-02  0.8410122E-01
        2   -1    0    0  501    0  0.00000000000E+00  0.00000000000E+00  0.79510580240E+03  0.79510580240E+03  0.25500000920E-02 0. -1.
       -2   -1    0    0    0  501  0.00000000000E+00  0.00000000000E+00 -0.19339327728E+04  0.19339327728E+04  0.25500000920E-02 0.  1.
    10030    2    1    2    0    0  0.00000000000E+00  0.00000000000E+00 -0.11388269704E+04  0.27290385752E+04  0.24800654581E+04 0.  0.
        4    1    3    3  502    0  0.39616438898E+03  0.11571802125E+04 -0.79403127695E+03  0.14582522240E+04  0.12699999809E+01 0. -1.
       -4    1    3    3    0  502 -0.39616438898E+03 -0.11571802125E+04 -0.34479569343E+03  0.12707863512E+04  0.12699999809E+01 0.  1.
</event>
<event>
 5   0  0.2066170E-05  0.1635817E+04  0.7818609E-02  0.8798842E-01
        1   -1    0    0  501    0  0.00000000000E+00  0.00000000000E+00  0.14134836973E+04  0.14134836973E+04  0.50400001928E-02 0.  1.
       -1   -1    0    0    0  501  0.00000000000E+00  0.00000000000E+00 -0.47328046847E+03  0.47328046850E+03  0.50400001928E-02 0. -1.
    10030    2    1    2    0    0  0.00000000000E+00  0.00000000000E+00  0.94020322878E+03  0.18867641658E+04  0.16358168925E+04 0.  0.
        5    1    3    3  502    0 -0.20539800863E+03  0.77831295344E+03  0.30298581737E+03  0.86010574406E+03  0.46999998093E+01 0. -1.
       -5    1    3    3    0  502  0.20539800863E+03 -0.77831295344E+03  0.63721741141E+03  0.10266584217E+04  0.46999998093E+01 0.  1.
</event>
<event>
 5   0  0.5219468E-05  0.2486173E+04  0.7818609E-02  0.8407928E-01
        2   -1    0    0  501    0  0.00000000000E+00  0.00000000000E+00  0.13520550583E+04  0.13520550583E+04  0.25500000920E-02 0.  1.
       -2   -1    0    0    0  501  0.00000000000E+00  0.00000000000E+00 -0.11429003536E+04  0.11429003536E+04  0.25500000920E-02 0. -1.
    10030    2    1    2    0    0  0.00000000000E+00  0.00000000000E+00  0.20915470468E+03  0.24949554118E+04  0.24861731268E+04 0.  0.
        1    1    3    3  502    0  0.30617855608E+03  0.74995292554E+03 -0.84166887886E+03  0.11681529011E+04  0.50400001928E-02 0. -1.
       -1    1    3    3    0  502 -0.30617855608E+03 -0.74995292554E+03  0.10508235835E+04  0.13268025107E+04  0.50400001928E-02 0.  1.
</event>
<event>
 5   0  0.5024070E-05  0.2528418E+04  0.7818609E-02  0.8392931E-01
        2   -1    0    0  501    0  0.00000000000E+00  0.00000000000E+00  0.19929846524E+04  0.19929846524E+04  0.25500000920E-02 0. -1.
       -2   -1    0    0    0  501  0.00000000000E+00  0.00000000000E+00 -0.80192495914E+03  0.80192495914E+03  0.25500000920E-02 0.  1.
    10030    2    1    2    0    0  0.00000000000E+00  0.00000000000E+00  0.11910596933E+04  0.27949096116E+04  0.25284177946E+04 0.  0.
        5    1    3    3  502    0 -0.71351470652E+02 -0.72670242223E+03 -0.54523652543E+03  0.91131355828E+03  0.46999998093E+01 0.  1.
       -5    1    3    3    0  502  0.71351470652E+02  0.72670242223E+03  0.17362962187E+04  0.18835960533E+04  0.46999998093E+01 0. -1.
</event>
<event>
 5   0  0.2041718E-05  0.2525752E+04  0.7818609E-02  0.8393868E-01
        1   -1    0    0  501    0  0.00000000000E+00  0.00000000000E+00  0.17731773655E+04  0.17731773655E+04  0.50400001928E-02 0.  1.
       -1   -1    0    0    0  501  0.00000000000E+00  0.00000000000E+00 -0.89943412520E+03  0.89943412521E+03  0.50400001928E-02 0. -1.
    10030    2    1    2    0    0  0.00000000000E+00  0.00000000000E+00  0.87374324034E+03  0.26726114908E+04  0.25257523494E+04 0.  0.
        4    1    3    3  502    0  0.17015112903E+03 -0.75602026256E+03 -0.61827247545E+03  0.99135286902E+03  0.12699999809E+01 0. -1.
       -4    1    3    3    0  502 -0.17015112903E+03  0.75602026256E+03  0.14920157158E+04  0.16812586217E+04  0.12699999809E+01 0.  1.
</event>
<event>
 5   0  0.5024070E-05  0.2655225E+04  0.7818609E-02  0.8349681E-01
        2   -1    0    0  501    0  0.00000000000E+00  0.00000000000E+00  0.11722560926E+04  0.11722560926E+04  0.25500000920E-02 0. -1.
       -2   -1    0    0    0  501  0.00000000000E+00  0.00000000000E+00 -0.15035578481E+04  0.15035578481E+04  0.25500000920E-02 0.  1.
    10030    2    1    2    0    0  0.00000000000E+00  0.00000000000E+00 -0.33130175548E+03  0.26758139407E+04  0.26552249231E+04 0.  0.
        5    1    3    3  502    0 -0.11157320329E+04 -0.60470323537E+03 -0.55855713138E+03  0.13865540491E+04  0.46999998093E+01 0.  1.
       -5    1    3    3    0  502  0.11157320329E+04  0.60470323537E+03  0.22725537590E+03  0.12892598916E+04  0.46999998093E+01 0. -1.
</event>
<event>
 5   0  0.4995256E-05  0.2340622E+04  0.7818609E-02  0.8462074E-01
       -2   -1    0    0    0  501  0.00000000000E+00  0.00000000000E+00  0.78984149069E+03  0.78984149069E+03  0.25500000920E-02 0.  1.
        2   -1    0    0  501    0  0.00000000000E+00  0.00000000000E+00 -0.17340542725E+04  0.17340542725E+04  0.25500000920E-02 0. -1.
    10030    2    1    2    0    0  0.00000000000E+00  0.00000000000E+00 -0.94421278183E+03  0.25238957632E+04  0.23406221494E+04 0.  0.
        2    1    3    3  502    0 -0.41428689562E+03 -0.94590482419E+03  0.12170230705E+03  0.10397985477E+04  0.25500000920E-02 0.  1.
       -2    1    3    3    0  502  0.41428689562E+03  0.94590482419E+03 -0.10659150889E+04  0.14840972155E+04  0.25500000920E-02 0. -1.
</event>
<event>
 5   0  0.4995256E-05  0.2476409E+04  0.7818609E-02  0.8411439E-01
       -2   -1    0    0    0  501  0.00000000000E+00  0.00000000000E+00  0.75081819320E+03  0.75081819320E+03  0.25500000920E-02 0. -1.
        2   -1    0    0  501    0  0.00000000000E+00  0.00000000000E+00 -0.20419721728E+04  0.20419721728E+04  0.25500000920E-02 0.  1.
    10030    2    1    2    0    0  0.00000000000E+00  0.00000000000E+00 -0.12911539796E+04  0.27927903660E+04  0.24764085748E+04 0.  0.
        2    1    3    3  502    0 -0.13320355700E+03 -0.98559305921E+03 -0.14773803570E+04  0.17809518761E+04  0.25500000920E-02 0.  1.
       -2    1    3    3    0  502  0.13320355700E+03  0.98559305921E+03  0.18622637736E+03  0.10118384899E+04  0.25500000920E-02 0. -1.
</event>
<event>
 5   0  0.2063930E-05  0.2489724E+04  0.7818609E-02  0.8406655E-01
        1   -1    0    0  501    0  0.00000000000E+00  0.00000000000E+00  0.14809967451E+04  0.14809967451E+04  0.50400001928E-02 0.  1.
       -1   -1    0    0    0  501  0.00000000000E+00  0.00000000000E+00 -0.10463777202E+04  0.10463777202E+04  0.50400001928E-02 0. -1.
    10030    2    1    2    0    0  0.00000000000E+00  0.00000000000E+00  0.43461902489E+03  0.25273744653E+04  0.24897244810E+04 0.  0.
        3    1    3    3  502    0 -0.65917680106E+03  0.97232091566E+03  0.63555951087E+03  0.13356114406E+04  0.10100000352E+00 0.  1.
       -3    1    3    3    0  502  0.65917680106E+03 -0.97232091566E+03 -0.20094048598E+03  0.11917630248E+04  0.10100000352E+00 0. -1.
</event>
<event>
 5   0  0.2036578E-05  0.2490040E+04  0.7818609E-02  0.8406543E-01
        1   -1    0    0  501    0  0.00000000000E+00  0.00000000000E+00  0.14906317946E+04  0.14906317946E+04  0.50400001928E-02 0. -1.
       -1   -1    0    0    0  501  0.00000000000E+00  0.00000000000E+00 -0.10398774515E+04  0.10398774515E+04  0.50400001928E-02 0.  1.
    10030    2    1    2    0    0  0.00000000000E+00  0.00000000000E+00  0.45075434314E+03  0.25305092461E+04  0.24900396717E+04 0.  0.
        2    1    3    3  502    0  0.21838530849E+03 -0.11758130671E+04  0.57719125139E+03  0.13279225326E+04  0.25500000920E-02 0. -1.
       -2    1    3    3    0  502 -0.21838530849E+03  0.11758130671E+04 -0.12643690825E+03  0.12025867135E+04  0.25500000920E-02 0.  1.
</event>
<event>
 5   0  0.5219468E-05  0.2284244E+04  0.7818609E-02  0.8484160E-01
        2   -1    0    0  501    0  0.00000000000E+00  0.00000000000E+00  0.16175371400E+04  0.16175371400E+04  0.25500000920E-02 0.  1.
       -2   -1    0    0    0  501  0.00000000000E+00  0.00000000000E+00 -0.80643736094E+03  0.80643736095E+03  0.25500000920E-02 0. -1.
    10030    2    1    2    0    0  0.00000000000E+00  0.00000000000E+00  0.81109977909E+03  0.24239745010E+04  0.22842437545E+04 0.  0.
        1    1    3    3  502    0  0.60841078081E+03 -0.30264301845E+03  0.13796833618E+04  0.15379475458E+04  0.50400001928E-02 0.  1.
       -1    1    3    3    0  502 -0.60841078081E+03  0.30264301845E+03 -0.56858358268E+03  0.88602695520E+03  0.50400001928E-02 0. -1.
</event>
<event>
 5   0  0.2036578E-05  0.2449459E+04  0.7818609E-02  0.8421215E-01
        1   -1    0    0  501    0  0.00000000000E+00  0.00000000000E+00  0.13068659407E+04  0.13068659407E+04  0.50400001928E-02 0. -1.
       -1   -1    0    0    0  501  0.00000000000E+00  0.00000000000E+00 -0.11477556242E+04  0.11477556242E+04  0.50400001928E-02 0.  1.
    10030    2    1    2    0    0  0.00000000000E+00  0.00000000000E+00  0.15911031647E+03  0.24546215649E+04  0.24494593147E+04 0.  0.
        2    1    3    3  502    0 -0.30961421275E+03  0.53719557930E+03  0.11379641428E+04  0.12959176060E+04  0.25500000920E-02 0. -1.
       -2    1    3    3    0  502  0.30961421275E+03 -0.53719557930E+03 -0.97885382634E+03  0.11587039590E+04  0.25500000920E-02 0.  1.
</event>
<event>
 5   0  0.2066170E-05  0.2441215E+04  0.7818609E-02  0.8424233E-01
       -1   -1    0    0    0  501  0.00000000000E+00  0.00000000000E+00  0.68554938978E+03  0.68554938980E+03  0.50400001928E-02 0.  1.
        1   -1    0    0  501    0  0.00000000000E+00  0.00000000000E+00 -0.21732680081E+04  0.21732680081E+04  0.50400001928E-02 0. -1.
    10030    2    1    2    0    0  0.00000000000E+00  0.00000000000E+00 -0.14877186183E+04  0.28588173979E+04  0.24412149081E+04 0.  0.
        5    1    3    3  502    0 -0.11485296784E+04  0.21887934141E+03 -0.33343228396E+03  0.12158239043E+04  0.46999998093E+01 0.  1.
       -5    1    3    3    0  502  0.11485296784E+04 -0.21887934141E+03 -0.11542863344E+04  0.16429934936E+04  0.46999998093E+01 0. -1.
</event>
<event>
 5   0  0.5024070E-05  0.2403373E+04  0.7818609E-02  0.8438242E-01
       -2   -1    0    0    0  501  0.00000000000E+00  0.00000000000E+00  0.12589940154E+04  0.12589940154E+04  0.25500000920E-02 0. -1.
        2   -1    0    0  501    0  0.00000000000E+00  0.00000000000E+00 -0.11469879071E+04  0.11469879071E+04  0.25500000920E-02 0.  1.
    10030    2    1    2    0    0  0.00000000000E+00  0.00000000000E+00  0.11200610833E+03  0.24059819225E+04  0.24033733882E+04 0.  0.
        5    1    3    3  502    0 -0.11614261621E+04 -0.27632771546E+03 -0.81116717681E+02  0.11966075999E+04  0.46999998093E+01 0.  1.
       -5    1    3    3    0  502  0.11614261621E+04  0.27632771546E+03  0.19312282602E+03  0.12093743226E+04  0.46999998093E+01 0. -1.
</event>
<event>
 5   0  0.2036578E-05  0.2332061E+04  0.7818609E-02  0.8465386E-01
       -1   -1    0    0    0  501  0.00000000000E+00  0.00000000000E+00  0.14266223680E+04  0.14266223681E+04  0.50400001928E-02 0.  1.
        1   -1    0    0  501    0  0.00000000000E+00  0.00000000000E+00 -0.95303951291E+03  0.95303951292E+03  0.50400001928E-02 0. -1.
    10030    2    1    2    0    0  0.00000000000E+00  0.00000000000E+00  0.47358285514E+03  0.23796618810E+04  0.23320613086E+04 0.  0.
        2    1    3    3  502    0 -0.51615896136E+03  0.24692398518E+02 -0.82981803185E+03  0.97756214837E+03  0.25500000920E-02 0. -1.
       -2    1    3    3    0  502  0.51615896136E+03 -0.24692398518E+02  0.13034008870E+04  0.14020997326E+04  0.25500000920E-02 0.  1.
</event>
<event>
 5   0  0.2063930E-05  0.2622302E+04  0.7818609E-02  0.8360665E-01
        1   -1    0    0  501    0  0.00000000000E+00  0.00000000000E+00  0.18478604329E+04  0.18478604329E+04  0.50400001928E-02 0.  1.
       -1   -1    0    0    0  501  0.00000000000E+00  0.00000000000E+00 -0.93032856515E+03  0.93032856516E+03  0.50400001928E-02 0. -1.
    10030    2    1    2    0    0  0.00000000000E+00  0.00000000000E+00  0.91753186772E+03  0.27781889980E+04  0.26223023053E+04 0.  0.
        3    1    3    3  502    0  0.10161461237E+04  0.81823144585E+03  0.32038059879E+03  0.13433910012E+04  0.10100000352E+00 0.  1.
       -3    1    3    3    0  502 -0.10161461237E+04 -0.81823144585E+03  0.59715126892E+03  0.14347979969E+04  0.10100000352E+00 0. -1.
</event>
<event>
 5   0  0.2066170E-05  0.2537046E+04  0.7818609E-02  0.8389905E-01
       -1   -1    0    0    0  501  0.00000000000E+00  0.00000000000E+00  0.13701965422E+04  0.13701965422E+04  0.50400001928E-02 0.  1.
        1   -1    0    0  501    0  0.00000000000E+00  0.00000000000E+00 -0.11743941676E+04  0.11743941676E+04  0.50400001928E-02 0. -1.
    10030    2    1    2    0    0  0.00000000000E+00  0.00000000000E+00  0.19580237458E+03  0.25445907097E+04  0.25370461782E+04 0.  0.
        5    1    3    3  502    0 -0.61837904810E+03  0.11075697122E+04  0.10295832041E+03  0.12726844936E+04  0.46999998093E+01 0.  1.
       -5    1    3    3    0  502  0.61837904810E+03 -0.11075697122E+04  0.92844054169E+02  0.12719062162E+04  0.46999998093E+01 0. -1.
</event>
<event>
 5   0  0.4995256E-05  0.2485899E+04  0.7818609E-02  0.8408026E-01
       -2   -1    0    0    0  501  0.00000000000E+00  0.00000000000E+00  0.16538010617E+04  0.16538010618E+04  0.25500000920E-02 0. -1.
        2   -1    0    0  501    0  0.00000000000E+00  0.00000000000E+00 -0.93416494900E+03  0.93416494901E+03  0.25500000920E-02 0.  1.
    10030    2    1    2    0    0  0.00000000000E+00  0.00000000000E+00  0.71963611275E+03  0.25879660108E+04  0.24858986178E+04 0.  0.
        2    1    3    3  502    0 -0.61899878866E+03 -0.22915876981E+03 -0.73663444732E+03  0.98909228646E+03  0.25500000920E-02 0.  1.
       -2    1    3    3    0  502  0.61899878866E+03  0.22915876981E+03  0.14562705601E+04  0.15988737243E+04  0.25500000920E-02 0. -1.
</event>
<event>
 5   0  0.4959347E-05  0.2512324E+04  0.7818609E-02  0.8398608E-01
       -2   -1    0    0    0  501  0.00000000000E+00  0.00000000000E+00  0.62393860540E+03  0.62393860541E+03  0.25500000920E-02 0.  1.
        2   -1    0    0  501    0  0.00000000000E+00  0.00000000000E+00 -0.25290025903E+04  0.25290025903E+04  0.25500000920E-02 0. -1.
    10030    2    1    2    0    0  0.00000000000E+00  0.00000000000E+00 -0.19050639849E+04  0.31529411958E+04  0.25123235057E+04 0.  0.
        3    1    3    3  502    0  0.99719947633E+03 -0.72478285473E+03 -0.12553602441E+04  0.17594448939E+04  0.10100000352E+00 0. -1.
       -3    1    3    3    0  502 -0.99719947633E+03  0.72478285473E+03 -0.64970374083E+03  0.13934963018E+04  0.10100000352E+00 0.  1.
</event>
<event>
 5   0  0.2063930E-05  0.1999125E+04  0.7818609E-02  0.8607030E-01
       -1   -1    0    0    0  501  0.00000000000E+00  0.00000000000E+00  0.60287038728E+03  0.60287038730E+03  0.50400001928E-02 0. -1.
        1   -1    0    0  501    0  0.00000000000E+00  0.00000000000E+00 -0.16572801415E+04  0.16572801415E+04  0.50400001928E-02 0.  1.
    10030    2    1    2    0    0  0.00000000000E+00  0.00000000000E+00 -0.10544097542E+04  0.22601505288E+04  0.19991249293E+04 0.  0.
        3    1    3    3  502    0 -0.77029041888E+03  0.12541110485E+03  0.17888092614E+03  0.80067076290E+03  0.10100000352E+00 0. -1.
       -3    1    3    3    0  502  0.77029041888E+03 -0.12541110485E+03 -0.12332906804E+04  0.14594797659E+04  0.10100000352E+00 0.  1.
</event>
<event>
 5   0  0.5219468E-05  0.2648716E+04  0.7818609E-02  0.8351839E-01
       -2   -1    0    0    0  501  0.00000000000E+00  0.00000000000E+00  0.11131015601E+04  0.11131015601E+04  0.25500000920E-02 0.  1.
        2   -1    0    0  501    0  0.00000000000E+00  0.00000000000E+00 -0.15757084639E+04  0.15757084640E+04  0.25500000920E-02 0. -1.
    10030    2    1    2    0    0  0.00000000000E+00  0.00000000000E+00 -0.46260690389E+03  0.26888100240E+04  0.26487155751E+04 0.  0.
        1    1    3    3  502    0 -0.10150064129E+04  0.72162275610E+03  0.22601126656E+03  0.12657245012E+04  0.50400001928E-02 0. -1.
       -1    1    3    3    0  502  0.10150064129E+04 -0.72162275610E+03 -0.68861817044E+03  0.14230855228E+04  0.50400001928E-02 0.  1.
</event>
<event>
 5   0  0.5219468E-05  0.2373315E+04  0.7818609E-02  0.8449562E-01
       -2   -1    0    0    0  501  0.00000000000E+00  0.00000000000E+00  0.98063282847E+03  0.98063282848E+03  0.25500000920E-02 0. -1.
        2   -1    0    0  501    0  0.00000000000E+00  0.00000000000E+00 -0.14359669655E+04  0.14359669655E+04  0.25500000920E-02 0.  1.
    10030    2    1    2    0    0  0.00000000000E+00  0.00000000000E+00 -0.45533413699E+03  0.24165997939E+04  0.23733152736E+04 0.  0.
        1    1    3    3  502    0  0.39973730059E+02 -0.11605889855E+04 -0.47623323933E+03  0.12551345707E+04  0.50400001928E-02 0.  1.
       -1    1    3    3    0  502 -0.39973730059E+02  0.11605889855E+04  0.20899102342E+02  0.11614652232E+04  0.50400001928E-02 0. -1.
</event>
<event>
 5   0  0.5024070E-05  0.2500775E+04  0.7818609E-02  0.8402710E-01
       -2   -1    0    0    0  501  0.00000000000E+00  0.00000000000E+00  0.97178984249E+03  0.97178984249E+03  0.25500000920E-02 0.  1.
        2   -1    0    0  501    0  0.00000000000E+00  0.00000000000E+00 -0.16088545183E+04  0.16088545183E+04  0.25500000920E-02 0. -1.
    10030    2    1    2    0    0  0.00000000000E+00  0.00000000000E+00 -0.63706467576E+03  0.25806443607E+04  0.25007746631E+04 0.  0.
        5    1    3    3  502    0  0.47391723020E+01  0.10239015786E+04  0.42205806029E+03  0.11074980807E+04  0.46999998093E+01 0.  1.
       -5    1    3    3    0  502 -0.47391723020E+01 -0.10239015786E+04 -0.10591227361E+04  0.14731462801E+04  0.46999998093E+01 0. -1.
</event>
<event>
 5   0  0.4959347E-05  0.2462082E+04  0.7818609E-02  0.8416620E-01
       -2   -1    0    0    0  501  0.00000000000E+00  0.00000000000E+00  0.12235830056E+04  0.12235830056E+04  0.25500000920E-02 0. -1.
        2   -1    0    0  501    0  0.00000000000E+00  0.00000000000E+00 -0.12385445288E+04  0.12385445288E+04  0.25500000920E-02 0.  1.
    10030    2    1    2    0    0  0.00000000000E+00  0.00000000000E+00 -0.14961523213E+02  0.24621275344E+04  0.24620820759E+04 0.  0.
        3    1    3    3  502    0  0.10762650742E+03  0.57986239708E+03 -0.10880737840E+04  0.12376301686E+04  0.10100000352E+00 0.  1.
       -3    1    3    3    0  502 -0.10762650742E+03 -0.57986239708E+03  0.10731122607E+04  0.12244973659E+04  0.10100000352E+00 0. -1.
</event>
<event>
 5   0  0.2081874E-05  0.2348142E+04  0.7818609E-02  0.8459178E-01
       -1   -1    0    0    0  501  0.00000000000E+00  0.00000000000E+00  0.49115039695E+03  0.49115039697E+03  0.50400001928E-02 0. -1.
        1   -1    0    0  501    0  0.00000000000E+00  0.00000000000E+00 -0.28065597065E+04  0.28065597065E+04  0.50400001928E-02 0.  1.
    10030    2    1    2    0    0  0.00000000000E+00  0.00000000000E+00 -0.23154093095E+04  0.32977101034E+04  0.23481421711E+04 0.  0.
        1    1    3    3  502    0  0.50892275859E+03  0.19116745475E+03  0.30373662384E+03  0.62273855402E+03  0.50400001928E-02 0. -1.
       -1    1    3    3    0  502 -0.50892275859E+03 -0.19116745475E+03 -0.26191459334E+04  0.26749715494E+04  0.50400001928E-02 0.  1.
</event>
<event>
 5   0  0.2081874E-05  0.2052334E+04  0.7818609E-02  0.8582536E-01
       -1   -1    0    0    0  501  0.00000000000E+00  0.00000000000E+00  0.78827475460E+03  0.78827475461E+03  0.50400001928E-02 0. -1.
        1   -1    0    0  501    0  0.00000000000E+00  0.00000000000E+00 -0.13358530223E+04  0.13358530223E+04  0.50400001928E-02 0.  1.
    10030    2    1    2    0    0  0.00000000000E+00  0.00000000000E+00 -0.54757826771E+03  0.21241277769E+04  0.20523344887E+04 0.  0.
        1    1    3    3  502    0  0.29548808385E+03  0.63510007664E+03 -0.10499242793E+04  0.12621435367E+04  0.50400001928E-02 0.  1.
       -1    1    3    3    0  502 -0.29548808385E+03 -0.63510007664E+03  0.50234601155E+03  0.86198424022E+03  0.50400001928E-02 0. -1.
</event>
<event>
 5   0  0.2063930E-05  0.2516035E+04  0.7818609E-02  0.8397295E-01
       -1   -1    0    0    0  501  0.00000000000E+00  0.00000000000E+00  0.84673249310E+03  0.84673249311E+03  0.50400001928E-02 0.  1.
        1   -1    0    0  501    0  0.00000000000E+00  0.00000000000E+00 -0.18690764028E+04  0.18690764028E+04  0.50400001928E-02 0. -1.
    10030    2    1    2    0    0  0.00000000000E+00  0.00000000000E+00 -0.10223439097E+04  0.27158088959E+04  0.25160347552E+04 0.  0.
        3    1    3    3  502    0  0.11338301530E+04 -0.49466692399E+03 -0.75812010614E+03  0.14508660473E+04  0.10100000352E+00 0. -1.
       -3    1    3    3    0  502 -0.11338301530E+04  0.49466692399E+03 -0.26422380351E+03  0.12649428486E+04  0.10100000352E+00 0.  1.
</event>
<event>
 5   0  0.5024070E-05  0.2489981E+04  0.7818609E-02  0.8406563E-01
       -2   -1    0    0    0  501  0.00000000000E+00  0.00000000000E+00  0.83957309779E+03  0.83957309780E+03  0.25500000920E-02 0.  1.
        2   -1    0    0  501    0  0.00000000000E+00  0.00000000000E+00 -0.18461782270E+04  0.18461782270E+04  0.25500000920E-02 0. -1.
    10030    2    1    2    0    0  0.00000000000E+00  0.00000000000E+00 -0.10066051292E+04  0.26857513248E+04  0.24899811832E+04 0.  0.
        5    1    3    3  502    0  0.39187043531E+03 -0.94915923631E+03 -0.12625749514E+04  0.16274468630E+04  0.46999998093E+01 0. -1.
       -5    1    3    3    0  502 -0.39187043531E+03  0.94915923631E+03  0.25596982223E+03  0.10583044618E+04  0.46999998093E+01 0.  1.
</event>
<event>
 5   0  0.5219468E-05  0.2556892E+04  0.7818609E-02  0.8382993E-01
       -2   -1    0    0    0  501  0.00000000000E+00  0.00000000000E+00  0.82736370268E+03  0.82736370268E+03  0.25500000920E-02 0.  1.
        2   -1    0    0  501    0  0.00000000000E+00  0.00000000000E+00 -0.19754606105E+04  0.19754606105E+04  0.25500000920E-02 0. -1.
    10030    2    1    2    0    0  0.00000000000E+00  0.00000000000E+00 -0.11480969079E+04  0.28028243132E+04  0.25568921802E+04 0.  0.
        1    1    3    3  502    0 -0.92882044361E+03  0.63860463723E+03  0.87215955902E+02  0.11305440824E+04  0.50400001928E-02 0.  1.
       -1    1    3    3    0  502  0.92882044361E+03 -0.63860463723E+03 -0.12353128638E+04  0.16722802309E+04  0.50400001928E-02 0. -1.
</event>
<event>
 5   0  0.2066170E-05  0.2433265E+04  0.7818609E-02  0.8427154E-01
       -1   -1    0    0    0  501  0.00000000000E+00  0.00000000000E+00  0.13444959341E+04  0.13444959341E+04  0.50400001928E-02 0. -1.
        1   -1    0    0  501    0  0.00000000000E+00  0.00000000000E+00 -0.11009291090E+04  0.11009291090E+04  0.50400001928E-02 0.  1.
    10030    2    1    2    0    0  0.00000000000E+00  0.00000000000E+00  0.24356682511E+03  0.24454250432E+04  0.24332650582E+04 0.  0.
        5    1    3    3  502    0 -0.11972727040E+04 -0.21166855490E+03  0.77894633245E+02  0.12183411545E+04  0.46999998093E+01 0.  1.
       -5    1    3    3    0  502  0.11972727040E+04  0.21166855490E+03  0.16567219186E+03  0.12270838887E+04  0.46999998093E+01 0. -1.
</event>
<event>
 5   0  0.2066170E-05  0.2528391E+04  0.7818609E-02  0.8392940E-01
        1   -1    0    0  501    0  0.00000000000E+00  0.00000000000E+00  0.19465155802E+04  0.19465155802E+04  0.50400001928E-02 0. -1.
       -1   -1    0    0    0  501  0.00000000000E+00  0.00000000000E+00 -0.82105217562E+03  0.82105217564E+03  0.50400001928E-02 0.  1.
    10030    2    1    2    0    0  0.00000000000E+00  0.00000000000E+00  0.11254634046E+04  0.27675677559E+04  0.25283914666E+04 0.  0.
        5    1    3    3  502    0 -0.85292311109E+02  0.10343965041E+04 -0.22728917545E+03  0.10625127600E+04  0.46999998093E+01 0.  1.
       -5    1    3    3    0  502  0.85292311109E+02 -0.10343965041E+04  0.13527525800E+04  0.17050549958E+04  0.46999998093E+01 0. -1.
</event>
<event>
 5   0  0.5219468E-05  0.2498900E+04  0.7818609E-02  0.8403378E-01
        2   -1    0    0  501    0  0.00000000000E+00  0.00000000000E+00  0.15343075672E+04  0.15343075672E+04  0.25500000920E-02 0.  1.
       -2   -1    0    0    0  501  0.00000000000E+00  0.00000000000E+00 -0.10174785745E+04  0.10174785745E+04  0.25500000920E-02 0. -1.
    10030    2    1    2    0    0  0.00000000000E+00  0.00000000000E+00  0.51682899268E+03  0.25517861417E+04  0.24988998190E+04 0.  0.
        1    1    3    3  502    0 -0.76370471809E+03 -0.50056293045E+03 -0.61246342057E+03  0.10995087928E+04  0.50400001928E-02 0. -1.
       -1    1    3    3    0  502  0.76370471809E+03  0.50056293045E+03  0.11292924132E+04  0.14522773490E+04  0.50400001928E-02 0.  1.
</event>
<event>
 5   0  0.2063930E-05  0.2455744E+04  0.7818609E-02  0.8418924E-01
       -1   -1    0    0    0  501  0.00000000000E+00  0.00000000000E+00  0.13879076846E+04  0.13879076846E+04  0.50400001928E-02 0. -1.
        1   -1    0    0  501    0  0.00000000000E+00  0.00000000000E+00 -0.10862898152E+04  0.10862898152E+04  0.50400001928E-02 0.  1.
    10030    2    1    2    0    0  0.00000000000E+00  0.00000000000E+00  0.30161786938E+03  0.24741974998E+04  0.24557442718E+04 0.  0.
        3    1    3    3  502    0 -0.76883765753E+02 -0.12251509869E+04  0.17865568596E+03  0.12404934174E+04  0.10100000352E+00 0. -1.
       -3    1    3    3    0  502  0.76883765753E+02  0.12251509869E+04  0.12296218342E+03  0.12337040824E+04  0.10100000352E+00 0.  1.
</event>
<event>
 5   0  0.2036578E-05  0.2393815E+04  0.7818609E-02  0.8441823E-01
        1   -1    0    0  501    0  0.00000000000E+00  0.00000000000E+00  0.88995857263E+03  0.88995857265E+03  0.50400001928E-02 0. -1.
       -1   -1    0    0    0  501  0.00000000000E+00  0.00000000000E+00 -0.16097241745E+04  0.16097241745E+04  0.50400001928E-02 0.  1.
    10030    2    1    2    0    0  0.00000000000E+00  0.00000000000E+00 -0.71976560183E+03  0.24996827471E+04  0.23938152215E+04 0.  0.
        2    1    3    3  502    0 -0.11381757329E+04 -0.36944815155E+03 -0.33322143157E+03  0.12421644247E+04  0.25500000920E-02 0.  1.
       -2    1    3    3    0  502  0.11381757329E+04  0.36944815155E+03 -0.38654417026E+03  0.12575183224E+04  0.25500000920E-02 0. -1.
</event>
<event>
 5   0  0.2041718E-05  0.2357930E+04  0.7818609E-02  0.8455424E-01
       -1   -1    0    0    0  501  0.00000000000E+00  0.00000000000E+00  0.11690487842E+04  0.11690487842E+04  0.50400001928E-02 0.  1.
        1   -1    0    0  501    0  0.00000000000E+00  0.00000000000E+00 -0.11889653379E+04  0.11889653379E+04  0.50400001928E-02 0. -1.
    10030    2    1    2    0    0  0.00000000000E+00  0.00000000000E+00 -0.19916553675E+02  0.23580141221E+04  0.23579300097E+04 0.  0.
        4    1    3    3  502    0  0.37261311387E+03 -0.40497812678E+03  0.10327241361E+04  0.11702002265E+04  0.12699999809E+01 0.  1.
       -4    1    3    3    0  502 -0.37261311387E+03  0.40497812678E+03 -0.10526406898E+04  0.11878138956E+04  0.12699999809E+01 0. -1.
</event>
<event>
 5   0  0.2041718E-05  0.2551506E+04  0.7818609E-02  0.8384863E-01
       -1   -1    0    0    0  501  0.00000000000E+00  0.00000000000E+00  0.87449562518E+03  0.87449562520E+03  0.50400001928E-02 0. -1.
        1   -1    0    0  501    0  0.00000000000E+00  0.00000000000E+00 -0.18611249462E+04  0.18611249462E+04  0.50400001928E-02 0.  1.
    10030    2    1    2    0    0  0.00000000000E+00  0.00000000000E+00 -0.98662932101E+03  0.27356205714E+04  0.25515059266E+04 0.  0.
        4    1    3    3  502    0 -0.52896589739E+03  0.31201765941E+03  0.70557991587E+03  0.93541678997E+03  0.12699999809E+01 0. -1.
       -4    1    3    3    0  502  0.52896589739E+03 -0.31201765941E+03 -0.16922092369E+04  0.18002037814E+04  0.12699999809E+01 0.  1.
</event>
<event>
 5   0  0.2081874E-05  0.2614506E+04  0.7818609E-02  0.8363291E-01
       -1   -1    0    0    0  501  0.00000000000E+00  0.00000000000E+00  0.12123626781E+04  0.12123626781E+04  0.50400001928E-02 0.  1.
        1   -1    0    0  501    0  0.00000000000E+00  0.00000000000E+00 -0.14095697738E+04  0.14095697738E+04  0.50400001928E-02 0. -1.
    10030    2    1    2    0    0  0.00000000000E+00  0.00000000000E+00 -0.19720709564E+03  0.26219324519E+04  0.26145055257E+04 0.  0.
        1    1    3    3  502    0  0.37794711583E+03  0.85077958217E+03 -0.10189467989E+04  0.13801892982E+04  0.50400001928E-02 0. -1.
       -1    1    3    3    0  502 -0.37794711583E+03 -0.85077958217E+03  0.82173970327E+03  0.12417431537E+04  0.50400001928E-02 0.  1.
</event>
<event>
 5   0  0.2063930E-05  0.2243491E+04  0.7818609E-02  0.8500541E-01
        1   -1    0    0  501    0  0.00000000000E+00  0.00000000000E+00  0.17520693831E+04  0.17520693831E+04  0.50400001928E-02 0.  1.
       -1   -1    0    0    0  501  0.00000000000E+00  0.00000000000E+00 -0.71818686521E+03  0.71818686522E+03  0.50400001928E-02 0. -1.
    10030    2    1    2    0    0  0.00000000000E+00  0.00000000000E+00  0.10338825179E+04  0.24702562483E+04  0.22434912239E+04 0.  0.
        3    1    3    3  502    0  0.95845512174E+03  0.57928831328E+03  0.58746209289E+03  0.12646433849E+04  0.10100000352E+00 0.  1.
       -3    1    3    3    0  502 -0.95845512174E+03 -0.57928831328E+03  0.44642042500E+03  0.12056128634E+04  0.10100000352E+00 0. -1.
</event>
<event>
 5   0  0.2041718E-05  0.2467985E+04  0.7818609E-02  0.8414480E-01
        1   -1    0    0  501    0  0.00000000000E+00  0.00000000000E+00  0.14903930297E+04  0.14903930297E+04  0.50400001928E-02 0. -1.
       -1   -1    0    0    0  501  0.00000000000E+00  0.00000000000E+00 -0.10217022781E+04  0.10217022781E+04  0.50400001928E-02 0.  1.
    10030    2    1    2    0    0  0.00000000000E+00  0.00000000000E+00  0.46869075156E+03  0.25120953079E+04  0.24679853758E+04 0.  0.
        4    1    3    3  502    0  0.41471516732E+02 -0.33304957243E+03 -0.97435214122E+03  0.10305365653E+04  0.12699999809E+01 0.  1.
       -4    1    3    3    0  502 -0.41471516732E+02  0.33304957243E+03  0.14430428928E+04  0.14815587426E+04  0.12699999809E+01 0. -1.
</event>
<event>
 5   0  0.5024070E-05  0.2449386E+04  0.7818609E-02  0.8421242E-01
       -2   -1    0    0    0  501  0.00000000000E+00  0.00000000000E+00  0.11929840946E+04  0.11929840946E+04  0.25500000920E-02 0.  1.
        2   -1    0    0  501    0  0.00000000000E+00  0.00000000000E+00 -0.12572443166E+04  0.12572443166E+04  0.25500000920E-02 0. -1.
    10030    2    1    2    0    0  0.00000000000E+00  0.00000000000E+00 -0.64260222014E+02  0.24502284111E+04  0.24493856149E+04 0.  0.
        5    1    3    3  502    0  0.25868832956E+02  0.12242125792E+04 -0.10105563265E+02  0.12245365850E+04  0.46999998093E+01 0. -1.
       -5    1    3    3    0  502 -0.25868832956E+02 -0.12242125792E+04 -0.54154658749E+02  0.12256918261E+04  0.46999998093E+01 0.  1.
</event>
<event>
 5   0  0.2036578E-05  0.2056934E+04  0.7818609E-02  0.8580455E-01
       -1   -1    0    0    0  501  0.00000000000E+00  0.00000000000E+00  0.61242861318E+03  0.61242861320E+03  0.50400001928E-02 0. -1.
        1   -1    0    0  501    0  0.00000000000E+00  0.00000000000E+00 -0.17271304227E+04  0.17271304227E+04  0.50400001928E-02 0.  1.
    10030    2    1    2    0    0  0.00000000000E+00  0.00000000000E+00 -0.11147018096E+04  0.23395590359E+04  0.20569337273E+04 0.  0.
        2    1    3    3  502    0 -0.36260641113E+03 -0.39283817742E+03 -0.15566722354E+04  0.16459142419E+04  0.25500000920E-02 0.  1.
       -2    1    3    3    0  502  0.36260641113E+03  0.39283817742E+03  0.44197042585E+03  0.69364479409E+03  0.25500000920E-02 0. -1.
</event>
<event>
 5   0  0.2063930E-05  0.2640222E+04  0.7818609E-02  0.8354666E-01
       -1   -1    0    0    0  501  0.00000000000E+00  0.00000000000E+00  0.13203793596E+04  0.13203793596E+04  0.50400001928E-02 0. -1.
        1   -1    0    0  501    0  0.00000000000E+00  0.00000000000E+00 -0.13198422144E+04  0.13198422144E+04  0.50400001928E-02 0.  1.
    10030    2    1    2    0    0  0.00000000000E+00  0.00000000000E+00  0.53714518178E+00  0.26402215740E+04  0.26402215194E+04 0.  0.
        3    1    3    3  502    0  0.12801933661E+04  0.18876083602E+02 -0.32135395569E+03  0.13200453539E+04  0.10100000352E+00 0.  1.
       -3    1    3    3    0  502 -0.12801933661E+04 -0.18876083602E+02  0.32189110087E+03  0.13201762201E+04  0.10100000352E+00 0. -1.
</event>
<event>
 5   0  0.2036578E-05  0.1742218E+04  0.7818609E-02  0.8737645E-01
       -1   -1    0    0    0  501  0.00000000000E+00  0.00000000000E+00  0.87069102040E+03  0.87069102041E+03  0.50400001928E-02 0. -1.
        1   -1    0    0  501    0  0.00000000000E+00  0.00000000000E+00 -0.87152733198E+03  0.87152733199E+03  0.50400001928E-02 0.  1.
    10030    2    1    2    0    0  0.00000000000E+00  0.00000000000E+00 -0.83631158374E+00  0.17422183524E+04  0.17422181517E+04 0.  0.
        2    1    3    3  502    0 -0.11591491252E+03 -0.70507489701E+03 -0.49867933417E+03  0.87134835495E+03  0.25500000920E-02 0. -1.
       -2    1    3    3    0  502  0.11591491252E+03  0.70507489701E+03  0.49784302258E+03  0.87086999746E+03  0.25500000920E-02 0.  1.
</event>
<event>
 5   0  0.5219468E-05  0.2520584E+04  0.7818609E-02  0.8395689E-01
        2   -1    0    0  501    0  0.00000000000E+00  0.00000000000E+00  0.20473591410E+04  0.20473591410E+04  0.25500000920E-02 0. -1.
       -2   -1    0    0    0  501  0.00000000000E+00  0.00000000000E+00 -0.77579746351E+03  0.77579746351E+03  0.25500000920E-02 0.  1.
    10030    2    1    2    0    0  0.00000000000E+00  0.00000000000E+00  0.12715616775E+04  0.28231566046E+04  0.25205840819E+04 0.  0.
        1    1    3    3  502    0 -0.35888496775E+03  0.29025765669E+03 -0.67772081300E+03  0.81997160179E+03  0.50400001928E-02 0.  1.
       -1    1    3    3    0  502  0.35888496775E+03 -0.29025765669E+03  0.19492824905E+04  0.20031850028E+04  0.50400001928E-02 0. -1.
</event>
<event>
 5   0  0.2081874E-05  0.2409810E+04  0.7818609E-02  0.8435840E-01
       -1   -1    0    0    0  501  0.00000000000E+00  0.00000000000E+00  0.13192270753E+04  0.13192270753E+04  0.50400001928E-02 0.  1.
        1   -1    0    0  501    0  0.00000000000E+00  0.00000000000E+00 -0.11004899767E+04  0.11004899767E+04  0.50400001928E-02 0. -1.
    10030    2    1    2    0    0  0.00000000000E+00  0.00000000000E+00  0.21873709864E+03  0.24197170520E+04  0.24098100949E+04 0.  0.
        1    1    3    3  502    0 -0.31537910682E+03 -0.89930255599E+03  0.84968319070E+03  0.12767813410E+04  0.50400001928E-02 0.  1.
       -1    1    3    3    0  502  0.31537910682E+03  0.89930255599E+03 -0.63094609206E+03  0.11429357109E+04  0.50400001928E-02 0. -1.
</event>
<event>
 5   0  0.4995256E-05  0.2512435E+04  0.7818609E-02  0.8398569E-01
       -2   -1    0    0    0  501  0.00000000000E+00  0.00000000000E+00  0.17783595752E+04  0.17783595752E+04  0.25500000920E-02 0.  1.
        2   -1    0    0  501    0  0.00000000000E+00  0.00000000000E+00 -0.88738127550E+03  0.88738127551E+03  0.25500000920E-02 0. -1.
    10030    2    1    2    0    0  0.00000000000E+00  0.00000000000E+00  0.89097829972E+03  0.26657408507E+04  0.25124354624E+04 0.  0.
        2    1    3    3  502    0  0.81322171627E+03  0.59944992177E+03  0.12376468438E+04  0.15976355900E+04  0.25500000920E-02 0.  1.
       -2    1    3    3    0  502 -0.81322171627E+03 -0.59944992177E+03 -0.34666854406E+03  0.10681052607E+04  0.25500000920E-02 0. -1.
</event>
<event>
 5   0  0.1692125E-05  0.2218387E+04  0.7818609E-02  0.8510814E-01
       -3   -1    0    0    0  501  0.00000000000E+00  0.00000000000E+00  0.15422995100E+04  0.15422995134E+04  0.10100000352E+00 0.  1.
        3   -1    0    0  501    0  0.00000000000E+00  0.00000000000E+00 -0.79771127305E+03  0.79771127944E+03  0.10100000352E+00 0. -1.
    10030    2    1    2    0    0  0.00000000000E+00  0.00000000000E+00  0.74458823700E+03  0.23400107928E+04  0.22183865461E+04 0.  0.
        4    1    3    3  502    0 -0.58765776243E+03 -0.18761429300E+03  0.13446621101E+04  0.14794115627E+04  0.12699999809E+01 0.  1.
       -4    1    3    3    0  502  0.58765776243E+03  0.18761429300E+03 -0.60007387312E+03  0.86059923006E+03  0.12699999809E+01 0. -1.
</event>
<event>
 5   0  0.2081874E-05  0.2221112E+04  0.7818609E-02  0.8509692E-01
        1   -1    0    0  501    0  0.00000000000E+00  0.00000000000E+00  0.31274580388E+04  0.31274580388E+04  0.50400001928E-02 0.  1.
       -1   -1    0    0    0  501  0.00000000000E+00  0.00000000000E+00 -0.39435687692E+03  0.39435687695E+03  0.50400001928E-02 0. -1.
    10030    2    1    2    0    0  0.00000000000E+00  0.00000000000E+00  0.27331011619E+04  0.35218149158E+04  0.22211119602E+04 0.  0.
        1    1    3    3  502    0 -0.67069341992E+03  0.30401783879E+01  0.27700569265E+04  0.28500972409E+04  0.50400001928E-02 0.  1.
       -1    1    3    3    0  502  0.67069341992E+03 -0.30401783879E+01 -0.36955764626E+02  0.67171767490E+03  0.50400001928E-02 0. -1.
</event>
<event>
 5   0  0.2063930E-05  0.2550125E+04  0.7818609E-02  0.8385343E-01
       -1   -1    0    0    0  501  0.00000000000E+00  0.00000000000E+00  0.72081381687E+03  0.72081381689E+03  0.50400001928E-02 0. -1.
        1   -1    0    0  501    0  0.00000000000E+00  0.00000000000E+00 -0.22554840340E+04  0.22554840340E+04  0.50400001928E-02 0.  1.
    10030    2    1    2    0    0  0.00000000000E+00  0.00000000000E+00 -0.15346702171E+04  0.29762978509E+04  0.25501247463E+04 0.  0.
        3    1    3    3  502    0  0.33346758219E+03 -0.12285806312E+04 -0.85127884274E+03  0.15314328826E+04  0.10100000352E+00 0. -1.
       -3    1    3    3    0  502 -0.33346758219E+03  0.12285806312E+04 -0.68339137436E+03  0.14448649682E+04  0.10100000352E+00 0.  1.
</event>
<event>
 5   0  0.4959347E-05  0.2507144E+04  0.7818609E-02  0.8400445E-01
       -2   -1    0    0    0  501  0.00000000000E+00  0.00000000000E+00  0.13509712994E+04  0.13509712994E+04  0.25500000920E-02 0.  1.
        2   -1    0    0  501    0  0.00000000000E+00  0.00000000000E+00 -0.11631948892E+04  0.11631948892E+04  0.25500000920E-02 0. -1.
    10030    2    1    2    0    0  0.00000000000E+00  0.00000000000E+00  0.18777641020E+03  0.25141661887E+04  0.25071441211E+04 0.  0.
        3    1    3    3  502    0  0.88762854505E+03 -0.88183968286E+03  0.17102725663E+03  0.12628444057E+04  0.10100000352E+00 0.  1.
       -3    1    3    3    0  502 -0.88762854505E+03  0.88183968286E+03  0.16749153571E+02  0.12513217830E+04  0.10100000352E+00 0. -1.
</event>
<event>
 5   0  0.4959042E-05  0.2465767E+04  0.7818609E-02  0.8415284E-01
        2   -1    0    0  501    0  0.00000000000E+00  0.00000000000E+00  0.12435786372E+04  0.12435786372E+04  0.25500000920E-02 0.  1.
       -2   -1    0    0    0  501  0.00000000000E+00  0.00000000000E+00 -0.12222807713E+04  0.12222807714E+04  0.25500000920E-02 0. -1.
    10030    2    1    2    0    0  0.00000000000E+00  0.00000000000E+00  0.21297865813E+02  0.24658594085E+04  0.24657674309E+04 0.  0.
        4    1    3    3  502    0  0.23820789758E+03 -0.11229667294E+04  0.46033599137E+03  0.12368136948E+04  0.12699999809E+01 0.  1.
       -4    1    3    3    0  502 -0.23820789758E+03  0.11229667294E+04 -0.43903812556E+03  0.12290457137E+04  0.12699999809E+01 0. -1.
</event>
<event>
 5   0  0.2081874E-05  0.2467495E+04  0.7818609E-02  0.8414658E-01
        1   -1    0    0  501    0  0.00000000000E+00  0.00000000000E+00  0.17094449717E+04  0.17094449717E+04  0.50400001928E-02 0.  1.
       -1   -1    0    0    0  501  0.00000000000E+00  0.00000000000E+00 -0.89042518000E+03  0.89042518002E+03  0.50400001928E-02 0. -1.
    10030    2    1    2    0    0  0.00000000000E+00  0.00000000000E+00  0.81901979169E+03  0.25998701517E+04  0.24674949618E+04 0.  0.
        1    1    3    3  502    0 -0.64542888704E+03 -0.10478555795E+04  0.31793899032E+03  0.12710881029E+04  0.50400001928E-02 0.  1.
       -1    1    3    3    0  502  0.64542888704E+03  0.10478555795E+04  0.50108080137E+03  0.13287820488E+04  0.50400001928E-02 0. -1.
</event>
<event>
 5   0  0.2066170E-05  0.2671239E+04  0.7818609E-02  0.8344398E-01
       -1   -1    0    0    0  501  0.00000000000E+00  0.00000000000E+00  0.18124189694E+04  0.18124189694E+04  0.50400001928E-02 0.  1.
        1   -1    0    0  501    0  0.00000000000E+00  0.00000000000E+00 -0.98425344249E+03  0.98425344250E+03  0.50400001928E-02 0. -1.
    10030    2    1    2    0    0  0.00000000000E+00  0.00000000000E+00  0.82816552695E+03  0.27966724119E+04  0.26712391206E+04 0.  0.
        5    1    3    3  502    0 -0.43620122918E+03 -0.12347366060E+04  0.68911882019E+03  0.14797813477E+04  0.46999998093E+01 0. -1.
       -5    1    3    3    0  502  0.43620122918E+03  0.12347366060E+04  0.13904670676E+03  0.13168910643E+04  0.46999998093E+01 0.  1.
</event>
<event>
 5   0  0.4959347E-05  0.2509425E+04  0.7818609E-02  0.8399635E-01
        2   -1    0    0  501    0  0.00000000000E+00  0.00000000000E+00  0.14841097346E+04  0.14841097346E+04  0.25500000920E-02 0.  1.
       -2   -1    0    0    0  501  0.00000000000E+00  0.00000000000E+00 -0.10607730596E+04  0.10607730596E+04  0.25500000920E-02 0. -1.
    10030    2    1    2    0    0  0.00000000000E+00  0.00000000000E+00  0.42333667506E+03  0.25448827942E+04  0.25094251326E+04 0.  0.
        3    1    3    3  502    0  0.93803077143E+02  0.82093901872E+02 -0.10544779655E+04  0.10618202372E+04  0.10100000352E+00 0. -1.
       -3    1    3    3    0  502 -0.93803077143E+02 -0.82093901872E+02  0.14778146406E+04  0.14830625571E+04  0.10100000352E+00 0.  1.
</event>
<event>
 5   0  0.2041718E-05  0.2504434E+04  0.7818609E-02  0.8401407E-01
        1   -1    0    0  501    0  0.00000000000E+00  0.00000000000E+00  0.22319828568E+04  0.22319828568E+04  0.50400001928E-02 0. -1.
       -1   -1    0    0    0  501  0.00000000000E+00  0.00000000000E+00 -0.70253586853E+03  0.70253586854E+03  0.50400001928E-02 0.  1.
    10030    2    1    2    0    0  0.00000000000E+00  0.00000000000E+00  0.15294469883E+04  0.29345187253E+04  0.25044344790E+04 0.  0.
        4    1    3    3  502    0  0.92230901336E+03  0.70381284509E+03  0.13168553259E+04  0.17550259255E+04  0.12699999809E+01 0. -1.
       -4    1    3    3    0  502 -0.92230901336E+03 -0.70381284509E+03  0.21259166239E+03  0.11794927998E+04  0.12699999809E+01 0.  1.
</event>
<event>
 5   0  0.4959347E-05  0.2456270E+04  0.7818609E-02  0.8418732E-01
       -2   -1    0    0    0  501  0.00000000000E+00  0.00000000000E+00  0.12012991157E+04  0.12012991157E+04  0.25500000920E-02 0. -1.
        2   -1    0    0  501    0  0.00000000000E+00  0.00000000000E+00 -0.12555700860E+04  0.12555700860E+04  0.25500000920E-02 0.  1.
    10030    2    1    2    0    0  0.00000000000E+00  0.00000000000E+00 -0.54270970276E+02  0.24568692017E+04  0.24562697198E+04 0.  0.
        3    1    3    3  502    0  0.94560748940E+02  0.11554322625E+04 -0.43263518690E+03  0.12373918796E+04  0.10100000352E+00 0.  1.
       -3    1    3    3    0  502 -0.94560748940E+02 -0.11554322625E+04  0.37836421662E+03  0.12194773221E+04  0.10100000352E+00 0. -1.
</event>
<event>
 5   0  0.1692125E-05  0.2479878E+04  0.7818609E-02  0.8410189E-01
        3   -1    0    0  501    0  0.00000000000E+00  0.00000000000E+00  0.18759264778E+04  0.18759264805E+04  0.10100000352E+00 0. -1.
       -3   -1    0    0    0  501  0.00000000000E+00  0.00000000000E+00 -0.81956776403E+03  0.81956777026E+03  0.10100000352E+00 0.  1.
    10030    2    1    2    0    0  0.00000000000E+00  0.00000000000E+00  0.10563587137E+04  0.26954942507E+04  0.24798781268E+04 0.  0.
        2    1    3    3  502    0  0.84384040100E+03 -0.86348741550E+03  0.22118343288E+03  0.12274360472E+04  0.25500000920E-02 0.  1.
       -2    1    3    3    0  502 -0.84384040100E+03  0.86348741550E+03  0.83517528083E+03  0.14680582035E+04  0.25500000920E-02 0. -1.
</event>
<event>
 5   0  0.2036578E-05  0.2258939E+04  0.7818609E-02  0.8494289E-01
       -1   -1    0    0    0  501  0.00000000000E+00  0.00000000000E+00  0.71331785742E+03  0.71331785744E+03  0.50400001928E-02 0. -1.
        1   -1    0    0  501    0  0.00000000000E+00  0.00000000000E+00 -0.17884051862E+04  0.17884051862E+04  0.50400001928E-02 0.  1.
    10030    2    1    2    0    0  0.00000000000E+00  0.00000000000E+00 -0.10750873288E+04  0.25017230437E+04  0.22589390037E+04 0.  0.
        2    1    3    3  502    0 -0.13370493336E+03 -0.40859382742E+03 -0.16942478442E+04  0.17479421280E+04  0.25500000920E-02 0.  1.
       -2    1    3    3    0  502  0.13370493336E+03  0.40859382742E+03  0.61916051543E+03  0.75378091571E+03  0.25500000920E-02 0. -1.
</event>
<event>
 5   0  0.5024070E-05  0.2509563E+04  0.7818609E-02  0.8399587E-01
       -2   -1    0    0    0  501  0.00000000000E+00  0.00000000000E+00  0.11772346176E+04  0.11772346176E+04  0.25500000920E-02 0. -1.
        2   -1    0    0  501    0  0.00000000000E+00  0.00000000000E+00 -0.13374367367E+04  0.13374367367E+04  0.25500000920E-02 0.  1.
    10030    2    1    2    0    0  0.00000000000E+00  0.00000000000E+00 -0.16020211912E+03  0.25146713543E+04  0.25095631694E+04 0.  0.
        5    1    3    3  502    0 -0.93994925482E+03  0.36891919635E+03 -0.82649896599E+03  0.13048864341E+04  0.46999998093E+01 0. -1.
       -5    1    3    3    0  502  0.93994925482E+03 -0.36891919635E+03  0.66629684687E+03  0.12097849202E+04  0.46999998093E+01 0.  1.
</event>
<event>
 5   0  0.2081874E-05  0.2419672E+04  0.7818609E-02  0.8432175E-01
       -1   -1    0    0    0  501  0.00000000000E+00  0.00000000000E+00  0.93676677394E+03  0.93676677395E+03  0.50400001928E-02 0. -1.
        1   -1    0    0  501    0  0.00000000000E+00  0.00000000000E+00 -0.15625051357E+04  0.15625051357E+04  0.50400001928E-02 0.  1.
    10030    2    1    2    0    0  0.00000000000E+00  0.00000000000E+00 -0.62573836175E+03  0.24992719097E+04  0.24196717920E+04 0.  0.
        1    1    3    3  502    0  0.23652495801E+03  0.83363107089E+03  0.55919088397E+03  0.10312997929E+04  0.50400001928E-02 0. -1.
       -1    1    3    3    0  502 -0.23652495801E+03 -0.83363107089E+03 -0.11849292457E+04  0.14679721167E+04  0.50400001928E-02 0.  1.
</event>
<event>
 5   0  0.2081874E-05  0.2457041E+04  0.7818609E-02  0.8418452E-01
        1   -1    0    0  501    0  0.00000000000E+00  0.00000000000E+00  0.18254508702E+04  0.18254508702E+04  0.50400001928E-02 0.  1.
       -1   -1    0    0    0  501  0.00000000000E+00  0.00000000000E+00 -0.82678876318E+03  0.82678876320E+03  0.50400001928E-02 0. -1.
    10030    2    1    2    0    0  0.00000000000E+00  0.00000000000E+00  0.99866210703E+03  0.26522396334E+04  0.24570407138E+04 0.  0.
        1    1    3    3  502    0  0.40925840280E+03  0.84995081229E+03 -0.35018127516E+03  0.10062483536E+04  0.50400001928E-02 0. -1.
       -1    1    3    3    0  502 -0.40925840280E+03 -0.84995081229E+03  0.13488433822E+04  0.16459912798E+04  0.50400001928E-02 0.  1.
</event>
<event>
 5   0  0.5024070E-05  0.2565464E+04  0.7818609E-02  0.8380028E-01
       -2   -1    0    0    0  501  0.00000000000E+00  0.00000000000E+00  0.70762422114E+03  0.70762422115E+03  0.25500000920E-02 0.  1.
        2   -1    0    0  501    0  0.00000000000E+00  0.00000000000E+00 -0.23252477036E+04  0.23252477036E+04  0.25500000920E-02 0. -1.
    10030    2    1    2    0    0  0.00000000000E+00  0.00000000000E+00 -0.16176234825E+04  0.30328719248E+04  0.25654641648E+04 0.  0.
        5    1    3    3  502    0  0.35832833237E+03  0.72306237713E+03 -0.19875476211E+04  0.21451307725E+04  0.46999998093E+01 0. -1.
       -5    1    3    3    0  502 -0.35832833237E+03 -0.72306237713E+03  0.36992413866E+03  0.88774115223E+03  0.46999998093E+01 0.  1.
</event>
<event>
 5   0  0.2041718E-05  0.2552635E+04  0.7818609E-02  0.8384470E-01
        1   -1    0    0  501    0  0.00000000000E+00  0.00000000000E+00  0.20350201312E+04  0.20350201312E+04  0.50400001928E-02 0. -1.
       -1   -1    0    0    0  501  0.00000000000E+00  0.00000000000E+00 -0.80047680884E+03  0.80047680886E+03  0.50400001928E-02 0.  1.
    10030    2    1    2    0    0  0.00000000000E+00  0.00000000000E+00  0.12345433223E+04  0.28354969400E+04  0.25526350468E+04 0.  0.
        4    1    3    3  502    0  0.22558367352E+03  0.21995203523E+03 -0.75659989385E+03  0.81958032177E+03  0.12699999809E+01 0.  1.
       -4    1    3    3    0  502 -0.22558367352E+03 -0.21995203523E+03  0.19911432162E+04  0.20159166183E+04  0.12699999809E+01 0. -1.
</event>
<event>
 5   0  0.2081874E-05  0.2541923E+04  0.7818609E-02  0.8388201E-01
        1   -1    0    0  501    0  0.00000000000E+00  0.00000000000E+00  0.14406783903E+04  0.14406783903E+04  0.50400001928E-02 0. -1.
       -1   -1    0    0    0  501  0.00000000000E+00  0.00000000000E+00 -0.11212374056E+04  0.11212374056E+04  0.50400001928E-02 0.  1.
    10030    2    1    2    0    0  0.00000000000E+00  0.00000000000E+00  0.31944098468E+03  0.25619157959E+04  0.25419225013E+04 0.  0.
        1    1    3    3  502    0  0.97653903813E+03  0.81343013847E+03  0.16651274602E+03  0.12818048127E+04  0.50400001928E-02 0. -1.
       -1    1    3    3    0  502 -0.97653903813E+03 -0.81343013847E+03  0.15292823867E+03  0.12801109832E+04  0.50400001928E-02 0.  1.
</event>
<event>
 5   0  0.5024070E-05  0.2542474E+04  0.7818609E-02  0.8388008E-01
       -2   -1    0    0    0  501  0.00000000000E+00  0.00000000000E+00  0.11078009887E+04  0.11078009887E+04  0.25500000920E-02 0. -1.
        2   -1    0    0  501    0  0.00000000000E+00  0.00000000000E+00 -0.14587853637E+04  0.14587853637E+04  0.25500000920E-02 0.  1.
    10030    2    1    2    0    0  0.00000000000E+00  0.00000000000E+00 -0.35098437497E+03  0.25665863524E+04  0.25424742817E+04 0.  0.
        5    1    3    3  502    0  0.20466813778E+03  0.44165548547E+03  0.10099843576E+04  0.11211775537E+04  0.46999998093E+01 0. -1.
       -5    1    3    3    0  502 -0.20466813778E+03 -0.44165548547E+03 -0.13609687325E+04  0.14454087987E+04  0.46999998093E+01 0.  1.
</event>
<event>
 5   0  0.2066170E-05  0.2385214E+04  0.7818609E-02  0.8445060E-01
       -1   -1    0    0    0  501  0.00000000000E+00  0.00000000000E+00  0.89517180508E+03  0.89517180510E+03  0.50400001928E-02 0. -1.
        1   -1    0    0  501    0  0.00000000000E+00  0.00000000000E+00 -0.15888696278E+04  0.15888696278E+04  0.50400001928E-02 0.  1.
    10030    2    1    2    0    0  0.00000000000E+00  0.00000000000E+00 -0.69369782275E+03  0.24840414329E+04  0.23852138628E+04 0.  0.
        5    1    3    3  502    0  0.79635695702E+03  0.27754789850E+03 -0.12250385090E+04  0.14872655033E+04  0.46999998093E+01 0.  1.
       -5    1    3    3    0  502 -0.79635695702E+03 -0.27754789850E+03  0.53134068623E+03  0.99677592959E+03  0.46999998093E+01 0. -1.
</event>
<event>
 5   0  0.4959347E-05  0.2632291E+04  0.7818609E-02  0.8357315E-01
       -2   -1    0    0    0  501  0.00000000000E+00  0.00000000000E+00  0.87827375474E+03  0.87827375475E+03  0.25500000920E-02 0.  1.
        2   -1    0    0  501    0  0.00000000000E+00  0.00000000000E+00 -0.19723230003E+04  0.19723230003E+04  0.25500000920E-02 0. -1.
    10030    2    1    2    0    0  0.00000000000E+00  0.00000000000E+00 -0.10940492456E+04  0.28505967551E+04  0.26322914178E+04 0.  0.
        3    1    3    3  502    0 -0.12998647296E+04  0.18652267601E+03 -0.45137949769E+03  0.13885901070E+04  0.10100000352E+00 0.  1.
       -3    1    3    3    0  502  0.12998647296E+04 -0.18652267601E+03 -0.64266974787E+03  0.14620066481E+04  0.10100000352E+00 0. -1.
</event>
<event>
 5   0  0.2036578E-05  0.2523891E+04  0.7818609E-02  0.8394524E-01
        1   -1    0    0  501    0  0.00000000000E+00  0.00000000000E+00  0.92745434344E+03  0.92745434346E+03  0.50400001928E-02 0. -1.
       -1   -1    0    0    0  501  0.00000000000E+00  0.00000000000E+00 -0.17170720600E+04  0.17170720600E+04  0.50400001928E-02 0.  1.
    10030    2    1    2    0    0  0.00000000000E+00  0.00000000000E+00 -0.78961771656E+03  0.26445264035E+04  0.25238905999E+04 0.  0.
        2    1    3    3  502    0 -0.34461688432E+03  0.90423101878E+03 -0.12435322574E+04  0.15756798557E+04  0.25500000920E-02 0.  1.
       -2    1    3    3    0  502  0.34461688432E+03 -0.90423101878E+03  0.45391454088E+03  0.10688465478E+04  0.25500000920E-02 0. -1.
</event>
<event>
 5   0  0.2041718E-05  0.2522202E+04  0.7818609E-02  0.8395118E-01
        1   -1    0    0  501    0  0.00000000000E+00  0.00000000000E+00  0.16237469401E+04  0.16237469401E+04  0.50400001928E-02 0. -1.
       -1   -1    0    0    0  501  0.00000000000E+00  0.00000000000E+00 -0.97944835716E+03  0.97944835717E+03  0.50400001928E-02 0.  1.
    10030    2    1    2    0    0  0.00000000000E+00  0.00000000000E+00  0.64429858296E+03  0.26031952973E+04  0.25222024288E+04 0.  0.
        4    1    3    3  502    0  0.10118478933E+04  0.51845871946E+03  0.88532603962E+03  0.14409855698E+04  0.12699999809E+01 0. -1.
       -4    1    3    3    0  502 -0.10118478933E+04 -0.51845871946E+03 -0.24102745665E+03  0.11622097275E+04  0.12699999809E+01 0.  1.
</event>
<event>
 5   0  0.2081874E-05  0.2276148E+04  0.7818609E-02  0.8487385E-01
       -1   -1    0    0    0  501  0.00000000000E+00  0.00000000000E+00  0.16320103938E+04  0.16320103938E+04  0.50400001928E-02 0.  1.
        1   -1    0    0  501    0  0.00000000000E+00  0.00000000000E+00 -0.79362989071E+03  0.79362989073E+03  0.50400001928E-02 0. -1.
    10030    2    1    2    0    0  0.00000000000E+00  0.00000000000E+00  0.83838050307E+03  0.24256402845E+04  0.22761478252E+04 0.  0.
        1    1    3    3  502    0  0.23520073331E+03 -0.98079925795E+03 -0.14262077190E+03  0.10186399040E+04  0.50400001928E-02 0.  1.
       -1    1    3    3    0  502 -0.23520073331E+03  0.98079925795E+03  0.98100127498E+03  0.14070003806E+04  0.50400001928E-02 0. -1.
</event>
<event>
 5   0  0.2041718E-05  0.2520451E+04  0.7818609E-02  0.8395736E-01
       -1   -1    0    0    0  501  0.00000000000E+00  0.00000000000E+00  0.81380447751E+03  0.81380447752E+03  0.50400001928E-02 0.  1.
        1   -1    0    0  501    0  0.00000000000E+00  0.00000000000E+00 -0.19515361857E+04  0.19515361857E+04  0.50400001928E-02 0. -1.
    10030    2    1    2    0    0  0.00000000000E+00  0.00000000000E+00 -0.11377317082E+04  0.27653406632E+04  0.25204514563E+04 0.  0.
        4    1    3    3  502    0  0.41499843568E+03  0.21769348746E+02 -0.18741966552E+04  0.19197167295E+04  0.12699999809E+01 0. -1.
       -4    1    3    3    0  502 -0.41499843568E+03 -0.21769348746E+02  0.73646494704E+03  0.84562393372E+03  0.12699999809E+01 0.  1.
</event>
<event>
 5   0  0.4995256E-05  0.2380557E+04  0.7818609E-02  0.8446819E-01
       -2   -1    0    0    0  501  0.00000000000E+00  0.00000000000E+00  0.90735377111E+03  0.90735377112E+03  0.25500000920E-02 0.  1.
        2   -1    0    0  501    0  0.00000000000E+00  0.00000000000E+00 -0.15614232011E+04  0.15614232011E+04  0.25500000920E-02 0. -1.
    10030    2    1    2    0    0  0.00000000000E+00  0.00000000000E+00 -0.65406943003E+03  0.24687769723E+04  0.23805572708E+04 0.  0.
        2    1    3    3  502    0  0.59261461983E+03 -0.49964490603E+03 -0.12637953650E+04  0.14825706878E+04  0.25500000920E-02 0. -1.
       -2    1    3    3    0  502 -0.59261461983E+03  0.49964490603E+03  0.60972593495E+03  0.98620628447E+03  0.25500000920E-02 0.  1.
</event>
<event>
 5   0  0.5219468E-05  0.2483995E+04  0.7818609E-02  0.8408710E-01
        2   -1    0    0  501    0  0.00000000000E+00  0.00000000000E+00  0.13940124119E+04  0.13940124119E+04  0.25500000920E-02 0. -1.
       -2   -1    0    0    0  501  0.00000000000E+00  0.00000000000E+00 -0.11065596619E+04  0.11065596619E+04  0.25500000920E-02 0.  1.
    10030    2    1    2    0    0  0.00000000000E+00  0.00000000000E+00  0.28745274998E+03  0.25005720738E+04  0.24839950911E+04 0.  0.
        1    1    3    3  502    0  0.22618902253E+02  0.79426072306E+03 -0.81720990752E+03  0.11398218036E+04  0.50400001928E-02 0.  1.
       -1    1    3    3    0  502 -0.22618902253E+02 -0.79426072306E+03  0.11046626575E+04  0.13607502702E+04  0.50400001928E-02 0. -1.
</event>
<event>
 5   0  0.4959347E-05  0.2314504E+04  0.7818609E-02  0.8472224E-01
        2   -1    0    0  501    0  0.00000000000E+00  0.00000000000E+00  0.19413092825E+04  0.19413092825E+04  0.25500000920E-02 0.  1.
       -2   -1    0    0    0  501  0.00000000000E+00  0.00000000000E+00 -0.68986021827E+03  0.68986021827E+03  0.25500000920E-02 0. -1.
    10030    2    1    2    0    0  0.00000000000E+00  0.00000000000E+00  0.12514490642E+04  0.26311695008E+04  0.23145038737E+04 0.  0.
        3    1    3    3  502    0 -0.55846291927E+03  0.14265809516E+03 -0.51506524791E+03  0.77299701430E+03  0.10100000352E+00 0. -1.
       -3    1    3    3    0  502  0.55846291927E+03 -0.14265809516E+03  0.17665143121E+04  0.18581724865E+04  0.10100000352E+00 0.  1.
</event>
<event>
 5   0  0.5219468E-05  0.2511052E+04  0.7818609E-02  0.8399059E-01
        2   -1    0    0  501    0  0.00000000000E+00  0.00000000000E+00  0.10456246834E+04  0.10456246834E+04  0.25500000920E-02 0.  1.
       -2   -1    0    0    0  501  0.00000000000E+00  0.00000000000E+00 -0.15075632142E+04  0.15075632142E+04  0.25500000920E-02 0. -1.
    10030    2    1    2    0    0  0.00000000000E+00  0.00000000000E+00 -0.46193853083E+03  0.25531878976E+04  0.25110518183E+04 0.  0.
        1    1    3    3  502    0  0.98902805161E+03  0.74020538584E+03 -0.30090187789E+01  0.12353499724E+04  0.50400001928E-02 0.  1.
       -1    1    3    3    0  502 -0.98902805161E+03 -0.74020538584E+03 -0.45892951205E+03  0.13178379252E+04  0.50400001928E-02 0. -1.
</event>
<event>
 5   0  0.4959042E-05  0.2478341E+04  0.7818609E-02  0.8410742E-01
        2   -1    0    0  501    0  0.00000000000E+00  0.00000000000E+00  0.17178480221E+04  0.17178480221E+04  0.25500000920E-02 0.  1.
       -2   -1    0    0    0  501  0.00000000000E+00  0.00000000000E+00 -0.89387653233E+03  0.89387653234E+03  0.25500000920E-02 0. -1.
    10030    2    1    2    0    0  0.00000000000E+00  0.00000000000E+00  0.82397148974E+03  0.26117245544E+04  0.24783414075E+04 0.  0.
        4    1    3    3  502    0 -0.16962062930E+01 -0.12375807821E+04  0.47807754523E+03  0.13267135416E+04  0.12699999809E+01 0.  1.
       -4    1    3    3    0  502  0.16962062930E+01  0.12375807821E+04  0.34589394451E+03  0.12850110128E+04  0.12699999809E+01 0. -1.
</event>
<event>
 5   0  0.2063930E-05  0.2500415E+04  0.7818609E-02  0.8402838E-01
        1   -1    0    0  501    0  0.00000000000E+00  0.00000000000E+00  0.20833881301E+04  0.20833881301E+04  0.50400001928E-02 0.  1.
       -1   -1    0    0    0  501  0.00000000000E+00  0.00000000000E+00 -0.75022931578E+03  0.75022931580E+03  0.50400001928E-02 0. -1.
    10030    2    1    2    0    0  0.00000000000E+00  0.00000000000E+00  0.13331588143E+04  0.28336174459E+04  0.25004150467E+04 0.  0.
        3    1    3    3  502    0  0.15327672938E+03 -0.11943381661E+04  0.28549185712E+03  0.12375148571E+04  0.10100000352E+00 0. -1.
       -3    1    3    3    0  502 -0.15327672938E+03  0.11943381661E+04  0.10476669572E+04  0.15961025889E+04  0.10100000352E+00 0.  1.
</event>
<event>
 5   0  0.2081874E-05  0.2603770E+04  0.7818609E-02  0.8366922E-01
        1   -1    0    0  501    0  0.00000000000E+00  0.00000000000E+00  0.11373563396E+04  0.11373563396E+04  0.50400001928E-02 0.  1.
       -1   -1    0    0    0  501  0.00000000000E+00  0.00000000000E+00 -0.14902137551E+04  0.14902137551E+04  0.50400001928E-02 0. -1.
    10030    2    1    2    0    0  0.00000000000E+00  0.00000000000E+00 -0.35285741553E+03  0.26275700947E+04  0.26037696225E+04 0.  0.
        1    1    3    3  502    0  0.22783768069E+02 -0.71284178010E+03  0.92267411156E+03  0.11661861000E+04  0.50400001928E-02 0.  1.
       -1    1    3    3    0  502 -0.22783768069E+02  0.71284178010E+03 -0.12755315271E+04  0.14613839948E+04  0.50400001928E-02 0. -1.
</event>
<event>
 5   0  0.1692125E-05  0.2459037E+04  0.7818609E-02  0.8417726E-01
        3   -1    0    0  501    0  0.00000000000E+00  0.00000000000E+00  0.11702501521E+04  0.11702501564E+04  0.10100000352E+00 0. -1.
       -3   -1    0    0    0  501  0.00000000000E+00  0.00000000000E+00 -0.12917884756E+04  0.12917884795E+04  0.10100000352E+00 0.  1.
    10030    2    1    2    0    0  0.00000000000E+00  0.00000000000E+00 -0.12153832354E+03  0.24620386360E+04  0.24590369417E+04 0.  0.
        4    1    3    3  502    0 -0.99775017759E+03 -0.15801856250E+03 -0.76250899661E+03  0.12656606440E+04  0.12699999809E+01 0.  1.
       -4    1    3    3    0  502  0.99775017759E+03  0.15801856250E+03  0.64097067307E+03  0.11963779920E+04  0.12699999809E+01 0. -1.
</event>
<event>
 5   0  0.2081874E-05  0.2373145E+04  0.7818609E-02  0.8449627E-01
        1   -1    0    0  501    0  0.00000000000E+00  0.00000000000E+00  0.13755239804E+04  0.13755239804E+04  0.50400001928E-02 0. -1.
       -1   -1    0    0    0  501  0.00000000000E+00  0.00000000000E+00 -0.10235765105E+04  0.10235765105E+04  0.50400001928E-02 0.  1.
    10030    2    1    2    0    0  0.00000000000E+00  0.00000000000E+00  0.35194746991E+03  0.23991004909E+04  0.23731447794E+04 0.  0.
        1    1    3    3  502    0  0.66895399320E+03 -0.20758188674E+03  0.11442407448E+04  0.13415947849E+04  0.50400001928E-02 0. -1.
       -1    1    3    3    0  502 -0.66895399320E+03  0.20758188674E+03 -0.79229327493E+03  0.10575057060E+04  0.50400001928E-02 0.  1.
</event>
<event>
 5   0  0.2041718E-05  0.2112322E+04  0.7818609E-02  0.8555835E-01
        1   -1    0    0  501    0  0.00000000000E+00  0.00000000000E+00  0.15141910689E+04  0.15141910689E+04  0.50400001928E-02 0. -1.
       -1   -1    0    0    0  501  0.00000000000E+00  0.00000000000E+00 -0.73668113355E+03  0.73668113357E+03  0.50400001928E-02 0.  1.
    10030    2    1    2    0    0  0.00000000000E+00  0.00000000000E+00  0.77750993533E+03  0.22508722025E+04  0.21123219386E+04 0.  0.
        4    1    3    3  502    0 -0.10817158403E+03  0.10222213551E+04  0.64722798484E+03  0.12147194193E+04  0.12699999809E+01 0.  1.
       -4    1    3    3    0  502  0.10817158403E+03 -0.10222213551E+04  0.13028195050E+03  0.10361527831E+04  0.12699999809E+01 0. -1.
</event>
<event>
 5   0  0.2063930E-05  0.2566745E+04  0.7818609E-02  0.8379586E-01
       -1   -1    0    0    0  501  0.00000000000E+00  0.00000000000E+00  0.24477489238E+04  0.24477489238E+04  0.50400001928E-02 0.  1.
        1   -1    0    0  501    0  0.00000000000E+00  0.00000000000E+00 -0.67288162239E+03  0.67288162241E+03  0.50400001928E-02 0. -1.
    10030    2    1    2    0    0  0.00000000000E+00  0.00000000000E+00  0.17748673015E+04  0.31206305463E+04  0.25667452286E+04 0.  0.
        3    1    3    3  502    0 -0.11471272179E+04  0.38082363174E+03  0.14119433280E+04  0.18586316107E+04  0.10100000352E+00 0. -1.
       -3    1    3    3    0  502  0.11471272179E+04 -0.38082363174E+03  0.36292397342E+03  0.12619989355E+04  0.10100000352E+00 0.  1.
</event>
<event>
 5   0  0.4959042E-05  0.2523479E+04  0.7818609E-02  0.8394669E-01
        2   -1    0    0  501    0  0.00000000000E+00  0.00000000000E+00  0.88539280017E+03  0.88539280018E+03  0.25500000920E-02 0.  1.
       -2   -1    0    0    0  501  0.00000000000E+00  0.00000000000E+00 -0.17980565698E+04  0.17980565698E+04  0.25500000920E-02 0. -1.
    10030    2    1    2    0    0  0.00000000000E+00  0.00000000000E+00 -0.91266376965E+03  0.26834493700E+04  0.25234788220E+04 0.  0.
        4    1    3    3  502    0 -0.60964083669E+03 -0.18851325023E+03  0.70114842698E+03  0.94805586588E+03  0.12699999809E+01 0.  1.
       -4    1    3    3    0  502  0.60964083669E+03  0.18851325023E+03 -0.16138121966E+04  0.17353935041E+04  0.12699999809E+01 0. -1.
</event>
<event>
 5   0  0.2036578E-05  0.2414397E+04  0.7818609E-02  0.8434133E-01
       -1   -1    0    0    0  501  0.00000000000E+00  0.00000000000E+00  0.79749931785E+03  0.79749931787E+03  0.50400001928E-02 0.  1.
        1   -1    0    0  501    0  0.00000000000E+00  0.00000000000E+00 -0.18273724413E+04  0.18273724413E+04  0.50400001928E-02 0. -1.
    10030    2    1    2    0    0  0.00000000000E+00  0.00000000000E+00 -0.10298731235E+04  0.26248717592E+04  0.24143970472E+04 0.  0.
        2    1    3    3  502    0 -0.91251902975E+03 -0.29935701557E+03 -0.13101532627E+04  0.16244405727E+04  0.25500000920E-02 0. -1.
       -2    1    3    3    0  502  0.91251902975E+03  0.29935701557E+03  0.28028013925E+03  0.10004311865E+04  0.25500000920E-02 0.  1.
</event>
<event>
 5   0  0.2063930E-05  0.2529043E+04  0.7818609E-02  0.8392711E-01
        1   -1    0    0  501    0  0.00000000000E+00  0.00000000000E+00  0.19249762404E+04  0.19249762404E+04  0.50400001928E-02 0. -1.
       -1   -1    0    0    0  501  0.00000000000E+00  0.00000000000E+00 -0.83066739663E+03  0.83066739664E+03  0.50400001928E-02 0.  1.
    10030    2    1    2    0    0  0.00000000000E+00  0.00000000000E+00  0.10943088438E+04  0.27556436371E+04  0.25290432991E+04 0.  0.
        3    1    3    3  502    0  0.85948721419E+03  0.49135528312E+01  0.15577673004E+04  0.17791518729E+04  0.10100000352E+00 0. -1.
       -3    1    3    3    0  502 -0.85948721419E+03 -0.49135528312E+01 -0.46345845660E+03  0.97649176420E+03  0.10100000352E+00 0.  1.
</event>
<event>
 5   0  0.5024070E-05  0.2508256E+04  0.7818609E-02  0.8400050E-01
       -2   -1    0    0    0  501  0.00000000000E+00  0.00000000000E+00  0.98783129543E+03  0.98783129543E+03  0.25500000920E-02 0.  1.
        2   -1    0    0  501    0  0.00000000000E+00  0.00000000000E+00 -0.15922116421E+04  0.15922116421E+04  0.25500000920E-02 0. -1.
    10030    2    1    2    0    0  0.00000000000E+00  0.00000000000E+00 -0.60438034665E+03  0.25800429375E+04  0.25082555603E+04 0.  0.
        5    1    3    3  502    0  0.37929774853E+03 -0.63224980839E+02  0.92568719898E+03  0.10023886774E+04  0.46999998093E+01 0.  1.
       -5    1    3    3    0  502 -0.37929774853E+03  0.63224980839E+02 -0.15300675456E+04  0.15776542601E+04  0.46999998093E+01 0. -1.
</event>
<event>
 5   0  0.2036578E-05  0.2439989E+04  0.7818609E-02  0.8424682E-01
        1   -1    0    0  501    0  0.00000000000E+00  0.00000000000E+00  0.74328829117E+03  0.74328829119E+03  0.50400001928E-02 0. -1.
       -1   -1    0    0    0  501  0.00000000000E+00  0.00000000000E+00 -0.20024349449E+04  0.20024349449E+04  0.50400001928E-02 0.  1.
    10030    2    1    2    0    0  0.00000000000E+00  0.00000000000E+00 -0.12591466537E+04  0.27457232361E+04  0.24399888921E+04 0.  0.
        2    1    3    3  502    0 -0.66587592116E+02  0.17354154891E+03 -0.19864069589E+04  0.19950847558E+04  0.25500000920E-02 0.  1.
       -2    1    3    3    0  502  0.66587592116E+02 -0.17354154891E+03  0.72726030514E+03  0.75063848027E+03  0.25500000920E-02 0. -1.
</event>
<event>
 5   0  0.2066170E-05  0.2492411E+04  0.7818609E-02  0.8405694E-01
       -1   -1    0    0    0  501  0.00000000000E+00  0.00000000000E+00  0.14872754787E+04  0.14872754787E+04  0.50400001928E-02 0.  1.
        1   -1    0    0  501    0  0.00000000000E+00  0.00000000000E+00 -0.10442104509E+04  0.10442104509E+04  0.50400001928E-02 0. -1.
    10030    2    1    2    0    0  0.00000000000E+00  0.00000000000E+00  0.44306502782E+03  0.25314859295E+04  0.24924113610E+04 0.  0.
        5    1    3    3  502    0 -0.11846540320E+04  0.52784871147E+02  0.61070411725E+03  0.13338564491E+04  0.46999998093E+01 0.  1.
       -5    1    3    3    0  502  0.11846540320E+04 -0.52784871147E+02 -0.16763908943E+03  0.11976294804E+04  0.46999998093E+01 0. -1.
</event>
<event>
 5   0  0.2066170E-05  0.2478580E+04  0.7818609E-02  0.8410656E-01
       -1   -1    0    0    0  501  0.00000000000E+00  0.00000000000E+00  0.99740672709E+03  0.99740672711E+03  0.50400001928E-02 0. -1.
        1   -1    0    0  501    0  0.00000000000E+00  0.00000000000E+00 -0.15398330025E+04  0.15398330025E+04  0.50400001928E-02 0.  1.
    10030    2    1    2    0    0  0.00000000000E+00  0.00000000000E+00 -0.54242627544E+03  0.25372397296E+04  0.24785800736E+04 0.  0.
        5    1    3    3  502    0 -0.52094772262E+03  0.11071514444E+04 -0.47245374890E+03  0.13116422856E+04  0.46999998093E+01 0.  1.
       -5    1    3    3    0  502  0.52094772262E+03 -0.11071514444E+04 -0.69972526539E+02  0.12255974441E+04  0.46999998093E+01 0. -1.
</event>
<event>
 5   0  0.4995256E-05  0.2475481E+04  0.7818609E-02  0.8411773E-01
        2   -1    0    0  501    0  0.00000000000E+00  0.00000000000E+00  0.17970965011E+04  0.17970965012E+04  0.25500000920E-02 0. -1.
       -2   -1    0    0    0  501  0.00000000000E+00  0.00000000000E+00 -0.85248687562E+03  0.85248687562E+03  0.25500000920E-02 0.  1.
    10030    2    1    2    0    0  0.00000000000E+00  0.00000000000E+00  0.94460962553E+03  0.26495833768E+04  0.24754807060E+04 0.  0.
        2    1    3    3  502    0 -0.78659798363E+03 -0.96452676125E+02  0.14899421987E+04  0.16875921492E+04  0.25500000920E-02 0. -1.
       -2    1    3    3    0  502  0.78659798363E+03  0.96452676125E+02 -0.54533257315E+03  0.96199122758E+03  0.25500000920E-02 0.  1.
</event>
<event>
 5   0  0.4995256E-05  0.2502587E+04  0.7818609E-02  0.8402065E-01
        2   -1    0    0  501    0  0.00000000000E+00  0.00000000000E+00  0.10069195536E+04  0.10069195536E+04  0.25500000920E-02 0.  1.
       -2   -1    0    0    0  501  0.00000000000E+00  0.00000000000E+00 -0.15549750776E+04  0.15549750776E+04  0.25500000920E-02 0. -1.
    10030    2    1    2    0    0  0.00000000000E+00  0.00000000000E+00 -0.54805552398E+03  0.25618946312E+04  0.25025865108E+04 0.  0.
        2    1    3    3  502    0 -0.37314697440E+03  0.63099844707E+03  0.76407397512E+03  0.10588705040E+04  0.25500000920E-02 0.  1.
       -2    1    3    3    0  502  0.37314697440E+03 -0.63099844707E+03 -0.13121294991E+04  0.15030241273E+04  0.25500000920E-02 0. -1.
</event>
<event>
 5   0  0.5024070E-05  0.2379628E+04  0.7818609E-02  0.8447170E-01
        2   -1    0    0  501    0  0.00000000000E+00  0.00000000000E+00  0.24069401402E+04  0.24069401402E+04  0.25500000920E-02 0. -1.
       -2   -1    0    0    0  501  0.00000000000E+00  0.00000000000E+00 -0.58815639845E+03  0.58815639845E+03  0.25500000920E-02 0.  1.
    10030    2    1    2    0    0  0.00000000000E+00  0.00000000000E+00  0.18187837418E+04  0.29950965387E+04  0.23796279072E+04 0.  0.
        5    1    3    3  502    0  0.67485254277E+03 -0.20523028617E+03  0.21153836191E+04  0.22298913361E+04  0.46999998093E+01 0. -1.
       -5    1    3    3    0  502 -0.67485254277E+03  0.20523028617E+03 -0.29659987732E+03  0.76520520259E+03  0.46999998093E+01 0.  1.
</event>
<event>
 5   0  0.4959042E-05  0.2518140E+04  0.7818609E-02  0.8396551E-01
        2   -1    0    0  501    0  0.00000000000E+00  0.00000000000E+00  0.15374347147E+04  0.15374347147E+04  0.25500000920E-02 0. -1.
       -2   -1    0    0    0  501  0.00000000000E+00  0.00000000000E+00 -0.10311053892E+04  0.10311053892E+04  0.25500000920E-02 0.  1.
    10030    2    1    2    0    0  0.00000000000E+00  0.00000000000E+00  0.50632932555E+03  0.25685401039E+04  0.25181399643E+04 0.  0.
        4    1    3    3  502    0 -0.34300110399E+03 -0.12109155012E+04  0.28979297744E+03  0.12914904920E+04  0.12699999809E+01 0. -1.
       -4    1    3    3    0  502  0.34300110399E+03  0.12109155012E+04  0.21653634811E+03  0.12770496119E+04  0.12699999809E+01 0.  1.
</event>
<event>
 5   0  0.2081874E-05  0.2467017E+04  0.7818609E-02  0.8414831E-01
       -1   -1    0    0    0  501  0.00000000000E+00  0.00000000000E+00  0.10678168227E+04  0.10678168227E+04  0.50400001928E-02 0.  1.
        1   -1    0    0  501    0  0.00000000000E+00  0.00000000000E+00 -0.14249101799E+04  0.14249101799E+04  0.50400001928E-02 0. -1.
    10030    2    1    2    0    0  0.00000000000E+00  0.00000000000E+00 -0.35709335718E+03  0.24927270026E+04  0.24670168714E+04 0.  0.
        1    1    3    3  502    0 -0.85987232592E+03 -0.52559235563E+03  0.54014317570E+03  0.11434082348E+04  0.50400001928E-02 0.  1.
       -1    1    3    3    0  502  0.85987232592E+03  0.52559235563E+03 -0.89723653288E+03  0.13493187678E+04  0.50400001928E-02 0. -1.
</event>
<event>
 5   0  0.4959042E-05  0.2507504E+04  0.7818609E-02  0.8400317E-01
       -2   -1    0    0    0  501  0.00000000000E+00  0.00000000000E+00  0.85227813577E+03  0.85227813577E+03  0.25500000920E-02 0.  1.
        2   -1    0    0  501    0  0.00000000000E+00  0.00000000000E+00 -0.18443445703E+04  0.18443445703E+04  0.25500000920E-02 0. -1.
    10030    2    1    2    0    0  0.00000000000E+00  0.00000000000E+00 -0.99206643449E+03  0.26966227060E+04  0.25075043785E+04 0.  0.
        4    1    3    3  502    0  0.17138216981E+03 -0.12013936163E+04 -0.83470454511E+03  0.14729058897E+04  0.12699999809E+01 0.  1.
       -4    1    3    3    0  502 -0.17138216981E+03  0.12013936163E+04 -0.15736188938E+03  0.12237168163E+04  0.12699999809E+01 0. -1.
</event>
<event>
 5   0  0.2041718E-05  0.2450804E+04  0.7818609E-02  0.8420725E-01
       -1   -1    0    0    0  501  0.00000000000E+00  0.00000000000E+00  0.66595466037E+03  0.66595466039E+03  0.50400001928E-02 0.  1.
        1   -1    0    0  501    0  0.00000000000E+00  0.00000000000E+00 -0.22548229091E+04  0.22548229091E+04  0.50400001928E-02 0. -1.
    10030    2    1    2    0    0  0.00000000000E+00  0.00000000000E+00 -0.15888682488E+04  0.29207775695E+04  0.24508038067E+04 0.  0.
        4    1    3    3  502    0  0.96217485343E+03 -0.61205312838E+03 -0.13290282001E+04  0.17512016018E+04  0.12699999809E+01 0. -1.
       -4    1    3    3    0  502 -0.96217485343E+03  0.61205312838E+03 -0.25984004867E+03  0.11695759677E+04  0.12699999809E+01 0.  1.
</event>
<event>
 5   0  0.5219468E-05  0.2071129E+04  0.7818609E-02  0.8574069E-01
       -2   -1    0    0    0  501  0.00000000000E+00  0.00000000000E+00  0.77495186043E+03  0.77495186044E+03  0.25500000920E-02 0.  1.
        2   -1    0    0  501    0  0.00000000000E+00  0.00000000000E+00 -0.13838204773E+04  0.13838204773E+04  0.25500000920E-02 0. -1.
    10030    2    1    2    0    0  0.00000000000E+00  0.00000000000E+00 -0.60886861683E+03  0.21587723377E+04  0.20711294053E+04 0.  0.
        1    1    3    3  502    0 -0.79135229584E+03  0.31508514034E+03 -0.91831992348E+03  0.12525288754E+04  0.50400001928E-02 0. -1.
       -1    1    3    3    0  502  0.79135229584E+03 -0.31508514034E+03  0.30945130665E+03  0.90624346232E+03  0.50400001928E-02 0.  1.
</event>
<event>
 5   0  0.2063930E-05  0.2424795E+04  0.7818609E-02  0.8430279E-01
        1   -1    0    0  501    0  0.00000000000E+00  0.00000000000E+00  0.20397300925E+04  0.20397300925E+04  0.50400001928E-02 0.  1.
       -1   -1    0    0    0  501  0.00000000000E+00  0.00000000000E+00 -0.72063831672E+03  0.72063831674E+03  0.50400001928E-02 0. -1.
    10030    2    1    2    0    0  0.00000000000E+00  0.00000000000E+00  0.13190917757E+04  0.27603684092E+04  0.24247949690E+04 0.  0.
        3    1    3    3  502    0 -0.13365570179E+03 -0.11475735504E+04  0.10780019227E+04  0.15801509599E+04  0.10100000352E+00 0.  1.
       -3    1    3    3    0  502  0.13365570179E+03  0.11475735504E+04  0.24108985299E+03  0.11802174493E+04  0.10100000352E+00 0. -1.
</event>
<event>
 5   0  0.4959347E-05  0.2514934E+04  0.7818609E-02  0.8397684E-01
        2   -1    0    0  501    0  0.00000000000E+00  0.00000000000E+00  0.11628862535E+04  0.11628862535E+04  0.25500000920E-02 0. -1.
       -2   -1    0    0    0  501  0.00000000000E+00  0.00000000000E+00 -0.13597404682E+04  0.13597404682E+04  0.25500000920E-02 0.  1.
    10030    2    1    2    0    0  0.00000000000E+00  0.00000000000E+00 -0.19685421468E+03  0.25226267217E+04  0.25149341930E+04 0.  0.
        3    1    3    3  502    0  0.56897699285E+03  0.10813104579E+04 -0.39641552325E+03  0.12845670096E+04  0.10100000352E+00 0.  1.
       -3    1    3    3    0  502 -0.56897699285E+03 -0.10813104579E+04  0.19956130858E+03  0.12380597121E+04  0.10100000352E+00 0. -1.
</event>
<event>
 5   0  0.2066170E-05  0.2589421E+04  0.7818609E-02  0.8371804E-01
        1   -1    0    0  501    0  0.00000000000E+00  0.00000000000E+00  0.11063595214E+04  0.11063595214E+04  0.50400001928E-02 0. -1.
       -1   -1    0    0    0  501  0.00000000000E+00  0.00000000000E+00 -0.15151265999E+04  0.15151265999E+04  0.50400001928E-02 0.  1.
    10030    2    1    2    0    0  0.00000000000E+00  0.00000000000E+00 -0.40876707851E+03  0.26214861212E+04  0.25894205837E+04 0.  0.
        5    1    3    3  502    0 -0.47769200100E+03  0.17601198301E+02  0.10137425185E+04  0.11208012464E+04  0.46999998093E+01 0. -1.
       -5    1    3    3    0  502  0.47769200100E+03 -0.17601198301E+02 -0.14225095970E+04  0.15006848749E+04  0.46999998093E+01 0.  1.
</event>
<event>
 5   0  0.5219468E-05  0.1905170E+04  0.7818609E-02  0.8652287E-01
        2   -1    0    0  501    0  0.00000000000E+00  0.00000000000E+00  0.19180141550E+04  0.19180141550E+04  0.25500000920E-02 0. -1.
       -2   -1    0    0    0  501  0.00000000000E+00  0.00000000000E+00 -0.47310301584E+03  0.47310301585E+03  0.25500000920E-02 0.  1.
    10030    2    1    2    0    0  0.00000000000E+00  0.00000000000E+00  0.14449111392E+04  0.23911171708E+04  0.19051701039E+04 0.  0.
        1    1    3    3  502    0  0.13849918485E+03 -0.94046307616E+03  0.64544043471E+03  0.11490196589E+04  0.50400001928E-02 0.  1.
       -1    1    3    3    0  502 -0.13849918485E+03  0.94046307616E+03  0.79947070444E+03  0.12420975119E+04  0.50400001928E-02 0. -1.
</event>
<event>
 5   0  0.4959347E-05  0.2542426E+04  0.7818609E-02  0.8388025E-01
       -2   -1    0    0    0  501  0.00000000000E+00  0.00000000000E+00  0.65249991725E+03  0.65249991726E+03  0.25500000920E-02 0. -1.
        2   -1    0    0  501    0  0.00000000000E+00  0.00000000000E+00 -0.24766019457E+04  0.24766019457E+04  0.25500000920E-02 0.  1.
    10030    2    1    2    0    0  0.00000000000E+00  0.00000000000E+00 -0.18241020285E+04  0.31291018630E+04  0.25424260577E+04 0.  0.
        3    1    3    3  502    0 -0.10982532132E+04  0.58967987711E+03 -0.60534842779E+03  0.13857594333E+04  0.10100000352E+00 0. -1.
       -3    1    3    3    0  502  0.10982532132E+04 -0.58967987711E+03 -0.12187536007E+04  0.17433424297E+04  0.10100000352E+00 0.  1.
</event>
<event>
 5   0  0.1692125E-05  0.2182420E+04  0.7818609E-02  0.8525781E-01
       -3   -1    0    0    0  501  0.00000000000E+00  0.00000000000E+00  0.16540106953E+04  0.16540106983E+04  0.10100000352E+00 0. -1.
        3   -1    0    0  501    0  0.00000000000E+00  0.00000000000E+00 -0.71991017036E+03  0.71991017745E+03  0.10100000352E+00 0.  1.
    10030    2    1    2    0    0  0.00000000000E+00  0.00000000000E+00  0.93410052489E+03  0.23739208758E+04  0.21824198803E+04 0.  0.
        1    1    3    3  502    0 -0.20406932218E+03  0.23441593021E+02 -0.69869055155E+03  0.72825976368E+03  0.50400001928E-02 0.  1.
       -1    1    3    3    0  502  0.20406932218E+03 -0.23441593021E+02  0.16327910764E+04  0.16456611121E+04  0.50400001928E-02 0. -1.
</event>
<event>
 5   0  0.2041718E-05  0.2570666E+04  0.7818609E-02  0.8378234E-01
        1   -1    0    0  501    0  0.00000000000E+00  0.00000000000E+00  0.18178814230E+04  0.18178814230E+04  0.50400001928E-02 0. -1.
       -1   -1    0    0    0  501  0.00000000000E+00  0.00000000000E+00 -0.90879479378E+03  0.90879479379E+03  0.50400001928E-02 0.  1.
    10030    2    1    2    0    0  0.00000000000E+00  0.00000000000E+00  0.90908662917E+03  0.27266762168E+04  0.25706661961E+04 0.  0.
        4    1    3    3  502    0 -0.10198776769E+03  0.19628217298E+03 -0.88845401090E+03  0.91557650613E+03  0.12699999809E+01 0.  1.
       -4    1    3    3    0  502  0.10198776769E+03 -0.19628217298E+03  0.17975406401E+04  0.18110997106E+04  0.12699999809E+01 0. -1.
</event>
<event>
 5   0  0.2036578E-05  0.2452714E+04  0.7818609E-02  0.8420028E-01
       -1   -1    0    0    0  501  0.00000000000E+00  0.00000000000E+00  0.62207774660E+03  0.62207774662E+03  0.50400001928E-02 0. -1.
        1   -1    0    0  501    0  0.00000000000E+00  0.00000000000E+00 -0.24176264938E+04  0.24176264938E+04  0.50400001928E-02 0.  1.
    10030    2    1    2    0    0  0.00000000000E+00  0.00000000000E+00 -0.17955487472E+04  0.30397042405E+04  0.24527141223E+04 0.  0.
        2    1    3    3  502    0  0.64172425497E+03 -0.61935921220E+03 -0.19409688849E+04  0.21360655574E+04  0.25500000920E-02 0.  1.
       -2    1    3    3    0  502 -0.64172425497E+03  0.61935921220E+03  0.14542013766E+03  0.90363868311E+03  0.25500000920E-02 0. -1.
</event>
<event>
 5   0  0.4959042E-05  0.2492070E+04  0.7818609E-02  0.8405816E-01
        2   -1    0    0  501    0  0.00000000000E+00  0.00000000000E+00  0.12552642220E+04  0.12552642220E+04  0.25500000920E-02 0. -1.
       -2   -1    0    0    0  501  0.00000000000E+00  0.00000000000E+00 -0.12368737657E+04  0.12368737657E+04  0.25500000920E-02 0.  1.
    10030    2    1    2    0    0  0.00000000000E+00  0.00000000000E+00  0.18390456284E+02  0.24921379878E+04  0.24920701317E+04 0.  0.
        4    1    3    3  502    0 -0.95553261649E+02  0.74773060848E+03  0.10013766082E+04  0.12533906865E+04  0.12699999809E+01 0. -1.
       -4    1    3    3    0  502  0.95553261649E+02 -0.74773060848E+03 -0.98298615189E+03  0.12387473013E+04  0.12699999809E+01 0.  1.
</event>
<event>
 5   0  0.5219468E-05  0.2485966E+04  0.7818609E-02  0.8408002E-01
        2   -1    0    0  501    0  0.00000000000E+00  0.00000000000E+00  0.26952932593E+04  0.26952932593E+04  0.25500000920E-02 0.  1.
       -2   -1    0    0    0  501  0.00000000000E+00  0.00000000000E+00 -0.57322412231E+03  0.57322412231E+03  0.25500000920E-02 0. -1.
    10030    2    1    2    0    0  0.00000000000E+00  0.00000000000E+00  0.21220691370E+04  0.32685173816E+04  0.24859663014E+04 0.  0.
        1    1    3    3  502    0  0.42049375881E+03 -0.95764368154E+02 -0.47170614293E+03  0.63913418052E+03  0.50400001928E-02 0. -1.
       -1    1    3    3    0  502 -0.42049375881E+03  0.95764368154E+02  0.25937752799E+04  0.26293832011E+04  0.50400001928E-02 0.  1.
</event>
<event>
 5   0  0.2081874E-05  0.2523856E+04  0.7818609E-02  0.8394536E-01
        1   -1    0    0  501    0  0.00000000000E+00  0.00000000000E+00  0.88167843789E+03  0.88167843791E+03  0.50400001928E-02 0.  1.
       -1   -1    0    0    0  501  0.00000000000E+00  0.00000000000E+00 -0.18061714963E+04  0.18061714963E+04  0.50400001928E-02 0. -1.
    10030    2    1    2    0    0  0.00000000000E+00  0.00000000000E+00 -0.92449305845E+03  0.26878499342E+04  0.25238561476E+04 0.  0.
        1    1    3    3  502    0 -0.19255416494E+03 -0.89664957202E+03  0.46091443505E+03  0.10264013240E+04  0.50400001928E-02 0.  1.
       -1    1    3    3    0  502  0.19255416494E+03  0.89664957202E+03 -0.13854074935E+04  0.16614486103E+04  0.50400001928E-02 0. -1.
</event>
<event>
 5   0  0.5024070E-05  0.2455720E+04  0.7818609E-02  0.8418932E-01
        2   -1    0    0  501    0  0.00000000000E+00  0.00000000000E+00  0.19007238999E+04  0.19007238999E+04  0.25500000920E-02 0.  1.
       -2   -1    0    0    0  501  0.00000000000E+00  0.00000000000E+00 -0.79319271249E+03  0.79319271250E+03  0.25500000920E-02 0. -1.
    10030    2    1    2    0    0  0.00000000000E+00  0.00000000000E+00  0.11075311874E+04  0.26939166124E+04  0.24557201354E+04 0.  0.
        5    1    3    3  502    0  0.10141219740E+04  0.69143742012E+03  0.51756185195E+03  0.13320741138E+04  0.46999998093E+01 0.  1.
       -5    1    3    3    0  502 -0.10141219740E+04 -0.69143742012E+03  0.58996933543E+03  0.13618424985E+04  0.46999998093E+01 0. -1.
</event>
<event>
 5   0  0.2041718E-05  0.2551666E+04  0.7818609E-02  0.8384807E-01
        1   -1    0    0  501    0  0.00000000000E+00  0.00000000000E+00  0.15316363345E+04  0.15316363345E+04  0.50400001928E-02 0.  1.
       -1   -1    0    0    0  501  0.00000000000E+00  0.00000000000E+00 -0.10627518841E+04  0.10627518841E+04  0.50400001928E-02 0. -1.
    10030    2    1    2    0    0  0.00000000000E+00  0.00000000000E+00  0.46888445041E+03  0.25943882186E+04  0.25516656523E+04 0.  0.
        4    1    3    3  502    0  0.45967533941E+03 -0.11683111394E+04  0.37167070992E+01  0.12554950270E+04  0.12699999809E+01 0. -1.
       -4    1    3    3    0  502 -0.45967533941E+03  0.11683111394E+04  0.46516774331E+03  0.13388931916E+04  0.12699999809E+01 0.  1.
</event>
<event>
 5   0  0.2066170E-05  0.2452750E+04  0.7818609E-02  0.8420015E-01
       -1   -1    0    0    0  501  0.00000000000E+00  0.00000000000E+00  0.21260236122E+04  0.21260236122E+04  0.50400001928E-02 0. -1.
        1   -1    0    0  501    0  0.00000000000E+00  0.00000000000E+00 -0.70742194711E+03  0.70742194712E+03  0.50400001928E-02 0.  1.
    10030    2    1    2    0    0  0.00000000000E+00  0.00000000000E+00  0.14186016651E+04  0.28334455593E+04  0.24527501001E+04 0.  0.
        5    1    3    3  502    0 -0.30017169374E+03  0.16488336983E+03  0.20696498236E+04  0.20977993359E+04  0.46999998093E+01 0. -1.
       -5    1    3    3    0  502  0.30017169374E+03 -0.16488336983E+03 -0.65104815850E+03  0.73564622344E+03  0.46999998093E+01 0.  1.
</event>
<event>
 5   0  0.2036578E-05  0.2061466E+04  0.7818609E-02  0.8578411E-01
        1   -1    0    0  501    0  0.00000000000E+00  0.00000000000E+00  0.22973699788E+04  0.22973699788E+04  0.50400001928E-02 0.  1.
       -1   -1    0    0    0  501  0.00000000000E+00  0.00000000000E+00 -0.46244619570E+03  0.46244619573E+03  0.50400001928E-02 0. -1.
    10030    2    1    2    0    0  0.00000000000E+00  0.00000000000E+00  0.18349237831E+04  0.27598161746E+04  0.20614655048E+04 0.  0.
        2    1    3    3  502    0  0.16155757399E+03 -0.91461291986E+03  0.15158645667E+04  0.17777691154E+04  0.25500000920E-02 0.  1.
       -2    1    3    3    0  502 -0.16155757399E+03  0.91461291986E+03  0.31905921638E+03  0.98204705918E+03  0.25500000920E-02 0. -1.
</event>
<event>
 5   0  0.4959042E-05  0.2471022E+04  0.7818609E-02  0.8413382E-01
       -2   -1    0    0    0  501  0.00000000000E+00  0.00000000000E+00  0.16859429794E+04  0.16859429794E+04  0.25500000920E-02 0.  1.
        2   -1    0    0  501    0  0.00000000000E+00  0.00000000000E+00 -0.90542036495E+03  0.90542036496E+03  0.25500000920E-02 0. -1.
    10030    2    1    2    0    0  0.00000000000E+00  0.00000000000E+00  0.78052261446E+03  0.25913633444E+04  0.24710217382E+04 0.  0.
        4    1    3    3  502    0 -0.78100493313E+02  0.63151484915E+03  0.15008822720E+04  0.16302024105E+04  0.12699999809E+01 0.  1.
       -4    1    3    3    0  502  0.78100493313E+02 -0.63151484915E+03 -0.72035965755E+03  0.96116093391E+03  0.12699999809E+01 0. -1.
</event>
<event>
 5   0  0.2081874E-05  0.2310744E+04  0.7818609E-02  0.8473697E-01
        1   -1    0    0  501    0  0.00000000000E+00  0.00000000000E+00  0.23599941414E+04  0.23599941414E+04  0.50400001928E-02 0.  1.
       -1   -1    0    0    0  501  0.00000000000E+00  0.00000000000E+00 -0.56563044701E+03  0.56563044703E+03  0.50400001928E-02 0. -1.
    10030    2    1    2    0    0  0.00000000000E+00  0.00000000000E+00  0.17943636944E+04  0.29256245885E+04  0.23107440717E+04 0.  0.
        1    1    3    3  502    0  0.35746758674E+03 -0.10622206594E+04  0.12525666214E+04  0.16807792674E+04  0.50400001928E-02 0.  1.
       -1    1    3    3    0  502 -0.35746758674E+03  0.10622206594E+04  0.54179707304E+03  0.12448453210E+04  0.50400001928E-02 0. -1.
</event>
<event>
 5   0  0.2063930E-05  0.2462252E+04  0.7818609E-02  0.8416558E-01
        1   -1    0    0  501    0  0.00000000000E+00  0.00000000000E+00  0.16255845017E+04  0.16255845017E+04  0.50400001928E-02 0.  1.
       -1   -1    0    0    0  501  0.00000000000E+00  0.00000000000E+00 -0.93238571951E+03  0.93238571953E+03  0.50400001928E-02 0. -1.
    10030    2    1    2    0    0  0.00000000000E+00  0.00000000000E+00  0.69319878214E+03  0.25579702212E+04  0.24622524446E+04 0.  0.
        3    1    3    3  502    0  0.11413939091E+04  0.25445493303E+03 -0.53258362108E+02  0.11706254021E+04  0.10100000352E+00 0.  1.
       -3    1    3    3    0  502 -0.11413939091E+04 -0.25445493303E+03  0.74645714425E+03  0.13873448191E+04  0.10100000352E+00 0. -1.
</event>
<event>
 5   0  0.4995256E-05  0.2548042E+04  0.7818609E-02  0.8386067E-01
        2   -1    0    0  501    0  0.00000000000E+00  0.00000000000E+00  0.25149190188E+04  0.25149190188E+04  0.25500000920E-02 0.  1.
       -2   -1    0    0    0  501  0.00000000000E+00  0.00000000000E+00 -0.64540033134E+03  0.64540033135E+03  0.25500000920E-02 0. -1.
    10030    2    1    2    0    0  0.00000000000E+00  0.00000000000E+00  0.18695186874E+04  0.31603193501E+04  0.25480420468E+04 0.  0.
        2    1    3    3  502    0  0.46194720388E+03 -0.12144427725E+03 -0.53014493646E+03  0.71358081904E+03  0.25500000920E-02 0. -1.
       -2    1    3    3    0  502 -0.46194720388E+03  0.12144427725E+03  0.23996636239E+04  0.24467385311E+04  0.25500000920E-02 0.  1.
</event>
<event>
 5   0  0.4959042E-05  0.2433986E+04  0.7818609E-02  0.8426888E-01
       -2   -1    0    0    0  501  0.00000000000E+00  0.00000000000E+00  0.68110425442E+03  0.68110425443E+03  0.25500000920E-02 0. -1.
        2   -1    0    0  501    0  0.00000000000E+00  0.00000000000E+00 -0.21745165130E+04  0.21745165130E+04  0.25500000920E-02 0.  1.
    10030    2    1    2    0    0  0.00000000000E+00  0.00000000000E+00 -0.14934122586E+04  0.28556207675E+04  0.24339863996E+04 0.  0.
        4    1    3    3  502    0 -0.64222234545E+02 -0.92661420503E+03 -0.16692635483E+04  0.19102829076E+04  0.12699999809E+01 0.  1.
       -4    1    3    3    0  502  0.64222234545E+02  0.92661420503E+03  0.17585128968E+03  0.94533785990E+03  0.12699999809E+01 0. -1.
</event>
<event>
 5   0  0.2066170E-05  0.2520368E+04  0.7818609E-02  0.8395765E-01
        1   -1    0    0  501    0  0.00000000000E+00  0.00000000000E+00  0.21462758034E+04  0.21462758034E+04  0.50400001928E-02 0. -1.
       -1   -1    0    0    0  501  0.00000000000E+00  0.00000000000E+00 -0.73991578331E+03  0.73991578333E+03  0.50400001928E-02 0.  1.
    10030    2    1    2    0    0  0.00000000000E+00  0.00000000000E+00  0.14063600200E+04  0.28861915867E+04  0.25203677051E+04 0.  0.
        5    1    3    3  502    0  0.72365628997E+03 -0.10193004911E+04  0.52071192524E+03  0.13541842254E+04  0.46999998093E+01 0.  1.
       -5    1    3    3    0  502 -0.72365628997E+03  0.10193004911E+04  0.88564809481E+03  0.15320073613E+04  0.46999998093E+01 0. -1.
</event>
<event>
 5   0  0.4959042E-05  0.2503450E+04  0.7818609E-02  0.8401758E-01
       -2   -1    0    0    0  501  0.00000000000E+00  0.00000000000E+00  0.12625952910E+04  0.12625952910E+04  0.25500000920E-02 0. -1.
        2   -1    0    0  501    0  0.00000000000E+00  0.00000000000E+00 -0.12409478516E+04  0.12409478516E+04  0.25500000920E-02 0.  1.
    10030    2    1    2    0    0  0.00000000000E+00  0.00000000000E+00  0.21647439406E+02  0.25035431426E+04  0.25034495512E+04 0.  0.
        4    1    3    3  502    0 -0.34179017842E+03 -0.12938244171E+03 -0.11864064691E+04  0.12414194557E+04  0.12699999809E+01 0.  1.
       -4    1    3    3    0  502  0.34179017842E+03  0.12938244171E+03  0.12080539085E+04  0.12621236869E+04  0.12699999809E+01 0. -1.
</event>
<event>
 5   0  0.2036578E-05  0.2194355E+04  0.7818609E-02  0.8520782E-01
        1   -1    0    0  501    0  0.00000000000E+00  0.00000000000E+00  0.83511023557E+03  0.83511023559E+03  0.50400001928E-02 0. -1.
       -1   -1    0    0    0  501  0.00000000000E+00  0.00000000000E+00 -0.14414839133E+04  0.14414839133E+04  0.50400001928E-02 0.  1.
    10030    2    1    2    0    0  0.00000000000E+00  0.00000000000E+00 -0.60637367771E+03  0.22765941489E+04  0.21943545479E+04 0.  0.
        2    1    3    3  502    0 -0.56339767959E+03 -0.22930493480E+02  0.67328605024E+03  0.87821230824E+03  0.25500000920E-02 0. -1.
       -2    1    3    3    0  502  0.56339767959E+03  0.22930493480E+02 -0.12796597280E+04  0.13983818406E+04  0.25500000920E-02 0.  1.
</event>
<event>
 5   0  0.5024070E-05  0.2431224E+04  0.7818609E-02  0.8427906E-01
       -2   -1    0    0    0  501  0.00000000000E+00  0.00000000000E+00  0.74696988330E+03  0.74696988330E+03  0.25500000920E-02 0. -1.
        2   -1    0    0  501    0  0.00000000000E+00  0.00000000000E+00 -0.19782756206E+04  0.19782756206E+04  0.25500000920E-02 0.  1.
    10030    2    1    2    0    0  0.00000000000E+00  0.00000000000E+00 -0.12313057373E+04  0.27252455039E+04  0.24312238148E+04 0.  0.
        5    1    3    3  502    0 -0.10996560068E+03  0.55071848534E+03 -0.18241374266E+04  0.19086337324E+04  0.46999998093E+01 0.  1.
       -5    1    3    3    0  502  0.10996560068E+03 -0.55071848534E+03  0.59283168932E+03  0.81661177146E+03  0.46999998093E+01 0. -1.
</event>
<event>
 5   0  0.2041718E-05  0.2483379E+04  0.7818609E-02  0.8408931E-01
       -1   -1    0    0    0  501  0.00000000000E+00  0.00000000000E+00  0.96684506223E+03  0.96684506224E+03  0.50400001928E-02 0.  1.
        1   -1    0    0  501    0  0.00000000000E+00  0.00000000000E+00 -0.15946636894E+04  0.15946636894E+04  0.50400001928E-02 0. -1.
    10030    2    1    2    0    0  0.00000000000E+00  0.00000000000E+00 -0.62781862721E+03  0.25615087517E+04  0.24833789192E+04 0.  0.
        4    1    3    3  502    0  0.34877536624E+03 -0.32286181672E+03  0.86931059305E+03  0.99075048771E+03  0.12699999809E+01 0.  1.
       -4    1    3    3    0  502 -0.34877536624E+03  0.32286181672E+03 -0.14971292203E+04  0.15707582640E+04  0.12699999809E+01 0. -1.
</event>
<event>
 5   0  0.4959347E-05  0.2560535E+04  0.7818609E-02  0.8381731E-01
       -2   -1    0    0    0  501  0.00000000000E+00  0.00000000000E+00  0.83684600310E+03  0.83684600310E+03  0.25500000920E-02 0.  1.
        2   -1    0    0  501    0  0.00000000000E+00  0.00000000000E+00 -0.19586457026E+04  0.19586457026E+04  0.25500000920E-02 0. -1.
    10030    2    1    2    0    0  0.00000000000E+00  0.00000000000E+00 -0.11217996995E+04  0.27954917057E+04  0.25605349657E+04 0.  0.
        3    1    3    3  502    0 -0.10655853537E+04 -0.23364353136E+03 -0.12924800964E+04  0.16913208612E+04  0.10100000352E+00 0. -1.
       -3    1    3    3    0  502  0.10655853537E+04  0.23364353136E+03  0.17068039695E+03  0.11041708445E+04  0.10100000352E+00 0.  1.
</event>
<event>
 5   0  0.2036578E-05  0.2451889E+04  0.7818609E-02  0.8420329E-01
        1   -1    0    0  501    0  0.00000000000E+00  0.00000000000E+00  0.79762131003E+03  0.79762131005E+03  0.50400001928E-02 0. -1.
       -1   -1    0    0    0  501  0.00000000000E+00  0.00000000000E+00 -0.18842769528E+04  0.18842769528E+04  0.50400001928E-02 0.  1.
    10030    2    1    2    0    0  0.00000000000E+00  0.00000000000E+00 -0.10866556427E+04  0.26818982628E+04  0.24518886203E+04 0.  0.
        2    1    3    3  502    0 -0.37183066027E+03  0.27960240314E+03  0.69731599663E+03  0.83826317045E+03  0.25500000920E-02 0. -1.
       -2    1    3    3    0  502  0.37183066027E+03 -0.27960240314E+03 -0.17839716394E+04  0.18436350924E+04  0.25500000920E-02 0.  1.
</event>
<event>
 5   0  0.4995256E-05  0.2513969E+04  0.7818609E-02  0.8398026E-01
       -2   -1    0    0    0  501  0.00000000000E+00  0.00000000000E+00  0.82086430027E+03  0.82086430028E+03  0.25500000920E-02 0. -1.
        2   -1    0    0  501    0  0.00000000000E+00  0.00000000000E+00 -0.19248128299E+04  0.19248128299E+04  0.25500000920E-02 0.  1.
    10030    2    1    2    0    0  0.00000000000E+00  0.00000000000E+00 -0.11039485296E+04  0.27456771301E+04  0.25139690823E+04 0.  0.
        2    1    3    3  502    0  0.30686520534E+03 -0.21305807268E+03 -0.18627809545E+04  0.18998718064E+04  0.25500000920E-02 0.  1.
       -2    1    3    3    0  502 -0.30686520534E+03  0.21305807268E+03  0.75883242487E+03  0.84580532371E+03  0.25500000920E-02 0. -1.
</event>
<event>
 5   0  0.1692125E-05  0.2323369E+04  0.7818609E-02  0.8468764E-01
       -3   -1    0    0    0  501  0.00000000000E+00  0.00000000000E+00  0.18825320447E+04  0.18825320474E+04  0.10100000352E+00 0.  1.
        3   -1    0    0  501    0  0.00000000000E+00  0.00000000000E+00 -0.71685926084E+03  0.71685926795E+03  0.10100000352E+00 0. -1.
    10030    2    1    2    0    0  0.00000000000E+00  0.00000000000E+00  0.11656727839E+04  0.25993913154E+04  0.23233687119E+04 0.  0.
        5    1    3    3  502    0  0.87776264962E+03 -0.10725580863E+03 -0.25999966828E+03  0.92173368988E+03  0.46999998093E+01 0. -1.
       -5    1    3    3    0  502 -0.87776264962E+03  0.10725580863E+03  0.14256724521E+04  0.16776576255E+04  0.46999998093E+01 0.  1.
</event>
<event>
 5   0  0.4959042E-05  0.2512659E+04  0.7818609E-02  0.8398490E-01
       -2   -1    0    0    0  501  0.00000000000E+00  0.00000000000E+00  0.12801304749E+04  0.12801304749E+04  0.25500000920E-02 0.  1.
        2   -1    0    0  501    0  0.00000000000E+00  0.00000000000E+00 -0.12329709155E+04  0.12329709155E+04  0.25500000920E-02 0. -1.
    10030    2    1    2    0    0  0.00000000000E+00  0.00000000000E+00  0.47159559399E+02  0.25131013904E+04  0.25126588655E+04 0.  0.
        4    1    3    3  502    0  0.12376097520E+03  0.11043756041E+04  0.60968620812E+03  0.12675492650E+04  0.12699999809E+01 0.  1.
       -4    1    3    3    0  502 -0.12376097520E+03 -0.11043756041E+04 -0.56252664873E+03  0.12455521255E+04  0.12699999809E+01 0. -1.
</event>
<event>
 5   0  0.5024070E-05  0.1916418E+04  0.7818609E-02  0.8646727E-01
       -2   -1    0    0    0  501  0.00000000000E+00  0.00000000000E+00  0.55249171180E+03  0.55249171180E+03  0.25500000920E-02 0. -1.
        2   -1    0    0  501    0  0.00000000000E+00  0.00000000000E+00 -0.16618605054E+04  0.16618605054E+04  0.25500000920E-02 0.  1.
    10030    2    1    2    0    0  0.00000000000E+00  0.00000000000E+00 -0.11093687936E+04  0.22143522172E+04  0.19164176532E+04 0.  0.
        5    1    3    3  502    0  0.22771315178E+03  0.36931118254E+03 -0.15418445945E+04  0.16017337084E+04  0.46999998093E+01 0.  1.
       -5    1    3    3    0  502 -0.22771315178E+03 -0.36931118254E+03  0.43247580086E+03  0.61261850884E+03  0.46999998093E+01 0. -1.
</event>
<event>
 5   0  0.2081874E-05  0.2472603E+04  0.7818609E-02  0.8412811E-01
       -1   -1    0    0    0  501  0.00000000000E+00  0.00000000000E+00  0.74517770394E+03  0.74517770396E+03  0.50400001928E-02 0.  1.
        1   -1    0    0  501    0  0.00000000000E+00  0.00000000000E+00 -0.20511093841E+04  0.20511093841E+04  0.50400001928E-02 0. -1.
    10030    2    1    2    0    0  0.00000000000E+00  0.00000000000E+00 -0.13059316801E+04  0.27962870880E+04  0.24726026623E+04 0.  0.
        1    1    3    3  502    0 -0.58452838892E+03 -0.51247555417E+03 -0.17401308128E+04  0.19058750947E+04  0.50400001928E-02 0. -1.
       -1    1    3    3    0  502  0.58452838892E+03  0.51247555417E+03  0.43419913262E+03  0.89041199333E+03  0.50400001928E-02 0.  1.
</event>
<event>
 5   0  0.2036578E-05  0.2593039E+04  0.7818609E-02  0.8370570E-01
       -1   -1    0    0    0  501  0.00000000000E+00  0.00000000000E+00  0.24716150120E+04  0.24716150120E+04  0.50400001928E-02 0. -1.
        1   -1    0    0  501    0  0.00000000000E+00  0.00000000000E+00 -0.68010699033E+03  0.68010699035E+03  0.50400001928E-02 0.  1.
    10030    2    1    2    0    0  0.00000000000E+00  0.00000000000E+00  0.17915080216E+04  0.31517220023E+04  0.25930388714E+04 0.  0.
        2    1    3    3  502    0 -0.36273902259E+03  0.10067457810E+04  0.17854853032E+04  0.20816038129E+04  0.25500000920E-02 0. -1.
       -2    1    3    3    0  502  0.36273902259E+03 -0.10067457810E+04  0.60227184433E+01  0.10701181894E+04  0.25500000920E-02 0.  1.
</event>
<event>
 5   0  0.5024070E-05  0.2495982E+04  0.7818609E-02  0.8404418E-01
       -2   -1    0    0    0  501  0.00000000000E+00  0.00000000000E+00  0.14392727693E+04  0.14392727693E+04  0.25500000920E-02 0.  1.
        2   -1    0    0  501    0  0.00000000000E+00  0.00000000000E+00 -0.10821307679E+04  0.10821307679E+04  0.25500000920E-02 0. -1.
    10030    2    1    2    0    0  0.00000000000E+00  0.00000000000E+00  0.35714200143E+03  0.25214035372E+04  0.24959818485E+04 0.  0.
        5    1    3    3  502    0 -0.66643949411E+03  0.10050741511E+04 -0.14585981305E+03  0.12147480494E+04  0.46999998093E+01 0. -1.
       -5    1    3    3    0  502  0.66643949411E+03 -0.10050741511E+04  0.50300181449E+03  0.13066554878E+04  0.46999998093E+01 0.  1.
</event>
<event>
 5   0  0.2063930E-05  0.2492381E+04  0.7818609E-02  0.8405705E-01
        1   -1    0    0  501    0  0.00000000000E+00  0.00000000000E+00  0.16798181919E+04  0.16798181919E+04  0.50400001928E-02 0. -1.
       -1   -1    0    0    0  501  0.00000000000E+00  0.00000000000E+00 -0.92449962684E+03  0.92449962685E+03  0.50400001928E-02 0.  1.
    10030    2    1    2    0    0  0.00000000000E+00  0.00000000000E+00  0.75531856508E+03  0.26043178188E+04  0.24923814248E+04 0.  0.
        3    1    3    3  502    0  0.41829123797E+03  0.13914866896E+03  0.15956250729E+04  0.16554000409E+04  0.10100000352E+00 0. -1.
       -3    1    3    3    0  502 -0.41829123797E+03 -0.13914866896E+03 -0.84030650785E+03  0.94891777788E+03  0.10100000352E+00 0.  1.
</event>
<event>
 5   0  0.5219468E-05  0.2520871E+04  0.7818609E-02  0.8395588E-01
       -2   -1    0    0    0  501  0.00000000000E+00  0.00000000000E+00  0.11815457650E+04  0.11815457650E+04  0.25500000920E-02 0.  1.
        2   -1    0    0  501    0  0.00000000000E+00  0.00000000000E+00 -0.13445921887E+04  0.13445921887E+04  0.25500000920E-02 0. -1.
    10030    2    1    2    0    0  0.00000000000E+00  0.00000000000E+00 -0.16304642374E+03  0.25261379537E+04  0.25208706482E+04 0.  0.
        1    1    3    3  502    0  0.94735342134E+03 -0.83139174727E+03 -0.84070925128E+02  0.12632334158E+04  0.50400001928E-02 0.  1.
       -1    1    3    3    0  502 -0.94735342134E+03  0.83139174727E+03 -0.78975498608E+02  0.12629045379E+04  0.50400001928E-02 0. -1.
</event>
<event>
 5   0  0.2081874E-05  0.2493051E+04  0.7818609E-02  0.8405465E-01
        1   -1    0    0  501    0  0.00000000000E+00  0.00000000000E+00  0.27078297165E+04  0.27078297165E+04  0.50400001928E-02 0. -1.
       -1   -1    0    0    0  501  0.00000000000E+00  0.00000000000E+00 -0.57382697384E+03  0.57382697386E+03  0.50400001928E-02 0.  1.
    10030    2    1    2    0    0  0.00000000000E+00  0.00000000000E+00  0.21340027426E+04  0.32816566903E+04  0.24930509276E+04 0.  0.
        1    1    3    3  502    0 -0.18500549603E+03  0.12072144339E+04  0.73862726351E+03  0.14272925269E+04  0.50400001928E-02 0.  1.
       -1    1    3    3    0  502  0.18500549603E+03 -0.12072144339E+04  0.13953754791E+04  0.18543641634E+04  0.50400001928E-02 0. -1.
</event>
<event>
 5   0  0.5219468E-05  0.2477446E+04  0.7818609E-02  0.8411065E-01
        2   -1    0    0  501    0  0.00000000000E+00  0.00000000000E+00  0.22709479898E+04  0.22709479898E+04  0.25500000920E-02 0. -1.
       -2   -1    0    0    0  501  0.00000000000E+00  0.00000000000E+00 -0.67568026870E+03  0.67568026870E+03  0.25500000920E-02 0.  1.
    10030    2    1    2    0    0  0.00000000000E+00  0.00000000000E+00  0.15952677211E+04  0.29466282585E+04  0.24774460623E+04 0.  0.
        1    1    3    3  502    0  0.11384199029E+04 -0.48615074143E+03  0.85203852696E+03  0.15027681359E+04  0.50400001928E-02 0. -1.
       -1    1    3    3    0  502 -0.11384199029E+04  0.48615074143E+03  0.74322919412E+03  0.14438601226E+04  0.50400001928E-02 0.  1.
</event>
<event>
 5   0  0.5219468E-05  0.2478857E+04  0.7818609E-02  0.8410557E-01
       -2   -1    0    0    0  501  0.00000000000E+00  0.00000000000E+00  0.62215112115E+03  0.62215112115E+03  0.25500000920E-02 0. -1.
        2   -1    0    0  501    0  0.00000000000E+00  0.00000000000E+00 -0.24691484496E+04  0.24691484496E+04  0.25500000920E-02 0.  1.
    10030    2    1    2    0    0  0.00000000000E+00  0.00000000000E+00 -0.18469973284E+04  0.30912995707E+04  0.24788573789E+04 0.  0.
        1    1    3    3  502    0  0.39714651949E+02 -0.79343964113E+03 -0.21098905861E+04  0.22544981710E+04  0.50400001928E-02 0.  1.
       -1    1    3    3    0  502 -0.39714651949E+02  0.79343964113E+03  0.26289325764E+03  0.83680139976E+03  0.50400001928E-02 0. -1.
</event>
<event>
 5   0  0.5024070E-05  0.2478138E+04  0.7818609E-02  0.8410816E-01
        2   -1    0    0  501    0  0.00000000000E+00  0.00000000000E+00  0.17133828774E+04  0.17133828774E+04  0.25500000920E-02 0. -1.
       -2   -1    0    0    0  501  0.00000000000E+00  0.00000000000E+00 -0.89605883342E+03  0.89605883342E+03  0.25500000920E-02 0.  1.
    10030    2    1    2    0    0  0.00000000000E+00  0.00000000000E+00  0.81732404394E+03  0.26094417108E+04  0.24781378996E+04 0.  0.
        5    1    3    3  502    0  0.85090143143E+03 -0.54387343065E+03 -0.34731820902E+03  0.10679342596E+04  0.46999998093E+01 0.  1.
       -5    1    3    3    0  502 -0.85090143143E+03  0.54387343065E+03  0.11646422530E+04  0.15415074512E+04  0.46999998093E+01 0. -1.
</event>
<event>
 5   0  0.4959347E-05  0.2503870E+04  0.7818609E-02  0.8401608E-01
        2   -1    0    0  501    0  0.00000000000E+00  0.00000000000E+00  0.14002090336E+04  0.14002090336E+04  0.25500000920E-02 0.  1.
       -2   -1    0    0    0  501  0.00000000000E+00  0.00000000000E+00 -0.11193621766E+04  0.11193621766E+04  0.25500000920E-02 0. -1.
    10030    2    1    2    0    0  0.00000000000E+00  0.00000000000E+00  0.28084685700E+03  0.25195712103E+04  0.25038698302E+04 0.  0.
        3    1    3    3  502    0 -0.10236666706E+04  0.17912174776E+03  0.84291505747E+03  0.13380896297E+04  0.10100000352E+00 0.  1.
       -3    1    3    3    0  502  0.10236666706E+04 -0.17912174776E+03 -0.56206820047E+03  0.11814815805E+04  0.10100000352E+00 0. -1.
</event>
<event>
 5   0  0.2036578E-05  0.2472709E+04  0.7818609E-02  0.8412773E-01
       -1   -1    0    0    0  501  0.00000000000E+00  0.00000000000E+00  0.13704169471E+04  0.13704169471E+04  0.50400001928E-02 0. -1.
        1   -1    0    0  501    0  0.00000000000E+00  0.00000000000E+00 -0.11154072610E+04  0.11154072610E+04  0.50400001928E-02 0.  1.
    10030    2    1    2    0    0  0.00000000000E+00  0.00000000000E+00  0.25500968616E+03  0.24858242081E+04  0.24727094560E+04 0.  0.
        2    1    3    3  502    0 -0.80587237951E+03  0.89693871989E+03 -0.14715411562E+03  0.12147360590E+04  0.25500000920E-02 0.  1.
       -2    1    3    3    0  502  0.80587237951E+03 -0.89693871989E+03  0.40216380178E+03  0.12710881491E+04  0.25500000920E-02 0. -1.
</event>
<event>
 5   0  0.2063930E-05  0.2584642E+04  0.7818609E-02  0.8373437E-01
        1   -1    0    0  501    0  0.00000000000E+00  0.00000000000E+00  0.15341025949E+04  0.15341025949E+04  0.50400001928E-02 0.  1.
       -1   -1    0    0    0  501  0.00000000000E+00  0.00000000000E+00 -0.10886454673E+04  0.10886454673E+04  0.50400001928E-02 0. -1.
    10030    2    1    2    0    0  0.00000000000E+00  0.00000000000E+00  0.44545712761E+03  0.26227480622E+04  0.25846422084E+04 0.  0.
        3    1    3    3  502    0 -0.77134185468E+03  0.18006204408E+03  0.12589116571E+04  0.14873631591E+04  0.10100000352E+00 0.  1.
       -3    1    3    3    0  502  0.77134185468E+03 -0.18006204408E+03 -0.81345452949E+03  0.11353849031E+04  0.10100000352E+00 0. -1.
</event>
<event>
 5   0  0.2036578E-05  0.2522711E+04  0.7818609E-02  0.8394939E-01
       -1   -1    0    0    0  501  0.00000000000E+00  0.00000000000E+00  0.10137080398E+04  0.10137080398E+04  0.50400001928E-02 0.  1.
        1   -1    0    0  501    0  0.00000000000E+00  0.00000000000E+00 -0.15695027683E+04  0.15695027683E+04  0.50400001928E-02 0. -1.
    10030    2    1    2    0    0  0.00000000000E+00  0.00000000000E+00 -0.55579472845E+03  0.25832108081E+04  0.25227109028E+04 0.  0.
        2    1    3    3  502    0 -0.90162925231E+03 -0.45168253125E+03 -0.10537387795E+04  0.14585327672E+04  0.25500000920E-02 0. -1.
       -2    1    3    3    0  502  0.90162925231E+03  0.45168253125E+03  0.49794405105E+03  0.11246780409E+04  0.25500000920E-02 0.  1.
</event>
<event>
 5   0  0.2081874E-05  0.2337930E+04  0.7818609E-02  0.8463114E-01
        1   -1    0    0  501    0  0.00000000000E+00  0.00000000000E+00  0.97239520489E+03  0.97239520490E+03  0.50400001928E-02 0.  1.
       -1   -1    0    0    0  501  0.00000000000E+00  0.00000000000E+00 -0.14052709213E+04  0.14052709214E+04  0.50400001928E-02 0. -1.
    10030    2    1    2    0    0  0.00000000000E+00  0.00000000000E+00 -0.43287571646E+03  0.23776661263E+04  0.23379296016E+04 0.  0.
        1    1    3    3  502    0  0.48521490777E+03  0.82330002776E+03  0.46822230343E+03  0.10641844614E+04  0.50400001928E-02 0.  1.
       -1    1    3    3    0  502 -0.48521490777E+03 -0.82330002776E+03 -0.90109801989E+03  0.13134816649E+04  0.50400001928E-02 0. -1.
</event>
<event>
 5   0  0.5219468E-05  0.2524337E+04  0.7818609E-02  0.8394366E-01
       -2   -1    0    0    0  501  0.00000000000E+00  0.00000000000E+00  0.10707020877E+04  0.10707020877E+04  0.25500000920E-02 0. -1.
        2   -1    0    0  501    0  0.00000000000E+00  0.00000000000E+00 -0.14878734471E+04  0.14878734471E+04  0.25500000920E-02 0.  1.
    10030    2    1    2    0    0  0.00000000000E+00  0.00000000000E+00 -0.41717135942E+03  0.25585755348E+04  0.25243369078E+04 0.  0.
        1    1    3    3  502    0 -0.42753667070E+03 -0.11084592625E+04 -0.64051078391E+03  0.13497124160E+04  0.50400001928E-02 0.  1.
       -1    1    3    3    0  502  0.42753667070E+03  0.11084592625E+04  0.22333942450E+03  0.12088631188E+04  0.50400001928E-02 0. -1.
</event>
<event>
 5   0  0.2063930E-05  0.2473280E+04  0.7818609E-02  0.8412567E-01
       -1   -1    0    0    0  501  0.00000000000E+00  0.00000000000E+00  0.64943682059E+03  0.64943682061E+03  0.50400001928E-02 0.  1.
        1   -1    0    0  501    0  0.00000000000E+00  0.00000000000E+00 -0.23547765297E+04  0.23547765297E+04  0.50400001928E-02 0. -1.
    10030    2    1    2    0    0  0.00000000000E+00  0.00000000000E+00 -0.17053397091E+04  0.30042133503E+04  0.24732800753E+04 0.  0.
        3    1    3    3  502    0 -0.34139682585E+03 -0.24015534869E+03 -0.22666245155E+04  0.23047370975E+04  0.10100000352E+00 0. -1.
       -3    1    3    3    0  502  0.34139682585E+03  0.24015534869E+03  0.56128480636E+03  0.69947625282E+03  0.10100000352E+00 0.  1.
</event>
<event>
 5   0  0.4995256E-05  0.2507702E+04  0.7818609E-02  0.8400247E-01
       -2   -1    0    0    0  501  0.00000000000E+00  0.00000000000E+00  0.60649653073E+03  0.60649653073E+03  0.25500000920E-02 0.  1.
        2   -1    0    0  501    0  0.00000000000E+00  0.00000000000E+00 -0.25921694779E+04  0.25921694779E+04  0.25500000920E-02 0. -1.
    10030    2    1    2    0    0  0.00000000000E+00  0.00000000000E+00 -0.19856729472E+04  0.31986660087E+04  0.25077015735E+04 0.  0.
        2    1    3    3  502    0 -0.96169493886E+03 -0.64462255513E+03 -0.16068805446E+04  0.19805202545E+04  0.25500000920E-02 0. -1.
       -2    1    3    3    0  502  0.96169493886E+03  0.64462255513E+03 -0.37879240260E+03  0.12181457541E+04  0.25500000920E-02 0.  1.
</event>
<event>
 5   0  0.2066170E-05  0.2523992E+04  0.7818609E-02  0.8394488E-01
       -1   -1    0    0    0  501  0.00000000000E+00  0.00000000000E+00  0.21710694420E+04  0.21710694420E+04  0.50400001928E-02 0.  1.
        1   -1    0    0  501    0  0.00000000000E+00  0.00000000000E+00 -0.73357120516E+03  0.73357120518E+03  0.50400001928E-02 0. -1.
    10030    2    1    2    0    0  0.00000000000E+00  0.00000000000E+00  0.14374982369E+04  0.29046406472E+04  0.25239920975E+04 0.  0.
        5    1    3    3  502    0  0.83353440664E+03 -0.80081630332E+03  0.13016165073E+04  0.17407797049E+04  0.46999998093E+01 0.  1.
       -5    1    3    3    0  502 -0.83353440664E+03  0.80081630332E+03  0.13588172954E+03  0.11638609424E+04  0.46999998093E+01 0. -1.
</event>
<event>
 5   0  0.4959042E-05  0.2409229E+04  0.7818609E-02  0.8436056E-01
        2   -1    0    0  501    0  0.00000000000E+00  0.00000000000E+00  0.13488888507E+04  0.13488888507E+04  0.25500000920E-02 0. -1.
       -2   -1    0    0    0  501  0.00000000000E+00  0.00000000000E+00 -0.10757718684E+04  0.10757718684E+04  0.25500000920E-02 0.  1.
    10030    2    1    2    0    0  0.00000000000E+00  0.00000000000E+00  0.27311698231E+03  0.24246607192E+04  0.24092294862E+04 0.  0.
        4    1    3    3  502    0  0.97268257757E+03 -0.13094188993E+03  0.83948605194E+03  0.12915090474E+04  0.12699999809E+01 0. -1.
       -4    1    3    3    0  502 -0.97268257757E+03  0.13094188993E+03 -0.56636906963E+03  0.11331516717E+04  0.12699999809E+01 0.  1.
</event>
<event>
 5   0  0.5219468E-05  0.2365401E+04  0.7818609E-02  0.8452572E-01
        2   -1    0    0  501    0  0.00000000000E+00  0.00000000000E+00  0.99432057848E+03  0.99432057848E+03  0.25500000920E-02 0. -1.
       -2   -1    0    0    0  501  0.00000000000E+00  0.00000000000E+00 -0.14067696894E+04  0.14067696894E+04  0.25500000920E-02 0.  1.
    10030    2    1    2    0    0  0.00000000000E+00  0.00000000000E+00 -0.41244911093E+03  0.24010902679E+04  0.23654006438E+04 0.  0.
        1    1    3    3  502    0 -0.24912788331E+03  0.11560882717E+04 -0.19278634132E+03  0.11982367745E+04  0.50400001928E-02 0.  1.
       -1    1    3    3    0  502  0.24912788331E+03 -0.11560882717E+04 -0.21966276961E+03  0.12028534934E+04  0.50400001928E-02 0. -1.
</event>
<event>
 5   0  0.4959347E-05  0.2457041E+04  0.7818609E-02  0.8418452E-01
       -2   -1    0    0    0  501  0.00000000000E+00  0.00000000000E+00  0.96526806939E+03  0.96526806940E+03  0.25500000920E-02 0.  1.
        2   -1    0    0  501    0  0.00000000000E+00  0.00000000000E+00 -0.15635686624E+04  0.15635686624E+04  0.25500000920E-02 0. -1.
    10030    2    1    2    0    0  0.00000000000E+00  0.00000000000E+00 -0.59830059300E+03  0.25288367318E+04  0.24570412321E+04 0.  0.
        3    1    3    3  502    0  0.67609176444E+03 -0.71555620072E+03 -0.10555692082E+04  0.14433804467E+04  0.10100000352E+00 0. -1.
       -3    1    3    3    0  502 -0.67609176444E+03  0.71555620072E+03  0.45726861517E+03  0.10854562851E+04  0.10100000352E+00 0.  1.
</event>
<event>
 5   0  0.2041718E-05  0.2164654E+04  0.7818609E-02  0.8533286E-01
        1   -1    0    0  501    0  0.00000000000E+00  0.00000000000E+00  0.56974090982E+03  0.56974090984E+03  0.50400001928E-02 0.  1.
       -1   -1    0    0    0  501  0.00000000000E+00  0.00000000000E+00 -0.20560781499E+04  0.20560781499E+04  0.50400001928E-02 0. -1.
    10030    2    1    2    0    0  0.00000000000E+00  0.00000000000E+00 -0.14863372401E+04  0.26258190598E+04  0.21646540932E+04 0.  0.
        4    1    3    3  502    0 -0.26476692515E+03  0.44888517576E+03  0.40751707983E+03  0.66156723688E+03  0.12699999809E+01 0.  1.
       -4    1    3    3    0  502  0.26476692515E+03 -0.44888517576E+03 -0.18938543199E+04  0.19642518229E+04  0.12699999809E+01 0. -1.
</event>
<event>
 5   0  0.4959042E-05  0.2530098E+04  0.7818609E-02  0.8392341E-01
       -2   -1    0    0    0  501  0.00000000000E+00  0.00000000000E+00  0.10505081446E+04  0.10505081446E+04  0.25500000920E-02 0. -1.
        2   -1    0    0  501    0  0.00000000000E+00  0.00000000000E+00 -0.15234049679E+04  0.15234049679E+04  0.25500000920E-02 0.  1.
    10030    2    1    2    0    0  0.00000000000E+00  0.00000000000E+00 -0.47289682333E+03  0.25739131125E+04  0.25300982797E+04 0.  0.
        4    1    3    3  502    0  0.12975698412E+03 -0.83155120948E+03  0.72438269511E+03  0.11104261303E+04  0.12699999809E+01 0. -1.
       -4    1    3    3    0  502 -0.12975698412E+03  0.83155120948E+03 -0.11972795184E+04  0.14634869822E+04  0.12699999809E+01 0.  1.
</event>
<event>
 5   0  0.4959042E-05  0.2542322E+04  0.7818609E-02  0.8388061E-01
       -2   -1    0    0    0  501  0.00000000000E+00  0.00000000000E+00  0.86405366722E+03  0.86405366722E+03  0.25500000920E-02 0.  1.
        2   -1    0    0  501    0  0.00000000000E+00  0.00000000000E+00 -0.18700805148E+04  0.18700805148E+04  0.25500000920E-02 0. -1.
    10030    2    1    2    0    0  0.00000000000E+00  0.00000000000E+00 -0.10060268476E+04  0.27341341821E+04  0.25423217160E+04 0.  0.
        4    1    3    3  502    0  0.19471786031E+03 -0.78116353704E+03 -0.15609593170E+04  0.17563391242E+04  0.12699999809E+01 0. -1.
       -4    1    3    3    0  502 -0.19471786031E+03  0.78116353704E+03  0.55493246942E+03  0.97779505790E+03  0.12699999809E+01 0.  1.
</event>
<event>
 5   0  0.2036578E-05  0.2458289E+04  0.7818609E-02  0.8417998E-01
       -1   -1    0    0    0  501  0.00000000000E+00  0.00000000000E+00  0.99177952443E+03  0.99177952444E+03  0.50400001928E-02 0. -1.
        1   -1    0    0  501    0  0.00000000000E+00  0.00000000000E+00 -0.15233183074E+04  0.15233183074E+04  0.50400001928E-02 0.  1.
    10030    2    1    2    0    0  0.00000000000E+00  0.00000000000E+00 -0.53153878298E+03  0.25150978319E+04  0.24582887597E+04 0.  0.
        2    1    3    3  502    0 -0.24718814213E+01  0.14109562130E+03 -0.15150028203E+04  0.15215609190E+04  0.25500000920E-02 0.  1.
       -2    1    3    3    0  502  0.24718814213E+01 -0.14109562130E+03  0.98346403734E+03  0.99353691290E+03  0.25500000920E-02 0. -1.
</event>
<event>
 5   0  0.5219468E-05  0.2502194E+04  0.7818609E-02  0.8402204E-01
        2   -1    0    0  501    0  0.00000000000E+00  0.00000000000E+00  0.14159885827E+04  0.14159885827E+04  0.25500000920E-02 0.  1.
       -2   -1    0    0    0  501  0.00000000000E+00  0.00000000000E+00 -0.11054073497E+04  0.11054073497E+04  0.25500000920E-02 0. -1.
    10030    2    1    2    0    0  0.00000000000E+00  0.00000000000E+00  0.31058123294E+03  0.25213959324E+04  0.25021943861E+04 0.  0.
        1    1    3    3  502    0 -0.64563551637E+03 -0.75201241489E+03  0.92461269961E+03  0.13554617429E+04  0.50400001928E-02 0.  1.
       -1    1    3    3    0  502  0.64563551637E+03  0.75201241489E+03 -0.61403146667E+03  0.11659341895E+04  0.50400001928E-02 0. -1.
</event>
<event>
 5   0  0.2066170E-05  0.2509180E+04  0.7818609E-02  0.8399722E-01
        1   -1    0    0  501    0  0.00000000000E+00  0.00000000000E+00  0.19363917099E+04  0.19363917099E+04  0.50400001928E-02 0.  1.
       -1   -1    0    0    0  501  0.00000000000E+00  0.00000000000E+00 -0.81285008539E+03  0.81285008541E+03  0.50400001928E-02 0. -1.
    10030    2    1    2    0    0  0.00000000000E+00  0.00000000000E+00  0.11235416245E+04  0.27492417953E+04  0.25091800786E+04 0.  0.
        5    1    3    3  502    0  0.78050929936E+03 -0.40471083138E+03 -0.41883448407E+03  0.97387372820E+03  0.46999998093E+01 0. -1.
       -5    1    3    3    0  502 -0.78050929936E+03  0.40471083138E+03  0.15423761085E+04  0.17753680671E+04  0.46999998093E+01 0.  1.
</event>
<event>
 5   0  0.2066170E-05  0.2274514E+04  0.7818609E-02  0.8488038E-01
        1   -1    0    0  501    0  0.00000000000E+00  0.00000000000E+00  0.10519753279E+04  0.10519753279E+04  0.50400001928E-02 0.  1.
       -1   -1    0    0    0  501  0.00000000000E+00  0.00000000000E+00 -0.12294519959E+04  0.12294519959E+04  0.50400001928E-02 0. -1.
    10030    2    1    2    0    0  0.00000000000E+00  0.00000000000E+00 -0.17747666798E+03  0.22814273239E+04  0.22745137209E+04 0.  0.
        5    1    3    3  502    0  0.37133481511E+03  0.54942810674E+03 -0.10154352593E+04  0.12128032178E+04  0.46999998093E+01 0. -1.
       -5    1    3    3    0  502 -0.37133481511E+03 -0.54942810674E+03  0.83795859128E+03  0.10686241061E+04  0.46999998093E+01 0.  1.
</event>
<event>
 5   0  0.2066170E-05  0.2624526E+04  0.7818609E-02  0.8359918E-01
        1   -1    0    0  501    0  0.00000000000E+00  0.00000000000E+00  0.13377392399E+04  0.13377392399E+04  0.50400001928E-02 0. -1.
       -1   -1    0    0    0  501  0.00000000000E+00  0.00000000000E+00 -0.12872724015E+04  0.12872724015E+04  0.50400001928E-02 0.  1.
    10030    2    1    2    0    0  0.00000000000E+00  0.00000000000E+00  0.50466838383E+02  0.26250116414E+04  0.26245264746E+04 0.  0.
        5    1    3    3  502    0  0.86364301189E+02 -0.75537481366E+03 -0.10445262709E+04  0.12919392874E+04  0.46999998093E+01 0.  1.
       -5    1    3    3    0  502 -0.86364301189E+02  0.75537481366E+03  0.10949931093E+04  0.13330723540E+04  0.46999998093E+01 0. -1.
</event>
<event>
 5   0  0.2036578E-05  0.2483268E+04  0.7818609E-02  0.8408971E-01
       -1   -1    0    0    0  501  0.00000000000E+00  0.00000000000E+00  0.92207308199E+03  0.92207308200E+03  0.50400001928E-02 0.  1.
        1   -1    0    0  501    0  0.00000000000E+00  0.00000000000E+00 -0.16719440209E+04  0.16719440209E+04  0.50400001928E-02 0. -1.
    10030    2    1    2    0    0  0.00000000000E+00  0.00000000000E+00 -0.74987093891E+03  0.25940171029E+04  0.24832676668E+04 0.  0.
        2    1    3    3  502    0 -0.93734744818E+03 -0.13029975056E+03  0.46468784307E+03  0.10542926800E+04  0.25500000920E-02 0.  1.
       -2    1    3    3    0  502  0.93734744818E+03  0.13029975056E+03 -0.12145587820E+04  0.15397244229E+04  0.25500000920E-02 0. -1.
</event>
<event>
 5   0  0.4959347E-05  0.2491713E+04  0.7818609E-02  0.8405944E-01
        2   -1    0    0  501    0  0.00000000000E+00  0.00000000000E+00  0.12617879615E+04  0.12617879615E+04  0.25500000920E-02 0.  1.
       -2   -1    0    0    0  501  0.00000000000E+00  0.00000000000E+00 -0.12301264249E+04  0.12301264249E+04  0.25500000920E-02 0. -1.
    10030    2    1    2    0    0  0.00000000000E+00  0.00000000000E+00  0.31661536580E+02  0.24919143864E+04  0.24917132372E+04 0.  0.
        3    1    3    3  502    0  0.10527863898E+04  0.56195395380E+03 -0.34197915785E+03  0.12414109648E+04  0.10100000352E+00 0. -1.
       -3    1    3    3    0  502 -0.10527863898E+04 -0.56195395380E+03  0.37364069443E+03  0.12505034217E+04  0.10100000352E+00 0.  1.
</event>
<event>
 5   0  0.5024070E-05  0.2509340E+04  0.7818609E-02  0.8399666E-01
        2   -1    0    0  501    0  0.00000000000E+00  0.00000000000E+00  0.14958193093E+04  0.14958193093E+04  0.25500000920E-02 0.  1.
       -2   -1    0    0    0  501  0.00000000000E+00  0.00000000000E+00 -0.10523975018E+04  0.10523975018E+04  0.25500000920E-02 0. -1.
    10030    2    1    2    0    0  0.00000000000E+00  0.00000000000E+00  0.44342180756E+03  0.25482168111E+04  0.25093397572E+04 0.  0.
        5    1    3    3  502    0 -0.51711917828E+03 -0.84785901599E+03 -0.55691281021E+03  0.11386180763E+04  0.46999998093E+01 0. -1.
       -5    1    3    3    0  502  0.51711917828E+03  0.84785901599E+03  0.10003346178E+04  0.14095987348E+04  0.46999998093E+01 0.  1.
</event>
<event>
 5   0  0.4995256E-05  0.2473300E+04  0.7818609E-02  0.8412560E-01
       -2   -1    0    0    0  501  0.00000000000E+00  0.00000000000E+00  0.95633854673E+03  0.95633854673E+03  0.25500000920E-02 0. -1.
        2   -1    0    0  501    0  0.00000000000E+00  0.00000000000E+00 -0.15991231452E+04  0.15991231452E+04  0.25500000920E-02 0.  1.
    10030    2    1    2    0    0  0.00000000000E+00  0.00000000000E+00 -0.64278459845E+03  0.25554616919E+04  0.24732999047E+04 0.  0.
        2    1    3    3  502    0  0.32299200037E+03  0.84032368793E+03 -0.11973987694E+04  0.14980759480E+04  0.25500000920E-02 0.  1.
       -2    1    3    3    0  502 -0.32299200037E+03 -0.84032368793E+03  0.55461417099E+03  0.10573857439E+04  0.25500000920E-02 0. -1.
</event>
<event>
 5   0  0.2041718E-05  0.1611269E+04  0.7818609E-02  0.8813655E-01
        1   -1    0    0  501    0  0.00000000000E+00  0.00000000000E+00  0.55899298533E+03  0.55899298535E+03  0.50400001928E-02 0. -1.
       -1   -1    0    0    0  501  0.00000000000E+00  0.00000000000E+00 -0.11610999390E+04  0.11610999390E+04  0.50400001928E-02 0.  1.
    10030    2    1    2    0    0  0.00000000000E+00  0.00000000000E+00 -0.60210695367E+03  0.17200929244E+04  0.16112687190E+04 0.  0.
        4    1    3    3  502    0  0.65843782488E+03 -0.37490335678E+03 -0.87889133732E+01  0.75774121839E+03  0.12699999809E+01 0.  1.
       -4    1    3    3    0  502 -0.65843782488E+03  0.37490335678E+03 -0.59331804030E+03  0.96235170598E+03  0.12699999809E+01 0. -1.
</event>
<event>
 5   0  0.5219468E-05  0.2564456E+04  0.7818609E-02  0.8380376E-01
        2   -1    0    0  501    0  0.00000000000E+00  0.00000000000E+00  0.18002450536E+04  0.18002450536E+04  0.25500000920E-02 0. -1.
       -2   -1    0    0    0  501  0.00000000000E+00  0.00000000000E+00 -0.91326960240E+03  0.91326960241E+03  0.25500000920E-02 0.  1.
    10030    2    1    2    0    0  0.00000000000E+00  0.00000000000E+00  0.88697545120E+03  0.27135146560E+04  0.25644563434E+04 0.  0.
        1    1    3    3  502    0  0.50101246815E+03  0.58961932881E+03  0.15253883744E+04  0.17104017478E+04  0.50400001928E-02 0. -1.
       -1    1    3    3    0  502 -0.50101246815E+03 -0.58961932881E+03 -0.63841292317E+03  0.10031129082E+04  0.50400001928E-02 0.  1.
</event>
<event>
 5   0  0.2036578E-05  0.2559126E+04  0.7818609E-02  0.8382219E-01
        1   -1    0    0  501    0  0.00000000000E+00  0.00000000000E+00  0.19803276163E+04  0.19803276163E+04  0.50400001928E-02 0. -1.
       -1   -1    0    0    0  501  0.00000000000E+00  0.00000000000E+00 -0.82677308909E+03  0.82677308910E+03  0.50400001928E-02 0.  1.
    10030    2    1    2    0    0  0.00000000000E+00  0.00000000000E+00  0.11535545272E+04  0.28071007054E+04  0.25591260858E+04 0.  0.
        2    1    3    3  502    0 -0.27471131425E+03  0.34861064496E+03 -0.73963119162E+03  0.86258332211E+03  0.25500000920E-02 0.  1.
       -2    1    3    3    0  502  0.27471131425E+03 -0.34861064496E+03  0.18931857188E+04  0.19445173833E+04  0.25500000920E-02 0. -1.
</event>
<event>
 5   0  0.2081874E-05  0.2523539E+04  0.7818609E-02  0.8394647E-01
       -1   -1    0    0    0  501  0.00000000000E+00  0.00000000000E+00  0.79892542805E+03  0.79892542806E+03  0.50400001928E-02 0.  1.
        1   -1    0    0  501    0  0.00000000000E+00  0.00000000000E+00 -0.19927538827E+04  0.19927538827E+04  0.50400001928E-02 0. -1.
    10030    2    1    2    0    0  0.00000000000E+00  0.00000000000E+00 -0.11938284546E+04  0.27916793108E+04  0.25235385860E+04 0.  0.
        1    1    3    3  502    0  0.34025913870E+03  0.99244363097E+03  0.17852385935E+03  0.10642327802E+04  0.50400001928E-02 0.  1.
       -1    1    3    3    0  502 -0.34025913870E+03 -0.99244363097E+03 -0.13723523140E+04  0.17274465305E+04  0.50400001928E-02 0. -1.
</event>
<event>
 5   0  0.2063930E-05  0.2538593E+04  0.7818609E-02  0.8389364E-01
       -1   -1    0    0    0  501  0.00000000000E+00  0.00000000000E+00  0.10313096239E+04  0.10313096239E+04  0.50400001928E-02 0. -1.
        1   -1    0    0  501    0  0.00000000000E+00  0.00000000000E+00 -0.15622012877E+04  0.15622012877E+04  0.50400001928E-02 0.  1.
    10030    2    1    2    0    0  0.00000000000E+00  0.00000000000E+00 -0.53089166387E+03  0.25935109116E+04  0.25385926987E+04 0.  0.
        3    1    3    3  502    0  0.21657135470E+03  0.12465740444E+04 -0.16194669880E+03  0.12755691840E+04  0.10100000352E+00 0.  1.
       -3    1    3    3    0  502 -0.21657135470E+03 -0.12465740444E+04 -0.36894496507E+03  0.13179417276E+04  0.10100000352E+00 0. -1.
</event>
<event>
 5   0  0.2036578E-05  0.2509109E+04  0.7818609E-02  0.8399748E-01
        1   -1    0    0  501    0  0.00000000000E+00  0.00000000000E+00  0.87256022864E+03  0.87256022865E+03  0.50400001928E-02 0. -1.
       -1   -1    0    0    0  501  0.00000000000E+00  0.00000000000E+00 -0.18037801577E+04  0.18037801577E+04  0.50400001928E-02 0.  1.
    10030    2    1    2    0    0  0.00000000000E+00  0.00000000000E+00 -0.93121992909E+03  0.26763403864E+04  0.25091088672E+04 0.  0.
        2    1    3    3  502    0  0.12003178243E+04  0.36488837301E+03 -0.46491641827E+03  0.13379288771E+04  0.25500000920E-02 0.  1.
       -2    1    3    3    0  502 -0.12003178243E+04 -0.36488837301E+03 -0.46630351083E+03  0.13384115093E+04  0.25500000920E-02 0. -1.
</event>
<event>
 5   0  0.2063930E-05  0.1955846E+04  0.7818609E-02  0.8627547E-01
       -1   -1    0    0    0  501  0.00000000000E+00  0.00000000000E+00  0.80124434765E+03  0.80124434766E+03  0.50400001928E-02 0. -1.
        1   -1    0    0  501    0  0.00000000000E+00  0.00000000000E+00 -0.11935607827E+04  0.11935607827E+04  0.50400001928E-02 0.  1.
    10030    2    1    2    0    0  0.00000000000E+00  0.00000000000E+00 -0.39231643504E+03  0.19948051304E+04  0.19558464467E+04 0.  0.
        3    1    3    3  502    0 -0.15977015590E+03  0.34118254102E+03  0.72425973589E+03  0.81638483832E+03  0.10100000352E+00 0. -1.
       -3    1    3    3    0  502  0.15977015590E+03 -0.34118254102E+03 -0.11165761709E+04  0.11784202920E+04  0.10100000352E+00 0.  1.
</event>
<event>
 5   0  0.2081874E-05  0.2457308E+04  0.7818609E-02  0.8418355E-01
       -1   -1    0    0    0  501  0.00000000000E+00  0.00000000000E+00  0.12997992750E+04  0.12997992750E+04  0.50400001928E-02 0.  1.
        1   -1    0    0  501    0  0.00000000000E+00  0.00000000000E+00 -0.11614028147E+04  0.11614028147E+04  0.50400001928E-02 0. -1.
    10030    2    1    2    0    0  0.00000000000E+00  0.00000000000E+00  0.13839646026E+03  0.24612020897E+04  0.24573079063E+04 0.  0.
        1    1    3    3  502    0 -0.91314990827E+03 -0.49063799861E+03  0.72980554055E+03  0.12677478171E+04  0.50400001928E-02 0.  1.
       -1    1    3    3    0  502  0.91314990827E+03  0.49063799861E+03 -0.59140908029E+03  0.11934542727E+04  0.50400001928E-02 0. -1.
</event>
<event>
 5   0  0.2036578E-05  0.2519130E+04  0.7818609E-02  0.8396202E-01
       -1   -1    0    0    0  501  0.00000000000E+00  0.00000000000E+00  0.16648688132E+04  0.16648688132E+04  0.50400001928E-02 0. -1.
        1   -1    0    0  501    0  0.00000000000E+00  0.00000000000E+00 -0.95293052383E+03  0.95293052385E+03  0.50400001928E-02 0.  1.
    10030    2    1    2    0    0  0.00000000000E+00  0.00000000000E+00  0.71193828940E+03  0.26177993371E+04  0.25191302549E+04 0.  0.
        2    1    3    3  502    0  0.65980558448E+03 -0.19761260840E+03  0.14518406468E+04  0.16069335444E+04  0.25500000920E-02 0. -1.
       -2    1    3    3    0  502 -0.65980558448E+03  0.19761260840E+03 -0.73990235743E+03  0.10108657927E+04  0.25500000920E-02 0.  1.
</event>
<event>
 5   0  0.4995256E-05  0.2587181E+04  0.7818609E-02  0.8372569E-01
        2   -1    0    0  501    0  0.00000000000E+00  0.00000000000E+00  0.92556690412E+03  0.92556690412E+03  0.25500000920E-02 0.  1.
       -2   -1    0    0    0  501  0.00000000000E+00  0.00000000000E+00 -0.18079476801E+04  0.18079476801E+04  0.25500000920E-02 0. -1.
    10030    2    1    2    0    0  0.00000000000E+00  0.00000000000E+00 -0.88238077598E+03  0.27335145842E+04  0.25871811201E+04 0.  0.
        2    1    3    3  502    0 -0.10597886531E+04  0.60830697253E+03 -0.88968424626E+03  0.15115314817E+04  0.25500000920E-02 0.  1.
       -2    1    3    3    0  502  0.10597886531E+04 -0.60830697253E+03  0.73034702805E+01  0.12219831025E+04  0.25500000920E-02 0. -1.
</event>
<event>
 5   0  0.2036578E-05  0.2411930E+04  0.7818609E-02  0.8435051E-01
        1   -1    0    0  501    0  0.00000000000E+00  0.00000000000E+00  0.93722565359E+03  0.93722565360E+03  0.50400001928E-02 0. -1.
       -1   -1    0    0    0  501  0.00000000000E+00  0.00000000000E+00 -0.15517619623E+04  0.15517619623E+04  0.50400001928E-02 0.  1.
    10030    2    1    2    0    0  0.00000000000E+00  0.00000000000E+00 -0.61453630874E+03  0.24889876159E+04  0.24119296170E+04 0.  0.
        2    1    3    3  502    0 -0.42167557795E+03  0.11207291169E+04 -0.15949010063E+03  0.12080070938E+04  0.25500000920E-02 0. -1.
       -2    1    3    3    0  502  0.42167557795E+03 -0.11207291169E+04 -0.45504620810E+03  0.12809805221E+04  0.25500000920E-02 0.  1.
</event>
<event>
 5   0  0.2066170E-05  0.2513612E+04  0.7818609E-02  0.8398152E-01
       -1   -1    0    0    0  501  0.00000000000E+00  0.00000000000E+00  0.10500193037E+04  0.10500193037E+04  0.50400001928E-02 0. -1.
        1   -1    0    0  501    0  0.00000000000E+00  0.00000000000E+00 -0.15043168481E+04  0.15043168481E+04  0.50400001928E-02 0.  1.
    10030    2    1    2    0    0  0.00000000000E+00  0.00000000000E+00 -0.45429754438E+03  0.25543361518E+04  0.25136123245E+04 0.  0.
        5    1    3    3  502    0 -0.12894945012E+03  0.12391368805E+04 -0.39551793641E+03  0.13071131158E+04  0.46999998093E+01 0.  1.
       -5    1    3    3    0  502  0.12894945012E+03 -0.12391368805E+04 -0.58779607970E+02  0.12472230361E+04  0.46999998093E+01 0. -1.
</event>
<event>
 5   0  0.4959347E-05  0.1564448E+04  0.7818609E-02  0.8842691E-01
        2   -1    0    0  501    0  0.00000000000E+00  0.00000000000E+00  0.15859026291E+04  0.15859026291E+04  0.25500000920E-02 0. -1.
       -2   -1    0    0    0  501  0.00000000000E+00  0.00000000000E+00 -0.38582109149E+03  0.38582109150E+03  0.25500000920E-02 0.  1.
    10030    2    1    2    0    0  0.00000000000E+00  0.00000000000E+00  0.12000815377E+04  0.19717237206E+04  0.15644483800E+04 0.  0.
        3    1    3    3  502    0 -0.68781360410E+03  0.36833526590E+03  0.67039675345E+03  0.10286837412E+04  0.10100000352E+00 0.  1.
       -3    1    3    3    0  502  0.68781360410E+03 -0.36833526590E+03  0.52968478420E+03  0.94303997948E+03  0.10100000352E+00 0. -1.
</event>
<event>
 5   0  0.4959347E-05  0.2510498E+04  0.7818609E-02  0.8399255E-01
        2   -1    0    0  501    0  0.00000000000E+00  0.00000000000E+00  0.12539448514E+04  0.12539448514E+04  0.25500000920E-02 0. -1.
       -2   -1    0    0    0  501  0.00000000000E+00  0.00000000000E+00 -0.12565544021E+04  0.12565544021E+04  0.25500000920E-02 0.  1.
    10030    2    1    2    0    0  0.00000000000E+00  0.00000000000E+00 -0.26095507460E+01  0.25104992535E+04  0.25104978973E+04 0.  0.
        3    1    3    3  502    0 -0.39987897886E+03 -0.65727477474E+03  0.99053071930E+03  0.12542186585E+04  0.10100000352E+00 0. -1.
       -3    1    3    3    0  502  0.39987897886E+03  0.65727477474E+03 -0.99314027005E+03  0.12562805950E+04  0.10100000352E+00 0.  1.
</event>
<event>
 5   0  0.4959042E-05  0.2489564E+04  0.7818609E-02  0.8406713E-01
        2   -1    0    0  501    0  0.00000000000E+00  0.00000000000E+00  0.13342045856E+04  0.13342045856E+04  0.25500000920E-02 0.  1.
       -2   -1    0    0    0  501  0.00000000000E+00  0.00000000000E+00 -0.11613530704E+04  0.11613530705E+04  0.25500000920E-02 0. -1.
    10030    2    1    2    0    0  0.00000000000E+00  0.00000000000E+00  0.17285151514E+03  0.24955576560E+04  0.24895642929E+04 0.  0.
        4    1    3    3  502    0  0.56663196502E+03  0.21635221707E+03 -0.10032057951E+04  0.11723069332E+04  0.12699999809E+01 0. -1.
       -4    1    3    3    0  502 -0.56663196502E+03 -0.21635221707E+03  0.11760573102E+04  0.13232507228E+04  0.12699999809E+01 0.  1.
</event>
<event>
 5   0  0.4959347E-05  0.2534654E+04  0.7818609E-02  0.8390743E-01
       -2   -1    0    0    0  501  0.00000000000E+00  0.00000000000E+00  0.93783304506E+03  0.93783304507E+03  0.25500000920E-02 0.  1.
        2   -1    0    0  501    0  0.00000000000E+00  0.00000000000E+00 -0.17125838327E+04  0.17125838327E+04  0.25500000920E-02 0. -1.
    10030    2    1    2    0    0  0.00000000000E+00  0.00000000000E+00 -0.77475078760E+03  0.26504168777E+04  0.25346539888E+04 0.  0.
        3    1    3    3  502    0 -0.11394158657E+04  0.30238803888E+03 -0.87382161217E+03  0.14674028966E+04  0.10100000352E+00 0. -1.
       -3    1    3    3    0  502  0.11394158657E+04 -0.30238803888E+03  0.99070824577E+02  0.11830139811E+04  0.10100000352E+00 0.  1.
</event>
<event>
 5   0  0.5219468E-05  0.2473643E+04  0.7818609E-02  0.8412436E-01
       -2   -1    0    0    0  501  0.00000000000E+00  0.00000000000E+00  0.10321409185E+04  0.10321409185E+04  0.25500000920E-02 0. -1.
        2   -1    0    0  501    0  0.00000000000E+00  0.00000000000E+00 -0.14820921433E+04  0.14820921433E+04  0.25500000920E-02 0.  1.
    10030    2    1    2    0    0  0.00000000000E+00  0.00000000000E+00 -0.44995122476E+03  0.25142330618E+04  0.24736434231E+04 0.  0.
        1    1    3    3  502    0 -0.99956459445E+03  0.69530110367E+03 -0.42605110771E+01  0.12176169986E+04  0.50400001928E-02 0.  1.
       -1    1    3    3    0  502  0.99956459445E+03 -0.69530110367E+03 -0.44569071368E+03  0.12966160633E+04  0.50400001928E-02 0. -1.
</event>
<event>
 5   0  0.5024070E-05  0.2444263E+04  0.7818609E-02  0.8423115E-01
       -2   -1    0    0    0  501  0.00000000000E+00  0.00000000000E+00  0.50935088632E+03  0.50935088633E+03  0.25500000920E-02 0.  1.
        2   -1    0    0  501    0  0.00000000000E+00  0.00000000000E+00 -0.29323713973E+04  0.29323713973E+04  0.25500000920E-02 0. -1.
    10030    2    1    2    0    0  0.00000000000E+00  0.00000000000E+00 -0.24230205110E+04  0.34417222836E+04  0.24442634639E+04 0.  0.
        5    1    3    3  502    0  0.27878330209E+03 -0.39805859615E+03  0.36743400425E+03  0.60926235151E+03  0.46999998093E+01 0.  1.
       -5    1    3    3    0  502 -0.27878330209E+03  0.39805859615E+03 -0.27904545152E+04  0.28324599321E+04  0.46999998093E+01 0. -1.
</event>
<event>
 5   0  0.5024070E-05  0.2459856E+04  0.7818609E-02  0.8417428E-01
       -2   -1    0    0    0  501  0.00000000000E+00  0.00000000000E+00  0.61658583958E+03  0.61658583959E+03  0.25500000920E-02 0.  1.
        2   -1    0    0  501    0  0.00000000000E+00  0.00000000000E+00 -0.24533852065E+04  0.24533852065E+04  0.25500000920E-02 0. -1.
    10030    2    1    2    0    0  0.00000000000E+00  0.00000000000E+00 -0.18367993669E+04  0.30699710461E+04  0.24598557497E+04 0.  0.
        5    1    3    3  502    0 -0.47762792453E+03  0.23047041083E+03  0.46654998533E+03  0.70635403543E+03  0.46999998093E+01 0.  1.
       -5    1    3    3    0  502  0.47762792453E+03 -0.23047041083E+03 -0.23033493523E+04  0.23636170107E+04  0.46999998093E+01 0. -1.
</event>
<event>
 5   0  0.2063930E-05  0.2496070E+04  0.7818609E-02  0.8404387E-01
       -1   -1    0    0    0  501  0.00000000000E+00  0.00000000000E+00  0.14107030387E+04  0.14107030387E+04  0.50400001928E-02 0.  1.
        1   -1    0    0  501    0  0.00000000000E+00  0.00000000000E+00 -0.11041240587E+04  0.11041240587E+04  0.50400001928E-02 0. -1.
    10030    2    1    2    0    0  0.00000000000E+00  0.00000000000E+00  0.30657897994E+03  0.25148270974E+04  0.24960698425E+04 0.  0.
        3    1    3    3  502    0  0.69485055182E+03 -0.77706419944E+02 -0.88827587893E+03  0.11304378021E+04  0.10100000352E+00 0. -1.
       -3    1    3    3    0  502 -0.69485055182E+03  0.77706419944E+02  0.11948548589E+04  0.13843892953E+04  0.10100000352E+00 0.  1.
</event>
<event>
 5   0  0.2081874E-05  0.1836573E+04  0.7818609E-02  0.8687089E-01
       -1   -1    0    0    0  501  0.00000000000E+00  0.00000000000E+00  0.38442599848E+03  0.38442599852E+03  0.50400001928E-02 0. -1.
        1   -1    0    0  501    0  0.00000000000E+00  0.00000000000E+00 -0.21935293488E+04  0.21935293488E+04  0.50400001928E-02 0.  1.
    10030    2    1    2    0    0  0.00000000000E+00  0.00000000000E+00 -0.18091033503E+04  0.25779553473E+04  0.18365725797E+04 0.  0.
        1    1    3    3  502    0 -0.72556471100E+03 -0.52390045888E+03 -0.61574230601E+03  0.10863031014E+04  0.50400001928E-02 0. -1.
       -1    1    3    3    0  502  0.72556471100E+03  0.52390045888E+03 -0.11933610443E+04  0.14916522459E+04  0.50400001928E-02 0.  1.
</event>
<event>
 5   0  0.2063930E-05  0.2384632E+04  0.7818609E-02  0.8445280E-01
        1   -1    0    0  501    0  0.00000000000E+00  0.00000000000E+00  0.21222941841E+04  0.21222941841E+04  0.50400001928E-02 0.  1.
       -1   -1    0    0    0  501  0.00000000000E+00  0.00000000000E+00 -0.66984950592E+03  0.66984950594E+03  0.50400001928E-02 0. -1.
    10030    2    1    2    0    0  0.00000000000E+00  0.00000000000E+00  0.14524446782E+04  0.27921436901E+04  0.23846322238E+04 0.  0.
        3    1    3    3  502    0  0.22882536511E+03  0.60474666285E+03  0.18991825883E+04  0.20062338069E+04  0.10100000352E+00 0.  1.
       -3    1    3    3    0  502 -0.22882536511E+03 -0.60474666285E+03 -0.44673791011E+03  0.78590988318E+03  0.10100000352E+00 0. -1.
</event>
<event>
 5   0  0.2081874E-05  0.2542046E+04  0.7818609E-02  0.8388158E-01
       -1   -1    0    0    0  501  0.00000000000E+00  0.00000000000E+00  0.74831267939E+03  0.74831267940E+03  0.50400001928E-02 0.  1.
        1   -1    0    0  501    0  0.00000000000E+00  0.00000000000E+00 -0.21588558838E+04  0.21588558838E+04  0.50400001928E-02 0. -1.
    10030    2    1    2    0    0  0.00000000000E+00  0.00000000000E+00 -0.14105432044E+04  0.29071685632E+04  0.25420458146E+04 0.  0.
        1    1    3    3  502    0 -0.17292931338E+03  0.87200071856E+03 -0.17441600844E+04  0.19576476191E+04  0.50400001928E-02 0. -1.
       -1    1    3    3    0  502  0.17292931338E+03 -0.87200071856E+03  0.33361688000E+03  0.94952094408E+03  0.50400001928E-02 0.  1.
</event>
<event>
 5   0  0.2041718E-05  0.2489908E+04  0.7818609E-02  0.8406590E-01
       -1   -1    0    0    0  501  0.00000000000E+00  0.00000000000E+00  0.12867890269E+04  0.12867890269E+04  0.50400001928E-02 0. -1.
        1   -1    0    0  501    0  0.00000000000E+00  0.00000000000E+00 -0.12044787137E+04  0.12044787137E+04  0.50400001928E-02 0.  1.
    10030    2    1    2    0    0  0.00000000000E+00  0.00000000000E+00  0.82310313187E+02  0.24912677406E+04  0.24899076223E+04 0.  0.
        4    1    3    3  502    0  0.71100769102E+03 -0.32978782925E+03 -0.92664589467E+03  0.12136581792E+04  0.12699999809E+01 0.  1.
       -4    1    3    3    0  502 -0.71100769102E+03  0.32978782925E+03  0.10089562079E+04  0.12776095614E+04  0.12699999809E+01 0. -1.
</event>
<event>
 5   0  0.4959042E-05  0.2455607E+04  0.7818609E-02  0.8418974E-01
       -2   -1    0    0    0  501  0.00000000000E+00  0.00000000000E+00  0.65886108912E+03  0.65886108913E+03  0.25500000920E-02 0. -1.
        2   -1    0    0  501    0  0.00000000000E+00  0.00000000000E+00 -0.22880407765E+04  0.22880407765E+04  0.25500000920E-02 0.  1.
    10030    2    1    2    0    0  0.00000000000E+00  0.00000000000E+00 -0.16291796873E+04  0.29469018656E+04  0.24556066769E+04 0.  0.
        4    1    3    3  502    0  0.27282613876E+03  0.10475334377E+04 -0.15099467577E+04  0.18578754611E+04  0.12699999809E+01 0.  1.
       -4    1    3    3    0  502 -0.27282613876E+03 -0.10475334377E+04 -0.11923292965E+03  0.10890264044E+04  0.12699999809E+01 0. -1.
</event>
<event>
 5   0  0.5024070E-05  0.1853477E+04  0.7818609E-02  0.8678367E-01
        2   -1    0    0  501    0  0.00000000000E+00  0.00000000000E+00  0.10132062937E+04  0.10132062937E+04  0.25500000920E-02 0. -1.
       -2   -1    0    0    0  501  0.00000000000E+00  0.00000000000E+00 -0.84765024657E+03  0.84765024657E+03  0.25500000920E-02 0.  1.
    10030    2    1    2    0    0  0.00000000000E+00  0.00000000000E+00  0.16555604711E+03  0.18608565403E+04  0.18534773424E+04 0.  0.
        5    1    3    3  502    0  0.71345337769E+03  0.38406105824E+03  0.53435073769E+03  0.97060363664E+03  0.46999998093E+01 0. -1.
       -5    1    3    3    0  502 -0.71345337769E+03 -0.38406105824E+03 -0.36879469058E+03  0.89025290361E+03  0.46999998093E+01 0.  1.
</event>
<event>
 5   0  0.2081874E-05  0.2529222E+04  0.7818609E-02  0.8392648E-01
       -1   -1    0    0    0  501  0.00000000000E+00  0.00000000000E+00  0.15444330300E+04  0.15444330300E+04  0.50400001928E-02 0. -1.
        1   -1    0    0  501    0  0.00000000000E+00  0.00000000000E+00 -0.10354874864E+04  0.10354874865E+04  0.50400001928E-02 0.  1.
    10030    2    1    2    0    0  0.00000000000E+00  0.00000000000E+00  0.50894554358E+03  0.25799205165E+04  0.25292220751E+04 0.  0.
        1    1    3    3  502    0  0.35057685958E+03  0.36175428144E+03 -0.92872269762E+03  0.10565491677E+04  0.50400001928E-02 0.  1.
       -1    1    3    3    0  502 -0.35057685958E+03 -0.36175428144E+03  0.14376682412E+04  0.15233713488E+04  0.50400001928E-02 0. -1.
</event>
<event>
 5   0  0.4959347E-05  0.2499141E+04  0.7818609E-02  0.8403292E-01
       -2   -1    0    0    0  501  0.00000000000E+00  0.00000000000E+00  0.14604176198E+04  0.14604176198E+04  0.25500000920E-02 0. -1.
        2   -1    0    0  501    0  0.00000000000E+00  0.00000000000E+00 -0.10691644118E+04  0.10691644118E+04  0.25500000920E-02 0.  1.
    10030    2    1    2    0    0  0.00000000000E+00  0.00000000000E+00  0.39125320807E+03  0.25295820316E+04  0.24991410888E+04 0.  0.
        3    1    3    3  502    0  0.34027236329E+02 -0.10412611186E+04 -0.50273688307E+03  0.11567743746E+04  0.10100000352E+00 0. -1.
       -3    1    3    3    0  502 -0.34027236329E+02  0.10412611186E+04  0.89399009114E+03  0.13728076570E+04  0.10100000352E+00 0.  1.
</event>
<event>
 5   0  0.5219468E-05  0.2520208E+04  0.7818609E-02  0.8395821E-01
       -2   -1    0    0    0  501  0.00000000000E+00  0.00000000000E+00  0.10857851283E+04  0.10857851283E+04  0.25500000920E-02 0. -1.
        2   -1    0    0  501    0  0.00000000000E+00  0.00000000000E+00 -0.14624094702E+04  0.14624094702E+04  0.25500000920E-02 0.  1.
    10030    2    1    2    0    0  0.00000000000E+00  0.00000000000E+00 -0.37662434193E+03  0.25481945985E+04  0.25202082884E+04 0.  0.
        1    1    3    3  502    0 -0.10958650941E+04 -0.59052629808E+03 -0.38598468005E+03  0.13033133877E+04  0.50400001928E-02 0. -1.
       -1    1    3    3    0  502  0.10958650941E+04  0.59052629808E+03  0.93603381199E+01  0.12448812109E+04  0.50400001928E-02 0.  1.
</event>
<event>
 5   0  0.4995256E-05  0.2486489E+04  0.7818609E-02  0.8407815E-01
        2   -1    0    0  501    0  0.00000000000E+00  0.00000000000E+00  0.18667856748E+04  0.18667856748E+04  0.25500000920E-02 0.  1.
       -2   -1    0    0    0  501  0.00000000000E+00  0.00000000000E+00 -0.82797771204E+03  0.82797771205E+03  0.25500000920E-02 0. -1.
    10030    2    1    2    0    0  0.00000000000E+00  0.00000000000E+00  0.10388079627E+04  0.26947633868E+04  0.24864890363E+04 0.  0.
        2    1    3    3  502    0  0.79727091538E+03 -0.87451699581E+03  0.93242418260E+03  0.15065974063E+04  0.25500000920E-02 0.  1.
       -2    1    3    3    0  502 -0.79727091538E+03  0.87451699581E+03  0.10638378012E+03  0.11881659805E+04  0.25500000920E-02 0. -1.
</event>
<event>
 5   0  0.2036578E-05  0.2583801E+04  0.7818609E-02  0.8373724E-01
        1   -1    0    0  501    0  0.00000000000E+00  0.00000000000E+00  0.23130060641E+04  0.23130060641E+04  0.50400001928E-02 0.  1.
       -1   -1    0    0    0  501  0.00000000000E+00  0.00000000000E+00 -0.72157487681E+03  0.72157487683E+03  0.50400001928E-02 0. -1.
    10030    2    1    2    0    0  0.00000000000E+00  0.00000000000E+00  0.15914311872E+04  0.30345809409E+04  0.25838011268E+04 0.  0.
        2    1    3    3  502    0  0.41596022315E+03  0.10984789444E+04  0.14274506834E+04  0.18485925328E+04  0.25500000920E-02 0. -1.
       -2    1    3    3    0  502 -0.41596022315E+03 -0.10984789444E+04  0.16398050381E+03  0.11859884081E+04  0.25500000920E-02 0.  1.
</event>
<event>
 5   0  0.2041718E-05  0.2416398E+04  0.7818609E-02  0.8433390E-01
        1   -1    0    0  501    0  0.00000000000E+00  0.00000000000E+00  0.73177031614E+03  0.73177031615E+03  0.50400001928E-02 0. -1.
       -1   -1    0    0    0  501  0.00000000000E+00  0.00000000000E+00 -0.19948124867E+04  0.19948124867E+04  0.50400001928E-02 0.  1.
    10030    2    1    2    0    0  0.00000000000E+00  0.00000000000E+00 -0.12630421706E+04  0.27265828029E+04  0.24163977852E+04 0.  0.
        4    1    3    3  502    0  0.56264195094E+03 -0.65376558779E+03 -0.15861536885E+04  0.18055083897E+04  0.12699999809E+01 0.  1.
       -4    1    3    3    0  502 -0.56264195094E+03  0.65376558779E+03  0.32311151793E+03  0.92107441320E+03  0.12699999809E+01 0. -1.
</event>
<event>
 5   0  0.5024070E-05  0.2485115E+04  0.7818609E-02  0.8408308E-01
        2   -1    0    0  501    0  0.00000000000E+00  0.00000000000E+00  0.11193464701E+04  0.11193464701E+04  0.25500000920E-02 0. -1.
       -2   -1    0    0    0  501  0.00000000000E+00  0.00000000000E+00 -0.13793305932E+04  0.13793305932E+04  0.25500000920E-02 0.  1.
    10030    2    1    2    0    0  0.00000000000E+00  0.00000000000E+00 -0.25998412308E+03  0.24986770633E+04  0.24851147504E+04 0.  0.
        5    1    3    3  502    0 -0.27508855617E+03 -0.35263217194E+02 -0.13478037863E+04  0.13760502696E+04  0.46999998093E+01 0.  1.
       -5    1    3    3    0  502  0.27508855617E+03  0.35263217194E+02  0.10878196632E+04  0.11226267937E+04  0.46999998093E+01 0. -1.
</event>
<event>
 5   0  0.2036578E-05  0.2523894E+04  0.7818609E-02  0.8394522E-01
       -1   -1    0    0    0  501  0.00000000000E+00  0.00000000000E+00  0.15987192395E+04  0.15987192395E+04  0.50400001928E-02 0. -1.
        1   -1    0    0  501    0  0.00000000000E+00  0.00000000000E+00 -0.99611632162E+03  0.99611632163E+03  0.50400001928E-02 0.  1.
    10030    2    1    2    0    0  0.00000000000E+00  0.00000000000E+00  0.60260291792E+03  0.25948355612E+04  0.25238940772E+04 0.  0.
        2    1    3    3  502    0 -0.62992075024E+01 -0.23754984530E+03  0.15755087359E+04  0.15933290262E+04  0.25500000920E-02 0. -1.
       -2    1    3    3    0  502  0.62992075024E+01  0.23754984530E+03 -0.97290581793E+03  0.10015065350E+04  0.25500000920E-02 0.  1.
</event>
<event>
 5   0  0.2066170E-05  0.2497191E+04  0.7818609E-02  0.8403987E-01
       -1   -1    0    0    0  501  0.00000000000E+00  0.00000000000E+00  0.85296262826E+03  0.85296262828E+03  0.50400001928E-02 0. -1.
        1   -1    0    0  501    0  0.00000000000E+00  0.00000000000E+00 -0.18277361649E+04  0.18277361649E+04  0.50400001928E-02 0.  1.
    10030    2    1    2    0    0  0.00000000000E+00  0.00000000000E+00 -0.97477353667E+03  0.26806987932E+04  0.24971909363E+04 0.  0.
        5    1    3    3  502    0  0.67270264856E+03 -0.10510696104E+04 -0.44322520814E+03  0.13242910762E+04  0.46999998093E+01 0.  1.
       -5    1    3    3    0  502 -0.67270264856E+03  0.10510696104E+04 -0.53154832853E+03  0.13564077170E+04  0.46999998093E+01 0. -1.
</event>
<event>
 5   0  0.2041718E-05  0.2506152E+04  0.7818609E-02  0.8400797E-01
        1   -1    0    0  501    0  0.00000000000E+00  0.00000000000E+00  0.17803638632E+04  0.17803638632E+04  0.50400001928E-02 0. -1.
       -1   -1    0    0    0  501  0.00000000000E+00  0.00000000000E+00 -0.88195455220E+03  0.88195455221E+03  0.50400001928E-02 0.  1.
    10030    2    1    2    0    0  0.00000000000E+00  0.00000000000E+00  0.89840931095E+03  0.26623184154E+04  0.25061524405E+04 0.  0.
        4    1    3    3  502    0 -0.48317986927E+03  0.11550761282E+04  0.39572109399E+03  0.13131109797E+04  0.12699999809E+01 0.  1.
       -4    1    3    3    0  502  0.48317986927E+03 -0.11550761282E+04  0.50268821696E+03  0.13492074356E+04  0.12699999809E+01 0. -1.
</event>
<event>
 5   0  0.2063930E-05  0.2265600E+04  0.7818609E-02  0.8491609E-01
        1   -1    0    0  501    0  0.00000000000E+00  0.00000000000E+00  0.15625970129E+04  0.15625970129E+04  0.50400001928E-02 0. -1.
       -1   -1    0    0    0  501  0.00000000000E+00  0.00000000000E+00 -0.82121971471E+03  0.82121971473E+03  0.50400001928E-02 0.  1.
    10030    2    1    2    0    0  0.00000000000E+00  0.00000000000E+00  0.74137729817E+03  0.23838167276E+04  0.22655996762E+04 0.  0.
        3    1    3    3  502    0 -0.95682138276E+03  0.56024137158E+03  0.61487109363E+03  0.12678501587E+04  0.10100000352E+00 0. -1.
       -3    1    3    3    0  502  0.95682138276E+03 -0.56024137158E+03  0.12650620454E+03  0.11159665689E+04  0.10100000352E+00 0.  1.
</event>
<event>
 5   0  0.2066170E-05  0.2741448E+04  0.7818609E-02  0.8321680E-01
       -1   -1    0    0    0  501  0.00000000000E+00  0.00000000000E+00  0.16353345642E+04  0.16353345642E+04  0.50400001928E-02 0.  1.
        1   -1    0    0  501    0  0.00000000000E+00  0.00000000000E+00 -0.11489296457E+04  0.11489296457E+04  0.50400001928E-02 0. -1.
    10030    2    1    2    0    0  0.00000000000E+00  0.00000000000E+00  0.48640491855E+03  0.27842642099E+04  0.27414480563E+04 0.  0.
        5    1    3    3  502    0 -0.63418783065E+03 -0.67199321443E+03 -0.78507921688E+03  0.12124935264E+04  0.46999998093E+01 0. -1.
       -5    1    3    3    0  502  0.63418783065E+03  0.67199321443E+03  0.12714841354E+04  0.15717706835E+04  0.46999998093E+01 0.  1.
</event>
<event>
 5   0  0.2081874E-05  0.2512935E+04  0.7818609E-02  0.8398392E-01
       -1   -1    0    0    0  501  0.00000000000E+00  0.00000000000E+00  0.79107462032E+03  0.79107462033E+03  0.50400001928E-02 0.  1.
        1   -1    0    0  501    0  0.00000000000E+00  0.00000000000E+00 -0.19956524590E+04  0.19956524590E+04  0.50400001928E-02 0. -1.
    10030    2    1    2    0    0  0.00000000000E+00  0.00000000000E+00 -0.12045778387E+04  0.27867270794E+04  0.25129345486E+04 0.  0.
        1    1    3    3  502    0 -0.11533024776E+03  0.68861940979E+03 -0.17607138026E+04  0.18940989553E+04  0.50400001928E-02 0. -1.
       -1    1    3    3    0  502  0.11533024776E+03 -0.68861940979E+03  0.55613596390E+03  0.89262812411E+03  0.50400001928E-02 0.  1.
</event>
<event>
 5   0  0.5219468E-05  0.2473120E+04  0.7818609E-02  0.8412625E-01
        2   -1    0    0  501    0  0.00000000000E+00  0.00000000000E+00  0.14346983054E+04  0.14346983054E+04  0.25500000920E-02 0. -1.
       -2   -1    0    0    0  501  0.00000000000E+00  0.00000000000E+00 -0.10657854266E+04  0.10657854267E+04  0.25500000920E-02 0.  1.
    10030    2    1    2    0    0  0.00000000000E+00  0.00000000000E+00  0.36891287873E+03  0.25004837320E+04  0.24731199288E+04 0.  0.
        1    1    3    3  502    0 -0.63175484576E+03  0.63859350657E+03  0.10436618088E+04  0.13770061086E+04  0.50400001928E-02 0. -1.
       -1    1    3    3    0  502  0.63175484576E+03 -0.63859350657E+03 -0.67474893009E+03  0.11234776235E+04  0.50400001928E-02 0.  1.
</event>
<event>
 5   0  0.2081874E-05  0.2261385E+04  0.7818609E-02  0.8493304E-01
        1   -1    0    0  501    0  0.00000000000E+00  0.00000000000E+00  0.10634624348E+04  0.10634624348E+04  0.50400001928E-02 0.  1.
       -1   -1    0    0    0  501  0.00000000000E+00  0.00000000000E+00 -0.12021724591E+04  0.12021724591E+04  0.50400001928E-02 0. -1.
    10030    2    1    2    0    0  0.00000000000E+00  0.00000000000E+00 -0.13871002431E+03  0.22656348939E+04  0.22613847531E+04 0.  0.
        1    1    3    3  502    0  0.95310896115E+03 -0.24948009968E+03  0.48649239580E+03  0.10987865412E+04  0.50400001928E-02 0.  1.
       -1    1    3    3    0  502 -0.95310896115E+03  0.24948009968E+03 -0.62520242011E+03  0.11668483527E+04  0.50400001928E-02 0. -1.
</event>
<event>
 5   0  0.4959042E-05  0.2513444E+04  0.7818609E-02  0.8398211E-01
       -2   -1    0    0    0  501  0.00000000000E+00  0.00000000000E+00  0.14774920979E+04  0.14774920979E+04  0.25500000920E-02 0. -1.
        2   -1    0    0  501    0  0.00000000000E+00  0.00000000000E+00 -0.10689402384E+04  0.10689402384E+04  0.25500000920E-02 0.  1.
    10030    2    1    2    0    0  0.00000000000E+00  0.00000000000E+00  0.40855185948E+03  0.25464323362E+04  0.25134444536E+04 0.  0.
        4    1    3    3  502    0 -0.23715584894E+03  0.39889164508E+02 -0.10454102936E+04  0.10727154036E+04  0.12699999809E+01 0.  1.
       -4    1    3    3    0  502  0.23715584894E+03 -0.39889164508E+02  0.14539621531E+04  0.14737169327E+04  0.12699999809E+01 0. -1.
</event>
<event>
 5   0  0.5024070E-05  0.2506681E+04  0.7818609E-02  0.8400609E-01
        2   -1    0    0  501    0  0.00000000000E+00  0.00000000000E+00  0.10572369540E+04  0.10572369540E+04  0.25500000920E-02 0.  1.
       -2   -1    0    0    0  501  0.00000000000E+00  0.00000000000E+00 -0.14858190299E+04  0.14858190299E+04  0.25500000920E-02 0. -1.
    10030    2    1    2    0    0  0.00000000000E+00  0.00000000000E+00 -0.42858207597E+03  0.25430559839E+04  0.25066813003E+04 0.  0.
        5    1    3    3  502    0 -0.76248203006E+03  0.99099077300E+03 -0.30155749307E+03  0.12862350368E+04  0.46999998093E+01 0. -1.
       -5    1    3    3    0  502  0.76248203006E+03 -0.99099077300E+03 -0.12702458290E+03  0.12568209471E+04  0.46999998093E+01 0.  1.
</event>
<event>
 5   0  0.2036578E-05  0.2497768E+04  0.7818609E-02  0.8403781E-01
       -1   -1    0    0    0  501  0.00000000000E+00  0.00000000000E+00  0.14754054375E+04  0.14754054375E+04  0.50400001928E-02 0.  1.
        1   -1    0    0  501    0  0.00000000000E+00  0.00000000000E+00 -0.10571410465E+04  0.10571410465E+04  0.50400001928E-02 0. -1.
    10030    2    1    2    0    0  0.00000000000E+00  0.00000000000E+00  0.41826439097E+03  0.25325464840E+04  0.24977683224E+04 0.  0.
        2    1    3    3  502    0  0.11716468367E+04  0.17065767364E+03  0.61194367085E+03  0.13327998378E+04  0.25500000920E-02 0.  1.
       -2    1    3    3    0  502 -0.11716468367E+04 -0.17065767364E+03 -0.19367927988E+03  0.11997466461E+04  0.25500000920E-02 0. -1.
</event>
<event>
 5   0  0.2081874E-05  0.2528513E+04  0.7818609E-02  0.8392897E-01
       -1   -1    0    0    0  501  0.00000000000E+00  0.00000000000E+00  0.76698671234E+03  0.76698671236E+03  0.50400001928E-02 0. -1.
        1   -1    0    0  501    0  0.00000000000E+00  0.00000000000E+00 -0.20839272415E+04  0.20839272415E+04  0.50400001928E-02 0.  1.
    10030    2    1    2    0    0  0.00000000000E+00  0.00000000000E+00 -0.13169405291E+04  0.28509139538E+04  0.25285130047E+04 0.  0.
        1    1    3    3  502    0 -0.51255236157E+03 -0.10837275983E+04 -0.20582313350E+03  0.12163628541E+04  0.50400001928E-02 0. -1.
       -1    1    3    3    0  502  0.51255236157E+03  0.10837275983E+04 -0.11111173956E+04  0.16345510997E+04  0.50400001928E-02 0.  1.
</event>
<event>
 5   0  0.4995256E-05  0.2487442E+04  0.7818609E-02  0.8407473E-01
       -2   -1    0    0    0  501  0.00000000000E+00  0.00000000000E+00  0.95308529634E+03  0.95308529635E+03  0.25500000920E-02 0.  1.
        2   -1    0    0  501    0  0.00000000000E+00  0.00000000000E+00 -0.16229842300E+04  0.16229842300E+04  0.25500000920E-02 0. -1.
    10030    2    1    2    0    0  0.00000000000E+00  0.00000000000E+00 -0.66989893361E+03  0.25760695263E+04  0.24874423859E+04 0.  0.
        2    1    3    3  502    0  0.91843575176E+03 -0.78939362190E+03 -0.41707291860E+02  0.12117780402E+04  0.25500000920E-02 0.  1.
       -2    1    3    3    0  502 -0.91843575176E+03  0.78939362190E+03 -0.62819164175E+03  0.13642914861E+04  0.25500000920E-02 0. -1.
</event>
<event>
 5   0  0.2063930E-05  0.2435124E+04  0.7818609E-02  0.8426470E-01
        1   -1    0    0  501    0  0.00000000000E+00  0.00000000000E+00  0.11528927569E+04  0.11528927569E+04  0.50400001928E-02 0.  1.
       -1   -1    0    0    0  501  0.00000000000E+00  0.00000000000E+00 -0.12858583688E+04  0.12858583688E+04  0.50400001928E-02 0. -1.
    10030    2    1    2    0    0  0.00000000000E+00  0.00000000000E+00 -0.13296561192E+03  0.24387511258E+04  0.24351236518E+04 0.  0.
        3    1    3    3  502    0  0.10310424614E+04 -0.42294766462E+03  0.42467972250E+03  0.11925963949E+04  0.10100000352E+00 0.  1.
       -3    1    3    3    0  502 -0.10310424614E+04  0.42294766462E+03 -0.55764533442E+03  0.12461547309E+04  0.10100000352E+00 0. -1.
</event>
<event>
 5   0  0.2063930E-05  0.2503966E+04  0.7818609E-02  0.8401574E-01
       -1   -1    0    0    0  501  0.00000000000E+00  0.00000000000E+00  0.76810986042E+03  0.76810986044E+03  0.50400001928E-02 0.  1.
        1   -1    0    0  501    0  0.00000000000E+00  0.00000000000E+00 -0.20406742379E+04  0.20406742380E+04  0.50400001928E-02 0. -1.
    10030    2    1    2    0    0  0.00000000000E+00  0.00000000000E+00 -0.12725643775E+04  0.28087840984E+04  0.25039664567E+04 0.  0.
        3    1    3    3  502    0 -0.50840393736E+03 -0.17361440812E+03  0.63224238668E+03  0.82966678368E+03  0.10100000352E+00 0.  1.
       -3    1    3    3    0  502  0.50840393736E+03  0.17361440812E+03 -0.19048067642E+04  0.19791173147E+04  0.10100000352E+00 0. -1.
</event>
<event>
 5   0  0.4995256E-05  0.2497651E+04  0.7818609E-02  0.8403823E-01
       -2   -1    0    0    0  501  0.00000000000E+00  0.00000000000E+00  0.11965697474E+04  0.11965697474E+04  0.25500000920E-02 0. -1.
        2   -1    0    0  501    0  0.00000000000E+00  0.00000000000E+00 -0.13033637578E+04  0.13033637578E+04  0.25500000920E-02 0.  1.
    10030    2    1    2    0    0  0.00000000000E+00  0.00000000000E+00 -0.10679401041E+03  0.24999335051E+04  0.24976514107E+04 0.  0.
        2    1    3    3  502    0  0.54901267891E+03 -0.32849597123E+03  0.10200758727E+04  0.12041093434E+04  0.25500000920E-02 0. -1.
       -2    1    3    3    0  502 -0.54901267891E+03  0.32849597123E+03 -0.11268698831E+04  0.12958241618E+04  0.25500000920E-02 0.  1.
</event>
<event>
 5   0  0.2066170E-05  0.2460043E+04  0.7818609E-02  0.8417360E-01
       -1   -1    0    0    0  501  0.00000000000E+00  0.00000000000E+00  0.58217476302E+03  0.58217476304E+03  0.50400001928E-02 0. -1.
        1   -1    0    0  501    0  0.00000000000E+00  0.00000000000E+00 -0.25987952263E+04  0.25987952263E+04  0.50400001928E-02 0.  1.
    10030    2    1    2    0    0  0.00000000000E+00  0.00000000000E+00 -0.20166204633E+04  0.31809699894E+04  0.24600430850E+04 0.  0.
        5    1    3    3  502    0 -0.28872854115E+03  0.21846206581E+03 -0.25283183415E+04  0.25541154184E+04  0.46999998093E+01 0.  1.
       -5    1    3    3    0  502  0.28872854115E+03 -0.21846206581E+03  0.51169787815E+03  0.62685457099E+03  0.46999998093E+01 0. -1.
</event>
<event>
 5   0  0.4959347E-05  0.2495746E+04  0.7818609E-02  0.8404503E-01
       -2   -1    0    0    0  501  0.00000000000E+00  0.00000000000E+00  0.10889606315E+04  0.10889606315E+04  0.25500000920E-02 0.  1.
        2   -1    0    0  501    0  0.00000000000E+00  0.00000000000E+00 -0.14299749825E+04  0.14299749825E+04  0.25500000920E-02 0. -1.
    10030    2    1    2    0    0  0.00000000000E+00  0.00000000000E+00 -0.34101435101E+03  0.25189356140E+04  0.24957455479E+04 0.  0.
        3    1    3    3  502    0 -0.10161817014E+04  0.24485404237E+03  0.51744771463E+03  0.11663322425E+04  0.10100000352E+00 0.  1.
       -3    1    3    3    0  502  0.10161817014E+04 -0.24485404237E+03 -0.85846206564E+03  0.13526033715E+04  0.10100000352E+00 0. -1.
</event>
<event>
 5   0  0.4959347E-05  0.2541061E+04  0.7818609E-02  0.8388502E-01
       -2   -1    0    0    0  501  0.00000000000E+00  0.00000000000E+00  0.98223335717E+03  0.98223335717E+03  0.25500000920E-02 0.  1.
        2   -1    0    0  501    0  0.00000000000E+00  0.00000000000E+00 -0.16434466127E+04  0.16434466127E+04  0.25500000920E-02 0. -1.
    10030    2    1    2    0    0  0.00000000000E+00  0.00000000000E+00 -0.66121325552E+03  0.26256799699E+04  0.25410612615E+04 0.  0.
        3    1    3    3  502    0  0.82080078200E+03  0.23356392217E+03 -0.13032174907E+04  0.15577682330E+04  0.10100000352E+00 0. -1.
       -3    1    3    3    0  502 -0.82080078200E+03 -0.23356392217E+03  0.64200423521E+03  0.10679117368E+04  0.10100000352E+00 0.  1.
</event>
<event>
 5   0  0.4995256E-05  0.2527216E+04  0.7818609E-02  0.8393353E-01
       -2   -1    0    0    0  501  0.00000000000E+00  0.00000000000E+00  0.84736039997E+03  0.84736039998E+03  0.25500000920E-02 0. -1.
        2   -1    0    0  501    0  0.00000000000E+00  0.00000000000E+00 -0.18843284247E+04  0.18843284247E+04  0.25500000920E-02 0.  1.
    10030    2    1    2    0    0  0.00000000000E+00  0.00000000000E+00 -0.10369680248E+04  0.27316888247E+04  0.25272160871E+04 0.  0.
        2    1    3    3  502    0  0.10681672774E+04  0.33670359554E+03  0.11396709921E+03  0.11257615837E+04  0.25500000920E-02 0. -1.
       -2    1    3    3    0  502 -0.10681672774E+04 -0.33670359554E+03 -0.11509351240E+04  0.16059272410E+04  0.25500000920E-02 0.  1.
</event>
<event>
 5   0  0.2041718E-05  0.2434212E+04  0.7818609E-02  0.8426805E-01
       -1   -1    0    0    0  501  0.00000000000E+00  0.00000000000E+00  0.27861022891E+04  0.27861022891E+04  0.50400001928E-02 0. -1.
        1   -1    0    0  501    0  0.00000000000E+00  0.00000000000E+00 -0.53169153623E+03  0.53169153625E+03  0.50400001928E-02 0.  1.
    10030    2    1    2    0    0  0.00000000000E+00  0.00000000000E+00  0.22544107528E+04  0.33177938253E+04  0.24342119926E+04 0.  0.
        4    1    3    3  502    0  0.10013513846E+04  0.22411098235E+03  0.23508519473E+03  0.10527093566E+04  0.12699999809E+01 0.  1.
       -4    1    3    3    0  502 -0.10013513846E+04 -0.22411098235E+03  0.20193255581E+04  0.22650844687E+04  0.12699999809E+01 0. -1.
</event>
<event>
 5   0  0.5219468E-05  0.2462984E+04  0.7818609E-02  0.8416293E-01
        2   -1    0    0  501    0  0.00000000000E+00  0.00000000000E+00  0.25527161519E+04  0.25527161519E+04  0.25500000920E-02 0. -1.
       -2   -1    0    0    0  501  0.00000000000E+00  0.00000000000E+00 -0.59410145738E+03  0.59410145739E+03  0.25500000920E-02 0.  1.
    10030    2    1    2    0    0  0.00000000000E+00  0.00000000000E+00  0.19586146945E+04  0.31468176093E+04  0.24629838701E+04 0.  0.
        1    1    3    3  502    0 -0.68321585202E+02 -0.85219866810E+02 -0.58790055131E+03  0.59796097111E+03  0.50400001928E-02 0.  1.
       -1    1    3    3    0  502  0.68321585202E+02  0.85219866810E+02  0.25465152459E+04  0.25488566382E+04  0.50400001928E-02 0. -1.
</event>
<event>
 5   0  0.4995256E-05  0.2440350E+04  0.7818609E-02  0.8424550E-01
        2   -1    0    0  501    0  0.00000000000E+00  0.00000000000E+00  0.26678264100E+04  0.26678264100E+04  0.25500000920E-02 0.  1.
       -2   -1    0    0    0  501  0.00000000000E+00  0.00000000000E+00 -0.55806733345E+03  0.55806733345E+03  0.25500000920E-02 0. -1.
    10030    2    1    2    0    0  0.00000000000E+00  0.00000000000E+00  0.21097590765E+04  0.32258937434E+04  0.24403497870E+04 0.  0.
        2    1    3    3  502    0 -0.75468231501E+03  0.62823647097E+03  0.97438034460E+02  0.98677283638E+03  0.25500000920E-02 0. -1.
       -2    1    3    3    0  502  0.75468231501E+03 -0.62823647097E+03  0.20123210421E+04  0.22391209071E+04  0.25500000920E-02 0.  1.
</event>
<event>
 5   0  0.5219468E-05  0.2495176E+04  0.7818609E-02  0.8404706E-01
       -2   -1    0    0    0  501  0.00000000000E+00  0.00000000000E+00  0.85005176545E+03  0.85005176546E+03  0.25500000920E-02 0. -1.
        2   -1    0    0  501    0  0.00000000000E+00  0.00000000000E+00 -0.18310357868E+04  0.18310357868E+04  0.25500000920E-02 0.  1.
    10030    2    1    2    0    0  0.00000000000E+00  0.00000000000E+00 -0.98098402134E+03  0.26810875523E+04  0.24951755074E+04 0.  0.
        1    1    3    3  502    0 -0.54759465248E+03 -0.26920788433E+02  0.71367242795E+03  0.89995164688E+03  0.50400001928E-02 0. -1.
       -1    1    3    3    0  502  0.54759465248E+03  0.26920788433E+02 -0.16946564493E+04  0.17811359054E+04  0.50400001928E-02 0.  1.
</event>
<event>
 5   0  0.4959347E-05  0.2528735E+04  0.7818609E-02  0.8392820E-01
       -2   -1    0    0    0  501  0.00000000000E+00  0.00000000000E+00  0.10212538567E+04  0.10212538567E+04  0.25500000920E-02 0. -1.
        2   -1    0    0  501    0  0.00000000000E+00  0.00000000000E+00 -0.15653548387E+04  0.15653548387E+04  0.25500000920E-02 0.  1.
    10030    2    1    2    0    0  0.00000000000E+00  0.00000000000E+00 -0.54410098193E+03  0.25866086954E+04  0.25287345975E+04 0.  0.
        3    1    3    3  502    0  0.11903844179E+04 -0.21937069741E+03 -0.64576975928E+03  0.13719173290E+04  0.10100000352E+00 0.  1.
       -3    1    3    3    0  502 -0.11903844179E+04  0.21937069741E+03  0.10166877735E+03  0.12146913665E+04  0.10100000352E+00 0. -1.
</event>
<event>
 5   0  0.2036578E-05  0.2494530E+04  0.7818609E-02  0.8404937E-01
       -1   -1    0    0    0  501  0.00000000000E+00  0.00000000000E+00  0.11777138836E+04  0.11777138836E+04  0.50400001928E-02 0. -1.
        1   -1    0    0  501    0  0.00000000000E+00  0.00000000000E+00 -0.13209239189E+04  0.13209239189E+04  0.50400001928E-02 0.  1.
    10030    2    1    2    0    0  0.00000000000E+00  0.00000000000E+00 -0.14321003531E+03  0.24986378025E+04  0.24945303674E+04 0.  0.
        2    1    3    3  502    0  0.46713795113E+03  0.94807029867E+03 -0.73497587794E+03  0.12873401640E+04  0.25500000920E-02 0.  1.
       -2    1    3    3    0  502 -0.46713795113E+03 -0.94807029867E+03  0.59176584262E+03  0.12112976385E+04  0.25500000920E-02 0. -1.
</event>
<event>
 5   0  0.4959347E-05  0.2382784E+04  0.7818609E-02  0.8445977E-01
       -2   -1    0    0    0  501  0.00000000000E+00  0.00000000000E+00  0.82913002684E+03  0.82913002684E+03  0.25500000920E-02 0.  1.
        2   -1    0    0  501    0  0.00000000000E+00  0.00000000000E+00 -0.17119329044E+04  0.17119329044E+04  0.25500000920E-02 0. -1.
    10030    2    1    2    0    0  0.00000000000E+00  0.00000000000E+00 -0.88280287759E+03  0.25410629313E+04  0.23827840649E+04 0.  0.
        3    1    3    3  502    0  0.72230613899E+03 -0.38698345326E+03  0.48087681619E+03  0.95011834740E+03  0.10100000352E+00 0.  1.
       -3    1    3    3    0  502 -0.72230613899E+03  0.38698345326E+03 -0.13636796938E+04  0.15909445839E+04  0.10100000352E+00 0. -1.
</event>
<event>
 5   0  0.4959042E-05  0.2504310E+04  0.7818609E-02  0.8401452E-01
        2   -1    0    0  501    0  0.00000000000E+00  0.00000000000E+00  0.21666860000E+04  0.21666860000E+04  0.25500000920E-02 0. -1.
       -2   -1    0    0    0  501  0.00000000000E+00  0.00000000000E+00 -0.72363613409E+03  0.72363613409E+03  0.25500000920E-02 0.  1.
    10030    2    1    2    0    0  0.00000000000E+00  0.00000000000E+00  0.14430498659E+04  0.28903221341E+04  0.25043101093E+04 0.  0.
        4    1    3    3  502    0 -0.89018253120E+02  0.12109521847E+04  0.10745504452E+04  0.16214159600E+04  0.12699999809E+01 0.  1.
       -4    1    3    3    0  502  0.89018253120E+02 -0.12109521847E+04  0.36849942070E+03  0.12689061742E+04  0.12699999809E+01 0. -1.
</event>
<event>
 5   0  0.2081874E-05  0.2461110E+04  0.7818609E-02  0.8416973E-01
       -1   -1    0    0    0  501  0.00000000000E+00  0.00000000000E+00  0.82782657693E+03  0.82782657695E+03  0.50400001928E-02 0. -1.
        1   -1    0    0  501    0  0.00000000000E+00  0.00000000000E+00 -0.18292062598E+04  0.18292062598E+04  0.50400001928E-02 0.  1.
    10030    2    1    2    0    0  0.00000000000E+00  0.00000000000E+00 -0.10013796829E+04  0.26570328368E+04  0.24611099582E+04 0.  0.
        1    1    3    3  502    0 -0.84433464997E+03 -0.44428531343E+03 -0.13397158564E+04  0.16447276421E+04  0.50400001928E-02 0.  1.
       -1    1    3    3    0  502  0.84433464997E+03  0.44428531343E+03  0.33833617347E+03  0.10123051947E+04  0.50400001928E-02 0. -1.
</event>
<event>
 5   0  0.2036578E-05  0.2480572E+04  0.7818609E-02  0.8409940E-01
       -1   -1    0    0    0  501  0.00000000000E+00  0.00000000000E+00  0.10234496756E+04  0.10234496756E+04  0.50400001928E-02 0.  1.
        1   -1    0    0  501    0  0.00000000000E+00  0.00000000000E+00 -0.15030626847E+04  0.15030626847E+04  0.50400001928E-02 0. -1.
    10030    2    1    2    0    0  0.00000000000E+00  0.00000000000E+00 -0.47961300909E+03  0.25265123603E+04  0.24805717220E+04 0.  0.
        2    1    3    3  502    0 -0.11671034172E+04 -0.36304431891E+03 -0.25245484659E+02  0.12225256229E+04  0.25500000920E-02 0.  1.
       -2    1    3    3    0  502  0.11671034172E+04  0.36304431891E+03 -0.45436752443E+03  0.13039867374E+04  0.25500000920E-02 0. -1.
</event>
<event>
 5   0  0.2066170E-05  0.2502555E+04  0.7818609E-02  0.8402076E-01
       -1   -1    0    0    0  501  0.00000000000E+00  0.00000000000E+00  0.12076475729E+04  0.12076475729E+04  0.50400001928E-02 0. -1.
        1   -1    0    0  501    0  0.00000000000E+00  0.00000000000E+00 -0.12964837318E+04  0.12964837318E+04  0.50400001928E-02 0.  1.
    10030    2    1    2    0    0  0.00000000000E+00  0.00000000000E+00 -0.88836158931E+02  0.25041313047E+04  0.25025550400E+04 0.  0.
        5    1    3    3  502    0 -0.25776956394E+03 -0.71978373368E+01 -0.12695978740E+04  0.12955299335E+04  0.46999998093E+01 0.  1.
       -5    1    3    3    0  502  0.25776956394E+03  0.71978373368E+01  0.11807617150E+04  0.12086013713E+04  0.46999998093E+01 0. -1.
</event>
<event>
 5   0  0.1692125E-05  0.2548348E+04  0.7818609E-02  0.8385961E-01
        3   -1    0    0  501    0  0.00000000000E+00  0.00000000000E+00  0.87695804062E+03  0.87695804643E+03  0.10100000352E+00 0. -1.
       -3   -1    0    0    0  501  0.00000000000E+00  0.00000000000E+00 -0.18513082286E+04  0.18513082314E+04  0.10100000352E+00 0.  1.
    10030    2    1    2    0    0  0.00000000000E+00  0.00000000000E+00 -0.97435018799E+03  0.27282662778E+04  0.25483482089E+04 0.  0.
        5    1    3    3  502    0 -0.62905283747E+03  0.99548403090E+03  0.33804039320E+02  0.11780750108E+04  0.46999998093E+01 0.  1.
       -5    1    3    3    0  502  0.62905283747E+03 -0.99548403090E+03 -0.10081542273E+04  0.15501912670E+04  0.46999998093E+01 0. -1.
</event>
<event>
 5   0  0.2063930E-05  0.2493042E+04  0.7818609E-02  0.8405469E-01
        1   -1    0    0  501    0  0.00000000000E+00  0.00000000000E+00  0.12463168862E+04  0.12463168862E+04  0.50400001928E-02 0. -1.
       -1   -1    0    0    0  501  0.00000000000E+00  0.00000000000E+00 -0.12467247386E+04  0.12467247387E+04  0.50400001928E-02 0.  1.
    10030    2    1    2    0    0  0.00000000000E+00  0.00000000000E+00 -0.40785248577E+00  0.24930416248E+04  0.24930415915E+04 0.  0.
        3    1    3    3  502    0 -0.95046232851E+03  0.80324484398E+03 -0.72544556770E+02  0.12465326471E+04  0.10100000352E+00 0. -1.
       -3    1    3    3    0  502  0.95046232851E+03 -0.80324484398E+03  0.72136704285E+02  0.12465089777E+04  0.10100000352E+00 0.  1.
</event>
<event>
 5   0  0.4959042E-05  0.2467057E+04  0.7818609E-02  0.8414817E-01
        2   -1    0    0  501    0  0.00000000000E+00  0.00000000000E+00  0.13523663388E+04  0.13523663389E+04  0.25500000920E-02 0.  1.
       -2   -1    0    0    0  501  0.00000000000E+00  0.00000000000E+00 -0.11251333199E+04  0.11251333199E+04  0.25500000920E-02 0. -1.
    10030    2    1    2    0    0  0.00000000000E+00  0.00000000000E+00  0.22723301893E+03  0.24774996588E+04  0.24670568932E+04 0.  0.
        4    1    3    3  502    0 -0.60976292446E+03  0.79983373682E+03 -0.60358154873E+03  0.11729693643E+04  0.12699999809E+01 0. -1.
       -4    1    3    3    0  502  0.60976292446E+03 -0.79983373682E+03  0.83081456766E+03  0.13045302945E+04  0.12699999809E+01 0.  1.
</event>
<event>
 5   0  0.2081874E-05  0.2194373E+04  0.7818609E-02  0.8520774E-01
        1   -1    0    0  501    0  0.00000000000E+00  0.00000000000E+00  0.15198288817E+04  0.15198288817E+04  0.50400001928E-02 0.  1.
       -1   -1    0    0    0  501  0.00000000000E+00  0.00000000000E+00 -0.79207491656E+03  0.79207491658E+03  0.50400001928E-02 0. -1.
    10030    2    1    2    0    0  0.00000000000E+00  0.00000000000E+00  0.72775396509E+03  0.23119037982E+04  0.21943731083E+04 0.  0.
        1    1    3    3  502    0 -0.71413908664E+03 -0.33622213862E+03  0.11667826139E+04  0.14086950095E+04  0.50400001928E-02 0.  1.
       -1    1    3    3    0  502  0.71413908664E+03  0.33622213862E+03 -0.43902864883E+03  0.90320878876E+03  0.50400001928E-02 0. -1.
</event>
<event>
 5   0  0.5024070E-05  0.2497695E+04  0.7818609E-02  0.8403807E-01
       -2   -1    0    0    0  501  0.00000000000E+00  0.00000000000E+00  0.11788159834E+04  0.11788159834E+04  0.25500000920E-02 0. -1.
        2   -1    0    0  501    0  0.00000000000E+00  0.00000000000E+00 -0.13230399743E+04  0.13230399743E+04  0.25500000920E-02 0.  1.
    10030    2    1    2    0    0  0.00000000000E+00  0.00000000000E+00 -0.14422399086E+03  0.25018559577E+04  0.24976954725E+04 0.  0.
        5    1    3    3  502    0  0.87677587917E+03  0.68742172802E+03 -0.63724502151E+03  0.12835060895E+04  0.46999998093E+01 0.  1.
       -5    1    3    3    0  502 -0.87677587917E+03 -0.68742172802E+03  0.49302103064E+03  0.12183498681E+04  0.46999998093E+01 0. -1.
</event>
<event>
 5   0  0.5024070E-05  0.2479806E+04  0.7818609E-02  0.8410215E-01
        2   -1    0    0  501    0  0.00000000000E+00  0.00000000000E+00  0.27762801909E+04  0.27762801909E+04  0.25500000920E-02 0.  1.
       -2   -1    0    0    0  501  0.00000000000E+00  0.00000000000E+00 -0.55374797279E+03  0.55374797280E+03  0.25500000920E-02 0. -1.
    10030    2    1    2    0    0  0.00000000000E+00  0.00000000000E+00  0.22225322181E+04  0.33300281637E+04  0.24798060631E+04 0.  0.
        5    1    3    3  502    0 -0.80387427236E+03  0.83904834860E+03  0.53037866613E+03  0.12773173437E+04  0.46999998093E+01 0.  1.
       -5    1    3    3    0  502  0.80387427236E+03 -0.83904834860E+03  0.16921535520E+04  0.20527108200E+04  0.46999998093E+01 0. -1.
</event>
<event>
 5   0  0.5024070E-05  0.2494113E+04  0.7818609E-02  0.8405086E-01
        2   -1    0    0  501    0  0.00000000000E+00  0.00000000000E+00  0.10579326173E+04  0.10579326173E+04  0.25500000920E-02 0.  1.
       -2   -1    0    0    0  501  0.00000000000E+00  0.00000000000E+00 -0.14699897450E+04  0.14699897450E+04  0.25500000920E-02 0. -1.
    10030    2    1    2    0    0  0.00000000000E+00  0.00000000000E+00 -0.41205712762E+03  0.25279223623E+04  0.24941131477E+04 0.  0.
        5    1    3    3  502    0  0.52036962866E+03 -0.78708461351E+02  0.93984902745E+03  0.10771805126E+04  0.46999998093E+01 0.  1.
       -5    1    3    3    0  502 -0.52036962866E+03  0.78708461351E+02 -0.13519061551E+04  0.14507418497E+04  0.46999998093E+01 0. -1.
</event>
<event>
 5   0  0.4995256E-05  0.2477712E+04  0.7818609E-02  0.8410969E-01
       -2   -1    0    0    0  501  0.00000000000E+00  0.00000000000E+00  0.12291331177E+04  0.12291331178E+04  0.25500000920E-02 0.  1.
        2   -1    0    0  501    0  0.00000000000E+00  0.00000000000E+00 -0.12486557221E+04  0.12486557221E+04  0.25500000920E-02 0. -1.
    10030    2    1    2    0    0  0.00000000000E+00  0.00000000000E+00 -0.19522604375E+02  0.24777888399E+04  0.24777119290E+04 0.  0.
        2    1    3    3  502    0 -0.20132980570E+03  0.44468746092E+03 -0.11484289280E+04  0.12478660309E+04  0.25500000920E-02 0. -1.
       -2    1    3    3    0  502  0.20132980570E+03 -0.44468746092E+03  0.11289063236E+04  0.12299228090E+04  0.25500000920E-02 0.  1.
</event>
<event>
 5   0  0.2041718E-05  0.2472449E+04  0.7818609E-02  0.8412867E-01
       -1   -1    0    0    0  501  0.00000000000E+00  0.00000000000E+00  0.10431920861E+04  0.10431920861E+04  0.50400001928E-02 0. -1.
        1   -1    0    0  501    0  0.00000000000E+00  0.00000000000E+00 -0.14649755900E+04  0.14649755900E+04  0.50400001928E-02 0.  1.
    10030    2    1    2    0    0  0.00000000000E+00  0.00000000000E+00 -0.42178350388E+03  0.25081676761E+04  0.24724489413E+04 0.  0.
        4    1    3    3  502    0  0.95864218016E+03  0.72804447178E+03  0.74609213123E+02  0.12060728544E+04  0.12699999809E+01 0. -1.
       -4    1    3    3    0  502 -0.95864218016E+03 -0.72804447178E+03 -0.49639271700E+03  0.13020948218E+04  0.12699999809E+01 0.  1.
</event>
<event>
 5   0  0.5219468E-05  0.1633779E+04  0.7818609E-02  0.8800061E-01
       -2   -1    0    0    0  501  0.00000000000E+00  0.00000000000E+00  0.39295266118E+03  0.39295266119E+03  0.25500000920E-02 0.  1.
        2   -1    0    0  501    0  0.00000000000E+00  0.00000000000E+00 -0.16981896318E+04  0.16981896318E+04  0.25500000920E-02 0. -1.
    10030    2    1    2    0    0  0.00000000000E+00  0.00000000000E+00 -0.13052369706E+04  0.20911422930E+04  0.16337786080E+04 0.  0.
        1    1    3    3  502    0  0.37016848535E+02  0.62747836777E+03  0.15173880029E+02  0.62875241213E+03  0.50400001928E-02 0.  1.
       -1    1    3    3    0  502 -0.37016848535E+02 -0.62747836777E+03 -0.13204108506E+04  0.14623898808E+04  0.50400001928E-02 0. -1.
</event>
<event>
 5   0  0.5024070E-05  0.2441599E+04  0.7818609E-02  0.8424092E-01
       -2   -1    0    0    0  501  0.00000000000E+00  0.00000000000E+00  0.12406941744E+04  0.12406941744E+04  0.25500000920E-02 0. -1.
        2   -1    0    0  501    0  0.00000000000E+00  0.00000000000E+00 -0.12012234018E+04  0.12012234018E+04  0.25500000920E-02 0.  1.
    10030    2    1    2    0    0  0.00000000000E+00  0.00000000000E+00  0.39470772637E+02  0.24419175762E+04  0.24415985557E+04 0.  0.
        5    1    3    3  502    0  0.64211491332E+03  0.96733274570E+03  0.39699096063E+03  0.12270566880E+04  0.46999998093E+01 0. -1.
       -5    1    3    3    0  502 -0.64211491332E+03 -0.96733274570E+03 -0.35752018799E+03  0.12148608882E+04  0.46999998093E+01 0.  1.
</event>
<event>
 5   0  0.4959042E-05  0.2581721E+04  0.7818609E-02  0.8374437E-01
       -2   -1    0    0    0  501  0.00000000000E+00  0.00000000000E+00  0.16735359196E+04  0.16735359196E+04  0.25500000920E-02 0.  1.
        2   -1    0    0  501    0  0.00000000000E+00  0.00000000000E+00 -0.99568884840E+03  0.99568884840E+03  0.25500000920E-02 0. -1.
    10030    2    1    2    0    0  0.00000000000E+00  0.00000000000E+00  0.67784707116E+03  0.26692247680E+04  0.25817211720E+04 0.  0.
        4    1    3    3  502    0  0.61060315206E+03  0.83474877048E+03 -0.45970664933E+03  0.11318010141E+04  0.12699999809E+01 0.  1.
       -4    1    3    3    0  502 -0.61060315206E+03 -0.83474877048E+03  0.11375537205E+04  0.15374237539E+04  0.12699999809E+01 0. -1.
</event>
<event>
 5   0  0.5024070E-05  0.2454560E+04  0.7818609E-02  0.8419355E-01
       -2   -1    0    0    0  501  0.00000000000E+00  0.00000000000E+00  0.14007162377E+04  0.14007162377E+04  0.25500000920E-02 0.  1.
        2   -1    0    0  501    0  0.00000000000E+00  0.00000000000E+00 -0.10753187300E+04  0.10753187300E+04  0.25500000920E-02 0. -1.
    10030    2    1    2    0    0  0.00000000000E+00  0.00000000000E+00  0.32539750779E+03  0.24760349677E+04  0.24545601690E+04 0.  0.
        5    1    3    3  502    0  0.18014274937E+03  0.86559714541E+03  0.10213121037E+04  0.13508554073E+04  0.46999998093E+01 0.  1.
       -5    1    3    3    0  502 -0.18014274937E+03 -0.86559714541E+03 -0.69591459592E+03  0.11251795604E+04  0.46999998093E+01 0. -1.
</event>
<event>
 5   0  0.5024070E-05  0.2464392E+04  0.7818609E-02  0.8415782E-01
       -2   -1    0    0    0  501  0.00000000000E+00  0.00000000000E+00  0.11571867594E+04  0.11571867594E+04  0.25500000920E-02 0. -1.
        2   -1    0    0  501    0  0.00000000000E+00  0.00000000000E+00 -0.13120669805E+04  0.13120669805E+04  0.25500000920E-02 0.  1.
    10030    2    1    2    0    0  0.00000000000E+00  0.00000000000E+00 -0.15488022108E+03  0.24692537398E+04  0.24643916387E+04 0.  0.
        5    1    3    3  502    0  0.76275075630E+03  0.96253516275E+03 -0.17774651749E+03  0.12409184382E+04  0.46999998093E+01 0. -1.
       -5    1    3    3    0  502 -0.76275075630E+03 -0.96253516275E+03  0.22866296412E+02  0.12283353016E+04  0.46999998093E+01 0.  1.
</event>
<event>
 5   0  0.2041718E-05  0.2451380E+04  0.7818609E-02  0.8420514E-01
       -1   -1    0    0    0  501  0.00000000000E+00  0.00000000000E+00  0.81640602626E+03  0.81640602628E+03  0.50400001928E-02 0.  1.
        1   -1    0    0  501    0  0.00000000000E+00  0.00000000000E+00 -0.18401579941E+04  0.18401579941E+04  0.50400001928E-02 0. -1.
    10030    2    1    2    0    0  0.00000000000E+00  0.00000000000E+00 -0.10237519679E+04  0.26565640204E+04  0.24513800813E+04 0.  0.
        4    1    3    3  502    0 -0.38765749523E+03  0.68693323922E+03  0.50481779134E+03  0.93648183330E+03  0.12699999809E+01 0.  1.
       -4    1    3    3    0  502  0.38765749523E+03 -0.68693323922E+03 -0.15285697592E+04  0.17200821871E+04  0.12699999809E+01 0. -1.
</event>
<event>
 5   0  0.2063930E-05  0.2175076E+04  0.7818609E-02  0.8528874E-01
        1   -1    0    0  501    0  0.00000000000E+00  0.00000000000E+00  0.25157942941E+04  0.25157942941E+04  0.50400001928E-02 0. -1.
       -1   -1    0    0    0  501  0.00000000000E+00  0.00000000000E+00 -0.47012556962E+03  0.47012556965E+03  0.50400001928E-02 0.  1.
    10030    2    1    2    0    0  0.00000000000E+00  0.00000000000E+00  0.20456687245E+04  0.29859198638E+04  0.21750762981E+04 0.  0.
        3    1    3    3  502    0  0.72941829522E+03 -0.73508701592E+03  0.14788301008E+04  0.18053649070E+04  0.10100000352E+00 0. -1.
       -3    1    3    3    0  502 -0.72941829522E+03  0.73508701592E+03  0.56683862373E+03  0.11805549568E+04  0.10100000352E+00 0.  1.
</event>
<event>
 5   0  0.2066170E-05  0.2429652E+04  0.7818609E-02  0.8428485E-01
       -1   -1    0    0    0  501  0.00000000000E+00  0.00000000000E+00  0.10498750718E+04  0.10498750718E+04  0.50400001928E-02 0.  1.
        1   -1    0    0  501    0  0.00000000000E+00  0.00000000000E+00 -0.14056935612E+04  0.14056935612E+04  0.50400001928E-02 0. -1.
    10030    2    1    2    0    0  0.00000000000E+00  0.00000000000E+00 -0.35581848938E+03  0.24555686330E+04  0.24296523442E+04 0.  0.
        5    1    3    3  502    0 -0.10769753931E+04  0.56039851857E+03 -0.22147403779E+03  0.12340969720E+04  0.46999998093E+01 0. -1.
       -5    1    3    3    0  502  0.10769753931E+04 -0.56039851857E+03 -0.13434445159E+03  0.12214716610E+04  0.46999998093E+01 0.  1.
</event>
<event>
 5   0  0.5219468E-05  0.2426348E+04  0.7818609E-02  0.8429704E-01
        2   -1    0    0  501    0  0.00000000000E+00  0.00000000000E+00  0.18444466705E+04  0.18444466705E+04  0.25500000920E-02 0.  1.
       -2   -1    0    0    0  501  0.00000000000E+00  0.00000000000E+00 -0.79795842101E+03  0.79795842101E+03  0.25500000920E-02 0. -1.
    10030    2    1    2    0    0  0.00000000000E+00  0.00000000000E+00  0.10464882495E+04  0.26424050915E+04  0.24263484934E+04 0.  0.
        1    1    3    3  502    0  0.11572456670E+04 -0.36305533330E+03  0.55336651560E+03  0.13331321050E+04  0.50400001928E-02 0.  1.
       -1    1    3    3    0  502 -0.11572456670E+04  0.36305533330E+03  0.49312173392E+03  0.13092729865E+04  0.50400001928E-02 0. -1.
</event>
<event>
 5   0  0.5024070E-05  0.2470536E+04  0.7818609E-02  0.8413558E-01
       -2   -1    0    0    0  501  0.00000000000E+00  0.00000000000E+00  0.25176859061E+04  0.25176859061E+04  0.25500000920E-02 0.  1.
        2   -1    0    0  501    0  0.00000000000E+00  0.00000000000E+00 -0.60606750661E+03  0.60606750661E+03  0.25500000920E-02 0. -1.
    10030    2    1    2    0    0  0.00000000000E+00  0.00000000000E+00  0.19116183995E+04  0.31237534128E+04  0.24705364758E+04 0.  0.
        5    1    3    3  502    0 -0.40772923653E+03 -0.84017930901E+03 -0.66498740479E+02  0.93626309021E+03  0.46999998093E+01 0. -1.
       -5    1    3    3    0  502  0.40772923653E+03  0.84017930901E+03  0.19781171400E+04  0.21874903225E+04  0.46999998093E+01 0.  1.
</event>
<event>
 5   0  0.2066170E-05  0.2510985E+04  0.7818609E-02  0.8399082E-01
       -1   -1    0    0    0  501  0.00000000000E+00  0.00000000000E+00  0.14946067090E+04  0.14946067090E+04  0.50400001928E-02 0. -1.
        1   -1    0    0  501    0  0.00000000000E+00  0.00000000000E+00 -0.10546330897E+04  0.10546330897E+04  0.50400001928E-02 0.  1.
    10030    2    1    2    0    0  0.00000000000E+00  0.00000000000E+00  0.43997361929E+03  0.25492397986E+04  0.25109852181E+04 0.  0.
        5    1    3    3  502    0 -0.39288634604E+01 -0.43338420636E+03  0.14162429925E+04  0.14810819052E+04  0.46999998093E+01 0. -1.
       -5    1    3    3    0  502  0.39288634604E+01  0.43338420636E+03 -0.97626937316E+03  0.10681578934E+04  0.46999998093E+01 0.  1.
</event>
<event>
 5   0  0.2081874E-05  0.2023256E+04  0.7818609E-02  0.8595824E-01
        1   -1    0    0  501    0  0.00000000000E+00  0.00000000000E+00  0.13961217429E+04  0.13961217429E+04  0.50400001928E-02 0. -1.
       -1   -1    0    0    0  501  0.00000000000E+00  0.00000000000E+00 -0.73302434160E+03  0.73302434162E+03  0.50400001928E-02 0.  1.
    10030    2    1    2    0    0  0.00000000000E+00  0.00000000000E+00  0.66309740133E+03  0.21291460846E+04  0.20232560109E+04 0.  0.
        1    1    3    3  502    0 -0.34194025245E+03  0.77490702669E+03 -0.25056288103E+03  0.88328126531E+03  0.50400001928E-02 0.  1.
       -1    1    3    3    0  502  0.34194025245E+03 -0.77490702669E+03  0.91366028236E+03  0.12458648193E+04  0.50400001928E-02 0. -1.
</event>
<event>
 5   0  0.4959042E-05  0.2466219E+04  0.7818609E-02  0.8415120E-01
       -2   -1    0    0    0  501  0.00000000000E+00  0.00000000000E+00  0.81787430446E+03  0.81787430447E+03  0.25500000920E-02 0.  1.
        2   -1    0    0  501    0  0.00000000000E+00  0.00000000000E+00 -0.18591598480E+04  0.18591598480E+04  0.25500000920E-02 0. -1.
    10030    2    1    2    0    0  0.00000000000E+00  0.00000000000E+00 -0.10412855435E+04  0.26770341524E+04  0.24662190232E+04 0.  0.
        4    1    3    3  502    0 -0.15546645651E+03 -0.12116182272E+04 -0.33781440887E+03  0.12674023573E+04  0.12699999809E+01 0. -1.
       -4    1    3    3    0  502  0.15546645651E+03  0.12116182272E+04 -0.70347113463E+03  0.14096317951E+04  0.12699999809E+01 0.  1.
</event>
<event>
 5   0  0.2081874E-05  0.2619528E+04  0.7818609E-02  0.8361598E-01
       -1   -1    0    0    0  501  0.00000000000E+00  0.00000000000E+00  0.14348676686E+04  0.14348676686E+04  0.50400001928E-02 0. -1.
        1   -1    0    0  501    0  0.00000000000E+00  0.00000000000E+00 -0.11955682238E+04  0.11955682238E+04  0.50400001928E-02 0.  1.
    10030    2    1    2    0    0  0.00000000000E+00  0.00000000000E+00  0.23929944482E+03  0.26304358924E+04  0.26195283468E+04 0.  0.
        1    1    3    3  502    0  0.10899743506E+04 -0.71914688427E+03  0.17907230518E+02  0.13059620955E+04  0.50400001928E-02 0. -1.
       -1    1    3    3    0  502 -0.10899743506E+04  0.71914688427E+03  0.22139221430E+03  0.13244737969E+04  0.50400001928E-02 0.  1.
</event>
<event>
 5   0  0.4959042E-05  0.2541765E+04  0.7818609E-02  0.8388256E-01
        2   -1    0    0  501    0  0.00000000000E+00  0.00000000000E+00  0.21381047058E+04  0.21381047058E+04  0.25500000920E-02 0.  1.
       -2   -1    0    0    0  501  0.00000000000E+00  0.00000000000E+00 -0.75540863081E+03  0.75540863082E+03  0.25500000920E-02 0. -1.
    10030    2    1    2    0    0  0.00000000000E+00  0.00000000000E+00  0.13826960750E+04  0.28935133366E+04  0.25417653301E+04 0.  0.
        4    1    3    3  502    0 -0.64320617603E+03  0.76202559961E+03  0.15882526959E+04  0.18753520838E+04  0.12699999809E+01 0.  1.
       -4    1    3    3    0  502  0.64320617603E+03 -0.76202559961E+03 -0.20555662094E+03  0.10181612528E+04  0.12699999809E+01 0. -1.
</event>
<event>
 5   0  0.5219468E-05  0.2440435E+04  0.7818609E-02  0.8424519E-01
        2   -1    0    0  501    0  0.00000000000E+00  0.00000000000E+00  0.22516809224E+04  0.22516809225E+04  0.25500000920E-02 0.  1.
       -2   -1    0    0    0  501  0.00000000000E+00  0.00000000000E+00 -0.66125286088E+03  0.66125286088E+03  0.25500000920E-02 0. -1.
    10030    2    1    2    0    0  0.00000000000E+00  0.00000000000E+00  0.15904280616E+04  0.29129337833E+04  0.24404347578E+04 0.  0.
        1    1    3    3  502    0 -0.11301528437E+02  0.46626908298E+03  0.21410861878E+04  0.21912974800E+04  0.50400001928E-02 0.  1.
       -1    1    3    3    0  502  0.11301528437E+02 -0.46626908298E+03 -0.55065812622E+03  0.72163630333E+03  0.50400001928E-02 0. -1.
</event>
<event>
 5   0  0.2036578E-05  0.2505243E+04  0.7818609E-02  0.8401120E-01
        1   -1    0    0  501    0  0.00000000000E+00  0.00000000000E+00  0.27282194286E+04  0.27282194286E+04  0.50400001928E-02 0. -1.
       -1   -1    0    0    0  501  0.00000000000E+00  0.00000000000E+00 -0.57512257463E+03  0.57512257466E+03  0.50400001928E-02 0.  1.
    10030    2    1    2    0    0  0.00000000000E+00  0.00000000000E+00  0.21530968539E+04  0.33033420032E+04  0.25052429678E+04 0.  0.
        2    1    3    3  502    0  0.23675595575E+03 -0.11309219666E+04  0.17144191732E+04  0.20674310094E+04  0.25500000920E-02 0. -1.
       -2    1    3    3    0  502 -0.23675595575E+03  0.11309219666E+04  0.43867768070E+03  0.12359109938E+04  0.25500000920E-02 0.  1.
</event>
<event>
 5   0  0.2081874E-05  0.1593215E+04  0.7818609E-02  0.8824727E-01
        1   -1    0    0  501    0  0.00000000000E+00  0.00000000000E+00  0.17403650894E+04  0.17403650894E+04  0.50400001928E-02 0. -1.
       -1   -1    0    0    0  501  0.00000000000E+00  0.00000000000E+00 -0.36462660110E+03  0.36462660113E+03  0.50400001928E-02 0.  1.
    10030    2    1    2    0    0  0.00000000000E+00  0.00000000000E+00  0.13757384883E+04  0.21049916905E+04  0.15932148722E+04 0.  0.
        1    1    3    3  502    0 -0.39827039339E+03  0.40379765126E+03  0.14269413925E+04  0.15355238804E+04  0.50400001928E-02 0. -1.
       -1    1    3    3    0  502  0.39827039339E+03 -0.40379765126E+03 -0.51202904218E+02  0.56946781019E+03  0.50400001928E-02 0.  1.
</event>
<event>
 5   0  0.1692125E-05  0.2446333E+04  0.7818609E-02  0.8422358E-01
       -3   -1    0    0    0  501  0.00000000000E+00  0.00000000000E+00  0.84414285084E+03  0.84414285688E+03  0.10100000352E+00 0. -1.
        3   -1    0    0  501    0  0.00000000000E+00  0.00000000000E+00 -0.17723738186E+04  0.17723738215E+04  0.10100000352E+00 0.  1.
    10030    2    1    2    0    0  0.00000000000E+00  0.00000000000E+00 -0.92823096776E+03  0.26165166783E+04  0.24463333376E+04 0.  0.
        3    1    3    3  502    0  0.87583844149E+03  0.30591685730E+03  0.38849663460E+03  0.10057871268E+04  0.10100000352E+00 0. -1.
       -3    1    3    3    0  502 -0.87583844149E+03 -0.30591685730E+03 -0.13167276024E+04  0.16107295515E+04  0.10100000352E+00 0.  1.
</event>
<event>
 5   0  0.4959042E-05  0.2458126E+04  0.7818609E-02  0.8418057E-01
        2   -1    0    0  501    0  0.00000000000E+00  0.00000000000E+00  0.21752077908E+04  0.21752077908E+04  0.25500000920E-02 0. -1.
       -2   -1    0    0    0  501  0.00000000000E+00  0.00000000000E+00 -0.69446021626E+03  0.69446021627E+03  0.25500000920E-02 0.  1.
    10030    2    1    2    0    0  0.00000000000E+00  0.00000000000E+00  0.14807475745E+04  0.28696680071E+04  0.24581255239E+04 0.  0.
        4    1    3    3  502    0  0.11714922970E+04 -0.33583494322E+02  0.11725902966E+04  0.16578575541E+04  0.12699999809E+01 0. -1.
       -4    1    3    3    0  502 -0.11714922970E+04  0.33583494322E+02  0.30815727796E+03  0.12118104530E+04  0.12699999809E+01 0.  1.
</event>
<event>
 5   0  0.2041718E-05  0.2425050E+04  0.7818609E-02  0.8430184E-01
       -1   -1    0    0    0  501  0.00000000000E+00  0.00000000000E+00  0.83079709330E+03  0.83079709331E+03  0.50400001928E-02 0.  1.
        1   -1    0    0  501    0  0.00000000000E+00  0.00000000000E+00 -0.17696459960E+04  0.17696459960E+04  0.50400001928E-02 0. -1.
    10030    2    1    2    0    0  0.00000000000E+00  0.00000000000E+00 -0.93884890271E+03  0.26004430893E+04  0.24250498961E+04 0.  0.
        4    1    3    3  502    0 -0.41936888606E+03 -0.72669935773E+03 -0.14080940353E+04  0.16391133714E+04  0.12699999809E+01 0. -1.
       -4    1    3    3    0  502  0.41936888606E+03  0.72669935773E+03  0.46924513263E+03  0.96132971790E+03  0.12699999809E+01 0.  1.
</event>
<event>
 5   0  0.4959042E-05  0.2428997E+04  0.7818609E-02  0.8428726E-01
       -2   -1    0    0    0  501  0.00000000000E+00  0.00000000000E+00  0.94529413771E+03  0.94529413771E+03  0.25500000920E-02 0.  1.
        2   -1    0    0  501    0  0.00000000000E+00  0.00000000000E+00 -0.15603684917E+04  0.15603684917E+04  0.25500000920E-02 0. -1.
    10030    2    1    2    0    0  0.00000000000E+00  0.00000000000E+00 -0.61507435397E+03  0.25056626294E+04  0.24289974787E+04 0.  0.
        4    1    3    3  502    0  0.15195425173E+03 -0.50455533718E+02  0.93435852373E+03  0.94797854368E+03  0.12699999809E+01 0.  1.
       -4    1    3    3    0  502 -0.15195425173E+03  0.50455533718E+02 -0.15494328777E+04  0.15576840857E+04  0.12699999809E+01 0. -1.
</event>
<event>
 5   0  0.2036578E-05  0.2520843E+04  0.7818609E-02  0.8395598E-01
       -1   -1    0    0    0  501  0.00000000000E+00  0.00000000000E+00  0.14057511563E+04  0.14057511563E+04  0.50400001928E-02 0. -1.
        1   -1    0    0  501    0  0.00000000000E+00  0.00000000000E+00 -0.11301163551E+04  0.11301163551E+04  0.50400001928E-02 0.  1.
    10030    2    1    2    0    0  0.00000000000E+00  0.00000000000E+00  0.27563480120E+03  0.25358675114E+04  0.25208430122E+04 0.  0.
        2    1    3    3  502    0  0.18799670626E+03 -0.11974358196E+04 -0.20988273845E+03  0.12301406698E+04  0.25500000920E-02 0. -1.
       -2    1    3    3    0  502 -0.18799670626E+03  0.11974358196E+04  0.48551753965E+03  0.13057268416E+04  0.25500000920E-02 0.  1.
</event>
<event>
 5   0  0.5219468E-05  0.2459864E+04  0.7818609E-02  0.8417425E-01
       -2   -1    0    0    0  501  0.00000000000E+00  0.00000000000E+00  0.64850566247E+03  0.64850566247E+03  0.25500000920E-02 0. -1.
        2   -1    0    0  501    0  0.00000000000E+00  0.00000000000E+00 -0.23326442426E+04  0.23326442426E+04  0.25500000920E-02 0.  1.
    10030    2    1    2    0    0  0.00000000000E+00  0.00000000000E+00 -0.16841385801E+04  0.29811499051E+04  0.24598642238E+04 0.  0.
        1    1    3    3  502    0  0.57268864202E+03 -0.20605566498E+03 -0.21373476377E+04  0.22223154912E+04  0.50400001928E-02 0.  1.
       -1    1    3    3    0  502 -0.57268864202E+03  0.20605566498E+03  0.45320905762E+03  0.75883441388E+03  0.50400001928E-02 0. -1.
</event>
<event>
 5   0  0.2063930E-05  0.1882310E+04  0.7818609E-02  0.8663712E-01
       -1   -1    0    0    0  501  0.00000000000E+00  0.00000000000E+00  0.77093581168E+03  0.77093581170E+03  0.50400001928E-02 0.  1.
        1   -1    0    0  501    0  0.00000000000E+00  0.00000000000E+00 -0.11489582745E+04  0.11489582745E+04  0.50400001928E-02 0. -1.
    10030    2    1    2    0    0  0.00000000000E+00  0.00000000000E+00 -0.37802246285E+03  0.19198940862E+04  0.18823103676E+04 0.  0.
        3    1    3    3  502    0 -0.68545555665E+03  0.48948934541E+03 -0.61730491111E+03  0.10442770240E+04  0.10100000352E+00 0. -1.
       -3    1    3    3    0  502  0.68545555665E+03 -0.48948934541E+03  0.23928244826E+03  0.87561706223E+03  0.10100000352E+00 0.  1.
</event>
<event>
 5   0  0.2081874E-05  0.2569646E+04  0.7818609E-02  0.8378585E-01
       -1   -1    0    0    0  501  0.00000000000E+00  0.00000000000E+00  0.92452102653E+03  0.92452102654E+03  0.50400001928E-02 0. -1.
        1   -1    0    0  501    0  0.00000000000E+00  0.00000000000E+00 -0.17855412658E+04  0.17855412658E+04  0.50400001928E-02 0.  1.
    10030    2    1    2    0    0  0.00000000000E+00  0.00000000000E+00 -0.86102023931E+03  0.27100622924E+04  0.25696462356E+04 0.  0.
        1    1    3    3  502    0 -0.11861440140E+04  0.16631115669E+03 -0.92086114016E+03  0.15108217176E+04  0.50400001928E-02 0.  1.
       -1    1    3    3    0  502  0.11861440140E+04 -0.16631115669E+03  0.59840900855E+02  0.11992405748E+04  0.50400001928E-02 0. -1.
</event>
<event>
 5   0  0.2063930E-05  0.2366180E+04  0.7818609E-02  0.8452275E-01
        1   -1    0    0  501    0  0.00000000000E+00  0.00000000000E+00  0.14133045298E+04  0.14133045298E+04  0.50400001928E-02 0.  1.
       -1   -1    0    0    0  501  0.00000000000E+00  0.00000000000E+00 -0.99037532454E+03  0.99037532455E+03  0.50400001928E-02 0. -1.
    10030    2    1    2    0    0  0.00000000000E+00  0.00000000000E+00  0.42292920527E+03  0.24036798544E+04  0.23661799867E+04 0.  0.
        3    1    3    3  502    0 -0.87979814670E+03 -0.74422121494E+03  0.48365114620E+03  0.12497313460E+04  0.10100000352E+00 0.  1.
       -3    1    3    3    0  502  0.87979814670E+03  0.74422121494E+03 -0.60721940930E+02  0.11539485084E+04  0.10100000352E+00 0. -1.
</event>
<event>
 5   0  0.4959347E-05  0.2548130E+04  0.7818609E-02  0.8386037E-01
       -2   -1    0    0    0  501  0.00000000000E+00  0.00000000000E+00  0.91185752814E+03  0.91185752815E+03  0.25500000920E-02 0. -1.
        2   -1    0    0  501    0  0.00000000000E+00  0.00000000000E+00 -0.17801477670E+04  0.17801477670E+04  0.25500000920E-02 0.  1.
    10030    2    1    2    0    0  0.00000000000E+00  0.00000000000E+00 -0.86829023889E+03  0.26920052952E+04  0.25481296220E+04 0.  0.
        3    1    3    3  502    0 -0.12071580634E+04  0.21764320189E+02 -0.86398008936E+03  0.14846433514E+04  0.10100000352E+00 0. -1.
       -3    1    3    3    0  502  0.12071580634E+04 -0.21764320189E+02 -0.43101495269E+01  0.12073619438E+04  0.10100000352E+00 0.  1.
</event>
<event>
 5   0  0.4995256E-05  0.2458899E+04  0.7818609E-02  0.8417776E-01
       -2   -1    0    0    0  501  0.00000000000E+00  0.00000000000E+00  0.14028783762E+04  0.14028783762E+04  0.25500000920E-02 0.  1.
        2   -1    0    0  501    0  0.00000000000E+00  0.00000000000E+00 -0.10774609189E+04  0.10774609189E+04  0.25500000920E-02 0. -1.
    10030    2    1    2    0    0  0.00000000000E+00  0.00000000000E+00  0.32541745738E+03  0.24803392951E+04  0.24588994484E+04 0.  0.
        2    1    3    3  502    0 -0.97654411221E+03 -0.29938077111E+02 -0.59013107660E+03  0.11413979933E+04  0.25500000920E-02 0. -1.
       -2    1    3    3    0  502  0.97654411221E+03  0.29938077111E+02  0.91554853399E+03  0.13389413018E+04  0.25500000920E-02 0.  1.
</event>
<event>
 5   0  0.2041718E-05  0.2530507E+04  0.7818609E-02  0.8392197E-01
        1   -1    0    0  501    0  0.00000000000E+00  0.00000000000E+00  0.10122147150E+04  0.10122147150E+04  0.50400001928E-02 0. -1.
       -1   -1    0    0    0  501  0.00000000000E+00  0.00000000000E+00 -0.15815483065E+04  0.15815483065E+04  0.50400001928E-02 0.  1.
    10030    2    1    2    0    0  0.00000000000E+00  0.00000000000E+00 -0.56933359144E+03  0.25937630215E+04  0.25305070388E+04 0.  0.
        4    1    3    3  502    0 -0.41578322581E+03  0.32509896900E+03 -0.14633245423E+04  0.15555980714E+04  0.12699999809E+01 0.  1.
       -4    1    3    3    0  502  0.41578322581E+03 -0.32509896900E+03  0.89399095090E+03  0.10381649501E+04  0.12699999809E+01 0. -1.
</event>
<event>
 5   0  0.5219468E-05  0.2553821E+04  0.7818609E-02  0.8384058E-01
        2   -1    0    0  501    0  0.00000000000E+00  0.00000000000E+00  0.10914053827E+04  0.10914053827E+04  0.25500000920E-02 0.  1.
       -2   -1    0    0    0  501  0.00000000000E+00  0.00000000000E+00 -0.14939461605E+04  0.14939461606E+04  0.25500000920E-02 0. -1.
    10030    2    1    2    0    0  0.00000000000E+00  0.00000000000E+00 -0.40254077784E+03  0.25853515433E+04  0.25538213572E+04 0.  0.
        1    1    3    3  502    0  0.12760785832E+03  0.77521596628E+03 -0.12203050713E+04  0.14513400797E+04  0.50400001928E-02 0. -1.
       -1    1    3    3    0  502 -0.12760785832E+03 -0.77521596628E+03  0.81776429344E+03  0.11340114636E+04  0.50400001928E-02 0.  1.
</event>
<event>
 5   0  0.1692125E-05  0.1706399E+04  0.7818609E-02  0.8757723E-01
       -4   -1    0    0    0  501  0.00000000000E+00  0.00000000000E+00  0.56871388673E+03  0.56871530476E+03  0.12699999809E+01 0.  1.
        4   -1    0    0  501    0  0.00000000000E+00  0.00000000000E+00 -0.12799884795E+04  0.12799891096E+04  0.12699999809E+01 0. -1.
    10030    2    1    2    0    0  0.00000000000E+00  0.00000000000E+00 -0.71127459281E+03  0.18487044143E+04  0.17063986830E+04 0.  0.
        4    1    3    3  502    0 -0.31235197564E+03  0.79363797510E+03 -0.38040209354E+03  0.93388026956E+03  0.12699999809E+01 0. -1.
       -4    1    3    3    0  502  0.31235197564E+03 -0.79363797510E+03 -0.33087249927E+03  0.91482414478E+03  0.12699999809E+01 0.  1.
</event>
<event>
 5   0  0.2041718E-05  0.2652195E+04  0.7818609E-02  0.8350685E-01
       -1   -1    0    0    0  501  0.00000000000E+00  0.00000000000E+00  0.79204562635E+03  0.79204562637E+03  0.50400001928E-02 0. -1.
        1   -1    0    0  501    0  0.00000000000E+00  0.00000000000E+00 -0.22202440704E+04  0.22202440704E+04  0.50400001928E-02 0.  1.
    10030    2    1    2    0    0  0.00000000000E+00  0.00000000000E+00 -0.14281984441E+04  0.30122896968E+04  0.26521950195E+04 0.  0.
        4    1    3    3  502    0  0.27639801391E+03  0.10920484126E+04  0.80590368357E+02  0.11293635455E+04  0.12699999809E+01 0. -1.
       -4    1    3    3    0  502 -0.27639801391E+03 -0.10920484126E+04 -0.15087888124E+04  0.18829261512E+04  0.12699999809E+01 0.  1.
</event>
<event>
 5   0  0.5219468E-05  0.2521512E+04  0.7818609E-02  0.8395362E-01
       -2   -1    0    0    0  501  0.00000000000E+00  0.00000000000E+00  0.10029574214E+04  0.10029574214E+04  0.25500000920E-02 0. -1.
        2   -1    0    0  501    0  0.00000000000E+00  0.00000000000E+00 -0.15848188358E+04  0.15848188358E+04  0.25500000920E-02 0.  1.
    10030    2    1    2    0    0  0.00000000000E+00  0.00000000000E+00 -0.58186141441E+03  0.25877762572E+04  0.25215120963E+04 0.  0.
        1    1    3    3  502    0 -0.84051212013E+03  0.17592041014E+03 -0.12382802211E+04  0.15068996386E+04  0.50400001928E-02 0.  1.
       -1    1    3    3    0  502  0.84051212013E+03 -0.17592041014E+03  0.65641880672E+03  0.10808766186E+04  0.50400001928E-02 0. -1.
</event>
<event>
 5   0  0.2081874E-05  0.2509044E+04  0.7818609E-02  0.8399771E-01
        1   -1    0    0  501    0  0.00000000000E+00  0.00000000000E+00  0.17551445015E+04  0.17551445015E+04  0.50400001928E-02 0. -1.
       -1   -1    0    0    0  501  0.00000000000E+00  0.00000000000E+00 -0.89669268535E+03  0.89669268536E+03  0.50400001928E-02 0.  1.
    10030    2    1    2    0    0  0.00000000000E+00  0.00000000000E+00  0.85845181612E+03  0.26518371868E+04  0.25090438308E+04 0.  0.
        1    1    3    3  502    0 -0.11813342187E+04  0.36030465314E+03  0.19657269292E+03  0.12506041751E+04  0.50400001928E-02 0.  1.
       -1    1    3    3    0  502  0.11813342187E+04 -0.36030465314E+03  0.66187912321E+03  0.14012330117E+04  0.50400001928E-02 0. -1.
</event>
<event>
 5   0  0.5219468E-05  0.2461333E+04  0.7818609E-02  0.8416892E-01
        2   -1    0    0  501    0  0.00000000000E+00  0.00000000000E+00  0.15095021845E+04  0.15095021845E+04  0.25500000920E-02 0. -1.
       -2   -1    0    0    0  501  0.00000000000E+00  0.00000000000E+00 -0.10033374791E+04  0.10033374791E+04  0.25500000920E-02 0.  1.
    10030    2    1    2    0    0  0.00000000000E+00  0.00000000000E+00  0.50616470543E+03  0.25128396635E+04  0.24613330668E+04 0.  0.
        1    1    3    3  502    0  0.38705859212E+03  0.80773430515E+03  0.11147169670E+04  0.14299800621E+04  0.50400001928E-02 0. -1.
       -1    1    3    3    0  502 -0.38705859212E+03 -0.80773430515E+03 -0.60855226154E+03  0.10828596015E+04  0.50400001928E-02 0.  1.
</event>
<event>
 5   0  0.2041718E-05  0.2489358E+04  0.7818609E-02  0.8406787E-01
       -1   -1    0    0    0  501  0.00000000000E+00  0.00000000000E+00  0.15774717988E+04  0.15774717988E+04  0.50400001928E-02 0.  1.
        1   -1    0    0  501    0  0.00000000000E+00  0.00000000000E+00 -0.98209417467E+03  0.98209417468E+03  0.50400001928E-02 0. -1.
    10030    2    1    2    0    0  0.00000000000E+00  0.00000000000E+00  0.59537762413E+03  0.25595659735E+04  0.24893580412E+04 0.  0.
        4    1    3    3  502    0 -0.21143950527E+03 -0.11123919810E+04 -0.23370594194E+03  0.11561758794E+04  0.12699999809E+01 0. -1.
       -4    1    3    3    0  502  0.21143950527E+03  0.11123919810E+04  0.82908356607E+03  0.14033900941E+04  0.12699999809E+01 0.  1.
</event>
<event>
 5   0  0.4995256E-05  0.2426806E+04  0.7818609E-02  0.8429535E-01
       -2   -1    0    0    0  501  0.00000000000E+00  0.00000000000E+00  0.62282232737E+03  0.62282232738E+03  0.25500000920E-02 0. -1.
        2   -1    0    0  501    0  0.00000000000E+00  0.00000000000E+00 -0.23639927118E+04  0.23639927118E+04  0.25500000920E-02 0.  1.
    10030    2    1    2    0    0  0.00000000000E+00  0.00000000000E+00 -0.17411703845E+04  0.29868150392E+04  0.24268064964E+04 0.  0.
        2    1    3    3  502    0 -0.65043118331E+03  0.33351071843E+02 -0.21306415208E+04  0.22279601227E+04  0.25500000920E-02 0.  1.
       -2    1    3    3    0  502  0.65043118331E+03 -0.33351071843E+02  0.38947113636E+03  0.75885491649E+03  0.25500000920E-02 0. -1.
</event>
<event>
 5   0  0.4995256E-05  0.2477551E+04  0.7818609E-02  0.8411027E-01
       -2   -1    0    0    0  501  0.00000000000E+00  0.00000000000E+00  0.95975470618E+03  0.95975470619E+03  0.25500000920E-02 0. -1.
        2   -1    0    0  501    0  0.00000000000E+00  0.00000000000E+00 -0.15989133726E+04  0.15989133726E+04  0.25500000920E-02 0.  1.
    10030    2    1    2    0    0  0.00000000000E+00  0.00000000000E+00 -0.63915866639E+03  0.25586680788E+04  0.24775509150E+04 0.  0.
        2    1    3    3  502    0 -0.81222734720E+03 -0.78866693499E+03 -0.83889073015E+03  0.14090587124E+04  0.25500000920E-02 0.  1.
       -2    1    3    3    0  502  0.81222734720E+03  0.78866693499E+03  0.19973206377E+03  0.11496093663E+04  0.25500000920E-02 0. -1.
</event>
<event>
 5   0  0.2041718E-05  0.2486377E+04  0.7818609E-02  0.8407855E-01
       -1   -1    0    0    0  501  0.00000000000E+00  0.00000000000E+00  0.83891025750E+03  0.83891025752E+03  0.50400001928E-02 0.  1.
        1   -1    0    0  501    0  0.00000000000E+00  0.00000000000E+00 -0.18422917246E+04  0.18422917246E+04  0.50400001928E-02 0. -1.
    10030    2    1    2    0    0  0.00000000000E+00  0.00000000000E+00 -0.10033814671E+04  0.26812019821E+04  0.24863768219E+04 0.  0.
        4    1    3    3  502    0  0.36220651505E+03 -0.77804349465E+03  0.46821370148E+03  0.97763537286E+03  0.12699999809E+01 0.  1.
       -4    1    3    3    0  502 -0.36220651505E+03  0.77804349465E+03 -0.14715951685E+04  0.17035666092E+04  0.12699999809E+01 0. -1.
</event>
<event>
 5   0  0.2066170E-05  0.2537751E+04  0.7818609E-02  0.8389658E-01
        1   -1    0    0  501    0  0.00000000000E+00  0.00000000000E+00  0.23694928211E+04  0.23694928211E+04  0.50400001928E-02 0. -1.
       -1   -1    0    0    0  501  0.00000000000E+00  0.00000000000E+00 -0.67948956476E+03  0.67948956477E+03  0.50400001928E-02 0.  1.
    10030    2    1    2    0    0  0.00000000000E+00  0.00000000000E+00  0.16900032564E+04  0.30489823859E+04  0.25377514817E+04 0.  0.
        5    1    3    3  502    0 -0.80058489141E+03  0.98099678554E+03  0.74641902795E+03  0.14698483993E+04  0.46999998093E+01 0.  1.
       -5    1    3    3    0  502  0.80058489141E+03 -0.98099678554E+03  0.94358422840E+03  0.15791339866E+04  0.46999998093E+01 0. -1.
</event>
<event>
 5   0  0.2036578E-05  0.2444951E+04  0.7818609E-02  0.8422864E-01
       -1   -1    0    0    0  501  0.00000000000E+00  0.00000000000E+00  0.94582727369E+03  0.94582727371E+03  0.50400001928E-02 0.  1.
        1   -1    0    0  501    0  0.00000000000E+00  0.00000000000E+00 -0.15800416919E+04  0.15800416919E+04  0.50400001928E-02 0. -1.
    10030    2    1    2    0    0  0.00000000000E+00  0.00000000000E+00 -0.63421441824E+03  0.25258689656E+04  0.24449511454E+04 0.  0.
        2    1    3    3  502    0 -0.24475278175E+03  0.21974405451E+03  0.89925303759E+03  0.95752148764E+03  0.25500000920E-02 0.  1.
       -2    1    3    3    0  502  0.24475278175E+03 -0.21974405451E+03 -0.15334674558E+04  0.15683474780E+04  0.25500000920E-02 0. -1.
</event>
<event>
 5   0  0.4959347E-05  0.2528297E+04  0.7818609E-02  0.8392973E-01
        2   -1    0    0  501    0  0.00000000000E+00  0.00000000000E+00  0.94620188889E+03  0.94620188890E+03  0.25500000920E-02 0. -1.
       -2   -1    0    0    0  501  0.00000000000E+00  0.00000000000E+00 -0.16889327630E+04  0.16889327630E+04  0.25500000920E-02 0.  1.
    10030    2    1    2    0    0  0.00000000000E+00  0.00000000000E+00 -0.74273087408E+03  0.26351346519E+04  0.25282969529E+04 0.  0.
        3    1    3    3  502    0 -0.28819243425E+03 -0.20851489878E+03  0.89296465371E+03  0.96120717077E+03  0.10100000352E+00 0. -1.
       -3    1    3    3    0  502  0.28819243425E+03  0.20851489878E+03 -0.16356955278E+04  0.16739274811E+04  0.10100000352E+00 0.  1.
</event>
<event>
 5   0  0.2036578E-05  0.2415413E+04  0.7818609E-02  0.8433756E-01
       -1   -1    0    0    0  501  0.00000000000E+00  0.00000000000E+00  0.92858984940E+03  0.92858984942E+03  0.50400001928E-02 0.  1.
        1   -1    0    0  501    0  0.00000000000E+00  0.00000000000E+00 -0.15707197861E+04  0.15707197861E+04  0.50400001928E-02 0. -1.
    10030    2    1    2    0    0  0.00000000000E+00  0.00000000000E+00 -0.64212993674E+03  0.24993096356E+04  0.24154125525E+04 0.  0.
        2    1    3    3  502    0 -0.96418395056E+03  0.57261190919E+03  0.14285993744E+03  0.11304618750E+04  0.25500000920E-02 0. -1.
       -2    1    3    3    0  502  0.96418395056E+03 -0.57261190919E+03 -0.78498987417E+03  0.13688477606E+04  0.25500000920E-02 0.  1.
</event>
<event>
 5   0  0.2081874E-05  0.1773594E+04  0.7818609E-02  0.8720469E-01
        1   -1    0    0  501    0  0.00000000000E+00  0.00000000000E+00  0.13142100714E+04  0.13142100714E+04  0.50400001928E-02 0.  1.
       -1   -1    0    0    0  501  0.00000000000E+00  0.00000000000E+00 -0.59838910094E+03  0.59838910096E+03  0.50400001928E-02 0. -1.
    10030    2    1    2    0    0  0.00000000000E+00  0.00000000000E+00  0.71582097046E+03  0.19125991724E+04  0.17735940720E+04 0.  0.
        1    1    3    3  502    0  0.49687988756E+03  0.56856616879E+03  0.85938593078E+03  0.11439848290E+04  0.50400001928E-02 0.  1.
       -1    1    3    3    0  502 -0.49687988756E+03 -0.56856616879E+03 -0.14356496032E+03  0.76861434336E+03  0.50400001928E-02 0. -1.
</event>
<event>
 5   0  0.5219468E-05  0.2517610E+04  0.7818609E-02  0.8396738E-01
       -2   -1    0    0    0  501  0.00000000000E+00  0.00000000000E+00  0.76443595696E+03  0.76443595696E+03  0.25500000920E-02 0.  1.
        2   -1    0    0  501    0  0.00000000000E+00  0.00000000000E+00 -0.20728886385E+04  0.20728886385E+04  0.25500000920E-02 0. -1.
    10030    2    1    2    0    0  0.00000000000E+00  0.00000000000E+00 -0.13084526815E+04  0.28373245955E+04  0.25176104624E+04 0.  0.
        1    1    3    3  502    0 -0.97853131527E+03  0.14306398723E+03  0.22352521712E+03  0.10138808422E+04  0.50400001928E-02 0.  1.
       -1    1    3    3    0  502  0.97853131527E+03 -0.14306398723E+03 -0.15319778987E+04  0.18234437533E+04  0.50400001928E-02 0. -1.
</event>
<event>
 5   0  0.1692125E-05  0.2472281E+04  0.7818609E-02  0.8412928E-01
       -3   -1    0    0    0  501  0.00000000000E+00  0.00000000000E+00  0.20644688075E+04  0.20644688099E+04  0.10100000352E+00 0. -1.
        3   -1    0    0  501    0  0.00000000000E+00  0.00000000000E+00 -0.74016265611E+03  0.74016266300E+03  0.10100000352E+00 0.  1.
    10030    2    1    2    0    0  0.00000000000E+00  0.00000000000E+00  0.13243061514E+04  0.28046314729E+04  0.24722805093E+04 0.  0.
        2    1    3    3  502    0  0.10326863907E+04 -0.28137118391E+02 -0.10793240505E+03  0.10386925835E+04  0.25500000920E-02 0.  1.
       -2    1    3    3    0  502 -0.10326863907E+04  0.28137118391E+02  0.14322385564E+04  0.17659388895E+04  0.25500000920E-02 0. -1.
</event>
<event>
 5   0  0.2066170E-05  0.2481225E+04  0.7818609E-02  0.8409705E-01
        1   -1    0    0  501    0  0.00000000000E+00  0.00000000000E+00  0.47888869750E+03  0.47888869753E+03  0.50400001928E-02 0. -1.
       -1   -1    0    0    0  501  0.00000000000E+00  0.00000000000E+00 -0.32139396021E+04  0.32139396021E+04  0.50400001928E-02 0.  1.
    10030    2    1    2    0    0  0.00000000000E+00  0.00000000000E+00 -0.27350509046E+04  0.36928282996E+04  0.24812249797E+04 0.  0.
        5    1    3    3  502    0 -0.57959999292E+03  0.10511024390E+04 -0.18342585580E+04  0.21920946687E+04  0.46999998093E+01 0.  1.
       -5    1    3    3    0  502  0.57959999292E+03 -0.10511024390E+04 -0.90079234658E+03  0.15007336309E+04  0.46999998093E+01 0. -1.
</event>
<event>
 5   0  0.4995256E-05  0.2547159E+04  0.7818609E-02  0.8386375E-01
        2   -1    0    0  501    0  0.00000000000E+00  0.00000000000E+00  0.24661798334E+04  0.24661798334E+04  0.25500000920E-02 0.  1.
       -2   -1    0    0    0  501  0.00000000000E+00  0.00000000000E+00 -0.65769948365E+03  0.65769948365E+03  0.25500000920E-02 0. -1.
    10030    2    1    2    0    0  0.00000000000E+00  0.00000000000E+00  0.18084803497E+04  0.31238793170E+04  0.25471593613E+04 0.  0.
        2    1    3    3  502    0 -0.28134860307E+03  0.10536997763E+04  0.97629820436E+02  0.10949757243E+04  0.25500000920E-02 0. -1.
       -2    1    3    3    0  502  0.28134860307E+03 -0.10536997763E+04  0.17108505293E+04  0.20289035927E+04  0.25500000920E-02 0.  1.
</event>
<event>
 5   0  0.4995256E-05  0.2407459E+04  0.7818609E-02  0.8436716E-01
        2   -1    0    0  501    0  0.00000000000E+00  0.00000000000E+00  0.83388120959E+03  0.83388120959E+03  0.25500000920E-02 0. -1.
       -2   -1    0    0    0  501  0.00000000000E+00  0.00000000000E+00 -0.17376158178E+04  0.17376158178E+04  0.25500000920E-02 0.  1.
    10030    2    1    2    0    0  0.00000000000E+00  0.00000000000E+00 -0.90373460824E+03  0.25714970274E+04  0.24074593911E+04 0.  0.
        2    1    3    3  502    0  0.24749323933E+03  0.68270518808E+03 -0.14772934638E+04  0.16461273509E+04  0.25500000920E-02 0.  1.
       -2    1    3    3    0  502 -0.24749323933E+03 -0.68270518808E+03  0.57355885556E+03  0.92536967648E+03  0.25500000920E-02 0. -1.
</event>
<event>
 5   0  0.2063930E-05  0.2646072E+04  0.7818609E-02  0.8352718E-01
        1   -1    0    0  501    0  0.00000000000E+00  0.00000000000E+00  0.23016645994E+04  0.23016645994E+04  0.50400001928E-02 0. -1.
       -1   -1    0    0    0  501  0.00000000000E+00  0.00000000000E+00 -0.76050334156E+03  0.76050334158E+03  0.50400001928E-02 0.  1.
    10030    2    1    2    0    0  0.00000000000E+00  0.00000000000E+00  0.15411612579E+04  0.30621679410E+04  0.26460715176E+04 0.  0.
        3    1    3    3  502    0 -0.55284070317E+03 -0.12008287446E+04  0.83182851533E+03  0.15619094744E+04  0.10100000352E+00 0.  1.
       -3    1    3    3    0  502  0.55284070317E+03  0.12008287446E+04  0.70933274255E+03  0.15002584667E+04  0.10100000352E+00 0. -1.
</event>
<event>
 5   0  0.5024070E-05  0.2517954E+04  0.7818609E-02  0.8396617E-01
       -2   -1    0    0    0  501  0.00000000000E+00  0.00000000000E+00  0.11756978593E+04  0.11756978593E+04  0.25500000920E-02 0.  1.
        2   -1    0    0  501    0  0.00000000000E+00  0.00000000000E+00 -0.13481546703E+04  0.13481546703E+04  0.25500000920E-02 0. -1.
    10030    2    1    2    0    0  0.00000000000E+00  0.00000000000E+00 -0.17245681103E+03  0.25238525296E+04  0.25179535816E+04 0.  0.
        5    1    3    3  502    0  0.86052279842E+03 -0.86872092930E+03 -0.38663862303E+03  0.12824535291E+04  0.46999998093E+01 0.  1.
       -5    1    3    3    0  502 -0.86052279842E+03  0.86872092930E+03  0.21418181200E+03  0.12413990004E+04  0.46999998093E+01 0. -1.
</event>
<event>
 5   0  0.2041718E-05  0.2497390E+04  0.7818609E-02  0.8403916E-01
        1   -1    0    0  501    0  0.00000000000E+00  0.00000000000E+00  0.20627995006E+04  0.20627995006E+04  0.50400001928E-02 0. -1.
       -1   -1    0    0    0  501  0.00000000000E+00  0.00000000000E+00 -0.75588493284E+03  0.75588493285E+03  0.50400001928E-02 0.  1.
    10030    2    1    2    0    0  0.00000000000E+00  0.00000000000E+00  0.13069145678E+04  0.28186844335E+04  0.24973898871E+04 0.  0.
        4    1    3    3  502    0  0.83296155986E+03  0.82214458952E+03  0.16214895072E+03  0.11815416122E+04  0.12699999809E+01 0.  1.
       -4    1    3    3    0  502 -0.83296155986E+03 -0.82214458952E+03  0.11447656170E+04  0.16371428212E+04  0.12699999809E+01 0. -1.
</event>
<event>
 5   0  0.4995256E-05  0.2467825E+04  0.7818609E-02  0.8414539E-01
        2   -1    0    0  501    0  0.00000000000E+00  0.00000000000E+00  0.12934277677E+04  0.12934277677E+04  0.25500000920E-02 0.  1.
       -2   -1    0    0    0  501  0.00000000000E+00  0.00000000000E+00 -0.11771354012E+04  0.11771354012E+04  0.25500000920E-02 0. -1.
    10030    2    1    2    0    0  0.00000000000E+00  0.00000000000E+00  0.11629236651E+03  0.24705631689E+04  0.24678246407E+04 0.  0.
        2    1    3    3  502    0  0.12241947397E+04 -0.14743292320E+03  0.10456990547E+03  0.12374668046E+04  0.25500000920E-02 0.  1.
       -2    1    3    3    0  502 -0.12241947397E+04  0.14743292320E+03  0.11722461049E+02  0.12330963643E+04  0.25500000920E-02 0. -1.
</event>
<event>
 5   0  0.2066170E-05  0.2439818E+04  0.7818609E-02  0.8424745E-01
       -1   -1    0    0    0  501  0.00000000000E+00  0.00000000000E+00  0.10610056775E+04  0.10610056775E+04  0.50400001928E-02 0.  1.
        1   -1    0    0  501    0  0.00000000000E+00  0.00000000000E+00 -0.14026108202E+04  0.14026108202E+04  0.50400001928E-02 0. -1.
    10030    2    1    2    0    0  0.00000000000E+00  0.00000000000E+00 -0.34160514274E+03  0.24636164977E+04  0.24398180617E+04 0.  0.
        5    1    3    3  502    0  0.17497891550E+03 -0.86624976773E+03 -0.10199269973E+04  0.13495478690E+04  0.46999998093E+01 0. -1.
       -5    1    3    3    0  502 -0.17497891550E+03  0.86624976773E+03  0.67832185456E+03  0.11140686286E+04  0.46999998093E+01 0.  1.
</event>
<event>
 5   0  0.1692125E-05  0.2267829E+04  0.7818609E-02  0.8490715E-01
       -3   -1    0    0    0  501  0.00000000000E+00  0.00000000000E+00  0.60277608178E+03  0.60277609024E+03  0.10100000352E+00 0. -1.
        3   -1    0    0  501    0  0.00000000000E+00  0.00000000000E+00 -0.21330676137E+04  0.21330676161E+04  0.10100000352E+00 0.  1.
    10030    2    1    2    0    0  0.00000000000E+00  0.00000000000E+00 -0.15302915320E+04  0.27358437064E+04  0.22678290528E+04 0.  0.
        4    1    3    3  502    0 -0.10418679856E+04 -0.44808550216E+02 -0.13023045966E+04  0.16683811257E+04  0.12699999809E+01 0. -1.
       -4    1    3    3    0  502  0.10418679856E+04  0.44808550216E+02 -0.22798693539E+03  0.10674625807E+04  0.12699999809E+01 0.  1.
</event>
<event>
 5   0  0.2036578E-05  0.2452462E+04  0.7818609E-02  0.8420120E-01
        1   -1    0    0  501    0  0.00000000000E+00  0.00000000000E+00  0.29401753350E+04  0.29401753350E+04  0.50400001928E-02 0. -1.
       -1   -1    0    0    0  501  0.00000000000E+00  0.00000000000E+00 -0.51141261742E+03  0.51141261745E+03  0.50400001928E-02 0.  1.
    10030    2    1    2    0    0  0.00000000000E+00  0.00000000000E+00  0.24287627175E+04  0.34515879524E+04  0.24524622434E+04 0.  0.
        2    1    3    3  502    0  0.11752079732E+04 -0.30234364102E+03  0.96611515083E+03  0.15510976572E+04  0.25500000920E-02 0.  1.
       -2    1    3    3    0  502 -0.11752079732E+04  0.30234364102E+03  0.14626475667E+04  0.19004902952E+04  0.25500000920E-02 0. -1.
</event>
<event>
 5   0  0.2066170E-05  0.2393084E+04  0.7818609E-02  0.8442097E-01
        1   -1    0    0  501    0  0.00000000000E+00  0.00000000000E+00  0.15707800383E+04  0.15707800383E+04  0.50400001928E-02 0.  1.
       -1   -1    0    0    0  501  0.00000000000E+00  0.00000000000E+00 -0.91146630754E+03  0.91146630756E+03  0.50400001928E-02 0. -1.
    10030    2    1    2    0    0  0.00000000000E+00  0.00000000000E+00  0.65931373077E+03  0.24822463459E+04  0.23930842706E+04 0.  0.
        5    1    3    3  502    0  0.81175963336E+03  0.48624820857E+03 -0.42995330995E+03  0.10393618049E+04  0.46999998093E+01 0. -1.
       -5    1    3    3    0  502 -0.81175963336E+03 -0.48624820857E+03  0.10892670407E+04  0.14428845410E+04  0.46999998093E+01 0.  1.
</event>
<event>
 5   0  0.4995256E-05  0.1688112E+04  0.7818609E-02  0.8768173E-01
        2   -1    0    0  501    0  0.00000000000E+00  0.00000000000E+00  0.18896082970E+04  0.18896082970E+04  0.25500000920E-02 0. -1.
       -2   -1    0    0    0  501  0.00000000000E+00  0.00000000000E+00 -0.37702572418E+03  0.37702572418E+03  0.25500000920E-02 0.  1.
    10030    2    1    2    0    0  0.00000000000E+00  0.00000000000E+00  0.15125825728E+04  0.22666340212E+04  0.16881124804E+04 0.  0.
        2    1    3    3  502    0 -0.34838122609E+02 -0.37969408387E+02 -0.37491170437E+03  0.37843646341E+03  0.25500000920E-02 0.  1.
       -2    1    3    3    0  502  0.34838122609E+02  0.37969408387E+02  0.18874942772E+04  0.18881975578E+04  0.25500000920E-02 0. -1.
</event>
<event>
 5   0  0.4995256E-05  0.2450409E+04  0.7818609E-02  0.8420869E-01
       -2   -1    0    0    0  501  0.00000000000E+00  0.00000000000E+00  0.60032010129E+03  0.60032010130E+03  0.25500000920E-02 0.  1.
        2   -1    0    0  501    0  0.00000000000E+00  0.00000000000E+00 -0.25005431530E+04  0.25005431530E+04  0.25500000920E-02 0. -1.
    10030    2    1    2    0    0  0.00000000000E+00  0.00000000000E+00 -0.19002230517E+04  0.31008632543E+04  0.24504092057E+04 0.  0.
        2    1    3    3  502    0  0.42393843873E+03 -0.60135265421E+03  0.28962467364E+03  0.79071566707E+03  0.25500000920E-02 0.  1.
       -2    1    3    3    0  502 -0.42393843873E+03  0.60135265421E+03 -0.21898477253E+04  0.23101475872E+04  0.25500000920E-02 0. -1.
</event>
<event>
 5   0  0.2041718E-05  0.2492009E+04  0.7818609E-02  0.8405838E-01
        1   -1    0    0  501    0  0.00000000000E+00  0.00000000000E+00  0.14875461387E+04  0.14875461387E+04  0.50400001928E-02 0. -1.
       -1   -1    0    0    0  501  0.00000000000E+00  0.00000000000E+00 -0.10436833173E+04  0.10436833173E+04  0.50400001928E-02 0.  1.
    10030    2    1    2    0    0  0.00000000000E+00  0.00000000000E+00  0.44386282144E+03  0.25312294560E+04  0.24920088994E+04 0.  0.
        4    1    3    3  502    0  0.60671130547E+03  0.19856322192E+03 -0.86495604924E+03  0.10750239724E+04  0.12699999809E+01 0.  1.
       -4    1    3    3    0  502 -0.60671130547E+03 -0.19856322192E+03  0.13088188707E+04  0.14562054836E+04  0.12699999809E+01 0. -1.
</event>
<event>
 5   0  0.4959042E-05  0.2444129E+04  0.7818609E-02  0.8423165E-01
       -2   -1    0    0    0  501  0.00000000000E+00  0.00000000000E+00  0.67521034067E+03  0.67521034067E+03  0.25500000920E-02 0. -1.
        2   -1    0    0  501    0  0.00000000000E+00  0.00000000000E+00 -0.22118160473E+04  0.22118160473E+04  0.25500000920E-02 0.  1.
    10030    2    1    2    0    0  0.00000000000E+00  0.00000000000E+00 -0.15366057066E+04  0.28870263880E+04  0.24441285292E+04 0.  0.
        4    1    3    3  502    0  0.91820138695E+03 -0.76057798251E+03 -0.10849611454E+04  0.16120530247E+04  0.12699999809E+01 0. -1.
       -4    1    3    3    0  502 -0.91820138695E+03  0.76057798251E+03 -0.45164456120E+03  0.12749733633E+04  0.12699999809E+01 0.  1.
</event>
<event>
 5   0  0.1692125E-05  0.2485709E+04  0.7818609E-02  0.8408094E-01
       -3   -1    0    0    0  501  0.00000000000E+00  0.00000000000E+00  0.22854677852E+04  0.22854677875E+04  0.10100000352E+00 0. -1.
        3   -1    0    0  501    0  0.00000000000E+00  0.00000000000E+00 -0.67587381759E+03  0.67587382513E+03  0.10100000352E+00 0.  1.
    10030    2    1    2    0    0  0.00000000000E+00  0.00000000000E+00  0.16095939677E+04  0.29613416126E+04  0.24857094371E+04 0.  0.
        5    1    3    3  502    0  0.43664295873E+03 -0.10602381361E+04  0.13760272457E+04  0.17911546693E+04  0.46999998093E+01 0. -1.
       -5    1    3    3    0  502 -0.43664295873E+03  0.10602381361E+04  0.23356672197E+03  0.11701869433E+04  0.46999998093E+01 0.  1.
</event>
<event>
 5   0  0.1692125E-05  0.2090267E+04  0.7818609E-02  0.8565543E-01
       -3   -1    0    0    0  501  0.00000000000E+00  0.00000000000E+00  0.90375734460E+03  0.90375735025E+03  0.10100000352E+00 0. -1.
        3   -1    0    0  501    0  0.00000000000E+00  0.00000000000E+00 -0.12086249965E+04  0.12086250007E+04  0.10100000352E+00 0.  1.
    10030    2    1    2    0    0  0.00000000000E+00  0.00000000000E+00 -0.30486765189E+03  0.21123823510E+04  0.20902667082E+04 0.  0.
        2    1    3    3  502    0 -0.97846714800E+03 -0.32404824586E+03 -0.32717511902E+03  0.10814105529E+04  0.25500000920E-02 0. -1.
       -2    1    3    3    0  502  0.97846714800E+03  0.32404824586E+03  0.22307467128E+02  0.10309717981E+04  0.25500000920E-02 0.  1.
</event>
<event>
 5   0  0.2063930E-05  0.2492146E+04  0.7818609E-02  0.8405789E-01
       -1   -1    0    0    0  501  0.00000000000E+00  0.00000000000E+00  0.13158241807E+04  0.13158241807E+04  0.50400001928E-02 0. -1.
        1   -1    0    0  501    0  0.00000000000E+00  0.00000000000E+00 -0.11800193227E+04  0.11800193227E+04  0.50400001928E-02 0.  1.
    10030    2    1    2    0    0  0.00000000000E+00  0.00000000000E+00  0.13580485802E+03  0.24958435035E+04  0.24921460299E+04 0.  0.
        3    1    3    3  502    0  0.11559304532E+04 -0.36458348272E+03 -0.22166600002E+03  0.12321656359E+04  0.10100000352E+00 0.  1.
       -3    1    3    3    0  502 -0.11559304532E+04  0.36458348272E+03  0.35747085804E+03  0.12636778676E+04  0.10100000352E+00 0. -1.
</event>
<event>
 5   0  0.4995256E-05  0.2528389E+04  0.7818609E-02  0.8392941E-01
       -2   -1    0    0    0  501  0.00000000000E+00  0.00000000000E+00  0.17857782389E+04  0.17857782389E+04  0.25500000920E-02 0. -1.
        2   -1    0    0  501    0  0.00000000000E+00  0.00000000000E+00 -0.89495335865E+03  0.89495335865E+03  0.25500000920E-02 0.  1.
    10030    2    1    2    0    0  0.00000000000E+00  0.00000000000E+00  0.89082488022E+03  0.26807315975E+04  0.25283893946E+04 0.  0.
        2    1    3    3  502    0  0.20020910002E+02  0.11686123547E+04  0.95624362742E+03  0.15101183886E+04  0.25500000920E-02 0.  1.
       -2    1    3    3    0  502 -0.20020910002E+02 -0.11686123547E+04 -0.65418747200E+02  0.11706132090E+04  0.25500000920E-02 0. -1.
</event>
<event>
 5   0  0.2081874E-05  0.1843266E+04  0.7818609E-02  0.8683624E-01
        1   -1    0    0  501    0  0.00000000000E+00  0.00000000000E+00  0.81945265713E+03  0.81945265714E+03  0.50400001928E-02 0.  1.
       -1   -1    0    0    0  501  0.00000000000E+00  0.00000000000E+00 -0.10365541654E+04  0.10365541654E+04  0.50400001928E-02 0. -1.
    10030    2    1    2    0    0  0.00000000000E+00  0.00000000000E+00 -0.21710150829E+03  0.18560068226E+04  0.18432656511E+04 0.  0.
        1    1    3    3  502    0  0.70308546219E+02  0.16485062721E+03  0.80173807051E+03  0.82152477424E+03  0.50400001928E-02 0.  1.
       -1    1    3    3    0  502 -0.70308546219E+02 -0.16485062721E+03 -0.10188395788E+04  0.10344820483E+04  0.50400001928E-02 0. -1.
</event>
<event>
 5   0  0.4995256E-05  0.2483526E+04  0.7818609E-02  0.8408878E-01
       -2   -1    0    0    0  501  0.00000000000E+00  0.00000000000E+00  0.97344488982E+03  0.97344488982E+03  0.25500000920E-02 0. -1.
        2   -1    0    0  501    0  0.00000000000E+00  0.00000000000E+00 -0.15840391662E+04  0.15840391662E+04  0.25500000920E-02 0.  1.
    10030    2    1    2    0    0  0.00000000000E+00  0.00000000000E+00 -0.61059427642E+03  0.25574840561E+04  0.24835255841E+04 0.  0.
        2    1    3    3  502    0  0.59324789741E+03  0.39126010244E+03  0.74333373158E+03  0.10283834752E+04  0.25500000920E-02 0. -1.
       -2    1    3    3    0  502 -0.59324789741E+03 -0.39126010244E+03 -0.13539280080E+04  0.15291005809E+04  0.25500000920E-02 0.  1.
</event>
<event>
 5   0  0.4995256E-05  0.2462794E+04  0.7818609E-02  0.8416361E-01
       -2   -1    0    0    0  501  0.00000000000E+00  0.00000000000E+00  0.22005263121E+04  0.22005263121E+04  0.25500000920E-02 0. -1.
        2   -1    0    0  501    0  0.00000000000E+00  0.00000000000E+00 -0.68908003655E+03  0.68908003656E+03  0.25500000920E-02 0.  1.
    10030    2    1    2    0    0  0.00000000000E+00  0.00000000000E+00  0.15114462756E+04  0.28896063487E+04  0.24627941462E+04 0.  0.
        2    1    3    3  502    0 -0.84033290082E+03 -0.63885154280E+03  0.14996830988E+04  0.18339411317E+04  0.25500000920E-02 0. -1.
       -2    1    3    3    0  502  0.84033290082E+03  0.63885154280E+03  0.11763176804E+02  0.10556652169E+04  0.25500000920E-02 0.  1.
</event>
<event>
 5   0  0.2063930E-05  0.2559240E+04  0.7818609E-02  0.8382180E-01
       -1   -1    0    0    0  501  0.00000000000E+00  0.00000000000E+00  0.89948573500E+03  0.89948573501E+03  0.50400001928E-02 0.  1.
        1   -1    0    0  501    0  0.00000000000E+00  0.00000000000E+00 -0.18204035483E+04  0.18204035483E+04  0.50400001928E-02 0. -1.
    10030    2    1    2    0    0  0.00000000000E+00  0.00000000000E+00 -0.92091781331E+03  0.27198892833E+04  0.25592397494E+04 0.  0.
        3    1    3    3  502    0 -0.11376238865E+04  0.55153143723E+03 -0.67047945239E+03  0.14310547648E+04  0.10100000352E+00 0. -1.
       -3    1    3    3    0  502  0.11376238865E+04 -0.55153143723E+03 -0.25043836093E+03  0.12888345186E+04  0.10100000352E+00 0.  1.
</event>
<event>
 5   0  0.2081874E-05  0.2106708E+04  0.7818609E-02  0.8558294E-01
        1   -1    0    0  501    0  0.00000000000E+00  0.00000000000E+00  0.15332813032E+04  0.15332813032E+04  0.50400001928E-02 0. -1.
       -1   -1    0    0    0  501  0.00000000000E+00  0.00000000000E+00 -0.72364705993E+03  0.72364705995E+03  0.50400001928E-02 0.  1.
    10030    2    1    2    0    0  0.00000000000E+00  0.00000000000E+00  0.80963424324E+03  0.22569283631E+04  0.21067078650E+04 0.  0.
        1    1    3    3  502    0 -0.56775861519E+02  0.52981341990E+03  0.13782496648E+04  0.14776663686E+04  0.50400001928E-02 0. -1.
       -1    1    3    3    0  502  0.56775861519E+02 -0.52981341990E+03 -0.56861542159E+03  0.77926199449E+03  0.50400001928E-02 0.  1.
</event>
<event>
 5   0  0.2063930E-05  0.2451095E+04  0.7818609E-02  0.8420618E-01
       -1   -1    0    0    0  501  0.00000000000E+00  0.00000000000E+00  0.65065893215E+03  0.65065893217E+03  0.50400001928E-02 0. -1.
        1   -1    0    0  501    0  0.00000000000E+00  0.00000000000E+00 -0.23083782843E+04  0.23083782843E+04  0.50400001928E-02 0.  1.
    10030    2    1    2    0    0  0.00000000000E+00  0.00000000000E+00 -0.16577193522E+04  0.29590372165E+04  0.24510952242E+04 0.  0.
        3    1    3    3  502    0  0.36929736898E+03  0.43065336310E+03 -0.21403167454E+04  0.22142264217E+04  0.10100000352E+00 0.  1.
       -3    1    3    3    0  502 -0.36929736898E+03 -0.43065336310E+03  0.48259739320E+03  0.74481079477E+03  0.10100000352E+00 0. -1.
</event>
<event>
 5   0  0.1692125E-05  0.2528274E+04  0.7818609E-02  0.8392982E-01
       -3   -1    0    0    0  501  0.00000000000E+00  0.00000000000E+00  0.12340980140E+04  0.12340980181E+04  0.10100000352E+00 0.  1.
        3   -1    0    0  501    0  0.00000000000E+00  0.00000000000E+00 -0.12949069425E+04  0.12949069465E+04  0.10100000352E+00 0. -1.
    10030    2    1    2    0    0  0.00000000000E+00  0.00000000000E+00 -0.60808928545E+02  0.25290049646E+04  0.25282737955E+04 0.  0.
        3    1    3    3  502    0  0.16666812269E+02  0.11826348036E+04  0.41597477165E+03  0.12537694693E+04  0.10100000352E+00 0.  1.
       -3    1    3    3    0  502 -0.16666812269E+02 -0.11826348036E+04 -0.47678370020E+03  0.12752354952E+04  0.10100000352E+00 0. -1.
</event>
<event>
 5   0  0.2041718E-05  0.2444311E+04  0.7818609E-02  0.8423098E-01
       -1   -1    0    0    0  501  0.00000000000E+00  0.00000000000E+00  0.11757289683E+04  0.11757289683E+04  0.50400001928E-02 0. -1.
        1   -1    0    0  501    0  0.00000000000E+00  0.00000000000E+00 -0.12704156422E+04  0.12704156422E+04  0.50400001928E-02 0.  1.
    10030    2    1    2    0    0  0.00000000000E+00  0.00000000000E+00 -0.94686673873E+02  0.24461446105E+04  0.24443113323E+04 0.  0.
        4    1    3    3  502    0  0.10145333982E+04  0.66768296981E+03 -0.18376981053E+03  0.12283531741E+04  0.12699999809E+01 0. -1.
       -4    1    3    3    0  502 -0.10145333982E+04 -0.66768296981E+03  0.89083136660E+02  0.12177914363E+04  0.12699999809E+01 0.  1.
</event>
<event>
 5   0  0.2041718E-05  0.2254616E+04  0.7818609E-02  0.8496034E-01
       -1   -1    0    0    0  501  0.00000000000E+00  0.00000000000E+00  0.78049051042E+03  0.78049051043E+03  0.50400001928E-02 0. -1.
        1   -1    0    0  501    0  0.00000000000E+00  0.00000000000E+00 -0.16282364969E+04  0.16282364969E+04  0.50400001928E-02 0.  1.
    10030    2    1    2    0    0  0.00000000000E+00  0.00000000000E+00 -0.84774598644E+03  0.24087270073E+04  0.22546158294E+04 0.  0.
        4    1    3    3  502    0 -0.32011037754E+03  0.95215359396E+02  0.72642435979E+03  0.79951896905E+03  0.12699999809E+01 0. -1.
       -4    1    3    3    0  502  0.32011037754E+03 -0.95215359396E+02 -0.15741703462E+04  0.16092080382E+04  0.12699999809E+01 0.  1.
</event>
<event>
 5   0  0.5219468E-05  0.2425672E+04  0.7818609E-02  0.8429954E-01
       -2   -1    0    0    0  501  0.00000000000E+00  0.00000000000E+00  0.16588396810E+04  0.16588396810E+04  0.25500000920E-02 0.  1.
        2   -1    0    0  501    0  0.00000000000E+00  0.00000000000E+00 -0.88674696553E+03  0.88674696554E+03  0.25500000920E-02 0. -1.
    10030    2    1    2    0    0  0.00000000000E+00  0.00000000000E+00  0.77209271544E+03  0.25455866465E+04  0.24256719097E+04 0.  0.
        1    1    3    3  502    0 -0.21801863409E+03  0.87630392829E+03  0.12357201605E+04  0.15305048235E+04  0.50400001928E-02 0.  1.
       -1    1    3    3    0  502  0.21801863409E+03 -0.87630392829E+03 -0.46362744510E+03  0.10150818230E+04  0.50400001928E-02 0. -1.
</event>
<event>
 5   0  0.4959347E-05  0.2494193E+04  0.7818609E-02  0.8405057E-01
       -2   -1    0    0    0  501  0.00000000000E+00  0.00000000000E+00  0.26954886172E+04  0.26954886172E+04  0.25500000920E-02 0.  1.
        2   -1    0    0  501    0  0.00000000000E+00  0.00000000000E+00 -0.57698243711E+03  0.57698243712E+03  0.25500000920E-02 0. -1.
    10030    2    1    2    0    0  0.00000000000E+00  0.00000000000E+00  0.21185061800E+04  0.32724710543E+04  0.24941929288E+04 0.  0.
        3    1    3    3  502    0  0.99535088257E+03  0.21031353488E+02  0.20446645671E+04  0.22741633406E+04  0.10100000352E+00 0.  1.
       -3    1    3    3    0  502 -0.99535088257E+03 -0.21031353488E+02  0.73841612913E+02  0.99830771371E+03  0.10100000352E+00 0. -1.
</event>
<event>
 5   0  0.1692125E-05  0.2539774E+04  0.7818609E-02  0.8388951E-01
       -3   -1    0    0    0  501  0.00000000000E+00  0.00000000000E+00  0.70992025654E+03  0.70992026372E+03  0.10100000352E+00 0. -1.
        3   -1    0    0  501    0  0.00000000000E+00  0.00000000000E+00 -0.22715414807E+04  0.22715414829E+04  0.10100000352E+00 0.  1.
    10030    2    1    2    0    0  0.00000000000E+00  0.00000000000E+00 -0.15616212241E+04  0.29814617466E+04  0.25397742614E+04 0.  0.
        4    1    3    3  502    0 -0.99231403761E+03  0.74843732359E+03 -0.10864015582E+04  0.16507923961E+04  0.12699999809E+01 0.  1.
       -4    1    3    3    0  502  0.99231403761E+03 -0.74843732359E+03 -0.47521966595E+03  0.13306693505E+04  0.12699999809E+01 0. -1.
</event>
<event>
 5   0  0.4995256E-05  0.2463917E+04  0.7818609E-02  0.8415954E-01
       -2   -1    0    0    0  501  0.00000000000E+00  0.00000000000E+00  0.76667694372E+03  0.76667694372E+03  0.25500000920E-02 0. -1.
        2   -1    0    0  501    0  0.00000000000E+00  0.00000000000E+00 -0.19796110182E+04  0.19796110182E+04  0.25500000920E-02 0.  1.
    10030    2    1    2    0    0  0.00000000000E+00  0.00000000000E+00 -0.12129340745E+04  0.27462879620E+04  0.24639173080E+04 0.  0.
        2    1    3    3  502    0  0.41272364890E+03 -0.67978218657E+03 -0.16551872935E+04  0.18363250279E+04  0.25500000920E-02 0.  1.
       -2    1    3    3    0  502 -0.41272364890E+03  0.67978218657E+03  0.44225321903E+03  0.90996293402E+03  0.25500000920E-02 0. -1.
</event>
<event>
 5   0  0.4959042E-05  0.2509980E+04  0.7818609E-02  0.8399439E-01
       -2   -1    0    0    0  501  0.00000000000E+00  0.00000000000E+00  0.92747044856E+03  0.92747044856E+03  0.25500000920E-02 0. -1.
        2   -1    0    0  501    0  0.00000000000E+00  0.00000000000E+00 -0.16981670090E+04  0.16981670090E+04  0.25500000920E-02 0.  1.
    10030    2    1    2    0    0  0.00000000000E+00  0.00000000000E+00 -0.77069656041E+03  0.26256374575E+04  0.25099798545E+04 0.  0.
        4    1    3    3  502    0 -0.89042362243E+03  0.18009931886E+03 -0.12911030481E+04  0.15786825792E+04  0.12699999809E+01 0.  1.
       -4    1    3    3    0  502  0.89042362243E+03 -0.18009931886E+03  0.52040648768E+03  0.10469548784E+04  0.12699999809E+01 0. -1.
</event>
<event>
 5   0  0.2041718E-05  0.2369231E+04  0.7818609E-02  0.8451114E-01
       -1   -1    0    0    0  501  0.00000000000E+00  0.00000000000E+00  0.97599171904E+03  0.97599171906E+03  0.50400001928E-02 0.  1.
        1   -1    0    0  501    0  0.00000000000E+00  0.00000000000E+00 -0.14378340515E+04  0.14378340515E+04  0.50400001928E-02 0. -1.
    10030    2    1    2    0    0  0.00000000000E+00  0.00000000000E+00 -0.46184233246E+03  0.24138257706E+04  0.23692312067E+04 0.  0.
        4    1    3    3  502    0 -0.33347454483E+03  0.90657495991E+03  0.46771846692E+03  0.10732407033E+04  0.12699999809E+01 0.  1.
       -4    1    3    3    0  502  0.33347454483E+03 -0.90657495991E+03 -0.92956079938E+03  0.13405850673E+04  0.12699999809E+01 0. -1.
</event>
<event>
 5   0  0.5024070E-05  0.2102213E+04  0.7818609E-02  0.8560269E-01
       -2   -1    0    0    0  501  0.00000000000E+00  0.00000000000E+00  0.56800599766E+03  0.56800599767E+03  0.25500000920E-02 0.  1.
        2   -1    0    0  501    0  0.00000000000E+00  0.00000000000E+00 -0.19450937705E+04  0.19450937705E+04  0.25500000920E-02 0. -1.
    10030    2    1    2    0    0  0.00000000000E+00  0.00000000000E+00 -0.13770877729E+04  0.25130997682E+04  0.21022130508E+04 0.  0.
        5    1    3    3  502    0  0.25073307867E+03  0.77827419229E+03  0.10102185979E+03  0.82389641417E+03  0.46999998093E+01 0.  1.
       -5    1    3    3    0  502 -0.25073307867E+03 -0.77827419229E+03 -0.14781096327E+04  0.16892033540E+04  0.46999998093E+01 0. -1.
</event>
<event>
 5   0  0.4959347E-05  0.2561547E+04  0.7818609E-02  0.8381381E-01
        2   -1    0    0  501    0  0.00000000000E+00  0.00000000000E+00  0.17532698021E+04  0.17532698021E+04  0.25500000920E-02 0. -1.
       -2   -1    0    0    0  501  0.00000000000E+00  0.00000000000E+00 -0.93561200438E+03  0.93561200438E+03  0.25500000920E-02 0.  1.
    10030    2    1    2    0    0  0.00000000000E+00  0.00000000000E+00  0.81765779769E+03  0.26888818064E+04  0.25615466217E+04 0.  0.
        3    1    3    3  502    0  0.12649176106E+04 -0.22030758992E+02  0.19920633661E+03  0.12806971112E+04  0.10100000352E+00 0. -1.
       -3    1    3    3    0  502 -0.12649176106E+04  0.22030758992E+02  0.61845146109E+03  0.14081846952E+04  0.10100000352E+00 0.  1.
</event>
<event>
 5   0  0.2041718E-05  0.2513436E+04  0.7818609E-02  0.8398214E-01
        1   -1    0    0  501    0  0.00000000000E+00  0.00000000000E+00  0.14439977170E+04  0.14439977170E+04  0.50400001928E-02 0. -1.
       -1   -1    0    0    0  501  0.00000000000E+00  0.00000000000E+00 -0.10937277880E+04  0.10937277880E+04  0.50400001928E-02 0.  1.
    10030    2    1    2    0    0  0.00000000000E+00  0.00000000000E+00  0.35026992903E+03  0.25377255050E+04  0.25134362366E+04 0.  0.
        4    1    3    3  502    0 -0.86233459801E+03  0.14291241439E+03  0.10867969975E+04  0.13946950362E+04  0.12699999809E+01 0. -1.
       -4    1    3    3    0  502  0.86233459801E+03 -0.14291241439E+03 -0.73652706852E+03  0.11430304688E+04  0.12699999809E+01 0.  1.
</event>
<event>
 5   0  0.2063930E-05  0.2515165E+04  0.7818609E-02  0.8397603E-01
        1   -1    0    0  501    0  0.00000000000E+00  0.00000000000E+00  0.12963900312E+04  0.12963900312E+04  0.50400001928E-02 0.  1.
       -1   -1    0    0    0  501  0.00000000000E+00  0.00000000000E+00 -0.12199366313E+04  0.12199366313E+04  0.50400001928E-02 0. -1.
    10030    2    1    2    0    0  0.00000000000E+00  0.00000000000E+00  0.76453399911E+02  0.25163266625E+04  0.25151649548E+04 0.  0.
        3    1    3    3  502    0 -0.11874098159E+04 -0.12294850438E+03  0.43395366719E+03  0.12701866796E+04  0.10100000352E+00 0. -1.
       -3    1    3    3    0  502  0.11874098159E+04  0.12294850438E+03 -0.35750026728E+03  0.12461399829E+04  0.10100000352E+00 0.  1.
</event>
<event>
 5   0  0.4959042E-05  0.2688980E+04  0.7818609E-02  0.8338590E-01
        2   -1    0    0  501    0  0.00000000000E+00  0.00000000000E+00  0.17970833704E+04  0.17970833704E+04  0.25500000920E-02 0.  1.
       -2   -1    0    0    0  501  0.00000000000E+00  0.00000000000E+00 -0.10058815857E+04  0.10058815857E+04  0.25500000920E-02 0. -1.
    10030    2    1    2    0    0  0.00000000000E+00  0.00000000000E+00  0.79120178461E+03  0.28029649561E+04  0.26889797844E+04 0.  0.
        4    1    3    3  502    0  0.19232843992E+03  0.86125267111E+03 -0.66174670660E+03  0.11030216267E+04  0.12699999809E+01 0. -1.
       -4    1    3    3    0  502 -0.19232843992E+03 -0.86125267111E+03  0.14529484912E+04  0.16999433294E+04  0.12699999809E+01 0.  1.
</event>
<event>
 5   0  0.4959347E-05  0.2408431E+04  0.7818609E-02  0.8436354E-01
       -2   -1    0    0    0  501  0.00000000000E+00  0.00000000000E+00  0.83536791150E+03  0.83536791151E+03  0.25500000920E-02 0. -1.
        2   -1    0    0  501    0  0.00000000000E+00  0.00000000000E+00 -0.17359243341E+04  0.17359243341E+04  0.25500000920E-02 0.  1.
    10030    2    1    2    0    0  0.00000000000E+00  0.00000000000E+00 -0.90055642257E+03  0.25712922456E+04  0.24084314277E+04 0.  0.
        3    1    3    3  502    0  0.10955133385E+04 -0.10124421957E+02 -0.98396437255E+03  0.14725616712E+04  0.10100000352E+00 0.  1.
       -3    1    3    3    0  502 -0.10955133385E+04  0.10124421957E+02  0.83407949982E+02  0.10987305744E+04  0.10100000352E+00 0. -1.
</event>
<event>
 5   0  0.4995256E-05  0.2508947E+04  0.7818609E-02  0.8399805E-01
        2   -1    0    0  501    0  0.00000000000E+00  0.00000000000E+00  0.11386091535E+04  0.11386091535E+04  0.25500000920E-02 0.  1.
       -2   -1    0    0    0  501  0.00000000000E+00  0.00000000000E+00 -0.13821277171E+04  0.13821277171E+04  0.25500000920E-02 0. -1.
    10030    2    1    2    0    0  0.00000000000E+00  0.00000000000E+00 -0.24351856360E+03  0.25207368707E+04  0.25089466077E+04 0.  0.
        2    1    3    3  502    0 -0.11114964416E+04 -0.43618681581E+03  0.26478235628E+03  0.12230261544E+04  0.25500000920E-02 0.  1.
       -2    1    3    3    0  502  0.11114964416E+04  0.43618681581E+03 -0.50830091988E+03  0.12977107163E+04  0.25500000920E-02 0. -1.
</event>
<event>
 5   0  0.4995256E-05  0.2488724E+04  0.7818609E-02  0.8407014E-01
       -2   -1    0    0    0  501  0.00000000000E+00  0.00000000000E+00  0.80350530941E+03  0.80350530941E+03  0.25500000920E-02 0. -1.
        2   -1    0    0  501    0  0.00000000000E+00  0.00000000000E+00 -0.19271026685E+04  0.19271026685E+04  0.25500000920E-02 0.  1.
    10030    2    1    2    0    0  0.00000000000E+00  0.00000000000E+00 -0.11235973591E+04  0.27306079779E+04  0.24887243527E+04 0.  0.
        2    1    3    3  502    0  0.30093369846E+03 -0.10443782319E+04  0.10302192016E+03  0.10917419558E+04  0.25500000920E-02 0. -1.
       -2    1    3    3    0  502 -0.30093369846E+03  0.10443782319E+04 -0.12266192792E+04  0.16388660221E+04  0.25500000920E-02 0.  1.
</event>
<event>
 5   0  0.4959042E-05  0.2498094E+04  0.7818609E-02  0.8403665E-01
        2   -1    0    0  501    0  0.00000000000E+00  0.00000000000E+00  0.17540177139E+04  0.17540177139E+04  0.25500000920E-02 0. -1.
       -2   -1    0    0    0  501  0.00000000000E+00  0.00000000000E+00 -0.88945407015E+03  0.88945407015E+03  0.25500000920E-02 0.  1.
    10030    2    1    2    0    0  0.00000000000E+00  0.00000000000E+00  0.86456364379E+03  0.26434717841E+04  0.24980938291E+04 0.  0.
        4    1    3    3  502    0  0.92910728395E+03 -0.72110243258E+03 -0.12774041815E+02  0.11761776449E+04  0.12699999809E+01 0.  1.
       -4    1    3    3    0  502 -0.92910728395E+03  0.72110243258E+03  0.87733768560E+03  0.14672941392E+04  0.12699999809E+01 0. -1.
</event>
<event>
 5   0  0.5024070E-05  0.2500448E+04  0.7818609E-02  0.8402826E-01
       -2   -1    0    0    0  501  0.00000000000E+00  0.00000000000E+00  0.78098894055E+03  0.78098894056E+03  0.25500000920E-02 0. -1.
        2   -1    0    0  501    0  0.00000000000E+00  0.00000000000E+00 -0.20013862514E+04  0.20013862514E+04  0.25500000920E-02 0.  1.
    10030    2    1    2    0    0  0.00000000000E+00  0.00000000000E+00 -0.12203973108E+04  0.27823751919E+04  0.25004483823E+04 0.  0.
        5    1    3    3  502    0  0.44301733780E+02 -0.28303778388E+03 -0.19643595121E+04  0.19851456907E+04  0.46999998093E+01 0.  1.
       -5    1    3    3    0  502 -0.44301733780E+02  0.28303778388E+03  0.74396220125E+03  0.79722950121E+03  0.46999998093E+01 0. -1.
</event>
<event>
 5   0  0.5024070E-05  0.2494613E+04  0.7818609E-02  0.8404907E-01
       -2   -1    0    0    0  501  0.00000000000E+00  0.00000000000E+00  0.10620014390E+04  0.10620014390E+04  0.25500000920E-02 0.  1.
        2   -1    0    0  501    0  0.00000000000E+00  0.00000000000E+00 -0.14649449370E+04  0.14649449370E+04  0.25500000920E-02 0. -1.
    10030    2    1    2    0    0  0.00000000000E+00  0.00000000000E+00 -0.40294349803E+03  0.25269463760E+04  0.24946131012E+04 0.  0.
        5    1    3    3  502    0  0.38400907470E+03 -0.11782201934E+04 -0.57910632298E+02  0.12405811239E+04  0.46999998093E+01 0.  1.
       -5    1    3    3    0  502 -0.38400907470E+03  0.11782201934E+04 -0.34503286573E+03  0.12863652522E+04  0.46999998093E+01 0. -1.
</event>
<event>
 5   0  0.4959347E-05  0.2516038E+04  0.7818609E-02  0.8397294E-01
        2   -1    0    0  501    0  0.00000000000E+00  0.00000000000E+00  0.17142741139E+04  0.17142741139E+04  0.25500000920E-02 0.  1.
       -2   -1    0    0    0  501  0.00000000000E+00  0.00000000000E+00 -0.92319618111E+03  0.92319618112E+03  0.25500000920E-02 0. -1.
    10030    2    1    2    0    0  0.00000000000E+00  0.00000000000E+00  0.79107793277E+03  0.26374702950E+04  0.25160376113E+04 0.  0.
        3    1    3    3  502    0 -0.10950560691E+04  0.66995585040E+02  0.10408599506E+04  0.15122915228E+04  0.10100000352E+00 0.  1.
       -3    1    3    3    0  502  0.10950560691E+04 -0.66995585040E+02 -0.24978201781E+03  0.11251787722E+04  0.10100000352E+00 0. -1.
</event>
<event>
 5   0  0.2081874E-05  0.2461044E+04  0.7818609E-02  0.8416997E-01
        1   -1    0    0  501    0  0.00000000000E+00  0.00000000000E+00  0.17321423733E+04  0.17321423733E+04  0.50400001928E-02 0. -1.
       -1   -1    0    0    0  501  0.00000000000E+00  0.00000000000E+00 -0.87416836374E+03  0.87416836376E+03  0.50400001928E-02 0.  1.
    10030    2    1    2    0    0  0.00000000000E+00  0.00000000000E+00  0.85797400953E+03  0.26063107370E+04  0.24610437332E+04 0.  0.
        1    1    3    3  502    0  0.87395111823E+03 -0.10489307163E+03 -0.48164713367E+03  0.10033828157E+04  0.50400001928E-02 0.  1.
       -1    1    3    3    0  502 -0.87395111823E+03  0.10489307163E+03  0.13396211432E+04  0.16029279213E+04  0.50400001928E-02 0. -1.
</event>
<event>
 5   0  0.2081874E-05  0.2477831E+04  0.7818609E-02  0.8410926E-01
       -1   -1    0    0    0  501  0.00000000000E+00  0.00000000000E+00  0.86946315592E+03  0.86946315593E+03  0.50400001928E-02 0. -1.
        1   -1    0    0  501    0  0.00000000000E+00  0.00000000000E+00 -0.17653549369E+04  0.17653549369E+04  0.50400001928E-02 0.  1.
    10030    2    1    2    0    0  0.00000000000E+00  0.00000000000E+00 -0.89589178096E+03  0.26348180928E+04  0.24778305630E+04 0.  0.
        1    1    3    3  502    0  0.31749833594E+03  0.68013351978E+03 -0.14960534665E+04  0.16737869555E+04  0.50400001928E-02 0.  1.
       -1    1    3    3    0  502 -0.31749833594E+03 -0.68013351978E+03  0.60016168549E+03  0.96103113727E+03  0.50400001928E-02 0. -1.
</event>
<event>
 5   0  0.4995256E-05  0.2521981E+04  0.7818609E-02  0.8395196E-01
       -2   -1    0    0    0  501  0.00000000000E+00  0.00000000000E+00  0.72221646484E+03  0.72221646484E+03  0.25500000920E-02 0.  1.
        2   -1    0    0  501    0  0.00000000000E+00  0.00000000000E+00 -0.22016910809E+04  0.22016910809E+04  0.25500000920E-02 0. -1.
    10030    2    1    2    0    0  0.00000000000E+00  0.00000000000E+00 -0.14794746160E+04  0.29239075457E+04  0.25219814029E+04 0.  0.
        2    1    3    3  502    0  0.26181804904E+03  0.93893511756E+03 -0.16671962170E+04  0.19312408115E+04  0.25500000920E-02 0. -1.
       -2    1    3    3    0  502 -0.26181804904E+03 -0.93893511756E+03  0.18772160099E+03  0.99266673425E+03  0.25500000920E-02 0.  1.
</event>
<event>
 5   0  0.4959042E-05  0.2272611E+04  0.7818609E-02  0.8488799E-01
        2   -1    0    0  501    0  0.00000000000E+00  0.00000000000E+00  0.20986734672E+04  0.20986734672E+04  0.25500000920E-02 0. -1.
       -2   -1    0    0    0  501  0.00000000000E+00  0.00000000000E+00 -0.61524114641E+03  0.61524114642E+03  0.25500000920E-02 0.  1.
    10030    2    1    2    0    0  0.00000000000E+00  0.00000000000E+00  0.14834323207E+04  0.27139146136E+04  0.22726110709E+04 0.  0.
        4    1    3    3  502    0  0.10872010613E+04 -0.27397296932E+03  0.96230522653E+03  0.14775318262E+04  0.12699999809E+01 0. -1.
       -4    1    3    3    0  502 -0.10872010613E+04  0.27397296932E+03  0.52112709422E+03  0.12363827874E+04  0.12699999809E+01 0.  1.
</event>
<event>
 5   0  0.2066170E-05  0.2483889E+04  0.7818609E-02  0.8408748E-01
       -1   -1    0    0    0  501  0.00000000000E+00  0.00000000000E+00  0.12821455711E+04  0.12821455711E+04  0.50400001928E-02 0. -1.
        1   -1    0    0  501    0  0.00000000000E+00  0.00000000000E+00 -0.12030038736E+04  0.12030038736E+04  0.50400001928E-02 0.  1.
    10030    2    1    2    0    0  0.00000000000E+00  0.00000000000E+00  0.79141697503E+02  0.24851494447E+04  0.24838889577E+04 0.  0.
        5    1    3    3  502    0  0.98514916309E+03  0.10077759357E+03  0.78943701151E+03  0.12664548480E+04  0.46999998093E+01 0. -1.
       -5    1    3    3    0  502 -0.98514916309E+03 -0.10077759357E+03 -0.71029531401E+03  0.12186945967E+04  0.46999998093E+01 0.  1.
</event>
<event>
 5   0  0.5219468E-05  0.2049558E+04  0.7818609E-02  0.8583795E-01
       -2   -1    0    0    0  501  0.00000000000E+00  0.00000000000E+00  0.57400890315E+03  0.57400890316E+03  0.25500000920E-02 0. -1.
        2   -1    0    0  501    0  0.00000000000E+00  0.00000000000E+00 -0.18295394854E+04  0.18295394854E+04  0.25500000920E-02 0.  1.
    10030    2    1    2    0    0  0.00000000000E+00  0.00000000000E+00 -0.12555305823E+04  0.24035483886E+04  0.20495579556E+04 0.  0.
        1    1    3    3  502    0  0.51609327111E+03 -0.88161913228E+03 -0.72280152454E+03  0.12514178370E+04  0.50400001928E-02 0. -1.
       -1    1    3    3    0  502 -0.51609327111E+03  0.88161913228E+03 -0.53272905773E+03  0.11521305516E+04  0.50400001928E-02 0.  1.
</event>
<event>
 5   0  0.2066170E-05  0.2463782E+04  0.7818609E-02  0.8416003E-01
       -1   -1    0    0    0  501  0.00000000000E+00  0.00000000000E+00  0.11966389815E+04  0.11966389815E+04  0.50400001928E-02 0.  1.
        1   -1    0    0  501    0  0.00000000000E+00  0.00000000000E+00 -0.12681812935E+04  0.12681812935E+04  0.50400001928E-02 0. -1.
    10030    2    1    2    0    0  0.00000000000E+00  0.00000000000E+00 -0.71542312012E+02  0.24648202750E+04  0.24637817853E+04 0.  0.
        5    1    3    3  502    0 -0.22914319960E+03 -0.82514087734E+03 -0.92167758754E+03  0.12581238964E+04  0.46999998093E+01 0. -1.
       -5    1    3    3    0  502  0.22914319960E+03  0.82514087734E+03  0.85013527552E+03  0.12066963786E+04  0.46999998093E+01 0.  1.
</event>
<event>
 5   0  0.2041718E-05  0.2501572E+04  0.7818609E-02  0.8402426E-01
        1   -1    0    0  501    0  0.00000000000E+00  0.00000000000E+00  0.10574341570E+04  0.10574341570E+04  0.50400001928E-02 0.  1.
       -1   -1    0    0    0  501  0.00000000000E+00  0.00000000000E+00 -0.14794922697E+04  0.14794922697E+04  0.50400001928E-02 0. -1.
    10030    2    1    2    0    0  0.00000000000E+00  0.00000000000E+00 -0.42205811267E+03  0.25369264267E+04  0.25015720345E+04 0.  0.
        4    1    3    3  502    0 -0.58207927414E+03  0.46433568691E+03  0.80818211497E+03  0.10989012037E+04  0.12699999809E+01 0.  1.
       -4    1    3    3    0  502  0.58207927414E+03 -0.46433568691E+03 -0.12302402276E+04  0.14380252230E+04  0.12699999809E+01 0. -1.
</event>
<event>
 5   0  0.2081874E-05  0.2472870E+04  0.7818609E-02  0.8412715E-01
       -1   -1    0    0    0  501  0.00000000000E+00  0.00000000000E+00  0.77851856096E+03  0.77851856097E+03  0.50400001928E-02 0.  1.
        1   -1    0    0  501    0  0.00000000000E+00  0.00000000000E+00 -0.19636929653E+04  0.19636929653E+04  0.50400001928E-02 0. -1.
    10030    2    1    2    0    0  0.00000000000E+00  0.00000000000E+00 -0.11851744043E+04  0.27422115262E+04  0.24728699291E+04 0.  0.
        1    1    3    3  502    0 -0.21750777342E+03 -0.24993399339E+03 -0.19135484549E+04  0.19420206801E+04  0.50400001928E-02 0. -1.
       -1    1    3    3    0  502  0.21750777342E+03  0.24993399339E+03  0.72837405064E+03  0.80019084613E+03  0.50400001928E-02 0.  1.
</event>
<event>
 5   0  0.2081874E-05  0.2371616E+04  0.7818609E-02  0.8450207E-01
        1   -1    0    0  501    0  0.00000000000E+00  0.00000000000E+00  0.13623251739E+04  0.13623251739E+04  0.50400001928E-02 0.  1.
       -1   -1    0    0    0  501  0.00000000000E+00  0.00000000000E+00 -0.10321625398E+04  0.10321625398E+04  0.50400001928E-02 0. -1.
    10030    2    1    2    0    0  0.00000000000E+00  0.00000000000E+00  0.33016263407E+03  0.23944877137E+04  0.23716163362E+04 0.  0.
        1    1    3    3  502    0  0.49060093177E+03  0.22011510752E+03  0.12321563920E+04  0.13443769223E+04  0.50400001928E-02 0.  1.
       -1    1    3    3    0  502 -0.49060093177E+03 -0.22011510752E+03 -0.90199375796E+03  0.10501107914E+04  0.50400001928E-02 0. -1.
</event>
<event>
 5   0  0.2081874E-05  0.2506171E+04  0.7818609E-02  0.8400790E-01
        1   -1    0    0  501    0  0.00000000000E+00  0.00000000000E+00  0.15856823823E+04  0.15856823823E+04  0.50400001928E-02 0. -1.
       -1   -1    0    0    0  501  0.00000000000E+00  0.00000000000E+00 -0.99025115387E+03  0.99025115388E+03  0.50400001928E-02 0.  1.
    10030    2    1    2    0    0  0.00000000000E+00  0.00000000000E+00  0.59543122842E+03  0.25759335362E+04  0.25061714297E+04 0.  0.
        1    1    3    3  502    0 -0.32049042635E+03  0.11469247511E+04 -0.10310530414E+03  0.11953163606E+04  0.50400001928E-02 0.  1.
       -1    1    3    3    0  502  0.32049042635E+03 -0.11469247511E+04  0.69853653256E+03  0.13806171756E+04  0.50400001928E-02 0. -1.
</event>
<event>
 5   0  0.2036578E-05  0.2505160E+04  0.7818609E-02  0.8401150E-01
        1   -1    0    0  501    0  0.00000000000E+00  0.00000000000E+00  0.10944556245E+04  0.10944556245E+04  0.50400001928E-02 0.  1.
       -1   -1    0    0    0  501  0.00000000000E+00  0.00000000000E+00 -0.14335493021E+04  0.14335493021E+04  0.50400001928E-02 0. -1.
    10030    2    1    2    0    0  0.00000000000E+00  0.00000000000E+00 -0.33909367754E+03  0.25280049266E+04  0.25051595532E+04 0.  0.
        2    1    3    3  502    0  0.55681607008E+03 -0.22282467359E+03  0.94014545632E+03  0.11151540029E+04  0.25500000920E-02 0.  1.
       -2    1    3    3    0  502 -0.55681607008E+03  0.22282467359E+03 -0.12792391339E+04  0.14128509237E+04  0.25500000920E-02 0. -1.
</event>
<event>
 5   0  0.2066170E-05  0.2486705E+04  0.7818609E-02  0.8407737E-01
        1   -1    0    0  501    0  0.00000000000E+00  0.00000000000E+00  0.15699605415E+04  0.15699605415E+04  0.50400001928E-02 0.  1.
       -1   -1    0    0    0  501  0.00000000000E+00  0.00000000000E+00 -0.98469094487E+03  0.98469094488E+03  0.50400001928E-02 0. -1.
    10030    2    1    2    0    0  0.00000000000E+00  0.00000000000E+00  0.58526959667E+03  0.25546514864E+04  0.24867053940E+04 0.  0.
        5    1    3    3  502    0  0.47409037850E+02  0.12903064560E+03  0.15621207025E+04  0.15681644377E+04  0.46999998093E+01 0.  1.
       -5    1    3    3    0  502 -0.47409037850E+02 -0.12903064560E+03 -0.97685110584E+03  0.98648704876E+03  0.46999998093E+01 0. -1.
</event>
<event>
 5   0  0.4959347E-05  0.2610628E+04  0.7818609E-02  0.8364600E-01
        2   -1    0    0  501    0  0.00000000000E+00  0.00000000000E+00  0.25260584987E+04  0.25260584987E+04  0.25500000920E-02 0. -1.
       -2   -1    0    0    0  501  0.00000000000E+00  0.00000000000E+00 -0.67450715751E+03  0.67450715752E+03  0.25500000920E-02 0.  1.
    10030    2    1    2    0    0  0.00000000000E+00  0.00000000000E+00  0.18515513412E+04  0.32005656562E+04  0.26106279227E+04 0.  0.
        3    1    3    3  502    0  0.31564795238E+03  0.45419700925E+03  0.23752892749E+04  0.24388373670E+04  0.10100000352E+00 0. -1.
       -3    1    3    3    0  502 -0.31564795238E+03 -0.45419700925E+03 -0.52373793376E+03  0.76172828917E+03  0.10100000352E+00 0.  1.
</event>
<event>
 5   0  0.2063930E-05  0.2513075E+04  0.7818609E-02  0.8398342E-01
        1   -1    0    0  501    0  0.00000000000E+00  0.00000000000E+00  0.13172574167E+04  0.13172574167E+04  0.50400001928E-02 0. -1.
       -1   -1    0    0    0  501  0.00000000000E+00  0.00000000000E+00 -0.11986163138E+04  0.11986163138E+04  0.50400001928E-02 0.  1.
    10030    2    1    2    0    0  0.00000000000E+00  0.00000000000E+00  0.11864110294E+03  0.25158737305E+04  0.25130747932E+04 0.  0.
        3    1    3    3  502    0  0.24817243803E+03 -0.20844432176E+03  0.12746939298E+04  0.13152502496E+04  0.10100000352E+00 0. -1.
       -3    1    3    3    0  502 -0.24817243803E+03  0.20844432176E+03 -0.11560528268E+04  0.12006234809E+04  0.10100000352E+00 0.  1.
</event>
<event>
 5   0  0.2036578E-05  0.2451997E+04  0.7818609E-02  0.8420289E-01
       -1   -1    0    0    0  501  0.00000000000E+00  0.00000000000E+00  0.22622169795E+04  0.22622169795E+04  0.50400001928E-02 0. -1.
        1   -1    0    0  501    0  0.00000000000E+00  0.00000000000E+00 -0.66442428132E+03  0.66442428134E+03  0.50400001928E-02 0.  1.
    10030    2    1    2    0    0  0.00000000000E+00  0.00000000000E+00  0.15977926982E+04  0.29266412609E+04  0.24519966483E+04 0.  0.
        2    1    3    3  502    0  0.10539956494E+04 -0.31599663778E+03  0.15358049182E+03  0.11110120033E+04  0.25500000920E-02 0. -1.
       -2    1    3    3    0  502 -0.10539956494E+04  0.31599663778E+03  0.14442122064E+04  0.18156292576E+04  0.25500000920E-02 0.  1.
</event>
<event>
 5   0  0.5024070E-05  0.2539897E+04  0.7818609E-02  0.8388908E-01
       -2   -1    0    0    0  501  0.00000000000E+00  0.00000000000E+00  0.96065810367E+03  0.96065810368E+03  0.25500000920E-02 0. -1.
        2   -1    0    0  501    0  0.00000000000E+00  0.00000000000E+00 -0.16788164816E+04  0.16788164816E+04  0.25500000920E-02 0.  1.
    10030    2    1    2    0    0  0.00000000000E+00  0.00000000000E+00 -0.71815837797E+03  0.26394745853E+04  0.25398965787E+04 0.  0.
        5    1    3    3  502    0  0.23197440829E+03  0.97558723381E+03 -0.11688357117E+04  0.15400589560E+04  0.46999998093E+01 0.  1.
       -5    1    3    3    0  502 -0.23197440829E+03 -0.97558723381E+03  0.45067733376E+03  0.10994156293E+04  0.46999998093E+01 0. -1.
</event>
<event>
 5   0  0.4959347E-05  0.2441759E+04  0.7818609E-02  0.8424033E-01
       -2   -1    0    0    0  501  0.00000000000E+00  0.00000000000E+00  0.78554387425E+03  0.78554387426E+03  0.25500000920E-02 0. -1.
        2   -1    0    0  501    0  0.00000000000E+00  0.00000000000E+00 -0.18974709487E+04  0.18974709487E+04  0.25500000920E-02 0.  1.
    10030    2    1    2    0    0  0.00000000000E+00  0.00000000000E+00 -0.11119270744E+04  0.26830148229E+04  0.24417589400E+04 0.  0.
        3    1    3    3  502    0 -0.50703762838E+03  0.55468096732E+03 -0.16132098650E+04  0.17796640724E+04  0.10100000352E+00 0.  1.
       -3    1    3    3    0  502  0.50703762838E+03 -0.55468096732E+03  0.50128279055E+03  0.90335075049E+03  0.10100000352E+00 0. -1.
</event>
<event>
 5   0  0.2081874E-05  0.2423751E+04  0.7818609E-02  0.8430665E-01
       -1   -1    0    0    0  501  0.00000000000E+00  0.00000000000E+00  0.76270593066E+03  0.76270593068E+03  0.50400001928E-02 0.  1.
        1   -1    0    0  501    0  0.00000000000E+00  0.00000000000E+00 -0.19255677646E+04  0.19255677646E+04  0.50400001928E-02 0. -1.
    10030    2    1    2    0    0  0.00000000000E+00  0.00000000000E+00 -0.11628618340E+04  0.26882736953E+04  0.24237507743E+04 0.  0.
        1    1    3    3  502    0  0.11700827173E+04 -0.91032875204E+02 -0.91649594015E+03  0.14890753366E+04  0.50400001928E-02 0. -1.
       -1    1    3    3    0  502 -0.11700827173E+04  0.91032875204E+02 -0.24636589380E+03  0.11991983587E+04  0.50400001928E-02 0.  1.
</event>
<event>
 5   0  0.4959042E-05  0.2396529E+04  0.7818609E-02  0.8440804E-01
       -2   -1    0    0    0  501  0.00000000000E+00  0.00000000000E+00  0.83698715532E+03  0.83698715532E+03  0.25500000920E-02 0. -1.
        2   -1    0    0  501    0  0.00000000000E+00  0.00000000000E+00 -0.17154830636E+04  0.17154830636E+04  0.25500000920E-02 0.  1.
    10030    2    1    2    0    0  0.00000000000E+00  0.00000000000E+00 -0.87849590826E+03  0.25524702189E+04  0.23965285639E+04 0.  0.
        4    1    3    3  502    0 -0.77777825652E+03 -0.59545487840E+03  0.29582781819E+03  0.10232405580E+04  0.12699999809E+01 0. -1.
       -4    1    3    3    0  502  0.77777825652E+03  0.59545487840E+03 -0.11743237264E+04  0.15292296609E+04  0.12699999809E+01 0.  1.
</event>
<event>
 5   0  0.5219468E-05  0.2490957E+04  0.7818609E-02  0.8406214E-01
       -2   -1    0    0    0  501  0.00000000000E+00  0.00000000000E+00  0.17749544890E+04  0.17749544890E+04  0.25500000920E-02 0. -1.
        2   -1    0    0  501    0  0.00000000000E+00  0.00000000000E+00 -0.87394711073E+03  0.87394711074E+03  0.25500000920E-02 0.  1.
    10030    2    1    2    0    0  0.00000000000E+00  0.00000000000E+00  0.90100737823E+03  0.26489015997E+04  0.24909567217E+04 0.  0.
        1    1    3    3  502    0  0.46958744390E+03  0.11258674588E+04  0.18332284980E+03  0.12335709017E+04  0.50400001928E-02 0. -1.
       -1    1    3    3    0  502 -0.46958744390E+03 -0.11258674588E+04  0.71768452843E+03  0.14153306980E+04  0.50400001928E-02 0.  1.
</event>
<event>
 5   0  0.4959347E-05  0.2497741E+04  0.7818609E-02  0.8403791E-01
        2   -1    0    0  501    0  0.00000000000E+00  0.00000000000E+00  0.24366669939E+04  0.24366669939E+04  0.25500000920E-02 0.  1.
       -2   -1    0    0    0  501  0.00000000000E+00  0.00000000000E+00 -0.64008658316E+03  0.64008658316E+03  0.25500000920E-02 0. -1.
    10030    2    1    2    0    0  0.00000000000E+00  0.00000000000E+00  0.17965804108E+04  0.30767535771E+04  0.24977412600E+04 0.  0.
        3    1    3    3  502    0  0.11941177391E+04  0.19580953710E+02  0.13481592893E+04  0.18010647040E+04  0.10100000352E+00 0. -1.
       -3    1    3    3    0  502 -0.11941177391E+04 -0.19580953710E+02  0.44842112150E+03  0.12756888731E+04  0.10100000352E+00 0.  1.
</event>
<event>
 5   0  0.2066170E-05  0.2506521E+04  0.7818609E-02  0.8400666E-01
        1   -1    0    0  501    0  0.00000000000E+00  0.00000000000E+00  0.16775184969E+04  0.16775184969E+04  0.50400001928E-02 0. -1.
       -1   -1    0    0    0  501  0.00000000000E+00  0.00000000000E+00 -0.93630066098E+03  0.93630066100E+03  0.50400001928E-02 0.  1.
    10030    2    1    2    0    0  0.00000000000E+00  0.00000000000E+00  0.74121783588E+03  0.26138191579E+04  0.25065208377E+04 0.  0.
        5    1    3    3  502    0 -0.98711311900E+03 -0.76514721367E+03  0.26225212229E+03  0.12761821320E+04  0.46999998093E+01 0. -1.
       -5    1    3    3    0  502  0.98711311900E+03  0.76514721367E+03  0.47896571359E+03  0.13376370259E+04  0.46999998093E+01 0.  1.
</event>
<event>
 5   0  0.2036578E-05  0.2492323E+04  0.7818609E-02  0.8405725E-01
        1   -1    0    0  501    0  0.00000000000E+00  0.00000000000E+00  0.17473761662E+04  0.17473761662E+04  0.50400001928E-02 0. -1.
       -1   -1    0    0    0  501  0.00000000000E+00  0.00000000000E+00 -0.88871475014E+03  0.88871475015E+03  0.50400001928E-02 0.  1.
    10030    2    1    2    0    0  0.00000000000E+00  0.00000000000E+00  0.85866141604E+03  0.26360909163E+04  0.24923233923E+04 0.  0.
        2    1    3    3  502    0  0.39912297805E+03  0.11538240033E+04  0.69334949694E+03  0.14040450516E+04  0.25500000920E-02 0. -1.
       -2    1    3    3    0  502 -0.39912297805E+03 -0.11538240033E+04  0.16531191909E+03  0.12320458647E+04  0.25500000920E-02 0.  1.
</event>
<event>
 5   0  0.2063930E-05  0.2516965E+04  0.7818609E-02  0.8396966E-01
       -1   -1    0    0    0  501  0.00000000000E+00  0.00000000000E+00  0.12659800210E+04  0.12659800210E+04  0.50400001928E-02 0. -1.
        1   -1    0    0  501    0  0.00000000000E+00  0.00000000000E+00 -0.12510294222E+04  0.12510294222E+04  0.50400001928E-02 0.  1.
    10030    2    1    2    0    0  0.00000000000E+00  0.00000000000E+00  0.14950598719E+02  0.25170094432E+04  0.25169650408E+04 0.  0.
        3    1    3    3  502    0 -0.11562521037E+04 -0.22815467348E+03  0.44885000956E+03  0.12611264107E+04  0.10100000352E+00 0. -1.
       -3    1    3    3    0  502  0.11562521037E+04  0.22815467348E+03 -0.43389941084E+03  0.12558830325E+04  0.10100000352E+00 0.  1.
</event>
<event>
 5   0  0.4995256E-05  0.2518497E+04  0.7818609E-02  0.8396425E-01
       -2   -1    0    0    0  501  0.00000000000E+00  0.00000000000E+00  0.10656876575E+04  0.10656876575E+04  0.25500000920E-02 0.  1.
        2   -1    0    0  501    0  0.00000000000E+00  0.00000000000E+00 -0.14879661353E+04  0.14879661353E+04  0.25500000920E-02 0. -1.
    10030    2    1    2    0    0  0.00000000000E+00  0.00000000000E+00 -0.42227847781E+03  0.25536537928E+04  0.25184972863E+04 0.  0.
        2    1    3    3  502    0 -0.63557024875E+03  0.19132106054E+03  0.87391750575E+03  0.10973992419E+04  0.25500000920E-02 0.  1.
       -2    1    3    3    0  502  0.63557024875E+03 -0.19132106054E+03 -0.12961959836E+04  0.14562545509E+04  0.25500000920E-02 0. -1.
</event>
<event>
 5   0  0.4959042E-05  0.2473354E+04  0.7818609E-02  0.8412540E-01
       -2   -1    0    0    0  501  0.00000000000E+00  0.00000000000E+00  0.88498340986E+03  0.88498340987E+03  0.25500000920E-02 0. -1.
        2   -1    0    0  501    0  0.00000000000E+00  0.00000000000E+00 -0.17281334315E+04  0.17281334315E+04  0.25500000920E-02 0.  1.
    10030    2    1    2    0    0  0.00000000000E+00  0.00000000000E+00 -0.84315002165E+03  0.26131168414E+04  0.24733535266E+04 0.  0.
        4    1    3    3  502    0  0.57407551515E+02  0.93278385630E+03  0.43412210562E+03  0.10304586188E+04  0.12699999809E+01 0. -1.
       -4    1    3    3    0  502 -0.57407551515E+02 -0.93278385630E+03 -0.12772721273E+04  0.15826582226E+04  0.12699999809E+01 0.  1.
</event>
<event>
 5   0  0.2036578E-05  0.2309707E+04  0.7818609E-02  0.8474104E-01
        1   -1    0    0  501    0  0.00000000000E+00  0.00000000000E+00  0.13098629174E+04  0.13098629174E+04  0.50400001928E-02 0. -1.
       -1   -1    0    0    0  501  0.00000000000E+00  0.00000000000E+00 -0.10181880793E+04  0.10181880793E+04  0.50400001928E-02 0.  1.
    10030    2    1    2    0    0  0.00000000000E+00  0.00000000000E+00  0.29167483808E+03  0.23280509967E+04  0.23097071745E+04 0.  0.
        2    1    3    3  502    0  0.46343809754E+03  0.15408851307E+03 -0.90897703256E+03  0.10318708184E+04  0.25500000920E-02 0.  1.
       -2    1    3    3    0  502 -0.46343809754E+03 -0.15408851307E+03  0.12006518706E+04  0.12961801783E+04  0.25500000920E-02 0. -1.
</event>
<event>
 5   0  0.2066170E-05  0.2051210E+04  0.7818609E-02  0.8583045E-01
        1   -1    0    0  501    0  0.00000000000E+00  0.00000000000E+00  0.12482108599E+04  0.12482108599E+04  0.50400001928E-02 0.  1.
       -1   -1    0    0    0  501  0.00000000000E+00  0.00000000000E+00 -0.84269905133E+03  0.84269905135E+03  0.50400001928E-02 0. -1.
    10030    2    1    2    0    0  0.00000000000E+00  0.00000000000E+00  0.40551180854E+03  0.20909099112E+04  0.20512104792E+04 0.  0.
        5    1    3    3  502    0 -0.93822730485E+03  0.30795159802E+03 -0.79624247673E+02  0.99069004896E+03  0.46999998093E+01 0. -1.
       -5    1    3    3    0  502  0.93822730485E+03 -0.30795159802E+03  0.48513605621E+03  0.11002198623E+04  0.46999998093E+01 0.  1.
</event>
<event>
 5   0  0.2036578E-05  0.1877309E+04  0.7818609E-02  0.8666234E-01
       -1   -1    0    0    0  501  0.00000000000E+00  0.00000000000E+00  0.92539138360E+03  0.92539138361E+03  0.50400001928E-02 0.  1.
        1   -1    0    0  501    0  0.00000000000E+00  0.00000000000E+00 -0.95210735429E+03  0.95210735430E+03  0.50400001928E-02 0. -1.
    10030    2    1    2    0    0  0.00000000000E+00  0.00000000000E+00 -0.26715970689E+02  0.18774987379E+04  0.18773086501E+04 0.  0.
        2    1    3    3  502    0  0.86378374893E+03 -0.30634541838E+03 -0.21611494752E+03  0.94163451021E+03  0.25500000920E-02 0. -1.
       -2    1    3    3    0  502 -0.86378374893E+03  0.30634541838E+03  0.18939897684E+03  0.93586422771E+03  0.25500000920E-02 0.  1.
</event>
<event>
 5   0  0.4995256E-05  0.1627633E+04  0.7818609E-02  0.8803750E-01
       -2   -1    0    0    0  501  0.00000000000E+00  0.00000000000E+00  0.59228039941E+03  0.59228039941E+03  0.25500000920E-02 0. -1.
        2   -1    0    0  501    0  0.00000000000E+00  0.00000000000E+00 -0.11182151760E+04  0.11182151760E+04  0.25500000920E-02 0.  1.
    10030    2    1    2    0    0  0.00000000000E+00  0.00000000000E+00 -0.52593477656E+03  0.17104955754E+04  0.16276325520E+04 0.  0.
        2    1    3    3  502    0 -0.76762248393E+03  0.26784353519E+03 -0.22489463980E+03  0.84354136602E+03  0.25500000920E-02 0. -1.
       -2    1    3    3    0  502  0.76762248393E+03 -0.26784353519E+03 -0.30104013676E+03  0.86695420936E+03  0.25500000920E-02 0.  1.
</event>
<event>
 5   0  0.4959347E-05  0.2476051E+04  0.7818609E-02  0.8411568E-01
       -2   -1    0    0    0  501  0.00000000000E+00  0.00000000000E+00  0.86044631375E+03  0.86044631376E+03  0.25500000920E-02 0. -1.
        2   -1    0    0  501    0  0.00000000000E+00  0.00000000000E+00 -0.17812927563E+04  0.17812927563E+04  0.25500000920E-02 0.  1.
    10030    2    1    2    0    0  0.00000000000E+00  0.00000000000E+00 -0.92084644258E+03  0.26417390701E+04  0.24760507151E+04 0.  0.
        3    1    3    3  502    0 -0.11622706568E+04 -0.16315845822E+03 -0.40089290573E+02  0.11743512777E+04  0.10100000352E+00 0. -1.
       -3    1    3    3    0  502  0.11622706568E+04  0.16315845822E+03 -0.88075715201E+03  0.14673877923E+04  0.10100000352E+00 0.  1.
</event>
<event>
 5   0  0.4995256E-05  0.2465780E+04  0.7818609E-02  0.8415279E-01
        2   -1    0    0  501    0  0.00000000000E+00  0.00000000000E+00  0.16702198656E+04  0.16702198656E+04  0.25500000920E-02 0. -1.
       -2   -1    0    0    0  501  0.00000000000E+00  0.00000000000E+00 -0.91007018392E+03  0.91007018392E+03  0.25500000920E-02 0.  1.
    10030    2    1    2    0    0  0.00000000000E+00  0.00000000000E+00  0.76014968164E+03  0.25802900495E+04  0.24657796335E+04 0.  0.
        2    1    3    3  502    0 -0.92211140417E+03 -0.64472221188E+03 -0.14737768633E+03  0.11347582803E+04  0.25500000920E-02 0.  1.
       -2    1    3    3    0  502  0.92211140417E+03  0.64472221188E+03  0.90752736797E+03  0.14455317692E+04  0.25500000920E-02 0. -1.
</event>
<event>
 5   0  0.2063930E-05  0.2483898E+04  0.7818609E-02  0.8408745E-01
       -1   -1    0    0    0  501  0.00000000000E+00  0.00000000000E+00  0.12578576750E+04  0.12578576750E+04  0.50400001928E-02 0. -1.
        1   -1    0    0  501    0  0.00000000000E+00  0.00000000000E+00 -0.12262413241E+04  0.12262413241E+04  0.50400001928E-02 0.  1.
    10030    2    1    2    0    0  0.00000000000E+00  0.00000000000E+00  0.31616350837E+02  0.24840989991E+04  0.24838977925E+04 0.  0.
        3    1    3    3  502    0  0.67278863775E+03 -0.38789325036E+03  0.98507775196E+03  0.12543858706E+04  0.10100000352E+00 0. -1.
       -3    1    3    3    0  502 -0.67278863775E+03  0.38789325036E+03 -0.95346140112E+03  0.12297131285E+04  0.10100000352E+00 0.  1.
</event>
<event>
 5   0  0.2066170E-05  0.2392494E+04  0.7818609E-02  0.8442319E-01
        1   -1    0    0  501    0  0.00000000000E+00  0.00000000000E+00  0.25489481770E+04  0.25489481770E+04  0.50400001928E-02 0.  1.
       -1   -1    0    0    0  501  0.00000000000E+00  0.00000000000E+00 -0.56141081789E+03  0.56141081791E+03  0.50400001928E-02 0. -1.
    10030    2    1    2    0    0  0.00000000000E+00  0.00000000000E+00  0.19875373591E+04  0.31103589949E+04  0.23924941637E+04 0.  0.
        5    1    3    3  502    0  0.88390118576E+02  0.11394125013E+04  0.14532422620E+04  0.18487857699E+04  0.46999998093E+01 0.  1.
       -5    1    3    3    0  502 -0.88390118576E+02 -0.11394125013E+04  0.53429509714E+03  0.12615732250E+04  0.46999998093E+01 0. -1.
</event>
<event>
 5   0  0.5024070E-05  0.2451007E+04  0.7818609E-02  0.8420650E-01
        2   -1    0    0  501    0  0.00000000000E+00  0.00000000000E+00  0.20883706709E+04  0.20883706709E+04  0.25500000920E-02 0.  1.
       -2   -1    0    0    0  501  0.00000000000E+00  0.00000000000E+00 -0.71915335860E+03  0.71915335860E+03  0.25500000920E-02 0. -1.
    10030    2    1    2    0    0  0.00000000000E+00  0.00000000000E+00  0.13692173123E+04  0.28075240295E+04  0.24510069620E+04 0.  0.
        5    1    3    3  502    0  0.19361323439E+03 -0.53597760718E+03 -0.55813533359E+03  0.79768115217E+03  0.46999998093E+01 0. -1.
       -5    1    3    3    0  502 -0.19361323439E+03  0.53597760718E+03  0.19273526459E+04  0.20098428773E+04  0.46999998093E+01 0.  1.
</event>
<event>
 5   0  0.2066170E-05  0.2483333E+04  0.7818609E-02  0.8408947E-01
        1   -1    0    0  501    0  0.00000000000E+00  0.00000000000E+00  0.14530989559E+04  0.14530989559E+04  0.50400001928E-02 0.  1.
       -1   -1    0    0    0  501  0.00000000000E+00  0.00000000000E+00 -0.10609983176E+04  0.10609983176E+04  0.50400001928E-02 0. -1.
    10030    2    1    2    0    0  0.00000000000E+00  0.00000000000E+00  0.39210063830E+03  0.25140972735E+04  0.24833328794E+04 0.  0.
        5    1    3    3  502    0  0.69659687316E+03 -0.94404666429E+03 -0.21548541944E+03  0.11928651911E+04  0.46999998093E+01 0. -1.
       -5    1    3    3    0  502 -0.69659687316E+03  0.94404666429E+03  0.60758605774E+03  0.13212320824E+04  0.46999998093E+01 0.  1.
</event>
<event>
 5   0  0.2036578E-05  0.2486315E+04  0.7818609E-02  0.8407877E-01
       -1   -1    0    0    0  501  0.00000000000E+00  0.00000000000E+00  0.97417689571E+03  0.97417689572E+03  0.50400001928E-02 0. -1.
        1   -1    0    0  501    0  0.00000000000E+00  0.00000000000E+00 -0.15864059389E+04  0.15864059389E+04  0.50400001928E-02 0.  1.
    10030    2    1    2    0    0  0.00000000000E+00  0.00000000000E+00 -0.61222904319E+03  0.25605828346E+04  0.24863145520E+04 0.  0.
        2    1    3    3  502    0  0.11139273292E+04  0.23498283739E+03  0.20819124182E+03  0.11573221772E+04  0.25500000920E-02 0. -1.
       -2    1    3    3    0  502 -0.11139273292E+04 -0.23498283739E+03 -0.82042028502E+03  0.14032606574E+04  0.25500000920E-02 0.  1.
</event>
<event>
 5   0  0.5024070E-05  0.2365984E+04  0.7818609E-02  0.8452350E-01
        2   -1    0    0  501    0  0.00000000000E+00  0.00000000000E+00  0.35091134850E+04  0.35091134850E+04  0.25500000920E-02 0.  1.
       -2   -1    0    0    0  501  0.00000000000E+00  0.00000000000E+00 -0.39881000200E+03  0.39881000201E+03  0.25500000920E-02 0. -1.
    10030    2    1    2    0    0  0.00000000000E+00  0.00000000000E+00  0.31103034830E+04  0.39079234870E+04  0.23659835637E+04 0.  0.
        5    1    3    3  502    0 -0.39302983441E+03 -0.38804202031E+03 -0.17276198495E+03  0.57872087720E+03  0.46999998093E+01 0. -1.
       -5    1    3    3    0  502  0.39302983441E+03  0.38804202031E+03  0.32830654679E+04  0.33292026098E+04  0.46999998093E+01 0.  1.
</event>
<event>
 5   0  0.2081874E-05  0.2245634E+04  0.7818609E-02  0.8499671E-01
       -1   -1    0    0    0  501  0.00000000000E+00  0.00000000000E+00  0.10106347390E+04  0.10106347391E+04  0.50400001928E-02 0.  1.
        1   -1    0    0  501    0  0.00000000000E+00  0.00000000000E+00 -0.12474513221E+04  0.12474513221E+04  0.50400001928E-02 0. -1.
    10030    2    1    2    0    0  0.00000000000E+00  0.00000000000E+00 -0.23681658307E+03  0.22580860612E+04  0.22456336669E+04 0.  0.
        1    1    3    3  502    0  0.84327194861E+03 -0.74071766094E+03 -0.14935897890E+03  0.11322889813E+04  0.50400001928E-02 0.  1.
       -1    1    3    3    0  502 -0.84327194861E+03  0.74071766094E+03 -0.87457604176E+02  0.11257970799E+04  0.50400001928E-02 0. -1.
</event>
<event>
 5   0  0.4959347E-05  0.2482403E+04  0.7818609E-02  0.8409281E-01
       -2   -1    0    0    0  501  0.00000000000E+00  0.00000000000E+00  0.13894589214E+04  0.13894589214E+04  0.25500000920E-02 0. -1.
        2   -1    0    0  501    0  0.00000000000E+00  0.00000000000E+00 -0.11087634914E+04  0.11087634914E+04  0.25500000920E-02 0.  1.
    10030    2    1    2    0    0  0.00000000000E+00  0.00000000000E+00  0.28069542995E+03  0.24982224128E+04  0.24824031299E+04 0.  0.
        3    1    3    3  502    0  0.10049056416E+03  0.58436468421E+03 -0.95701418516E+03  0.11258137494E+04  0.10100000352E+00 0.  1.
       -3    1    3    3    0  502 -0.10049056416E+03 -0.58436468421E+03  0.12377096151E+04  0.13724086633E+04  0.10100000352E+00 0. -1.
</event>
<event>
 5   0  0.5219468E-05  0.2510933E+04  0.7818609E-02  0.8399101E-01
       -2   -1    0    0    0  501  0.00000000000E+00  0.00000000000E+00  0.12364558093E+04  0.12364558093E+04  0.25500000920E-02 0. -1.
        2   -1    0    0  501    0  0.00000000000E+00  0.00000000000E+00 -0.12747697950E+04  0.12747697950E+04  0.25500000920E-02 0.  1.
    10030    2    1    2    0    0  0.00000000000E+00  0.00000000000E+00 -0.38313985710E+02  0.25112256043E+04  0.25109333074E+04 0.  0.
        1    1    3    3  502    0  0.39881511737E+03  0.69750486458E+03  0.94564695915E+03  0.12408927050E+04  0.50400001928E-02 0. -1.
       -1    1    3    3    0  502 -0.39881511737E+03 -0.69750486458E+03 -0.98396094486E+03  0.12703328993E+04  0.50400001928E-02 0.  1.
</event>
<event>
 5   0  0.4959347E-05  0.2529981E+04  0.7818609E-02  0.8392382E-01
        2   -1    0    0  501    0  0.00000000000E+00  0.00000000000E+00  0.15957339473E+04  0.15957339473E+04  0.25500000920E-02 0.  1.
       -2   -1    0    0    0  501  0.00000000000E+00  0.00000000000E+00 -0.10027993159E+04  0.10027993159E+04  0.25500000920E-02 0. -1.
    10030    2    1    2    0    0  0.00000000000E+00  0.00000000000E+00  0.59293463139E+03  0.25985332633E+04  0.25299809571E+04 0.  0.
        3    1    3    3  502    0 -0.62770382667E+03  0.10170400846E+04 -0.12927390673E+03  0.12021207846E+04  0.10100000352E+00 0.  1.
       -3    1    3    3    0  502  0.62770382667E+03 -0.10170400846E+04  0.72220853812E+03  0.13964124786E+04  0.10100000352E+00 0. -1.
</event>
<event>
 5   0  0.2036578E-05  0.2525067E+04  0.7818609E-02  0.8394110E-01
       -1   -1    0    0    0  501  0.00000000000E+00  0.00000000000E+00  0.14974388669E+04  0.14974388669E+04  0.50400001928E-02 0. -1.
        1   -1    0    0  501    0  0.00000000000E+00  0.00000000000E+00 -0.10644776752E+04  0.10644776753E+04  0.50400001928E-02 0.  1.
    10030    2    1    2    0    0  0.00000000000E+00  0.00000000000E+00  0.43296119161E+03  0.25619165421E+04  0.25250665289E+04 0.  0.
        2    1    3    3  502    0 -0.61397825380E+03 -0.92585873612E+03  0.82507321965E+03  0.13838097821E+04  0.25500000920E-02 0. -1.
       -2    1    3    3    0  502  0.61397825380E+03  0.92585873612E+03 -0.39211202804E+03  0.11781067600E+04  0.25500000920E-02 0.  1.
</event>
<event>
 5   0  0.4959042E-05  0.2491106E+04  0.7818609E-02  0.8406161E-01
        2   -1    0    0  501    0  0.00000000000E+00  0.00000000000E+00  0.13078821670E+04  0.13078821670E+04  0.25500000920E-02 0.  1.
       -2   -1    0    0    0  501  0.00000000000E+00  0.00000000000E+00 -0.11861937735E+04  0.11861937735E+04  0.25500000920E-02 0. -1.
    10030    2    1    2    0    0  0.00000000000E+00  0.00000000000E+00  0.12168839357E+03  0.24940759405E+04  0.24911055240E+04 0.  0.
        4    1    3    3  502    0  0.69968679446E+03  0.63654715366E+03 -0.75045913492E+03  0.12074536907E+04  0.12699999809E+01 0. -1.
       -4    1    3    3    0  502 -0.69968679446E+03 -0.63654715366E+03  0.87214752849E+03  0.12866222497E+04  0.12699999809E+01 0.  1.
</event>
<event>
 5   0  0.2066170E-05  0.2482291E+04  0.7818609E-02  0.8409322E-01
       -1   -1    0    0    0  501  0.00000000000E+00  0.00000000000E+00  0.80547824105E+03  0.80547824107E+03  0.50400001928E-02 0. -1.
        1   -1    0    0  501    0  0.00000000000E+00  0.00000000000E+00 -0.19124570218E+04  0.19124570218E+04  0.50400001928E-02 0.  1.
    10030    2    1    2    0    0  0.00000000000E+00  0.00000000000E+00 -0.11069787807E+04  0.27179352628E+04  0.24822912948E+04 0.  0.
        5    1    3    3  502    0  0.22744825836E+03 -0.89903241293E+03 -0.14566762122E+04  0.17268235772E+04  0.46999998093E+01 0.  1.
       -5    1    3    3    0  502 -0.22744825836E+03  0.89903241293E+03  0.34969743148E+03  0.99111168560E+03  0.46999998093E+01 0. -1.
</event>
<event>
 5   0  0.2036578E-05  0.2467954E+04  0.7818609E-02  0.8414492E-01
       -1   -1    0    0    0  501  0.00000000000E+00  0.00000000000E+00  0.92282959820E+03  0.92282959822E+03  0.50400001928E-02 0.  1.
        1   -1    0    0  501    0  0.00000000000E+00  0.00000000000E+00 -0.16500331327E+04  0.16500331327E+04  0.50400001928E-02 0. -1.
    10030    2    1    2    0    0  0.00000000000E+00  0.00000000000E+00 -0.72720353452E+03  0.25728627309E+04  0.24679541429E+04 0.  0.
        2    1    3    3  502    0  0.10590682960E+04 -0.62629554960E+03 -0.46155119086E+03  0.13141161565E+04  0.25500000920E-02 0. -1.
       -2    1    3    3    0  502 -0.10590682960E+04  0.62629554960E+03 -0.26565234365E+03  0.12587465744E+04  0.25500000920E-02 0.  1.
</event>
<event>
 5   0  0.2036578E-05  0.2485304E+04  0.7818609E-02  0.8408240E-01
        1   -1    0    0  501    0  0.00000000000E+00  0.00000000000E+00  0.13203056375E+04  0.13203056375E+04  0.50400001928E-02 0. -1.
       -1   -1    0    0    0  501  0.00000000000E+00  0.00000000000E+00 -0.11695659867E+04  0.11695659868E+04  0.50400001928E-02 0.  1.
    10030    2    1    2    0    0  0.00000000000E+00  0.00000000000E+00  0.15073965079E+03  0.24898716243E+04  0.24853044608E+04 0.  0.
        2    1    3    3  502    0 -0.66093038683E+02 -0.10376853002E+04  0.75708005075E+03  0.12862073220E+04  0.25500000920E-02 0. -1.
       -2    1    3    3    0  502  0.66093038683E+02  0.10376853002E+04 -0.60634039997E+03  0.12036643023E+04  0.25500000920E-02 0.  1.
</event>
<event>
 5   0  0.2063930E-05  0.2741224E+04  0.7818609E-02  0.8321752E-01
       -1   -1    0    0    0  501  0.00000000000E+00  0.00000000000E+00  0.10423162291E+04  0.10423162291E+04  0.50400001928E-02 0.  1.
        1   -1    0    0  501    0  0.00000000000E+00  0.00000000000E+00 -0.18023104077E+04  0.18023104077E+04  0.50400001928E-02 0. -1.
    10030    2    1    2    0    0  0.00000000000E+00  0.00000000000E+00 -0.75999417864E+03  0.28446266368E+04  0.27412240972E+04 0.  0.
        3    1    3    3  502    0 -0.12975671551E+04  0.37558162954E+03 -0.62077369117E+03  0.14866412036E+04  0.10100000352E+00 0. -1.
       -3    1    3    3    0  502  0.12975671551E+04 -0.37558162954E+03 -0.13922048747E+03  0.13579854332E+04  0.10100000352E+00 0.  1.
</event>
<event>
 5   0  0.2066170E-05  0.2450910E+04  0.7818609E-02  0.8420686E-01
       -1   -1    0    0    0  501  0.00000000000E+00  0.00000000000E+00  0.11023717692E+04  0.11023717692E+04  0.50400001928E-02 0. -1.
        1   -1    0    0  501    0  0.00000000000E+00  0.00000000000E+00 -0.13622806180E+04  0.13622806180E+04  0.50400001928E-02 0.  1.
    10030    2    1    2    0    0  0.00000000000E+00  0.00000000000E+00 -0.25990884878E+03  0.24646523872E+04  0.24509097862E+04 0.  0.
        5    1    3    3  502    0  0.27203728142E+03 -0.33552645256E+03 -0.12831781551E+04  0.13539389021E+04  0.46999998093E+01 0.  1.
       -5    1    3    3    0  502 -0.27203728142E+03  0.33552645256E+03  0.10232693063E+04  0.11107134852E+04  0.46999998093E+01 0. -1.
</event>
<event>
 5   0  0.5024070E-05  0.2493357E+04  0.7818609E-02  0.8405356E-01
       -2   -1    0    0    0  501  0.00000000000E+00  0.00000000000E+00  0.69658226208E+03  0.69658226208E+03  0.25500000920E-02 0. -1.
        2   -1    0    0  501    0  0.00000000000E+00  0.00000000000E+00 -0.22311891888E+04  0.22311891888E+04  0.25500000920E-02 0.  1.
    10030    2    1    2    0    0  0.00000000000E+00  0.00000000000E+00 -0.15346069267E+04  0.29277714509E+04  0.24933566229E+04 0.  0.
        5    1    3    3  502    0 -0.46730204795E+03  0.13647504532E+03  0.58034514704E+03  0.75750856213E+03  0.46999998093E+01 0. -1.
       -5    1    3    3    0  502  0.46730204795E+03 -0.13647504532E+03 -0.21149520738E+04  0.21702628888E+04  0.46999998093E+01 0.  1.
</event>
<event>
 5   0  0.2081874E-05  0.2501306E+04  0.7818609E-02  0.8402520E-01
       -1   -1    0    0    0  501  0.00000000000E+00  0.00000000000E+00  0.77158765448E+03  0.77158765450E+03  0.50400001928E-02 0.  1.
        1   -1    0    0  501    0  0.00000000000E+00  0.00000000000E+00 -0.20271614282E+04  0.20271614282E+04  0.50400001928E-02 0. -1.
    10030    2    1    2    0    0  0.00000000000E+00  0.00000000000E+00 -0.12555737738E+04  0.27987490827E+04  0.25013058443E+04 0.  0.
        1    1    3    3  502    0 -0.17549736507E+03  0.90340713575E+03 -0.15753626902E+04  0.18244756462E+04  0.50400001928E-02 0. -1.
       -1    1    3    3    0  502  0.17549736507E+03 -0.90340713575E+03  0.31978891640E+03  0.97427343654E+03  0.50400001928E-02 0.  1.
</event>
<event>
 5   0  0.2066170E-05  0.2495856E+04  0.7818609E-02  0.8404463E-01
       -1   -1    0    0    0  501  0.00000000000E+00  0.00000000000E+00  0.94913472307E+03  0.94913472308E+03  0.50400001928E-02 0.  1.
        1   -1    0    0  501    0  0.00000000000E+00  0.00000000000E+00 -0.16407827249E+04  0.16407827249E+04  0.50400001928E-02 0. -1.
    10030    2    1    2    0    0  0.00000000000E+00  0.00000000000E+00 -0.69164800183E+03  0.25899174480E+04  0.24958556507E+04 0.  0.
        5    1    3    3  502    0 -0.90310370057E+03 -0.74274599561E+03 -0.79818166368E+03  0.14157626800E+04  0.46999998093E+01 0.  1.
       -5    1    3    3    0  502  0.90310370057E+03  0.74274599561E+03  0.10653366185E+03  0.11741547679E+04  0.46999998093E+01 0. -1.
</event>
<event>
 5   0  0.2041718E-05  0.2434516E+04  0.7818609E-02  0.8426693E-01
       -1   -1    0    0    0  501  0.00000000000E+00  0.00000000000E+00  0.12741653997E+04  0.12741653997E+04  0.50400001928E-02 0.  1.
        1   -1    0    0  501    0  0.00000000000E+00  0.00000000000E+00 -0.11628925508E+04  0.11628925508E+04  0.50400001928E-02 0. -1.
    10030    2    1    2    0    0  0.00000000000E+00  0.00000000000E+00  0.11127284887E+03  0.24370579505E+04  0.24345163395E+04 0.  0.
        4    1    3    3  502    0  0.11484074210E+04  0.22582066731E+03  0.39047218764E+03  0.12338171342E+04  0.12699999809E+01 0.  1.
       -4    1    3    3    0  502 -0.11484074210E+04 -0.22582066731E+03 -0.27919933877E+03  0.12032408163E+04  0.12699999809E+01 0. -1.
</event>
<event>
 5   0  0.2036578E-05  0.2490920E+04  0.7818609E-02  0.8406227E-01
        1   -1    0    0  501    0  0.00000000000E+00  0.00000000000E+00  0.12774940752E+04  0.12774940752E+04  0.50400001928E-02 0. -1.
       -1   -1    0    0    0  501  0.00000000000E+00  0.00000000000E+00 -0.12142294929E+04  0.12142294929E+04  0.50400001928E-02 0.  1.
    10030    2    1    2    0    0  0.00000000000E+00  0.00000000000E+00  0.63264582258E+02  0.24917235681E+04  0.24909202983E+04 0.  0.
        2    1    3    3  502    0 -0.57058397806E+03 -0.78481013737E+03 -0.74943827903E+03  0.12260304898E+04  0.25500000920E-02 0. -1.
       -2    1    3    3    0  502  0.57058397806E+03  0.78481013737E+03  0.81270286129E+03  0.12656930783E+04  0.25500000920E-02 0.  1.
</event>
<event>
 5   0  0.4995256E-05  0.2549862E+04  0.7818609E-02  0.8385434E-01
       -2   -1    0    0    0  501  0.00000000000E+00  0.00000000000E+00  0.91804008111E+03  0.91804008111E+03  0.25500000920E-02 0.  1.
        2   -1    0    0  501    0  0.00000000000E+00  0.00000000000E+00 -0.17705647617E+04  0.17705647617E+04  0.25500000920E-02 0. -1.
    10030    2    1    2    0    0  0.00000000000E+00  0.00000000000E+00 -0.85252468056E+03  0.26886048428E+04  0.25498622845E+04 0.  0.
        2    1    3    3  502    0  0.12650856642E+03 -0.57824511182E+02 -0.17625400425E+04  0.17680202185E+04  0.25500000920E-02 0. -1.
       -2    1    3    3    0  502 -0.12650856642E+03  0.57824511182E+02  0.91001536196E+03  0.92058462430E+03  0.25500000920E-02 0.  1.
</event>
<event>
 5   0  0.4959347E-05  0.2292424E+04  0.7818609E-02  0.8480914E-01
        2   -1    0    0  501    0  0.00000000000E+00  0.00000000000E+00  0.13089802172E+04  0.13089802172E+04  0.25500000920E-02 0. -1.
       -2   -1    0    0    0  501  0.00000000000E+00  0.00000000000E+00 -0.10036836410E+04  0.10036836410E+04  0.25500000920E-02 0.  1.
    10030    2    1    2    0    0  0.00000000000E+00  0.00000000000E+00  0.30529657620E+03  0.23126638582E+04  0.22924240711E+04 0.  0.
        3    1    3    3  502    0  0.50258199716E+03  0.21926979610E+03 -0.86278412610E+03  0.10222838969E+04  0.10100000352E+00 0.  1.
       -3    1    3    3    0  502 -0.50258199716E+03 -0.21926979610E+03  0.11680807023E+04  0.12903799613E+04  0.10100000352E+00 0. -1.
</event>
<event>
 5   0  0.4959042E-05  0.2491735E+04  0.7818609E-02  0.8405936E-01
        2   -1    0    0  501    0  0.00000000000E+00  0.00000000000E+00  0.11370816260E+04  0.11370816260E+04  0.25500000920E-02 0. -1.
       -2   -1    0    0    0  501  0.00000000000E+00  0.00000000000E+00 -0.13650606459E+04  0.13650606459E+04  0.25500000920E-02 0.  1.
    10030    2    1    2    0    0  0.00000000000E+00  0.00000000000E+00 -0.22797901991E+03  0.25021422718E+04  0.24917346398E+04 0.  0.
        4    1    3    3  502    0 -0.32382482475E+03 -0.25542108422E+03  0.10665404375E+04  0.11435088828E+04  0.12699999809E+01 0. -1.
       -4    1    3    3    0  502  0.32382482475E+03  0.25542108422E+03 -0.12945194574E+04  0.13586333890E+04  0.12699999809E+01 0.  1.
</event>
<event>
 5   0  0.2066170E-05  0.2506232E+04  0.7818609E-02  0.8400769E-01
       -1   -1    0    0    0  501  0.00000000000E+00  0.00000000000E+00  0.77101299752E+03  0.77101299753E+03  0.50400001928E-02 0.  1.
        1   -1    0    0  501    0  0.00000000000E+00  0.00000000000E+00 -0.20366701067E+04  0.20366701067E+04  0.50400001928E-02 0. -1.
    10030    2    1    2    0    0  0.00000000000E+00  0.00000000000E+00 -0.12656571092E+04  0.28076831043E+04  0.25062315328E+04 0.  0.
        5    1    3    3  502    0 -0.14079781504E+03 -0.12425796636E+04 -0.72279197890E+03  0.14443955760E+04  0.46999998093E+01 0. -1.
       -5    1    3    3    0  502  0.14079781504E+03  0.12425796636E+04 -0.54286513033E+03  0.13632875283E+04  0.46999998093E+01 0.  1.
</event>
<event>
 5   0  0.5219468E-05  0.2502924E+04  0.7818609E-02  0.8401945E-01
        2   -1    0    0  501    0  0.00000000000E+00  0.00000000000E+00  0.79890062765E+03  0.79890062765E+03  0.25500000920E-02 0. -1.
       -2   -1    0    0    0  501  0.00000000000E+00  0.00000000000E+00 -0.19603898063E+04  0.19603898063E+04  0.25500000920E-02 0.  1.
    10030    2    1    2    0    0  0.00000000000E+00  0.00000000000E+00 -0.11614891786E+04  0.27592904340E+04  0.25029236079E+04 0.  0.
        1    1    3    3  502    0  0.96369114059E+03  0.44075869005E+03 -0.13146561412E+04  0.16885762070E+04  0.50400001928E-02 0.  1.
       -1    1    3    3    0  502 -0.96369114059E+03 -0.44075869005E+03  0.15316696255E+03  0.10707142269E+04  0.50400001928E-02 0. -1.
</event>
<event>
 5   0  0.5024070E-05  0.2571925E+04  0.7818609E-02  0.8377801E-01
       -2   -1    0    0    0  501  0.00000000000E+00  0.00000000000E+00  0.11241546693E+04  0.11241546693E+04  0.25500000920E-02 0.  1.
        2   -1    0    0  501    0  0.00000000000E+00  0.00000000000E+00 -0.14710609239E+04  0.14710609239E+04  0.25500000920E-02 0. -1.
    10030    2    1    2    0    0  0.00000000000E+00  0.00000000000E+00 -0.34690625463E+03  0.25952155932E+04  0.25719253538E+04 0.  0.
        5    1    3    3  502    0 -0.96375486224E+03  0.36248765916E+03 -0.95079090809E+03  0.14015156718E+04  0.46999998093E+01 0. -1.
       -5    1    3    3    0  502  0.96375486224E+03 -0.36248765916E+03  0.60388465346E+03  0.11936999213E+04  0.46999998093E+01 0.  1.
</event>
<event>
 5   0  0.2041718E-05  0.2335784E+04  0.7818609E-02  0.8463944E-01
       -1   -1    0    0    0  501  0.00000000000E+00  0.00000000000E+00  0.70977250979E+03  0.70977250981E+03  0.50400001928E-02 0. -1.
        1   -1    0    0  501    0  0.00000000000E+00  0.00000000000E+00 -0.19217018604E+04  0.19217018604E+04  0.50400001928E-02 0.  1.
    10030    2    1    2    0    0  0.00000000000E+00  0.00000000000E+00 -0.12119293506E+04  0.26314743702E+04  0.23357835110E+04 0.  0.
        4    1    3    3  502    0 -0.46427734975E+02  0.10826656287E+04 -0.10965810023E+04  0.15416912485E+04  0.12699999809E+01 0. -1.
       -4    1    3    3    0  502  0.46427734975E+02 -0.10826656287E+04 -0.11534834831E+03  0.10897831218E+04  0.12699999809E+01 0.  1.
</event>
<event>
 5   0  0.2036578E-05  0.2461187E+04  0.7818609E-02  0.8416945E-01
       -1   -1    0    0    0  501  0.00000000000E+00  0.00000000000E+00  0.19702385566E+04  0.19702385566E+04  0.50400001928E-02 0.  1.
        1   -1    0    0  501    0  0.00000000000E+00  0.00000000000E+00 -0.76861749279E+03  0.76861749281E+03  0.50400001928E-02 0. -1.
    10030    2    1    2    0    0  0.00000000000E+00  0.00000000000E+00  0.12016210638E+04  0.27388560494E+04  0.24611865590E+04 0.  0.
        2    1    3    3  502    0 -0.86260278734E+03  0.12609530914E+03 -0.36572687839E+03  0.94537809648E+03  0.25500000920E-02 0. -1.
       -2    1    3    3    0  502  0.86260278734E+03 -0.12609530914E+03  0.15673479422E+04  0.17934779529E+04  0.25500000920E-02 0.  1.
</event>
<event>
 5   0  0.2036578E-05  0.2523895E+04  0.7818609E-02  0.8394522E-01
       -1   -1    0    0    0  501  0.00000000000E+00  0.00000000000E+00  0.14858752102E+04  0.14858752102E+04  0.50400001928E-02 0.  1.
        1   -1    0    0  501    0  0.00000000000E+00  0.00000000000E+00 -0.10717664961E+04  0.10717664961E+04  0.50400001928E-02 0. -1.
    10030    2    1    2    0    0  0.00000000000E+00  0.00000000000E+00  0.41410871416E+03  0.25576417063E+04  0.25238948217E+04 0.  0.
        2    1    3    3  502    0 -0.33862683196E+03 -0.64789686846E+03 -0.83532601338E+03  0.11100486620E+04  0.25500000920E-02 0. -1.
       -2    1    3    3    0  502  0.33862683196E+03  0.64789686846E+03  0.12494347275E+04  0.14475930443E+04  0.25500000920E-02 0.  1.
</event>
<event>
 5   0  0.2066170E-05  0.2542669E+04  0.7818609E-02  0.8387940E-01
       -1   -1    0    0    0  501  0.00000000000E+00  0.00000000000E+00  0.11311204210E+04  0.11311204210E+04  0.50400001928E-02 0.  1.
        1   -1    0    0  501    0  0.00000000000E+00  0.00000000000E+00 -0.14289294653E+04  0.14289294653E+04  0.50400001928E-02 0. -1.
    10030    2    1    2    0    0  0.00000000000E+00  0.00000000000E+00 -0.29780904432E+03  0.25600498863E+04  0.25426689115E+04 0.  0.
        5    1    3    3  502    0  0.27156023085E+03 -0.10754666575E+04 -0.77435595956E+03  0.13527833280E+04  0.46999998093E+01 0. -1.
       -5    1    3    3    0  502 -0.27156023085E+03  0.10754666575E+04  0.47654691523E+03  0.12072665583E+04  0.46999998093E+01 0.  1.
</event>
<event>
 5   0  0.2036578E-05  0.2489836E+04  0.7818609E-02  0.8406616E-01
       -1   -1    0    0    0  501  0.00000000000E+00  0.00000000000E+00  0.66107092704E+03  0.66107092706E+03  0.50400001928E-02 0. -1.
        1   -1    0    0  501    0  0.00000000000E+00  0.00000000000E+00 -0.23444084251E+04  0.23444084251E+04  0.50400001928E-02 0.  1.
    10030    2    1    2    0    0  0.00000000000E+00  0.00000000000E+00 -0.16833374981E+04  0.30054793522E+04  0.24898355375E+04 0.  0.
        2    1    3    3  502    0  0.12766220250E+03 -0.10715772588E+03  0.64754177551E+03  0.66864846309E+03  0.25500000920E-02 0. -1.
       -2    1    3    3    0  502 -0.12766220250E+03  0.10715772588E+03 -0.23308792736E+04  0.23368308891E+04  0.25500000920E-02 0.  1.
</event>
<event>
 5   0  0.4995256E-05  0.2499629E+04  0.7818609E-02  0.8403118E-01
        2   -1    0    0  501    0  0.00000000000E+00  0.00000000000E+00  0.28347201893E+04  0.28347201893E+04  0.25500000920E-02 0. -1.
       -2   -1    0    0    0  501  0.00000000000E+00  0.00000000000E+00 -0.55103731113E+03  0.55103731113E+03  0.25500000920E-02 0.  1.
    10030    2    1    2    0    0  0.00000000000E+00  0.00000000000E+00  0.22836828782E+04  0.33857575004E+04  0.24996292452E+04 0.  0.
        2    1    3    3  502    0 -0.99063558348E+03  0.46208743580E+03  0.19625779491E+04  0.22464629674E+04  0.25500000920E-02 0. -1.
       -2    1    3    3    0  502  0.99063558348E+03 -0.46208743580E+03  0.32110492912E+03  0.11392945331E+04  0.25500000920E-02 0.  1.
</event>
<event>
 5   0  0.4995256E-05  0.1742315E+04  0.7818609E-02  0.8737592E-01
        2   -1    0    0  501    0  0.00000000000E+00  0.00000000000E+00  0.89891611750E+03  0.89891611751E+03  0.25500000920E-02 0. -1.
       -2   -1    0    0    0  501  0.00000000000E+00  0.00000000000E+00 -0.84425644371E+03  0.84425644371E+03  0.25500000920E-02 0.  1.
    10030    2    1    2    0    0  0.00000000000E+00  0.00000000000E+00  0.54659673791E+02  0.17431725612E+04  0.17423153843E+04 0.  0.
        2    1    3    3  502    0  0.62031541774E+02 -0.66567846181E+03 -0.53146082803E+03  0.85406459851E+03  0.25500000920E-02 0.  1.
       -2    1    3    3    0  502 -0.62031541774E+02  0.66567846181E+03  0.58612050182E+03  0.88910796271E+03  0.25500000920E-02 0. -1.
</event>
<event>
 5   0  0.4959347E-05  0.2409854E+04  0.7818609E-02  0.8435824E-01
       -2   -1    0    0    0  501  0.00000000000E+00  0.00000000000E+00  0.96515164743E+03  0.96515164743E+03  0.25500000920E-02 0. -1.
        2   -1    0    0  501    0  0.00000000000E+00  0.00000000000E+00 -0.15042703752E+04  0.15042703752E+04  0.25500000920E-02 0.  1.
    10030    2    1    2    0    0  0.00000000000E+00  0.00000000000E+00 -0.53911872777E+03  0.24694220226E+04  0.24098539631E+04 0.  0.
        3    1    3    3  502    0  0.16249978401E+02 -0.83060862000E+03 -0.11638717318E+04  0.14299552999E+04  0.10100000352E+00 0.  1.
       -3    1    3    3    0  502 -0.16249978401E+02  0.83060862000E+03  0.62475300404E+03  0.10394667227E+04  0.10100000352E+00 0. -1.
</event>
<event>
 5   0  0.2081874E-05  0.1662697E+04  0.7818609E-02  0.8782930E-01
        1   -1    0    0  501    0  0.00000000000E+00  0.00000000000E+00  0.14385043721E+04  0.14385043721E+04  0.50400001928E-02 0.  1.
       -1   -1    0    0    0  501  0.00000000000E+00  0.00000000000E+00 -0.48045744284E+03  0.48045744286E+03  0.50400001928E-02 0. -1.
    10030    2    1    2    0    0  0.00000000000E+00  0.00000000000E+00  0.95804692922E+03  0.19189618149E+04  0.16626967639E+04 0.  0.
        1    1    3    3  502    0 -0.33672732961E+03  0.41166962876E+03  0.12164757158E+04  0.13276559588E+04  0.50400001928E-02 0.  1.
       -1    1    3    3    0  502  0.33672732961E+03 -0.41166962876E+03 -0.25842878658E+03  0.59130585614E+03  0.50400001928E-02 0. -1.
</event>
<event>
 5   0  0.2036578E-05  0.2474804E+04  0.7818609E-02  0.8412017E-01
        1   -1    0    0  501    0  0.00000000000E+00  0.00000000000E+00  0.10044415654E+04  0.10044415654E+04  0.50400001928E-02 0.  1.
       -1   -1    0    0    0  501  0.00000000000E+00  0.00000000000E+00 -0.15243925755E+04  0.15243925755E+04  0.50400001928E-02 0. -1.
    10030    2    1    2    0    0  0.00000000000E+00  0.00000000000E+00 -0.51995101003E+03  0.25288341409E+04  0.24748036406E+04 0.  0.
        2    1    3    3  502    0  0.74635587706E+03  0.28530565559E+03 -0.12254403543E+04  0.14629253140E+04  0.25500000920E-02 0. -1.
       -2    1    3    3    0  502 -0.74635587706E+03 -0.28530565559E+03  0.70548934431E+03  0.10659088269E+04  0.25500000920E-02 0.  1.
</event>
<event>
 5   0  0.2036578E-05  0.2502021E+04  0.7818609E-02  0.8402266E-01
       -1   -1    0    0    0  501  0.00000000000E+00  0.00000000000E+00  0.15086224909E+04  0.15086224909E+04  0.50400001928E-02 0. -1.
        1   -1    0    0  501    0  0.00000000000E+00  0.00000000000E+00 -0.10373883861E+04  0.10373883861E+04  0.50400001928E-02 0.  1.
    10030    2    1    2    0    0  0.00000000000E+00  0.00000000000E+00  0.47123410483E+03  0.25460108770E+04  0.25020211438E+04 0.  0.
        2    1    3    3  502    0 -0.63402888885E+03  0.20249729644E+02 -0.86159119777E+03  0.10699262010E+04  0.25500000920E-02 0.  1.
       -2    1    3    3    0  502  0.63402888885E+03 -0.20249729644E+02  0.13328253026E+04  0.14760846760E+04  0.25500000920E-02 0. -1.
</event>
<event>
 5   0  0.4959347E-05  0.2518661E+04  0.7818609E-02  0.8396367E-01
       -2   -1    0    0    0  501  0.00000000000E+00  0.00000000000E+00  0.12111827495E+04  0.12111827496E+04  0.25500000920E-02 0. -1.
        2   -1    0    0  501    0  0.00000000000E+00  0.00000000000E+00 -0.13093926535E+04  0.13093926535E+04  0.25500000920E-02 0.  1.
    10030    2    1    2    0    0  0.00000000000E+00  0.00000000000E+00 -0.98209903943E+02  0.25205754030E+04  0.25186613860E+04 0.  0.
        3    1    3    3  502    0  0.11423093267E+04  0.12519291890E+03 -0.56463710426E+03  0.12803745290E+04  0.10100000352E+00 0.  1.
       -3    1    3    3    0  502 -0.11423093267E+04 -0.12519291890E+03  0.46642720031E+03  0.12402008741E+04  0.10100000352E+00 0. -1.
</event>
<event>
 5   0  0.4995256E-05  0.2492241E+04  0.7818609E-02  0.8405755E-01
        2   -1    0    0  501    0  0.00000000000E+00  0.00000000000E+00  0.24743451647E+04  0.24743451647E+04  0.25500000920E-02 0.  1.
       -2   -1    0    0    0  501  0.00000000000E+00  0.00000000000E+00 -0.62756632779E+03  0.62756632780E+03  0.25500000920E-02 0. -1.
    10030    2    1    2    0    0  0.00000000000E+00  0.00000000000E+00  0.18467788369E+04  0.31019114925E+04  0.24922405251E+04 0.  0.
        2    1    3    3  502    0  0.10626798080E+03 -0.65547920492E+03 -0.38901118865E+03  0.76959442353E+03  0.25500000920E-02 0. -1.
       -2    1    3    3    0  502 -0.10626798080E+03  0.65547920492E+03  0.22357900256E+04  0.23323170690E+04  0.25500000920E-02 0.  1.
</event>
<event>
 5   0  0.4995256E-05  0.1895267E+04  0.7818609E-02  0.8657216E-01
       -2   -1    0    0    0  501  0.00000000000E+00  0.00000000000E+00  0.10999389496E+04  0.10999389496E+04  0.25500000920E-02 0. -1.
        2   -1    0    0  501    0  0.00000000000E+00  0.00000000000E+00 -0.81641761137E+03  0.81641761137E+03  0.25500000920E-02 0.  1.
    10030    2    1    2    0    0  0.00000000000E+00  0.00000000000E+00  0.28352133827E+03  0.19163565610E+04  0.18952672951E+04 0.  0.
        2    1    3    3  502    0 -0.42606886707E+03  0.24868815120E+03 -0.67633385862E+03  0.83714273834E+03  0.25500000920E-02 0.  1.
       -2    1    3    3    0  502  0.42606886707E+03 -0.24868815120E+03  0.95985519690E+03  0.10792138227E+04  0.25500000920E-02 0. -1.
</event>
<event>
 5   0  0.2041718E-05  0.2263010E+04  0.7818609E-02  0.8492650E-01
        1   -1    0    0  501    0  0.00000000000E+00  0.00000000000E+00  0.14864634427E+04  0.14864634427E+04  0.50400001928E-02 0.  1.
       -1   -1    0    0    0  501  0.00000000000E+00  0.00000000000E+00 -0.86130837714E+03  0.86130837715E+03  0.50400001928E-02 0. -1.
    10030    2    1    2    0    0  0.00000000000E+00  0.00000000000E+00  0.62515506552E+03  0.23477718198E+04  0.22630098679E+04 0.  0.
        4    1    3    3  502    0 -0.29377529386E+03 -0.45237430285E+03 -0.71934143511E+03  0.89911075309E+03  0.12699999809E+01 0. -1.
       -4    1    3    3    0  502  0.29377529386E+03  0.45237430285E+03  0.13444965006E+04  0.14486610667E+04  0.12699999809E+01 0.  1.
</event>
<event>
 5   0  0.1692125E-05  0.2501652E+04  0.7818609E-02  0.8402397E-01
        3   -1    0    0  501    0  0.00000000000E+00  0.00000000000E+00  0.70107556775E+03  0.70107557503E+03  0.10100000352E+00 0. -1.
       -3   -1    0    0    0  501  0.00000000000E+00  0.00000000000E+00 -0.22316654801E+04  0.22316654824E+04  0.10100000352E+00 0.  1.
    10030    2    1    2    0    0  0.00000000000E+00  0.00000000000E+00 -0.15305899123E+04  0.29327410574E+04  0.25016523799E+04 0.  0.
        3    1    3    3  502    0  0.70549861666E+03  0.47194617855E+03 -0.18423673751E+04  0.20284918163E+04  0.10100000352E+00 0.  1.
       -3    1    3    3    0  502 -0.70549861666E+03 -0.47194617855E+03  0.31177746280E+03  0.90424924112E+03  0.10100000352E+00 0. -1.
</event>
<event>
 5   0  0.5219468E-05  0.2460155E+04  0.7818609E-02  0.8417320E-01
        2   -1    0    0  501    0  0.00000000000E+00  0.00000000000E+00  0.19297965737E+04  0.19297965737E+04  0.25500000920E-02 0.  1.
       -2   -1    0    0    0  501  0.00000000000E+00  0.00000000000E+00 -0.78406724739E+03  0.78406724739E+03  0.25500000920E-02 0. -1.
    10030    2    1    2    0    0  0.00000000000E+00  0.00000000000E+00  0.11457293263E+04  0.27138638211E+04  0.24601547005E+04 0.  0.
        1    1    3    3  502    0 -0.34302619134E+03  0.63274486880E+03 -0.52753302237E+03  0.89236994943E+03  0.50400001928E-02 0. -1.
       -1    1    3    3    0  502  0.34302619134E+03 -0.63274486880E+03  0.16732623487E+04  0.18214938717E+04  0.50400001928E-02 0.  1.
</event>
<event>
 5   0  0.4959347E-05  0.2500809E+04  0.7818609E-02  0.8402697E-01
        2   -1    0    0  501    0  0.00000000000E+00  0.00000000000E+00  0.22032041691E+04  0.22032041691E+04  0.25500000920E-02 0.  1.
       -2   -1    0    0    0  501  0.00000000000E+00  0.00000000000E+00 -0.70965352170E+03  0.70965352170E+03  0.25500000920E-02 0. -1.
    10030    2    1    2    0    0  0.00000000000E+00  0.00000000000E+00  0.14935506474E+04  0.29128576908E+04  0.25008091471E+04 0.  0.
        3    1    3    3  502    0 -0.15793038560E+03 -0.77577226024E+02 -0.69516151197E+03  0.71708421445E+03  0.10100000352E+00 0. -1.
       -3    1    3    3    0  502  0.15793038560E+03  0.77577226024E+02  0.21887121593E+04  0.21957734763E+04  0.10100000352E+00 0.  1.
</event>
<event>
 5   0  0.2036578E-05  0.2480817E+04  0.7818609E-02  0.8409852E-01
        1   -1    0    0  501    0  0.00000000000E+00  0.00000000000E+00  0.16592492231E+04  0.16592492232E+04  0.50400001928E-02 0. -1.
       -1   -1    0    0    0  501  0.00000000000E+00  0.00000000000E+00 -0.92729463318E+03  0.92729463319E+03  0.50400001928E-02 0.  1.
    10030    2    1    2    0    0  0.00000000000E+00  0.00000000000E+00  0.73195458996E+03  0.25865438563E+04  0.24808167202E+04 0.  0.
        2    1    3    3  502    0 -0.10167195709E+04 -0.70879946651E+03  0.41808243105E+03  0.13080169299E+04  0.25500000920E-02 0. -1.
       -2    1    3    3    0  502  0.10167195709E+04  0.70879946651E+03  0.31387215891E+03  0.12785269265E+04  0.25500000920E-02 0.  1.
</event>
<event>
 5   0  0.4959347E-05  0.2230962E+04  0.7818609E-02  0.8505651E-01
       -2   -1    0    0    0  501  0.00000000000E+00  0.00000000000E+00  0.12563540715E+04  0.12563540715E+04  0.25500000920E-02 0.  1.
        2   -1    0    0  501    0  0.00000000000E+00  0.00000000000E+00 -0.99040369210E+03  0.99040369210E+03  0.25500000920E-02 0. -1.
    10030    2    1    2    0    0  0.00000000000E+00  0.00000000000E+00  0.26595037939E+03  0.22467577636E+04  0.22309618652E+04 0.  0.
        3    1    3    3  502    0  0.43852557145E+02  0.64777859489E+03  0.10464572892E+04  0.12315084340E+04  0.10100000352E+00 0.  1.
       -3    1    3    3    0  502 -0.43852557145E+02 -0.64777859489E+03 -0.78050690979E+03  0.10152493296E+04  0.10100000352E+00 0. -1.
</event>
<event>
 5   0  0.4995256E-05  0.2047824E+04  0.7818609E-02  0.8584582E-01
       -2   -1    0    0    0  501  0.00000000000E+00  0.00000000000E+00  0.82605470396E+03  0.82605470396E+03  0.25500000920E-02 0. -1.
        2   -1    0    0  501    0  0.00000000000E+00  0.00000000000E+00 -0.12691600727E+04  0.12691600727E+04  0.25500000920E-02 0.  1.
    10030    2    1    2    0    0  0.00000000000E+00  0.00000000000E+00 -0.44310536869E+03  0.20952147766E+04  0.20478238675E+04 0.  0.
        2    1    3    3  502    0 -0.95112285046E+03 -0.35511318717E+03 -0.85603334232E+02  0.10188562132E+04  0.25500000920E-02 0. -1.
       -2    1    3    3    0  502  0.95112285046E+03  0.35511318717E+03 -0.35750203446E+03  0.10763585634E+04  0.25500000920E-02 0.  1.
</event>
<event>
 5   0  0.5024070E-05  0.2499203E+04  0.7818609E-02  0.8403270E-01
        2   -1    0    0  501    0  0.00000000000E+00  0.00000000000E+00  0.13925839168E+04  0.13925839168E+04  0.25500000920E-02 0. -1.
       -2   -1    0    0    0  501  0.00000000000E+00  0.00000000000E+00 -0.11212996648E+04  0.11212996648E+04  0.25500000920E-02 0.  1.
    10030    2    1    2    0    0  0.00000000000E+00  0.00000000000E+00  0.27128425199E+03  0.25138835816E+04  0.24992029763E+04 0.  0.
        5    1    3    3  502    0 -0.10542837352E+04 -0.19666250212E+03  0.78072940178E+03  0.13265560006E+04  0.46999998093E+01 0. -1.
       -5    1    3    3    0  502  0.10542837352E+04  0.19666250212E+03 -0.50944514979E+03  0.11873275810E+04  0.46999998093E+01 0.  1.
</event>
<event>
 5   0  0.2066170E-05  0.2477959E+04  0.7818609E-02  0.8410880E-01
        1   -1    0    0  501    0  0.00000000000E+00  0.00000000000E+00  0.80583504051E+03  0.80583504052E+03  0.50400001928E-02 0. -1.
       -1   -1    0    0    0  501  0.00000000000E+00  0.00000000000E+00 -0.19049439088E+04  0.19049439088E+04  0.50400001928E-02 0.  1.
    10030    2    1    2    0    0  0.00000000000E+00  0.00000000000E+00 -0.10991088683E+04  0.27107789493E+04  0.24779592829E+04 0.  0.
        5    1    3    3  502    0 -0.69776730230E+03 -0.26659741839E+03  0.53180070762E+03  0.91694464079E+03  0.46999998093E+01 0. -1.
       -5    1    3    3    0  502  0.69776730230E+03  0.26659741839E+03 -0.16309095759E+04  0.17938343085E+04  0.46999998093E+01 0.  1.
</event>
<event>
 5   0  0.2066170E-05  0.2267374E+04  0.7818609E-02  0.8490897E-01
        1   -1    0    0  501    0  0.00000000000E+00  0.00000000000E+00  0.16566305474E+04  0.16566305474E+04  0.50400001928E-02 0. -1.
       -1   -1    0    0    0  501  0.00000000000E+00  0.00000000000E+00 -0.77581949439E+03  0.77581949441E+03  0.50400001928E-02 0.  1.
    10030    2    1    2    0    0  0.00000000000E+00  0.00000000000E+00  0.88081105304E+03  0.24324500418E+04  0.22673740527E+04 0.  0.
        5    1    3    3  502    0 -0.29411988109E+03 -0.57497707446E+03  0.14399690484E+04  0.15781755577E+04  0.46999998093E+01 0. -1.
       -5    1    3    3    0  502  0.29411988109E+03  0.57497707446E+03 -0.55915799531E+03  0.85427448418E+03  0.46999998093E+01 0.  1.
</event>
<event>
 5   0  0.5219468E-05  0.2433003E+04  0.7818609E-02  0.8427250E-01
        2   -1    0    0  501    0  0.00000000000E+00  0.00000000000E+00  0.19750239484E+04  0.19750239484E+04  0.25500000920E-02 0. -1.
       -2   -1    0    0    0  501  0.00000000000E+00  0.00000000000E+00 -0.74929495212E+03  0.74929495212E+03  0.25500000920E-02 0.  1.
    10030    2    1    2    0    0  0.00000000000E+00  0.00000000000E+00  0.12257289962E+04  0.27243189005E+04  0.24330026509E+04 0.  0.
        1    1    3    3  502    0 -0.50681233180E+02  0.10474882803E+04  0.13031839672E+04  0.16727488566E+04  0.50400001928E-02 0. -1.
       -1    1    3    3    0  502  0.50681233180E+02 -0.10474882803E+04 -0.77454970933E+02  0.10515700439E+04  0.50400001928E-02 0.  1.
</event>
<event>
 5   0  0.2041718E-05  0.2500592E+04  0.7818609E-02  0.8402775E-01
        1   -1    0    0  501    0  0.00000000000E+00  0.00000000000E+00  0.12699970788E+04  0.12699970788E+04  0.50400001928E-02 0. -1.
       -1   -1    0    0    0  501  0.00000000000E+00  0.00000000000E+00 -0.12309008500E+04  0.12309008500E+04  0.50400001928E-02 0.  1.
    10030    2    1    2    0    0  0.00000000000E+00  0.00000000000E+00  0.39096228817E+02  0.25008979289E+04  0.25005923169E+04 0.  0.
        4    1    3    3  502    0 -0.11298156820E+04  0.22686740558E+03  0.50467087313E+03  0.12580328287E+04  0.12699999809E+01 0. -1.
       -4    1    3    3    0  502  0.11298156820E+04 -0.22686740558E+03 -0.46557464432E+03  0.12428651002E+04  0.12699999809E+01 0.  1.
</event>
<event>
 5   0  0.4995256E-05  0.2497464E+04  0.7818609E-02  0.8403890E-01
       -2   -1    0    0    0  501  0.00000000000E+00  0.00000000000E+00  0.97771044778E+03  0.97771044778E+03  0.25500000920E-02 0. -1.
        2   -1    0    0  501    0  0.00000000000E+00  0.00000000000E+00 -0.15948807436E+04  0.15948807436E+04  0.25500000920E-02 0.  1.
    10030    2    1    2    0    0  0.00000000000E+00  0.00000000000E+00 -0.61717029584E+03  0.25725911914E+04  0.24974639665E+04 0.  0.
        2    1    3    3  502    0  0.55116618687E+03  0.25219684943E+03  0.81601853261E+03  0.10165006945E+04  0.25500000920E-02 0. -1.
       -2    1    3    3    0  502 -0.55116618687E+03 -0.25219684943E+03 -0.14331888285E+04  0.15560904969E+04  0.25500000920E-02 0.  1.
</event>
<event>
 5   0  0.2081874E-05  0.2483146E+04  0.7818609E-02  0.8409014E-01
        1   -1    0    0  501    0  0.00000000000E+00  0.00000000000E+00  0.24132624073E+04  0.24132624074E+04  0.50400001928E-02 0. -1.
       -1   -1    0    0    0  501  0.00000000000E+00  0.00000000000E+00 -0.63876350634E+03  0.63876350636E+03  0.50400001928E-02 0.  1.
    10030    2    1    2    0    0  0.00000000000E+00  0.00000000000E+00  0.17744989010E+04  0.30520259137E+04  0.24831463566E+04 0.  0.
        1    1    3    3  502    0 -0.49219583311E+03  0.50834984412E+03 -0.36668637517E+03  0.79695369998E+03  0.50400001928E-02 0.  1.
       -1    1    3    3    0  502  0.49219583311E+03 -0.50834984412E+03  0.21411852762E+04  0.22550722137E+04  0.50400001928E-02 0. -1.
</event>
<event>
 5   0  0.4959042E-05  0.1897821E+04  0.7818609E-02  0.8655942E-01
        2   -1    0    0  501    0  0.00000000000E+00  0.00000000000E+00  0.75118887900E+03  0.75118887900E+03  0.25500000920E-02 0. -1.
       -2   -1    0    0    0  501  0.00000000000E+00  0.00000000000E+00 -0.11986745943E+04  0.11986745943E+04  0.25500000920E-02 0.  1.
    10030    2    1    2    0    0  0.00000000000E+00  0.00000000000E+00 -0.44748571533E+03  0.19498634733E+04  0.18978208818E+04 0.  0.
        4    1    3    3  502    0 -0.16914336026E+03 -0.54777066001E+03 -0.10006312219E+04  0.11532244480E+04  0.12699999809E+01 0.  1.
       -4    1    3    3    0  502  0.16914336026E+03  0.54777066001E+03  0.55314550661E+03  0.79663902532E+03  0.12699999809E+01 0. -1.
</event>
<event>
 5   0  0.2041718E-05  0.2492739E+04  0.7818609E-02  0.8405577E-01
        1   -1    0    0  501    0  0.00000000000E+00  0.00000000000E+00  0.15869081322E+04  0.15869081322E+04  0.50400001928E-02 0.  1.
       -1   -1    0    0    0  501  0.00000000000E+00  0.00000000000E+00 -0.97890773504E+03  0.97890773505E+03  0.50400001928E-02 0. -1.
    10030    2    1    2    0    0  0.00000000000E+00  0.00000000000E+00  0.60800039712E+03  0.25658158672E+04  0.24927387712E+04 0.  0.
        4    1    3    3  502    0 -0.16546050061E+03 -0.65709624735E+03 -0.77274618173E+03  0.10277601519E+04  0.12699999809E+01 0. -1.
       -4    1    3    3    0  502  0.16546050061E+03  0.65709624735E+03  0.13807465789E+04  0.15380557153E+04  0.12699999809E+01 0.  1.
</event>
<event>
 5   0  0.1692125E-05  0.2115284E+04  0.7818609E-02  0.8554540E-01
        4   -1    0    0  501    0  0.00000000000E+00  0.00000000000E+00  0.12254537163E+04  0.12254543743E+04  0.12699999809E+01 0.  1.
       -4   -1    0    0    0  501  0.00000000000E+00  0.00000000000E+00 -0.91280900588E+03  0.91280988936E+03  0.12699999809E+01 0. -1.
    10030    2    1    2    0    0  0.00000000000E+00  0.00000000000E+00  0.31264471037E+03  0.21382642637E+04  0.21152842236E+04 0.  0.
        3    1    3    3  502    0 -0.37530196644E+03 -0.87234486747E+03 -0.31432099660E+03  0.10003173661E+04  0.10100000352E+00 0. -1.
       -3    1    3    3    0  502  0.37530196644E+03  0.87234486747E+03  0.62696570697E+03  0.11379468976E+04  0.10100000352E+00 0.  1.
</event>
<event>
 5   0  0.2041718E-05  0.2503688E+04  0.7818609E-02  0.8401673E-01
       -1   -1    0    0    0  501  0.00000000000E+00  0.00000000000E+00  0.11762195716E+04  0.11762195716E+04  0.50400001928E-02 0. -1.
        1   -1    0    0  501    0  0.00000000000E+00  0.00000000000E+00 -0.13323303749E+04  0.13323303749E+04  0.50400001928E-02 0.  1.
    10030    2    1    2    0    0  0.00000000000E+00  0.00000000000E+00 -0.15611080324E+03  0.25085499465E+04  0.25036877304E+04 0.  0.
        4    1    3    3  502    0 -0.69208139089E+03  0.84599782656E+03  0.53339401202E+03  0.12162235646E+04  0.12699999809E+01 0. -1.
       -4    1    3    3    0  502  0.69208139089E+03 -0.84599782656E+03 -0.68950481525E+03  0.12923263819E+04  0.12699999809E+01 0.  1.
</event>
<event>
 5   0  0.2066170E-05  0.2537952E+04  0.7818609E-02  0.8389588E-01
        1   -1    0    0  501    0  0.00000000000E+00  0.00000000000E+00  0.14734587978E+04  0.14734587978E+04  0.50400001928E-02 0.  1.
       -1   -1    0    0    0  501  0.00000000000E+00  0.00000000000E+00 -0.10928708357E+04  0.10928708357E+04  0.50400001928E-02 0. -1.
    10030    2    1    2    0    0  0.00000000000E+00  0.00000000000E+00  0.38058796208E+03  0.25663296336E+04  0.25379520467E+04 0.  0.
        5    1    3    3  502    0  0.16360713785E+03 -0.29042866325E+03 -0.10477991176E+04  0.10995549940E+04  0.46999998093E+01 0. -1.
       -5    1    3    3    0  502 -0.16360713785E+03  0.29042866325E+03  0.14283870797E+04  0.14667746396E+04  0.46999998093E+01 0.  1.
</event>
<event>
 5   0  0.5219468E-05  0.2522371E+04  0.7818609E-02  0.8395059E-01
       -2   -1    0    0    0  501  0.00000000000E+00  0.00000000000E+00  0.93652809148E+03  0.93652809148E+03  0.25500000920E-02 0. -1.
        2   -1    0    0  501    0  0.00000000000E+00  0.00000000000E+00 -0.16983890643E+04  0.16983890643E+04  0.25500000920E-02 0.  1.
    10030    2    1    2    0    0  0.00000000000E+00  0.00000000000E+00 -0.76186097278E+03  0.26349171557E+04  0.25223711614E+04 0.  0.
        1    1    3    3  502    0  0.95589573896E+03  0.25263826792E+03 -0.11988254426E+04  0.15539450441E+04  0.50400001928E-02 0.  1.
       -1    1    3    3    0  502 -0.95589573896E+03 -0.25263826792E+03  0.43696446986E+03  0.10809721116E+04  0.50400001928E-02 0. -1.
</event>
<event>
 5   0  0.2066170E-05  0.2472999E+04  0.7818609E-02  0.8412668E-01
        1   -1    0    0  501    0  0.00000000000E+00  0.00000000000E+00  0.68201301305E+03  0.68201301307E+03  0.50400001928E-02 0.  1.
       -1   -1    0    0    0  501  0.00000000000E+00  0.00000000000E+00 -0.22417923080E+04  0.22417923080E+04  0.50400001928E-02 0. -1.
    10030    2    1    2    0    0  0.00000000000E+00  0.00000000000E+00 -0.15597792950E+04  0.29238053211E+04  0.24729994150E+04 0.  0.
        5    1    3    3  502    0 -0.55983023837E+03 -0.91611912505E+03 -0.54705284176E+02  0.10750343740E+04  0.46999998093E+01 0.  1.
       -5    1    3    3    0  502  0.55983023837E+03  0.91611912505E+03 -0.15050740108E+04  0.18487709472E+04  0.46999998093E+01 0. -1.
</event>
<event>
 5   0  0.5219468E-05  0.2417222E+04  0.7818609E-02  0.8433084E-01
        2   -1    0    0  501    0  0.00000000000E+00  0.00000000000E+00  0.11004479773E+04  0.11004479773E+04  0.25500000920E-02 0.  1.
       -2   -1    0    0    0  501  0.00000000000E+00  0.00000000000E+00 -0.13274055125E+04  0.13274055125E+04  0.25500000920E-02 0. -1.
    10030    2    1    2    0    0  0.00000000000E+00  0.00000000000E+00 -0.22695753522E+03  0.24278534898E+04  0.24172221340E+04 0.  0.
        1    1    3    3  502    0  0.49380626238E+03 -0.10737158276E+04  0.14067646060E+03  0.11901681267E+04  0.50400001928E-02 0.  1.
       -1    1    3    3    0  502 -0.49380626238E+03  0.10737158276E+04 -0.36763399582E+03  0.12376853631E+04  0.50400001928E-02 0. -1.
</event>
<event>
 5   0  0.2063930E-05  0.2515156E+04  0.7818609E-02  0.8397606E-01
       -1   -1    0    0    0  501  0.00000000000E+00  0.00000000000E+00  0.10668033585E+04  0.10668033585E+04  0.50400001928E-02 0.  1.
        1   -1    0    0  501    0  0.00000000000E+00  0.00000000000E+00 -0.14824684677E+04  0.14824684677E+04  0.50400001928E-02 0. -1.
    10030    2    1    2    0    0  0.00000000000E+00  0.00000000000E+00 -0.41566510918E+03  0.25492718262E+04  0.25151559317E+04 0.  0.
        3    1    3    3  502    0 -0.49590667480E+03  0.11549095364E+04 -0.16527658820E+03  0.12676970570E+04  0.10100000352E+00 0.  1.
       -3    1    3    3    0  502  0.49590667480E+03 -0.11549095364E+04 -0.25038852098E+03  0.12815747692E+04  0.10100000352E+00 0. -1.
</event>
<event>
 5   0  0.2066170E-05  0.1939271E+04  0.7818609E-02  0.8635552E-01
        1   -1    0    0  501    0  0.00000000000E+00  0.00000000000E+00  0.11857727871E+04  0.11857727871E+04  0.50400001928E-02 0.  1.
       -1   -1    0    0    0  501  0.00000000000E+00  0.00000000000E+00 -0.79289475967E+03  0.79289475969E+03  0.50400001928E-02 0. -1.
    10030    2    1    2    0    0  0.00000000000E+00  0.00000000000E+00  0.39287802742E+03  0.19786675468E+04  0.19392710270E+04 0.  0.
        5    1    3    3  502    0 -0.51667218148E+03 -0.48059673816E+03 -0.48208785516E+03  0.85460760465E+03  0.46999998093E+01 0. -1.
       -5    1    3    3    0  502  0.51667218148E+03  0.48059673816E+03  0.87496588258E+03  0.11240599421E+04  0.46999998093E+01 0.  1.
</event>
<event>
 5   0  0.4959042E-05  0.2513487E+04  0.7818609E-02  0.8398196E-01
       -2   -1    0    0    0  501  0.00000000000E+00  0.00000000000E+00  0.70889443301E+03  0.70889443302E+03  0.25500000920E-02 0.  1.
        2   -1    0    0  501    0  0.00000000000E+00  0.00000000000E+00 -0.22279827253E+04  0.22279827253E+04  0.25500000920E-02 0. -1.
    10030    2    1    2    0    0  0.00000000000E+00  0.00000000000E+00 -0.15190882923E+04  0.29368771583E+04  0.25134872594E+04 0.  0.
        4    1    3    3  502    0  0.35900001985E+03 -0.11422531034E+04 -0.31341794958E+03  0.12376815384E+04  0.12699999809E+01 0. -1.
       -4    1    3    3    0  502 -0.35900001985E+03  0.11422531034E+04 -0.12056703427E+04  0.16991956199E+04  0.12699999809E+01 0.  1.
</event>
<event>
 5   0  0.4995256E-05  0.1994006E+04  0.7818609E-02  0.8609428E-01
        2   -1    0    0  501    0  0.00000000000E+00  0.00000000000E+00  0.96019814195E+03  0.96019814196E+03  0.25500000920E-02 0.  1.
       -2   -1    0    0    0  501  0.00000000000E+00  0.00000000000E+00 -0.10352186501E+04  0.10352186501E+04  0.25500000920E-02 0. -1.
    10030    2    1    2    0    0  0.00000000000E+00  0.00000000000E+00 -0.75020508146E+02  0.19954167921E+04  0.19940060425E+04 0.  0.
        2    1    3    3  502    0 -0.49435731967E+03 -0.31067365347E+03 -0.84623283562E+03  0.10281134619E+04  0.25500000920E-02 0. -1.
       -2    1    3    3    0  502  0.49435731967E+03  0.31067365347E+03  0.77121232748E+03  0.96730333015E+03  0.25500000920E-02 0.  1.
</event>
<event>
 5   0  0.2041718E-05  0.2489094E+04  0.7818609E-02  0.8406881E-01
       -1   -1    0    0    0  501  0.00000000000E+00  0.00000000000E+00  0.72796631214E+03  0.72796631216E+03  0.50400001928E-02 0.  1.
        1   -1    0    0  501    0  0.00000000000E+00  0.00000000000E+00 -0.21277038095E+04  0.21277038095E+04  0.50400001928E-02 0. -1.
    10030    2    1    2    0    0  0.00000000000E+00  0.00000000000E+00 -0.13997374973E+04  0.28556701216E+04  0.24890935664E+04 0.  0.
        4    1    3    3  502    0  0.23437518664E+03 -0.27295386274E+02  0.70206816023E+03  0.74066057053E+03  0.12699999809E+01 0.  1.
       -4    1    3    3    0  502 -0.23437518664E+03  0.27295386274E+02 -0.21018056575E+04  0.21150095511E+04  0.12699999809E+01 0. -1.
</event>
<event>
 5   0  0.5024070E-05  0.2458660E+04  0.7818609E-02  0.8417863E-01
       -2   -1    0    0    0  501  0.00000000000E+00  0.00000000000E+00  0.10138837191E+04  0.10138837191E+04  0.25500000920E-02 0. -1.
        2   -1    0    0  501    0  0.00000000000E+00  0.00000000000E+00 -0.14905577641E+04  0.14905577641E+04  0.25500000920E-02 0.  1.
    10030    2    1    2    0    0  0.00000000000E+00  0.00000000000E+00 -0.47667404507E+03  0.25044414832E+04  0.24586600004E+04 0.  0.
        5    1    3    3  502    0  0.50491034586E+03  0.99453966722E+03 -0.76486288840E+03  0.13524351870E+04  0.46999998093E+01 0.  1.
       -5    1    3    3    0  502 -0.50491034586E+03 -0.99453966722E+03  0.28818884333E+03  0.11520062962E+04  0.46999998093E+01 0. -1.
</event>
<event>
 5   0  0.2081874E-05  0.2206851E+04  0.7818609E-02  0.8515582E-01
       -1   -1    0    0    0  501  0.00000000000E+00  0.00000000000E+00  0.10794559635E+04  0.10794559635E+04  0.50400001928E-02 0. -1.
        1   -1    0    0  501    0  0.00000000000E+00  0.00000000000E+00 -0.11279272252E+04  0.11279272252E+04  0.50400001928E-02 0.  1.
    10030    2    1    2    0    0  0.00000000000E+00  0.00000000000E+00 -0.48471261707E+02  0.22073831887E+04  0.22068509416E+04 0.  0.
        1    1    3    3  502    0  0.20637648578E+03 -0.50296924116E+03 -0.98466430403E+03  0.11247813579E+04  0.50400001928E-02 0.  1.
       -1    1    3    3    0  502 -0.20637648578E+03  0.50296924116E+03  0.93619304233E+03  0.10826018308E+04  0.50400001928E-02 0. -1.
</event>
<event>
 5   0  0.4959042E-05  0.2225105E+04  0.7818609E-02  0.8508051E-01
        2   -1    0    0  501    0  0.00000000000E+00  0.00000000000E+00  0.11830051050E+04  0.11830051050E+04  0.25500000920E-02 0. -1.
       -2   -1    0    0    0  501  0.00000000000E+00  0.00000000000E+00 -0.10462953666E+04  0.10462953666E+04  0.25500000920E-02 0.  1.
    10030    2    1    2    0    0  0.00000000000E+00  0.00000000000E+00  0.13670973840E+03  0.22293004716E+04  0.22251047257E+04 0.  0.
        4    1    3    3  502    0  0.16315649107E+03  0.75438024630E+03  0.87115324183E+03  0.11638810851E+04  0.12699999809E+01 0. -1.
       -4    1    3    3    0  502 -0.16315649107E+03 -0.75438024630E+03 -0.73444350342E+03  0.10654193865E+04  0.12699999809E+01 0.  1.
</event>
<event>
 5   0  0.2036578E-05  0.2517398E+04  0.7818609E-02  0.8396813E-01
        1   -1    0    0  501    0  0.00000000000E+00  0.00000000000E+00  0.12358174157E+04  0.12358174157E+04  0.50400001928E-02 0.  1.
       -1   -1    0    0    0  501  0.00000000000E+00  0.00000000000E+00 -0.12820047434E+04  0.12820047434E+04  0.50400001928E-02 0. -1.
    10030    2    1    2    0    0  0.00000000000E+00  0.00000000000E+00 -0.46187327730E+02  0.25178221591E+04  0.25173984896E+04 0.  0.
        2    1    3    3  502    0  0.73005530940E+03 -0.32460038514E+03  0.94968383402E+03  0.12410662953E+04  0.25500000920E-02 0.  1.
       -2    1    3    3    0  502 -0.73005530940E+03  0.32460038514E+03 -0.99587116175E+03  0.12767558638E+04  0.25500000920E-02 0. -1.
</event>
<event>
 5   0  0.2036578E-05  0.2465580E+04  0.7818609E-02  0.8415351E-01
       -1   -1    0    0    0  501  0.00000000000E+00  0.00000000000E+00  0.13782030477E+04  0.13782030477E+04  0.50400001928E-02 0. -1.
        1   -1    0    0  501    0  0.00000000000E+00  0.00000000000E+00 -0.11027193980E+04  0.11027193980E+04  0.50400001928E-02 0.  1.
    10030    2    1    2    0    0  0.00000000000E+00  0.00000000000E+00  0.27548364966E+03  0.24809224457E+04  0.24655800413E+04 0.  0.
        2    1    3    3  502    0  0.46586905516E+03 -0.11019132836E+04  0.43712370717E+03  0.12737048310E+04  0.25500000920E-02 0. -1.
       -2    1    3    3    0  502 -0.46586905516E+03  0.11019132836E+04 -0.16164005751E+03  0.12072176147E+04  0.25500000920E-02 0.  1.
</event>
<event>
 5   0  0.4995256E-05  0.2558292E+04  0.7818609E-02  0.8382508E-01
        2   -1    0    0  501    0  0.00000000000E+00  0.00000000000E+00  0.15037624666E+04  0.15037624666E+04  0.25500000920E-02 0.  1.
       -2   -1    0    0    0  501  0.00000000000E+00  0.00000000000E+00 -0.10880801995E+04  0.10880801995E+04  0.25500000920E-02 0. -1.
    10030    2    1    2    0    0  0.00000000000E+00  0.00000000000E+00  0.41568226711E+03  0.25918426662E+04  0.25582917463E+04 0.  0.
        2    1    3    3  502    0  0.42845026597E+03 -0.47906985723E+03  0.13283003341E+04  0.14756216779E+04  0.25500000920E-02 0.  1.
       -2    1    3    3    0  502 -0.42845026597E+03  0.47906985723E+03 -0.91261806703E+03  0.11162209883E+04  0.25500000920E-02 0. -1.
</event>
<event>
 5   0  0.2066170E-05  0.2106625E+04  0.7818609E-02  0.8558330E-01
       -1   -1    0    0    0  501  0.00000000000E+00  0.00000000000E+00  0.49604383833E+03  0.49604383835E+03  0.50400001928E-02 0. -1.
        1   -1    0    0  501    0  0.00000000000E+00  0.00000000000E+00 -0.22366319844E+04  0.22366319844E+04  0.50400001928E-02 0.  1.
    10030    2    1    2    0    0  0.00000000000E+00  0.00000000000E+00 -0.17405881461E+04  0.27326758228E+04  0.21066252771E+04 0.  0.
        5    1    3    3  502    0  0.88091074749E+03  0.45932270180E+03 -0.13242415827E+04  0.16554814855E+04  0.46999998093E+01 0.  1.
       -5    1    3    3    0  502 -0.88091074749E+03 -0.45932270180E+03 -0.41634656338E+03  0.10771943373E+04  0.46999998093E+01 0. -1.
</event>
<event>
 5   0  0.2081874E-05  0.2469296E+04  0.7818609E-02  0.8414006E-01
       -1   -1    0    0    0  501  0.00000000000E+00  0.00000000000E+00  0.11023704526E+04  0.11023704527E+04  0.50400001928E-02 0. -1.
        1   -1    0    0  501    0  0.00000000000E+00  0.00000000000E+00 -0.13827979391E+04  0.13827979391E+04  0.50400001928E-02 0.  1.
    10030    2    1    2    0    0  0.00000000000E+00  0.00000000000E+00 -0.28042748642E+03  0.24851683917E+04  0.24692959240E+04 0.  0.
        1    1    3    3  502    0 -0.36342125640E+03  0.15126800035E+03  0.10375213531E+04  0.11096880534E+04  0.50400001928E-02 0. -1.
       -1    1    3    3    0  502  0.36342125640E+03 -0.15126800035E+03 -0.13179488396E+04  0.13754803384E+04  0.50400001928E-02 0.  1.
</event>
<event>
 5   0  0.2066170E-05  0.2763382E+04  0.7818609E-02  0.8314728E-01
        1   -1    0    0  501    0  0.00000000000E+00  0.00000000000E+00  0.21822027569E+04  0.21822027569E+04  0.50400001928E-02 0.  1.
       -1   -1    0    0    0  501  0.00000000000E+00  0.00000000000E+00 -0.87483621769E+03  0.87483621770E+03  0.50400001928E-02 0. -1.
    10030    2    1    2    0    0  0.00000000000E+00  0.00000000000E+00  0.13073665392E+04  0.30570389746E+04  0.27633819903E+04 0.  0.
        5    1    3    3  502    0 -0.77093100274E+03 -0.18342058798E+02  0.19219774726E+04  0.20709153863E+04  0.46999998093E+01 0.  1.
       -5    1    3    3    0  502  0.77093100274E+03  0.18342058798E+02 -0.61461093334E+03  0.98612358834E+03  0.46999998093E+01 0. -1.
</event>
<event>
 5   0  0.4995256E-05  0.2449191E+04  0.7818609E-02  0.8421314E-01
        2   -1    0    0  501    0  0.00000000000E+00  0.00000000000E+00  0.13383162708E+04  0.13383162708E+04  0.25500000920E-02 0.  1.
       -2   -1    0    0    0  501  0.00000000000E+00  0.00000000000E+00 -0.11205374832E+04  0.11205374832E+04  0.25500000920E-02 0. -1.
    10030    2    1    2    0    0  0.00000000000E+00  0.00000000000E+00  0.21777878752E+03  0.24588537540E+04  0.24491905159E+04 0.  0.
        2    1    3    3  502    0  0.57731797098E+02  0.78320638659E+03 -0.83443924781E+03  0.11458769841E+04  0.25500000920E-02 0. -1.
       -2    1    3    3    0  502 -0.57731797098E+02 -0.78320638659E+03  0.10522180353E+04  0.13129767699E+04  0.25500000920E-02 0.  1.
</event>
<event>
 5   0  0.4995256E-05  0.1568945E+04  0.7818609E-02  0.8839857E-01
       -2   -1    0    0    0  501  0.00000000000E+00  0.00000000000E+00  0.10499269281E+04  0.10499269281E+04  0.25500000920E-02 0.  1.
        2   -1    0    0  501    0  0.00000000000E+00  0.00000000000E+00 -0.58613330499E+03  0.58613330500E+03  0.25500000920E-02 0. -1.
    10030    2    1    2    0    0  0.00000000000E+00  0.00000000000E+00  0.46379362307E+03  0.16360602331E+04  0.15689450473E+04 0.  0.
        2    1    3    3  502    0 -0.26043382615E+03 -0.57845594829E+03 -0.24931984912E+03  0.68161385629E+03  0.25500000920E-02 0. -1.
       -2    1    3    3    0  502  0.26043382615E+03  0.57845594829E+03  0.71311347219E+03  0.95444637677E+03  0.25500000920E-02 0.  1.
</event>
<event>
 5   0  0.2081874E-05  0.2348309E+04  0.7818609E-02  0.8459114E-01
        1   -1    0    0  501    0  0.00000000000E+00  0.00000000000E+00  0.97916453944E+03  0.97916453946E+03  0.50400001928E-02 0.  1.
       -1   -1    0    0    0  501  0.00000000000E+00  0.00000000000E+00 -0.14079741837E+04  0.14079741837E+04  0.50400001928E-02 0. -1.
    10030    2    1    2    0    0  0.00000000000E+00  0.00000000000E+00 -0.42880964428E+03  0.23871387232E+04  0.23483086621E+04 0.  0.
        1    1    3    3  502    0  0.56752380469E+03  0.43523303286E+03  0.73218954388E+03  0.10235294768E+04  0.50400001928E-02 0.  1.
       -1    1    3    3    0  502 -0.56752380469E+03 -0.43523303286E+03 -0.11609991882E+04  0.13636092463E+04  0.50400001928E-02 0. -1.
</event>
<event>
 5   0  0.4959347E-05  0.1785017E+04  0.7818609E-02  0.8714308E-01
       -2   -1    0    0    0  501  0.00000000000E+00  0.00000000000E+00  0.78977450411E+03  0.78977450412E+03  0.25500000920E-02 0. -1.
        2   -1    0    0  501    0  0.00000000000E+00  0.00000000000E+00 -0.10086065586E+04  0.10086065586E+04  0.25500000920E-02 0.  1.
    10030    2    1    2    0    0  0.00000000000E+00  0.00000000000E+00 -0.21883205444E+03  0.17983810627E+04  0.17850173608E+04 0.  0.
        3    1    3    3  502    0 -0.25279668593E+03  0.31703436081E+03  0.69161804778E+03  0.80171845717E+03  0.10100000352E+00 0. -1.
       -3    1    3    3    0  502  0.25279668593E+03 -0.31703436081E+03 -0.91045010222E+03  0.99666260549E+03  0.10100000352E+00 0.  1.
</event>
<event>
 5   0  0.4959347E-05  0.2502400E+04  0.7818609E-02  0.8402131E-01
        2   -1    0    0  501    0  0.00000000000E+00  0.00000000000E+00  0.20005571795E+04  0.20005571795E+04  0.25500000920E-02 0. -1.
       -2   -1    0    0    0  501  0.00000000000E+00  0.00000000000E+00 -0.78253257289E+03  0.78253257289E+03  0.25500000920E-02 0.  1.
    10030    2    1    2    0    0  0.00000000000E+00  0.00000000000E+00  0.12180246066E+04  0.27830897524E+04  0.25023997737E+04 0.  0.
        3    1    3    3  502    0 -0.14249051192E+03 -0.12157528942E+04  0.89719591333E+03  0.15176689899E+04  0.10100000352E+00 0. -1.
       -3    1    3    3    0  502  0.14249051192E+03  0.12157528942E+04  0.32082869331E+03  0.12654207626E+04  0.10100000352E+00 0.  1.
</event>
<event>
 5   0  0.4959042E-05  0.2295546E+04  0.7818609E-02  0.8479679E-01
       -2   -1    0    0    0  501  0.00000000000E+00  0.00000000000E+00  0.10282233485E+04  0.10282233485E+04  0.25500000920E-02 0. -1.
        2   -1    0    0  501    0  0.00000000000E+00  0.00000000000E+00 -0.12812229977E+04  0.12812229977E+04  0.25500000920E-02 0.  1.
    10030    2    1    2    0    0  0.00000000000E+00  0.00000000000E+00 -0.25299964929E+03  0.23094463462E+04  0.22955464716E+04 0.  0.
        4    1    3    3  502    0 -0.39226701934E+03  0.48600898596E+03  0.84229714108E+03  0.10485915485E+04  0.12699999809E+01 0. -1.
       -4    1    3    3    0  502  0.39226701934E+03 -0.48600898596E+03 -0.10952967904E+04  0.12608547977E+04  0.12699999809E+01 0.  1.
</event>
<event>
 5   0  0.2041718E-05  0.2423246E+04  0.7818609E-02  0.8430852E-01
       -1   -1    0    0    0  501  0.00000000000E+00  0.00000000000E+00  0.56897015562E+03  0.56897015564E+03  0.50400001928E-02 0. -1.
        1   -1    0    0  501    0  0.00000000000E+00  0.00000000000E+00 -0.25801534609E+04  0.25801534609E+04  0.50400001928E-02 0.  1.
    10030    2    1    2    0    0  0.00000000000E+00  0.00000000000E+00 -0.20111833053E+04  0.31491236165E+04  0.24232460182E+04 0.  0.
        4    1    3    3  502    0  0.71694039609E+03 -0.70336354651E+03 -0.12486175937E+03  0.10120849183E+04  0.12699999809E+01 0. -1.
       -4    1    3    3    0  502 -0.71694039609E+03  0.70336354651E+03 -0.18863215459E+04  0.21370386982E+04  0.12699999809E+01 0.  1.
</event>
<event>
 5   0  0.2041718E-05  0.2480013E+04  0.7818609E-02  0.8410141E-01
        1   -1    0    0  501    0  0.00000000000E+00  0.00000000000E+00  0.12519582471E+04  0.12519582471E+04  0.50400001928E-02 0. -1.
       -1   -1    0    0    0  501  0.00000000000E+00  0.00000000000E+00 -0.12281687690E+04  0.12281687690E+04  0.50400001928E-02 0.  1.
    10030    2    1    2    0    0  0.00000000000E+00  0.00000000000E+00  0.23789478015E+02  0.24801270161E+04  0.24800129187E+04 0.  0.
        4    1    3    3  502    0  0.39309584234E+03 -0.30808356651E+03 -0.11231352665E+04  0.12291762546E+04  0.12699999809E+01 0.  1.
       -4    1    3    3    0  502 -0.39309584234E+03  0.30808356651E+03  0.11469247445E+04  0.12509507615E+04  0.12699999809E+01 0. -1.
</event>
<event>
 5   0  0.5024070E-05  0.1843838E+04  0.7818609E-02  0.8683328E-01
       -2   -1    0    0    0  501  0.00000000000E+00  0.00000000000E+00  0.11390391503E+04  0.11390391503E+04  0.25500000920E-02 0.  1.
        2   -1    0    0  501    0  0.00000000000E+00  0.00000000000E+00 -0.74618546484E+03  0.74618546485E+03  0.25500000920E-02 0. -1.
    10030    2    1    2    0    0  0.00000000000E+00  0.00000000000E+00  0.39285368543E+03  0.18852246151E+04  0.18438377996E+04 0.  0.
        5    1    3    3  502    0  0.27363897941E+03 -0.76166841507E+03  0.64780555496E+03  0.10366731368E+04  0.46999998093E+01 0.  1.
       -5    1    3    3    0  502 -0.27363897941E+03  0.76166841507E+03 -0.25495186953E+03  0.84855147831E+03  0.46999998093E+01 0. -1.
</event>
<event>
 5   0  0.2041718E-05  0.2496736E+04  0.7818609E-02  0.8404149E-01
       -1   -1    0    0    0  501  0.00000000000E+00  0.00000000000E+00  0.91108440528E+03  0.91108440530E+03  0.50400001928E-02 0.  1.
        1   -1    0    0  501    0  0.00000000000E+00  0.00000000000E+00 -0.17105135346E+04  0.17105135346E+04  0.50400001928E-02 0. -1.
    10030    2    1    2    0    0  0.00000000000E+00  0.00000000000E+00 -0.79942912931E+03  0.26215979399E+04  0.24967356339E+04 0.  0.
        4    1    3    3  502    0 -0.43745454854E+03  0.86238326174E+03 -0.12287235507E+04  0.15635966709E+04  0.12699999809E+01 0. -1.
       -4    1    3    3    0  502  0.43745454854E+03 -0.86238326174E+03  0.42929442139E+03  0.10580012690E+04  0.12699999809E+01 0.  1.
</event>
<event>
 5   0  0.4959347E-05  0.2540769E+04  0.7818609E-02  0.8388603E-01
        2   -1    0    0  501    0  0.00000000000E+00  0.00000000000E+00  0.11293217223E+04  0.11293217223E+04  0.25500000920E-02 0.  1.
       -2   -1    0    0    0  501  0.00000000000E+00  0.00000000000E+00 -0.14290678203E+04  0.14290678203E+04  0.25500000920E-02 0. -1.
    10030    2    1    2    0    0  0.00000000000E+00  0.00000000000E+00 -0.29974609795E+03  0.25583895426E+04  0.25407694363E+04 0.  0.
        3    1    3    3  502    0  0.73174089040E+03 -0.44409632685E+03 -0.10951115011E+04  0.13899408219E+04  0.10100000352E+00 0. -1.
       -3    1    3    3    0  502 -0.73174089040E+03  0.44409632685E+03  0.79536540315E+03  0.11684487207E+04  0.10100000352E+00 0.  1.
</event>
<event>
 5   0  0.5024070E-05  0.2415741E+04  0.7818609E-02  0.8433634E-01
       -2   -1    0    0    0  501  0.00000000000E+00  0.00000000000E+00  0.12059335152E+04  0.12059335152E+04  0.25500000920E-02 0. -1.
        2   -1    0    0  501    0  0.00000000000E+00  0.00000000000E+00 -0.12098109719E+04  0.12098109719E+04  0.25500000920E-02 0.  1.
    10030    2    1    2    0    0  0.00000000000E+00  0.00000000000E+00 -0.38774566390E+01  0.24157444871E+04  0.24157413753E+04 0.  0.
        5    1    3    3  502    0 -0.44588624736E+03 -0.10558016780E+04 -0.38324982675E+03  0.12084842773E+04  0.46999998093E+01 0. -1.
       -5    1    3    3    0  502  0.44588624736E+03  0.10558016780E+04  0.37937237011E+03  0.12072602097E+04  0.46999998093E+01 0.  1.
</event>
<event>
 5   0  0.2041718E-05  0.2579505E+04  0.7818609E-02  0.8375196E-01
       -1   -1    0    0    0  501  0.00000000000E+00  0.00000000000E+00  0.13725088425E+04  0.13725088425E+04  0.50400001928E-02 0. -1.
        1   -1    0    0  501    0  0.00000000000E+00  0.00000000000E+00 -0.12119857134E+04  0.12119857134E+04  0.50400001928E-02 0.  1.
    10030    2    1    2    0    0  0.00000000000E+00  0.00000000000E+00  0.16052312904E+03  0.25844945559E+04  0.25795046878E+04 0.  0.
        4    1    3    3  502    0  0.65847567916E+03 -0.11860234934E+03  0.11850289951E+04  0.13608644567E+04  0.12699999809E+01 0. -1.
       -4    1    3    3    0  502 -0.65847567916E+03  0.11860234934E+03 -0.10245058660E+04  0.12236300992E+04  0.12699999809E+01 0.  1.
</event>
<event>
 5   0  0.2063930E-05  0.2452102E+04  0.7818609E-02  0.8420251E-01
        1   -1    0    0  501    0  0.00000000000E+00  0.00000000000E+00  0.11380886933E+04  0.11380886933E+04  0.50400001928E-02 0. -1.
       -1   -1    0    0    0  501  0.00000000000E+00  0.00000000000E+00 -0.13208113763E+04  0.13208113763E+04  0.50400001928E-02 0.  1.
    10030    2    1    2    0    0  0.00000000000E+00  0.00000000000E+00 -0.18272268304E+03  0.24589000696E+04  0.24521015422E+04 0.  0.
        3    1    3    3  502    0 -0.87279722524E+03  0.82087809908E+03 -0.35205256448E+03  0.12488221924E+04  0.10100000352E+00 0. -1.
       -3    1    3    3    0  502  0.87279722524E+03 -0.82087809908E+03  0.16932988144E+03  0.12100778772E+04  0.10100000352E+00 0.  1.
</event>
<event>
 5   0  0.2041718E-05  0.2550826E+04  0.7818609E-02  0.8385099E-01
        1   -1    0    0  501    0  0.00000000000E+00  0.00000000000E+00  0.76916379075E+03  0.76916379076E+03  0.50400001928E-02 0. -1.
       -1   -1    0    0    0  501  0.00000000000E+00  0.00000000000E+00 -0.21148663019E+04  0.21148663019E+04  0.50400001928E-02 0.  1.
    10030    2    1    2    0    0  0.00000000000E+00  0.00000000000E+00 -0.13457025112E+04  0.28840300927E+04  0.25508262048E+04 0.  0.
        4    1    3    3  502    0  0.11448697940E+04 -0.51417027016E+03 -0.92962795758E+03  0.15618283082E+04  0.12699999809E+01 0.  1.
       -4    1    3    3    0  502 -0.11448697940E+04  0.51417027016E+03 -0.41607455357E+03  0.13222017845E+04  0.12699999809E+01 0. -1.
</event>
<event>
 5   0  0.5024070E-05  0.2490347E+04  0.7818609E-02  0.8406433E-01
       -2   -1    0    0    0  501  0.00000000000E+00  0.00000000000E+00  0.10960746908E+04  0.10960746908E+04  0.25500000920E-02 0. -1.
        2   -1    0    0  501    0  0.00000000000E+00  0.00000000000E+00 -0.14145539100E+04  0.14145539100E+04  0.25500000920E-02 0.  1.
    10030    2    1    2    0    0  0.00000000000E+00  0.00000000000E+00 -0.31847921924E+03  0.25106286008E+04  0.24903467546E+04 0.  0.
        5    1    3    3  502    0 -0.10729407390E+03 -0.48219336763E+02 -0.14089308182E+04  0.14138406074E+04  0.46999998093E+01 0.  1.
       -5    1    3    3    0  502  0.10729407390E+03  0.48219336763E+02  0.10904515989E+04  0.10967879934E+04  0.46999998093E+01 0. -1.
</event>
<event>
 5   0  0.2041718E-05  0.2452051E+04  0.7818609E-02  0.8420269E-01
       -1   -1    0    0    0  501  0.00000000000E+00  0.00000000000E+00  0.13639268439E+04  0.13639268439E+04  0.50400001928E-02 0. -1.
        1   -1    0    0  501    0  0.00000000000E+00  0.00000000000E+00 -0.11020671893E+04  0.11020671893E+04  0.50400001928E-02 0.  1.
    10030    2    1    2    0    0  0.00000000000E+00  0.00000000000E+00  0.26185965457E+03  0.24659940332E+04  0.24520514050E+04 0.  0.
        4    1    3    3  502    0 -0.76160606250E+03 -0.35374575077E+03  0.10292938427E+04  0.13283927424E+04  0.12699999809E+01 0. -1.
       -4    1    3    3    0  502  0.76160606250E+03  0.35374575077E+03 -0.76743418814E+03  0.11376012907E+04  0.12699999809E+01 0.  1.
</event>
<event>
 5   0  0.2036578E-05  0.2343660E+04  0.7818609E-02  0.8460903E-01
        1   -1    0    0  501    0  0.00000000000E+00  0.00000000000E+00  0.11349476656E+04  0.11349476656E+04  0.50400001928E-02 0.  1.
       -1   -1    0    0    0  501  0.00000000000E+00  0.00000000000E+00 -0.12099106202E+04  0.12099106202E+04  0.50400001928E-02 0. -1.
    10030    2    1    2    0    0  0.00000000000E+00  0.00000000000E+00 -0.74962954593E+02  0.23448582858E+04  0.23436597312E+04 0.  0.
        2    1    3    3  502    0 -0.63620172583E+03  0.80949093511E+03 -0.59737200654E+03  0.11903283262E+04  0.25500000920E-02 0. -1.
       -2    1    3    3    0  502  0.63620172583E+03 -0.80949093511E+03  0.52240905195E+03  0.11545299596E+04  0.25500000920E-02 0.  1.
</event>
<event>
 5   0  0.2066170E-05  0.2504654E+04  0.7818609E-02  0.8401329E-01
       -1   -1    0    0    0  501  0.00000000000E+00  0.00000000000E+00  0.18367694596E+04  0.18367694596E+04  0.50400001928E-02 0.  1.
        1   -1    0    0  501    0  0.00000000000E+00  0.00000000000E+00 -0.85384874128E+03  0.85384874130E+03  0.50400001928E-02 0. -1.
    10030    2    1    2    0    0  0.00000000000E+00  0.00000000000E+00  0.98292071834E+03  0.26906182009E+04  0.25046543004E+04 0.  0.
        5    1    3    3  502    0 -0.90646894532E+02 -0.62313862937E+03 -0.67140063846E+03  0.92049960251E+03  0.46999998093E+01 0. -1.
       -5    1    3    3    0  502  0.90646894532E+02  0.62313862937E+03  0.16543213568E+04  0.17701185984E+04  0.46999998093E+01 0.  1.
</event>
<event>
 5   0  0.4995256E-05  0.2477866E+04  0.7818609E-02  0.8410913E-01
        2   -1    0    0  501    0  0.00000000000E+00  0.00000000000E+00  0.19235813215E+04  0.19235813215E+04  0.25500000920E-02 0.  1.
       -2   -1    0    0    0  501  0.00000000000E+00  0.00000000000E+00 -0.79796742514E+03  0.79796742514E+03  0.25500000920E-02 0. -1.
    10030    2    1    2    0    0  0.00000000000E+00  0.00000000000E+00  0.11256138964E+04  0.27215487467E+04  0.24778662064E+04 0.  0.
        2    1    3    3  502    0 -0.47581467103E+03  0.10168498669E+04 -0.12720940688E+02  0.11227399856E+04  0.25500000920E-02 0.  1.
       -2    1    3    3    0  502  0.47581467103E+03 -0.10168498669E+04  0.11383348371E+04  0.15988087610E+04  0.25500000920E-02 0. -1.
</event>
<event>
 5   0  0.4959042E-05  0.2314568E+04  0.7818609E-02  0.8472199E-01
       -2   -1    0    0    0  501  0.00000000000E+00  0.00000000000E+00  0.11229254291E+04  0.11229254291E+04  0.25500000920E-02 0. -1.
        2   -1    0    0  501    0  0.00000000000E+00  0.00000000000E+00 -0.11926940109E+04  0.11926940109E+04  0.25500000920E-02 0.  1.
    10030    2    1    2    0    0  0.00000000000E+00  0.00000000000E+00 -0.69768581772E+02  0.23156194400E+04  0.23145681532E+04 0.  0.
        4    1    3    3  502    0 -0.44435036803E+03  0.29703598910E+03 -0.10618139545E+04  0.11887506531E+04  0.12699999809E+01 0.  1.
       -4    1    3    3    0  502  0.44435036803E+03 -0.29703598910E+03  0.99204537274E+03  0.11268687869E+04  0.12699999809E+01 0. -1.
</event>
<event>
 5   0  0.4959347E-05  0.2400176E+04  0.7818609E-02  0.8439438E-01
       -2   -1    0    0    0  501  0.00000000000E+00  0.00000000000E+00  0.81830351861E+03  0.81830351862E+03  0.25500000920E-02 0.  1.
        2   -1    0    0  501    0  0.00000000000E+00  0.00000000000E+00 -0.17599969585E+04  0.17599969585E+04  0.25500000920E-02 0. -1.
    10030    2    1    2    0    0  0.00000000000E+00  0.00000000000E+00 -0.94169343990E+03  0.25783004771E+04  0.24001764134E+04 0.  0.
        3    1    3    3  502    0 -0.16531714280E+03  0.10363425967E+03  0.80115103682E+03  0.82456825763E+03  0.10100000352E+00 0.  1.
       -3    1    3    3    0  502  0.16531714280E+03 -0.10363425967E+03 -0.17428444767E+04  0.17537322195E+04  0.10100000352E+00 0. -1.
</event>
<event>
 5   0  0.2081874E-05  0.2497522E+04  0.7818609E-02  0.8403869E-01
       -1   -1    0    0    0  501  0.00000000000E+00  0.00000000000E+00  0.58537231855E+03  0.58537231857E+03  0.50400001928E-02 0. -1.
        1   -1    0    0  501    0  0.00000000000E+00  0.00000000000E+00 -0.26639517239E+04  0.26639517239E+04  0.50400001928E-02 0.  1.
    10030    2    1    2    0    0  0.00000000000E+00  0.00000000000E+00 -0.20785794053E+04  0.32493240425E+04  0.24975216493E+04 0.  0.
        1    1    3    3  502    0 -0.48865557491E+03  0.10454828636E+04 -0.41862722297E+03  0.12276267514E+04  0.50400001928E-02 0. -1.
       -1    1    3    3    0  502  0.48865557491E+03 -0.10454828636E+04 -0.16599521824E+04  0.20216972911E+04  0.50400001928E-02 0.  1.
</event>
<event>
 5   0  0.2063930E-05  0.2549551E+04  0.7818609E-02  0.8385542E-01
        1   -1    0    0  501    0  0.00000000000E+00  0.00000000000E+00  0.14185239093E+04  0.14185239093E+04  0.50400001928E-02 0.  1.
       -1   -1    0    0    0  501  0.00000000000E+00  0.00000000000E+00 -0.11455939698E+04  0.11455939699E+04  0.50400001928E-02 0. -1.
    10030    2    1    2    0    0  0.00000000000E+00  0.00000000000E+00  0.27292993948E+03  0.25641178792E+04  0.25495508911E+04 0.  0.
        3    1    3    3  502    0  0.11107249227E+04  0.34104367250E+03  0.66389608405E+03  0.13381997837E+04  0.10100000352E+00 0.  1.
       -3    1    3    3    0  502 -0.11107249227E+04 -0.34104367250E+03 -0.39096614457E+03  0.12259180955E+04  0.10100000352E+00 0. -1.
</event>
<event>
 5   0  0.2066170E-05  0.2130151E+04  0.7818609E-02  0.8548077E-01
        1   -1    0    0  501    0  0.00000000000E+00  0.00000000000E+00  0.21755768186E+04  0.21755768186E+04  0.50400001928E-02 0. -1.
       -1   -1    0    0    0  501  0.00000000000E+00  0.00000000000E+00 -0.52141846629E+03  0.52141846631E+03  0.50400001928E-02 0.  1.
    10030    2    1    2    0    0  0.00000000000E+00  0.00000000000E+00  0.16541583523E+04  0.26969952849E+04  0.21301511008E+04 0.  0.
        5    1    3    3  502    0 -0.14385905683E+03  0.52760222445E+03  0.19842357728E+04  0.20582208889E+04  0.46999998093E+01 0. -1.
       -5    1    3    3    0  502  0.14385905683E+03 -0.52760222445E+03 -0.33007742049E+03  0.63877439601E+03  0.46999998093E+01 0.  1.
</event>
<event>
 5   0  0.2066170E-05  0.2399269E+04  0.7818609E-02  0.8439777E-01
       -1   -1    0    0    0  501  0.00000000000E+00  0.00000000000E+00  0.59550690684E+03  0.59550690686E+03  0.50400001928E-02 0.  1.
        1   -1    0    0  501    0  0.00000000000E+00  0.00000000000E+00 -0.24166354562E+04  0.24166354562E+04  0.50400001928E-02 0. -1.
    10030    2    1    2    0    0  0.00000000000E+00  0.00000000000E+00 -0.18211285494E+04  0.30121423631E+04  0.23992691433E+04 0.  0.
        5    1    3    3  502    0 -0.41023026473E+03  0.98540491462E+03 -0.15979564580E+04  0.19216655920E+04  0.46999998093E+01 0. -1.
       -5    1    3    3    0  502  0.41023026473E+03 -0.98540491462E+03 -0.22317209137E+03  0.10904767711E+04  0.46999998093E+01 0.  1.
</event>
<event>
 5   0  0.4995256E-05  0.2479408E+04  0.7818609E-02  0.8410358E-01
        2   -1    0    0  501    0  0.00000000000E+00  0.00000000000E+00  0.32660388868E+04  0.32660388868E+04  0.25500000920E-02 0. -1.
       -2   -1    0    0    0  501  0.00000000000E+00  0.00000000000E+00 -0.47055956565E+03  0.47055956566E+03  0.25500000920E-02 0.  1.
    10030    2    1    2    0    0  0.00000000000E+00  0.00000000000E+00  0.27954793211E+04  0.37365984524E+04  0.24794078648E+04 0.  0.
        2    1    3    3  502    0  0.23545543468E+03  0.12143013321E+04  0.12725648620E+04  0.17746516038E+04  0.25500000920E-02 0. -1.
       -2    1    3    3    0  502 -0.23545543468E+03 -0.12143013321E+04  0.15229144591E+04  0.19619468486E+04  0.25500000920E-02 0.  1.
</event>
<event>
 5   0  0.4995256E-05  0.2542796E+04  0.7818609E-02  0.8387896E-01
       -2   -1    0    0    0  501  0.00000000000E+00  0.00000000000E+00  0.11643511793E+04  0.11643511793E+04  0.25500000920E-02 0.  1.
        2   -1    0    0  501    0  0.00000000000E+00  0.00000000000E+00 -0.13882861154E+04  0.13882861154E+04  0.25500000920E-02 0. -1.
    10030    2    1    2    0    0  0.00000000000E+00  0.00000000000E+00 -0.22393493614E+03  0.25526372947E+04  0.25427957650E+04 0.  0.
        2    1    3    3  502    0  0.64110267649E+03 -0.10426901505E+04  0.23321972092E+03  0.12460364481E+04  0.25500000920E-02 0.  1.
       -2    1    3    3    0  502 -0.64110267649E+03  0.10426901505E+04 -0.45715465706E+03  0.13066008466E+04  0.25500000920E-02 0. -1.
</event>
<event>
 5   0  0.2063930E-05  0.2512629E+04  0.7818609E-02  0.8398500E-01
        1   -1    0    0  501    0  0.00000000000E+00  0.00000000000E+00  0.20580140029E+04  0.20580140029E+04  0.50400001928E-02 0.  1.
       -1   -1    0    0    0  501  0.00000000000E+00  0.00000000000E+00 -0.76691728176E+03  0.76691728178E+03  0.50400001928E-02 0. -1.
    10030    2    1    2    0    0  0.00000000000E+00  0.00000000000E+00  0.12910967211E+04  0.28249312847E+04  0.25126293041E+04 0.  0.
        3    1    3    3  502    0  0.10388466586E+04  0.70343146538E+03  0.71934419412E+03  0.14461930322E+04  0.10100000352E+00 0. -1.
       -3    1    3    3    0  502 -0.10388466586E+04 -0.70343146538E+03  0.57175252702E+03  0.13787382525E+04  0.10100000352E+00 0.  1.
</event>
<event>
 5   0  0.2081874E-05  0.2463983E+04  0.7818609E-02  0.8415930E-01
        1   -1    0    0  501    0  0.00000000000E+00  0.00000000000E+00  0.14726163296E+04  0.14726163296E+04  0.50400001928E-02 0. -1.
       -1   -1    0    0    0  501  0.00000000000E+00  0.00000000000E+00 -0.10306845223E+04  0.10306845223E+04  0.50400001928E-02 0.  1.
    10030    2    1    2    0    0  0.00000000000E+00  0.00000000000E+00  0.44193180731E+03  0.25033008519E+04  0.24639828394E+04 0.  0.
        1    1    3    3  502    0  0.11561766055E+04 -0.18096697922E+03  0.61222081861E+03  0.13207224240E+04  0.50400001928E-02 0. -1.
       -1    1    3    3    0  502 -0.11561766055E+04  0.18096697922E+03 -0.17028901131E+03  0.11825784278E+04  0.50400001928E-02 0.  1.
</event>
<event>
 5   0  0.4959347E-05  0.2466160E+04  0.7818609E-02  0.8415141E-01
        2   -1    0    0  501    0  0.00000000000E+00  0.00000000000E+00  0.15269254462E+04  0.15269254462E+04  0.25500000920E-02 0.  1.
       -2   -1    0    0    0  501  0.00000000000E+00  0.00000000000E+00 -0.99578255420E+03  0.99578255420E+03  0.25500000920E-02 0. -1.
    10030    2    1    2    0    0  0.00000000000E+00  0.00000000000E+00  0.53114289203E+03  0.25227080004E+04  0.24661595414E+04 0.  0.
        3    1    3    3  502    0  0.26136420259E+03 -0.12050526502E+04  0.27043164928E+03  0.12623772904E+04  0.10100000352E+00 0. -1.
       -3    1    3    3    0  502 -0.26136420259E+03  0.12050526502E+04  0.26071124275E+03  0.12603307100E+04  0.10100000352E+00 0.  1.
</event>
<event>
 5   0  0.5024070E-05  0.1734743E+04  0.7818609E-02  0.8741793E-01
       -2   -1    0    0    0  501  0.00000000000E+00  0.00000000000E+00  0.66095520618E+03  0.66095520618E+03  0.25500000920E-02 0.  1.
        2   -1    0    0  501    0  0.00000000000E+00  0.00000000000E+00 -0.11382520000E+04  0.11382520000E+04  0.25500000920E-02 0. -1.
    10030    2    1    2    0    0  0.00000000000E+00  0.00000000000E+00 -0.47729679382E+03  0.17992072062E+04  0.17347433071E+04 0.  0.
        5    1    3    3  502    0 -0.38719641020E+03 -0.76302399252E+03 -0.91295586149E+02  0.86051359506E+03  0.46999998093E+01 0. -1.
       -5    1    3    3    0  502  0.38719641020E+03  0.76302399252E+03 -0.38600120767E+03  0.93869361112E+03  0.46999998093E+01 0.  1.
</event>
<event>
 5   0  0.2036578E-05  0.2481242E+04  0.7818609E-02  0.8409699E-01
       -1   -1    0    0    0  501  0.00000000000E+00  0.00000000000E+00  0.11423889362E+04  0.11423889362E+04  0.50400001928E-02 0. -1.
        1   -1    0    0  501    0  0.00000000000E+00  0.00000000000E+00 -0.13473000829E+04  0.13473000829E+04  0.50400001928E-02 0.  1.
    10030    2    1    2    0    0  0.00000000000E+00  0.00000000000E+00 -0.20491114677E+03  0.24896890191E+04  0.24812421957E+04 0.  0.
        2    1    3    3  502    0  0.74503643726E+03  0.11360163275E+03  0.88637176160E+03  0.11634601513E+04  0.25500000920E-02 0. -1.
       -2    1    3    3    0  502 -0.74503643726E+03 -0.11360163275E+03 -0.10912829084E+04  0.13262288679E+04  0.25500000920E-02 0.  1.
</event>
<event>
 5   0  0.2036578E-05  0.2430525E+04  0.7818609E-02  0.8428163E-01
        1   -1    0    0  501    0  0.00000000000E+00  0.00000000000E+00  0.11010122849E+04  0.11010122849E+04  0.50400001928E-02 0. -1.
       -1   -1    0    0    0  501  0.00000000000E+00  0.00000000000E+00 -0.13413678001E+04  0.13413678001E+04  0.50400001928E-02 0.  1.
    10030    2    1    2    0    0  0.00000000000E+00  0.00000000000E+00 -0.24035551518E+03  0.24423800851E+04  0.24305245743E+04 0.  0.
        2    1    3    3  502    0  0.28197492245E+03 -0.11656634052E+04 -0.31755732781E+03  0.12406142380E+04  0.25500000920E-02 0. -1.
       -2    1    3    3    0  502 -0.28197492245E+03  0.11656634052E+04  0.77201812628E+02  0.12017658470E+04  0.25500000920E-02 0.  1.
</event>
<event>
 5   0  0.2063930E-05  0.2394479E+04  0.7818609E-02  0.8441573E-01
        1   -1    0    0  501    0  0.00000000000E+00  0.00000000000E+00  0.15768487034E+04  0.15768487034E+04  0.50400001928E-02 0. -1.
       -1   -1    0    0    0  501  0.00000000000E+00  0.00000000000E+00 -0.90901724180E+03  0.90901724181E+03  0.50400001928E-02 0.  1.
    10030    2    1    2    0    0  0.00000000000E+00  0.00000000000E+00  0.66783146161E+03  0.24858659452E+04  0.23944791994E+04 0.  0.
        3    1    3    3  502    0 -0.40549561909E+02 -0.11449951753E+04  0.69463074446E+03  0.13398395799E+04  0.10100000352E+00 0. -1.
       -3    1    3    3    0  502  0.40549561909E+02  0.11449951753E+04 -0.26799282844E+02  0.11460263654E+04  0.10100000352E+00 0.  1.
</event>
<event>
 5   0  0.4959347E-05  0.2501532E+04  0.7818609E-02  0.8402440E-01
       -2   -1    0    0    0  501  0.00000000000E+00  0.00000000000E+00  0.17618427539E+04  0.17618427539E+04  0.25500000920E-02 0.  1.
        2   -1    0    0  501    0  0.00000000000E+00  0.00000000000E+00 -0.88794278486E+03  0.88794278487E+03  0.25500000920E-02 0. -1.
    10030    2    1    2    0    0  0.00000000000E+00  0.00000000000E+00  0.87389996900E+03  0.26497855387E+04  0.25015319797E+04 0.  0.
        3    1    3    3  502    0  0.91536864558E+03  0.61137869465E+03 -0.19216064958E+03  0.11174119165E+04  0.10100000352E+00 0. -1.
       -3    1    3    3    0  502 -0.91536864558E+03 -0.61137869465E+03  0.10660606186E+04  0.15323736223E+04  0.10100000352E+00 0.  1.
</event>
<event>
 5   0  0.2066170E-05  0.2383915E+04  0.7818609E-02  0.8445550E-01
       -1   -1    0    0    0  501  0.00000000000E+00  0.00000000000E+00  0.11750468029E+04  0.11750468029E+04  0.50400001928E-02 0.  1.
        1   -1    0    0  501    0  0.00000000000E+00  0.00000000000E+00 -0.12091115728E+04  0.12091115728E+04  0.50400001928E-02 0. -1.
    10030    2    1    2    0    0  0.00000000000E+00  0.00000000000E+00 -0.34064769921E+02  0.23841583758E+04  0.23839150052E+04 0.  0.
        5    1    3    3  502    0  0.60534289194E+03  0.10262440870E+04 -0.50556772037E+02  0.11925581831E+04  0.46999998093E+01 0.  1.
       -5    1    3    3    0  502 -0.60534289194E+03 -0.10262440870E+04  0.16492002116E+02  0.11916001926E+04  0.46999998093E+01 0. -1.
</event>
<event>
 5   0  0.2041718E-05  0.2512549E+04  0.7818609E-02  0.8398528E-01
        1   -1    0    0  501    0  0.00000000000E+00  0.00000000000E+00  0.10038532261E+04  0.10038532262E+04  0.50400001928E-02 0. -1.
       -1   -1    0    0    0  501  0.00000000000E+00  0.00000000000E+00 -0.15721683102E+04  0.15721683102E+04  0.50400001928E-02 0.  1.
    10030    2    1    2    0    0  0.00000000000E+00  0.00000000000E+00 -0.56831508405E+03  0.25760215364E+04  0.25125494863E+04 0.  0.
        4    1    3    3  502    0 -0.11666171108E+04  0.46533357289E+03 -0.31116303181E+03  0.12939686482E+04  0.12699999809E+01 0.  1.
       -4    1    3    3    0  502  0.11666171108E+04 -0.46533357289E+03 -0.25715205224E+03  0.12820528882E+04  0.12699999809E+01 0. -1.
</event>
<event>
 5   0  0.4959347E-05  0.2562794E+04  0.7818609E-02  0.8380950E-01
       -2   -1    0    0    0  501  0.00000000000E+00  0.00000000000E+00  0.11603601758E+04  0.11603601758E+04  0.25500000920E-02 0.  1.
        2   -1    0    0  501    0  0.00000000000E+00  0.00000000000E+00 -0.14150587526E+04  0.14150587526E+04  0.25500000920E-02 0. -1.
    10030    2    1    2    0    0  0.00000000000E+00  0.00000000000E+00 -0.25469857679E+03  0.25754189285E+04  0.25627936499E+04 0.  0.
        3    1    3    3  502    0  0.29365242982E+03  0.48499878394E+03 -0.12821501640E+04  0.14019146276E+04  0.10100000352E+00 0. -1.
       -3    1    3    3    0  502 -0.29365242982E+03 -0.48499878394E+03  0.10274515872E+04  0.11735043009E+04  0.10100000352E+00 0.  1.
</event>
<event>
 5   0  0.5024070E-05  0.2524382E+04  0.7818609E-02  0.8394350E-01
        2   -1    0    0  501    0  0.00000000000E+00  0.00000000000E+00  0.19887954291E+04  0.19887954291E+04  0.25500000920E-02 0. -1.
       -2   -1    0    0    0  501  0.00000000000E+00  0.00000000000E+00 -0.80105077907E+03  0.80105077907E+03  0.25500000920E-02 0.  1.
    10030    2    1    2    0    0  0.00000000000E+00  0.00000000000E+00  0.11877446500E+04  0.27898462082E+04  0.25243820059E+04 0.  0.
        5    1    3    3  502    0 -0.65707768221E+03  0.78351164620E+03  0.14115880675E+04  0.17430560927E+04  0.46999998093E+01 0. -1.
       -5    1    3    3    0  502  0.65707768221E+03 -0.78351164620E+03 -0.22384341746E+03  0.10467901154E+04  0.46999998093E+01 0.  1.
</event>
<event>
 5   0  0.5024070E-05  0.1891517E+04  0.7818609E-02  0.8659090E-01
       -2   -1    0    0    0  501  0.00000000000E+00  0.00000000000E+00  0.85911573161E+03  0.85911573162E+03  0.25500000920E-02 0. -1.
        2   -1    0    0  501    0  0.00000000000E+00  0.00000000000E+00 -0.10411395131E+04  0.10411395131E+04  0.25500000920E-02 0.  1.
    10030    2    1    2    0    0  0.00000000000E+00  0.00000000000E+00 -0.18202378148E+03  0.19002552447E+04  0.18915172053E+04 0.  0.
        5    1    3    3  502    0  0.37410645977E+03  0.85435726643E+03 -0.24843697523E+03  0.96520723298E+03  0.46999998093E+01 0.  1.
       -5    1    3    3    0  502 -0.37410645977E+03 -0.85435726643E+03  0.66413193750E+02  0.93504801173E+03  0.46999998093E+01 0. -1.
</event>
<event>
 5   0  0.5024070E-05  0.2626640E+04  0.7818609E-02  0.8359208E-01
       -2   -1    0    0    0  501  0.00000000000E+00  0.00000000000E+00  0.99773417852E+03  0.99773417852E+03  0.25500000920E-02 0. -1.
        2   -1    0    0  501    0  0.00000000000E+00  0.00000000000E+00 -0.17287259629E+04  0.17287259629E+04  0.25500000920E-02 0.  1.
    10030    2    1    2    0    0  0.00000000000E+00  0.00000000000E+00 -0.73099178437E+03  0.27264601414E+04  0.26266396620E+04 0.  0.
        5    1    3    3  502    0 -0.33262890948E+03  0.11250334834E+03 -0.16790878632E+04  0.17154174819E+04  0.46999998093E+01 0.  1.
       -5    1    3    3    0  502  0.33262890948E+03 -0.11250334834E+03  0.94809607880E+03  0.10110426596E+04  0.46999998093E+01 0. -1.
</event>
<event>
 5   0  0.4995256E-05  0.2536537E+04  0.7818609E-02  0.8390083E-01
        2   -1    0    0  501    0  0.00000000000E+00  0.00000000000E+00  0.11180328158E+04  0.11180328158E+04  0.25500000920E-02 0. -1.
       -2   -1    0    0    0  501  0.00000000000E+00  0.00000000000E+00 -0.14386926189E+04  0.14386926189E+04  0.25500000920E-02 0.  1.
    10030    2    1    2    0    0  0.00000000000E+00  0.00000000000E+00 -0.32065980314E+03  0.25567254347E+04  0.25365374508E+04 0.  0.
        2    1    3    3  502    0  0.89245312273E+03  0.85258643681E+03 -0.45442140325E+03  0.13152471328E+04  0.25500000920E-02 0.  1.
       -2    1    3    3    0  502 -0.89245312273E+03 -0.85258643681E+03  0.13376160012E+03  0.12414783019E+04  0.25500000920E-02 0. -1.
</event>
<event>
 5   0  0.4959042E-05  0.2296383E+04  0.7818609E-02  0.8479348E-01
       -2   -1    0    0    0  501  0.00000000000E+00  0.00000000000E+00  0.99778629522E+03  0.99778629522E+03  0.25500000920E-02 0. -1.
        2   -1    0    0  501    0  0.00000000000E+00  0.00000000000E+00 -0.13212691166E+04  0.13212691166E+04  0.25500000920E-02 0.  1.
    10030    2    1    2    0    0  0.00000000000E+00  0.00000000000E+00 -0.32348282138E+03  0.23190554118E+04  0.22963834321E+04 0.  0.
        4    1    3    3  502    0  0.10670844540E+04  0.33382402629E+03  0.10205566292E+03  0.11227309044E+04  0.12699999809E+01 0. -1.
       -4    1    3    3    0  502 -0.10670844540E+04 -0.33382402629E+03 -0.42553848430E+03  0.11963245074E+04  0.12699999809E+01 0.  1.
</event>
<event>
 5   0  0.5024070E-05  0.2512768E+04  0.7818609E-02  0.8398451E-01
       -2   -1    0    0    0  501  0.00000000000E+00  0.00000000000E+00  0.12789805534E+04  0.12789805534E+04  0.25500000920E-02 0. -1.
        2   -1    0    0  501    0  0.00000000000E+00  0.00000000000E+00 -0.12341870877E+04  0.12341870877E+04  0.25500000920E-02 0.  1.
    10030    2    1    2    0    0  0.00000000000E+00  0.00000000000E+00  0.44793465657E+02  0.25131676411E+04  0.25127684210E+04 0.  0.
        5    1    3    3  502    0 -0.12335767156E+04  0.14578625076E+03 -0.16608492644E+03  0.12532244160E+04  0.46999998093E+01 0.  1.
       -5    1    3    3    0  502  0.12335767156E+04 -0.14578625076E+03  0.21087839210E+03  0.12599432251E+04  0.46999998093E+01 0. -1.
</event>
<event>
 5   0  0.5024070E-05  0.2526141E+04  0.7818609E-02  0.8393732E-01
       -2   -1    0    0    0  501  0.00000000000E+00  0.00000000000E+00  0.83864477144E+03  0.83864477144E+03  0.25500000920E-02 0. -1.
        2   -1    0    0  501    0  0.00000000000E+00  0.00000000000E+00 -0.19022912597E+04  0.19022912597E+04  0.25500000920E-02 0.  1.
    10030    2    1    2    0    0  0.00000000000E+00  0.00000000000E+00 -0.10636464883E+04  0.27409360311E+04  0.25261406285E+04 0.  0.
        5    1    3    3  502    0 -0.88725429376E+03 -0.49704306271E+03 -0.13445473528E+04  0.16858533928E+04  0.46999998093E+01 0.  1.
       -5    1    3    3    0  502  0.88725429376E+03  0.49704306271E+03  0.28090086459E+03  0.10550826383E+04  0.46999998093E+01 0. -1.
</event>
<event>
 5   0  0.5219468E-05  0.2627383E+04  0.7818609E-02  0.8358959E-01
       -2   -1    0    0    0  501  0.00000000000E+00  0.00000000000E+00  0.10724888638E+04  0.10724888638E+04  0.25500000920E-02 0. -1.
        2   -1    0    0  501    0  0.00000000000E+00  0.00000000000E+00 -0.16091404618E+04  0.16091404618E+04  0.25500000920E-02 0.  1.
    10030    2    1    2    0    0  0.00000000000E+00  0.00000000000E+00 -0.53665159803E+03  0.26816293256E+04  0.26273828998E+04 0.  0.
        1    1    3    3  502    0  0.12891209854E+04  0.15333626257E+03 -0.63076081822E+02  0.12997397880E+04  0.50400001928E-02 0. -1.
       -1    1    3    3    0  502 -0.12891209854E+04 -0.15333626257E+03 -0.47357551621E+03  0.13818895376E+04  0.50400001928E-02 0.  1.
</event>
<event>
 5   0  0.5219468E-05  0.2523594E+04  0.7818609E-02  0.8394628E-01
        2   -1    0    0  501    0  0.00000000000E+00  0.00000000000E+00  0.22912739465E+04  0.22912739465E+04  0.25500000920E-02 0.  1.
       -2   -1    0    0    0  501  0.00000000000E+00  0.00000000000E+00 -0.69486738909E+03  0.69486738909E+03  0.25500000920E-02 0. -1.
    10030    2    1    2    0    0  0.00000000000E+00  0.00000000000E+00  0.15964065574E+04  0.29861413356E+04  0.25235939015E+04 0.  0.
        1    1    3    3  502    0  0.27895225974E+03 -0.51934382121E+02 -0.65662657693E+03  0.71531112448E+03  0.50400001928E-02 0. -1.
       -1    1    3    3    0  502 -0.27895225974E+03  0.51934382121E+02  0.22530331343E+04  0.22708302111E+04  0.50400001928E-02 0.  1.
</event>
<event>
 5   0  0.2036578E-05  0.2481819E+04  0.7818609E-02  0.8409491E-01
        1   -1    0    0  501    0  0.00000000000E+00  0.00000000000E+00  0.14043326874E+04  0.14043326874E+04  0.50400001928E-02 0.  1.
       -1   -1    0    0    0  501  0.00000000000E+00  0.00000000000E+00 -0.10965043330E+04  0.10965043330E+04  0.50400001928E-02 0. -1.
    10030    2    1    2    0    0  0.00000000000E+00  0.00000000000E+00  0.30782835437E+03  0.25008370204E+04  0.24818193945E+04 0.  0.
        2    1    3    3  502    0  0.88374586765E+03  0.64306400093E+03  0.74605544967E+03  0.13233052565E+04  0.25500000920E-02 0.  1.
       -2    1    3    3    0  502 -0.88374586765E+03 -0.64306400093E+03 -0.43822709530E+03  0.11775317639E+04  0.25500000920E-02 0. -1.
</event>
<event>
 5   0  0.4959347E-05  0.2486179E+04  0.7818609E-02  0.8407926E-01
        2   -1    0    0  501    0  0.00000000000E+00  0.00000000000E+00  0.17388658159E+04  0.17388658159E+04  0.25500000920E-02 0.  1.
       -2   -1    0    0    0  501  0.00000000000E+00  0.00000000000E+00 -0.88866656331E+03  0.88866656331E+03  0.25500000920E-02 0. -1.
    10030    2    1    2    0    0  0.00000000000E+00  0.00000000000E+00  0.85019925263E+03  0.26275323793E+04  0.24861793248E+04 0.  0.
        3    1    3    3  502    0  0.12240976215E+04  0.19783158623E+03  0.33224312287E+03  0.12837203069E+04  0.10100000352E+00 0. -1.
       -3    1    3    3    0  502 -0.12240976215E+04 -0.19783158623E+03  0.51795612976E+03  0.13438120724E+04  0.10100000352E+00 0.  1.
</event>
<event>
 5   0  0.2041718E-05  0.2452152E+04  0.7818609E-02  0.8420233E-01
        1   -1    0    0  501    0  0.00000000000E+00  0.00000000000E+00  0.26676861010E+04  0.26676861010E+04  0.50400001928E-02 0.  1.
       -1   -1    0    0    0  501  0.00000000000E+00  0.00000000000E+00 -0.56350814431E+03  0.56350814433E+03  0.50400001928E-02 0. -1.
    10030    2    1    2    0    0  0.00000000000E+00  0.00000000000E+00  0.21041779567E+04  0.32311942453E+04  0.24521523969E+04 0.  0.
        4    1    3    3  502    0  0.62907718898E+03 -0.80568603520E+03  0.19442323673E+04  0.21965675970E+04  0.12699999809E+01 0.  1.
       -4    1    3    3    0  502 -0.62907718898E+03  0.80568603520E+03  0.15994558935E+03  0.10346266483E+04  0.12699999809E+01 0. -1.
</event>
<event>
 5   0  0.2081874E-05  0.2597994E+04  0.7818609E-02  0.8368883E-01
        1   -1    0    0  501    0  0.00000000000E+00  0.00000000000E+00  0.14701852350E+04  0.14701852350E+04  0.50400001928E-02 0. -1.
       -1   -1    0    0    0  501  0.00000000000E+00  0.00000000000E+00 -0.11477421256E+04  0.11477421256E+04  0.50400001928E-02 0.  1.
    10030    2    1    2    0    0  0.00000000000E+00  0.00000000000E+00  0.32244310940E+03  0.26179273606E+04  0.25979942468E+04 0.  0.
        1    1    3    3  502    0  0.64877467031E+03  0.93080708743E+03  0.79859581517E+03  0.13874673628E+04  0.50400001928E-02 0. -1.
       -1    1    3    3    0  502 -0.64877467031E+03 -0.93080708743E+03 -0.47615270577E+03  0.12304599978E+04  0.50400001928E-02 0.  1.
</event>
<event>
 5   0  0.2066170E-05  0.2085841E+04  0.7818609E-02  0.8567507E-01
       -1   -1    0    0    0  501  0.00000000000E+00  0.00000000000E+00  0.86633193113E+03  0.86633193114E+03  0.50400001928E-02 0.  1.
        1   -1    0    0  501    0  0.00000000000E+00  0.00000000000E+00 -0.12555033832E+04  0.12555033832E+04  0.50400001928E-02 0. -1.
    10030    2    1    2    0    0  0.00000000000E+00  0.00000000000E+00 -0.38917145209E+03  0.21218353144E+04  0.20858405218E+04 0.  0.
        5    1    3    3  502    0  0.85682707970E+02 -0.83881871733E+02  0.85928581063E+03  0.86762427882E+03  0.46999998093E+01 0.  1.
       -5    1    3    3    0  502 -0.85682707970E+02  0.83881871733E+02 -0.12484572627E+04  0.12542110355E+04  0.46999998093E+01 0. -1.
</event>
<event>
 5   0  0.4959042E-05  0.2495317E+04  0.7818609E-02  0.8404656E-01
        2   -1    0    0  501    0  0.00000000000E+00  0.00000000000E+00  0.23619750502E+04  0.23619750502E+04  0.25500000920E-02 0. -1.
       -2   -1    0    0    0  501  0.00000000000E+00  0.00000000000E+00 -0.65904686818E+03  0.65904686818E+03  0.25500000920E-02 0.  1.
    10030    2    1    2    0    0  0.00000000000E+00  0.00000000000E+00  0.17029281820E+04  0.30210219184E+04  0.24953174223E+04 0.  0.
        4    1    3    3  502    0  0.22886191511E+03  0.28583342213E+03  0.22954575457E+04  0.23244796145E+04  0.12699999809E+01 0. -1.
       -4    1    3    3    0  502 -0.22886191511E+03 -0.28583342213E+03 -0.59252936365E+03  0.69654230387E+03  0.12699999809E+01 0.  1.
</event>
<event>
 5   0  0.2036578E-05  0.2327177E+04  0.7818609E-02  0.8467282E-01
        1   -1    0    0  501    0  0.00000000000E+00  0.00000000000E+00  0.88379864929E+03  0.88379864930E+03  0.50400001928E-02 0.  1.
       -1   -1    0    0    0  501  0.00000000000E+00  0.00000000000E+00 -0.15319526312E+04  0.15319526312E+04  0.50400001928E-02 0. -1.
    10030    2    1    2    0    0  0.00000000000E+00  0.00000000000E+00 -0.64815398195E+03  0.24157512806E+04  0.23271765436E+04 0.  0.
        2    1    3    3  502    0 -0.53304089494E+03  0.95120216001E+03  0.97610335875E+02  0.10947355491E+04  0.25500000920E-02 0. -1.
       -2    1    3    3    0  502  0.53304089494E+03 -0.95120216001E+03 -0.74576431783E+03  0.13210157314E+04  0.25500000920E-02 0.  1.
</event>
<event>
 5   0  0.4995256E-05  0.2414788E+04  0.7818609E-02  0.8433988E-01
       -2   -1    0    0    0  501  0.00000000000E+00  0.00000000000E+00  0.96880449110E+03  0.96880449111E+03  0.25500000920E-02 0. -1.
        2   -1    0    0  501    0  0.00000000000E+00  0.00000000000E+00 -0.15047415322E+04  0.15047415322E+04  0.25500000920E-02 0.  1.
    10030    2    1    2    0    0  0.00000000000E+00  0.00000000000E+00 -0.53593704114E+03  0.24735460233E+04  0.24147880689E+04 0.  0.
        2    1    3    3  502    0  0.81107862916E+03  0.60209670044E+03  0.40951063710E+03  0.10899852941E+04  0.25500000920E-02 0. -1.
       -2    1    3    3    0  502 -0.81107862916E+03 -0.60209670044E+03 -0.94544767823E+03  0.13835607293E+04  0.25500000920E-02 0.  1.
</event>
<event>
 5   0  0.4959347E-05  0.2513070E+04  0.7818609E-02  0.8398344E-01
       -2   -1    0    0    0  501  0.00000000000E+00  0.00000000000E+00  0.11069136001E+04  0.11069136001E+04  0.25500000920E-02 0. -1.
        2   -1    0    0  501    0  0.00000000000E+00  0.00000000000E+00 -0.14263807875E+04  0.14263807875E+04  0.25500000920E-02 0.  1.
    10030    2    1    2    0    0  0.00000000000E+00  0.00000000000E+00 -0.31946718732E+03  0.25332943876E+04  0.25130700688E+04 0.  0.
        3    1    3    3  502    0  0.24758538881E+03 -0.12317386057E+04 -0.17993897731E+03  0.12691952424E+04  0.10100000352E+00 0.  1.
       -3    1    3    3    0  502 -0.24758538881E+03  0.12317386057E+04 -0.13952821001E+03  0.12640991453E+04  0.10100000352E+00 0. -1.
</event>
<event>
 5   0  0.5024070E-05  0.2476960E+04  0.7818609E-02  0.8411240E-01
       -2   -1    0    0    0  501  0.00000000000E+00  0.00000000000E+00  0.85908126902E+03  0.85908126902E+03  0.25500000920E-02 0.  1.
        2   -1    0    0  501    0  0.00000000000E+00  0.00000000000E+00 -0.17854341370E+04  0.17854341370E+04  0.25500000920E-02 0. -1.
    10030    2    1    2    0    0  0.00000000000E+00  0.00000000000E+00 -0.92635286802E+03  0.26445154061E+04  0.24769602534E+04 0.  0.
        5    1    3    3  502    0  0.12273712427E+04  0.45402978869E+02 -0.63302717343E+03  0.13817550761E+04  0.46999998093E+01 0.  1.
       -5    1    3    3    0  502 -0.12273712427E+04 -0.45402978869E+02 -0.29332569459E+03  0.12627603300E+04  0.46999998093E+01 0. -1.
</event>
<event>
 5   0  0.2036578E-05  0.2443219E+04  0.7818609E-02  0.8423498E-01
        1   -1    0    0  501    0  0.00000000000E+00  0.00000000000E+00  0.17354913057E+04  0.17354913057E+04  0.50400001928E-02 0.  1.
       -1   -1    0    0    0  501  0.00000000000E+00  0.00000000000E+00 -0.85988927753E+03  0.85988927755E+03  0.50400001928E-02 0. -1.
    10030    2    1    2    0    0  0.00000000000E+00  0.00000000000E+00  0.87560202815E+03  0.25953805832E+04  0.24432194867E+04 0.  0.
        2    1    3    3  502    0  0.23071957610E+03  0.10846981134E+03 -0.83131476185E+03  0.86952944518E+03  0.25500000920E-02 0. -1.
       -2    1    3    3    0  502 -0.23071957610E+03 -0.10846981134E+03  0.17069167900E+04  0.17258511381E+04  0.25500000920E-02 0.  1.
</event>
<event>
 5   0  0.2041718E-05  0.2577412E+04  0.7818609E-02  0.8375915E-01
        1   -1    0    0  501    0  0.00000000000E+00  0.00000000000E+00  0.13017573884E+04  0.13017573884E+04  0.50400001928E-02 0.  1.
       -1   -1    0    0    0  501  0.00000000000E+00  0.00000000000E+00 -0.12757850344E+04  0.12757850344E+04  0.50400001928E-02 0. -1.
    10030    2    1    2    0    0  0.00000000000E+00  0.00000000000E+00  0.25972354023E+02  0.25775424228E+04  0.25774115655E+04 0.  0.
        4    1    3    3  502    0  0.38923543041E+03  0.99644525544E+03  0.73160015331E+03  0.12960122548E+04  0.12699999809E+01 0.  1.
       -4    1    3    3    0  502 -0.38923543041E+03 -0.99644525544E+03 -0.70562779928E+03  0.12815301680E+04  0.12699999809E+01 0. -1.
</event>
<event>
 5   0  0.4959042E-05  0.2487710E+04  0.7818609E-02  0.8407377E-01
       -2   -1    0    0    0  501  0.00000000000E+00  0.00000000000E+00  0.90388497988E+03  0.90388497989E+03  0.25500000920E-02 0. -1.
        2   -1    0    0  501    0  0.00000000000E+00  0.00000000000E+00 -0.17116949373E+04  0.17116949373E+04  0.25500000920E-02 0.  1.
    10030    2    1    2    0    0  0.00000000000E+00  0.00000000000E+00 -0.80780995744E+03  0.26155799172E+04  0.24877100667E+04 0.  0.
        4    1    3    3  502    0  0.83194423486E+03 -0.90082380493E+03 -0.62334061050E+03  0.13755616551E+04  0.12699999809E+01 0.  1.
       -4    1    3    3    0  502 -0.83194423486E+03  0.90082380493E+03 -0.18446934694E+03  0.12400182621E+04  0.12699999809E+01 0. -1.
</event>
<event>
 5   0  0.4959347E-05  0.2480006E+04  0.7818609E-02  0.8410143E-01
        2   -1    0    0  501    0  0.00000000000E+00  0.00000000000E+00  0.17816644023E+04  0.17816644023E+04  0.25500000920E-02 0. -1.
       -2   -1    0    0    0  501  0.00000000000E+00  0.00000000000E+00 -0.86301751135E+03  0.86301751136E+03  0.25500000920E-02 0.  1.
    10030    2    1    2    0    0  0.00000000000E+00  0.00000000000E+00  0.91864689090E+03  0.26446819136E+04  0.24800061117E+04 0.  0.
        3    1    3    3  502    0 -0.11620176708E+04 -0.17281694232E+03  0.88248033098E+03  0.14693271616E+04  0.10100000352E+00 0. -1.
       -3    1    3    3    0  502  0.11620176708E+04  0.17281694232E+03  0.36166559915E+02  0.11753547521E+04  0.10100000352E+00 0.  1.
</event>
<event>
 5   0  0.2081874E-05  0.2590985E+04  0.7818609E-02  0.8371270E-01
        1   -1    0    0  501    0  0.00000000000E+00  0.00000000000E+00  0.16164161163E+04  0.16164161163E+04  0.50400001928E-02 0. -1.
       -1   -1    0    0    0  501  0.00000000000E+00  0.00000000000E+00 -0.10382855156E+04  0.10382855156E+04  0.50400001928E-02 0.  1.
    10030    2    1    2    0    0  0.00000000000E+00  0.00000000000E+00  0.57813060064E+03  0.26547016319E+04  0.25909854810E+04 0.  0.
        1    1    3    3  502    0 -0.10853858839E+04  0.47167323910E+03 -0.25092772809E+03  0.12097532336E+04  0.50400001928E-02 0.  1.
       -1    1    3    3    0  502  0.10853858839E+04 -0.47167323910E+03  0.82905832873E+03  0.14449483983E+04  0.50400001928E-02 0. -1.
</event>
<event>
 5   0  0.2063930E-05  0.2567852E+04  0.7818609E-02  0.8379204E-01
       -1   -1    0    0    0  501  0.00000000000E+00  0.00000000000E+00  0.88714886263E+03  0.88714886264E+03  0.50400001928E-02 0.  1.
        1   -1    0    0  501    0  0.00000000000E+00  0.00000000000E+00 -0.18581623274E+04  0.18581623275E+04  0.50400001928E-02 0. -1.
    10030    2    1    2    0    0  0.00000000000E+00  0.00000000000E+00 -0.97101346482E+03  0.27453111901E+04  0.25678524844E+04 0.  0.
        3    1    3    3  502    0 -0.37454882672E+03 -0.12004724178E+04 -0.20868059730E+03  0.12747425040E+04  0.10100000352E+00 0.  1.
       -3    1    3    3    0  502  0.37454882672E+03  0.12004724178E+04 -0.76233286751E+03  0.14705686861E+04  0.10100000352E+00 0. -1.
</event>
<event>
 5   0  0.2036578E-05  0.2497663E+04  0.7818609E-02  0.8403819E-01
        1   -1    0    0  501    0  0.00000000000E+00  0.00000000000E+00  0.94248294543E+03  0.94248294544E+03  0.50400001928E-02 0.  1.
       -1   -1    0    0    0  501  0.00000000000E+00  0.00000000000E+00 -0.16547566284E+04  0.16547566284E+04  0.50400001928E-02 0. -1.
    10030    2    1    2    0    0  0.00000000000E+00  0.00000000000E+00 -0.71227368296E+03  0.25972395738E+04  0.24976628284E+04 0.  0.
        2    1    3    3  502    0  0.12433112999E+04 -0.70040097997E+00 -0.47810064196E+03  0.13320674543E+04  0.25500000920E-02 0.  1.
       -2    1    3    3    0  502 -0.12433112999E+04  0.70040097997E+00 -0.23417304099E+03  0.12651721195E+04  0.25500000920E-02 0. -1.
</event>
<event>
 5   0  0.2036578E-05  0.1976924E+04  0.7818609E-02  0.8617486E-01
       -1   -1    0    0    0  501  0.00000000000E+00  0.00000000000E+00  0.84277455376E+03  0.84277455378E+03  0.50400001928E-02 0. -1.
        1   -1    0    0  501    0  0.00000000000E+00  0.00000000000E+00 -0.11593338525E+04  0.11593338525E+04  0.50400001928E-02 0.  1.
    10030    2    1    2    0    0  0.00000000000E+00  0.00000000000E+00 -0.31655929871E+03  0.20021084063E+04  0.19769239441E+04 0.  0.
        2    1    3    3  502    0 -0.96681424693E+03 -0.20522214242E+03 -0.17299591738E+03  0.10033810359E+04  0.25500000920E-02 0. -1.
       -2    1    3    3    0  502  0.96681424693E+03  0.20522214242E+03 -0.14356338133E+03  0.99872737034E+03  0.25500000920E-02 0.  1.
</event>
<event>
 5   0  0.5024070E-05  0.2443991E+04  0.7818609E-02  0.8423215E-01
        2   -1    0    0  501    0  0.00000000000E+00  0.00000000000E+00  0.11928397328E+04  0.11928397328E+04  0.25500000920E-02 0.  1.
       -2   -1    0    0    0  501  0.00000000000E+00  0.00000000000E+00 -0.12518637101E+04  0.12518637101E+04  0.25500000920E-02 0. -1.
    10030    2    1    2    0    0  0.00000000000E+00  0.00000000000E+00 -0.59023977316E+02  0.24447034429E+04  0.24439908130E+04 0.  0.
        5    1    3    3  502    0 -0.13802829933E+03  0.28043879306E+03  0.11521677130E+04  0.11938217024E+04  0.46999998093E+01 0.  1.
       -5    1    3    3    0  502  0.13802829933E+03 -0.28043879306E+03 -0.12111916904E+04  0.12508817406E+04  0.46999998093E+01 0. -1.
</event>
<event>
 5   0  0.2066170E-05  0.2313254E+04  0.7818609E-02  0.8472714E-01
       -1   -1    0    0    0  501  0.00000000000E+00  0.00000000000E+00  0.87932404731E+03  0.87932404732E+03  0.50400001928E-02 0. -1.
        1   -1    0    0  501    0  0.00000000000E+00  0.00000000000E+00 -0.15213796298E+04  0.15213796298E+04  0.50400001928E-02 0.  1.
    10030    2    1    2    0    0  0.00000000000E+00  0.00000000000E+00 -0.64205558252E+03  0.24007036772E+04  0.23132537203E+04 0.  0.
        5    1    3    3  502    0  0.48832700117E+03  0.98948420745E+03 -0.68086501118E+03  0.12965884121E+04  0.46999998093E+01 0. -1.
       -5    1    3    3    0  502 -0.48832700117E+03 -0.98948420745E+03  0.38809428662E+02  0.11041152651E+04  0.46999998093E+01 0.  1.
</event>
<event>
 5   0  0.2063930E-05  0.1866801E+04  0.7818609E-02  0.8671561E-01
        1   -1    0    0  501    0  0.00000000000E+00  0.00000000000E+00  0.12038061567E+04  0.12038061567E+04  0.50400001928E-02 0. -1.
       -1   -1    0    0    0  501  0.00000000000E+00  0.00000000000E+00 -0.72373464296E+03  0.72373464298E+03  0.50400001928E-02 0.  1.
    10030    2    1    2    0    0  0.00000000000E+00  0.00000000000E+00  0.48007151371E+03  0.19275407997E+04  0.18668007061E+04 0.  0.
        3    1    3    3  502    0  0.19675427630E+03 -0.87029259678E+03  0.52302391577E+03  0.10342511667E+04  0.10100000352E+00 0.  1.
       -3    1    3    3    0  502 -0.19675427630E+03  0.87029259678E+03 -0.42952402057E+02  0.89328963292E+03  0.10100000352E+00 0. -1.
</event>
<event>
 5   0  0.2066170E-05  0.2396638E+04  0.7818609E-02  0.8440763E-01
        1   -1    0    0  501    0  0.00000000000E+00  0.00000000000E+00  0.20573945333E+04  0.20573945333E+04  0.50400001928E-02 0.  1.
       -1   -1    0    0    0  501  0.00000000000E+00  0.00000000000E+00 -0.69795459307E+03  0.69795459309E+03  0.50400001928E-02 0. -1.
    10030    2    1    2    0    0  0.00000000000E+00  0.00000000000E+00  0.13594399402E+04  0.27553491264E+04  0.23966376149E+04 0.  0.
        5    1    3    3  502    0  0.98800828757E+03 -0.67687174480E+03  0.72613798831E+03  0.14005763825E+04  0.46999998093E+01 0. -1.
       -5    1    3    3    0  502 -0.98800828757E+03  0.67687174480E+03  0.63330195189E+03  0.13547727438E+04  0.46999998093E+01 0.  1.
</event>
<event>
 5   0  0.2081874E-05  0.2518434E+04  0.7818609E-02  0.8396448E-01
       -1   -1    0    0    0  501  0.00000000000E+00  0.00000000000E+00  0.87333715992E+03  0.87333715993E+03  0.50400001928E-02 0.  1.
        1   -1    0    0  501    0  0.00000000000E+00  0.00000000000E+00 -0.18155954041E+04  0.18155954041E+04  0.50400001928E-02 0. -1.
    10030    2    1    2    0    0  0.00000000000E+00  0.00000000000E+00 -0.94225824415E+03  0.26889325640E+04  0.25184335876E+04 0.  0.
        1    1    3    3  502    0  0.12492865482E+04  0.12765391964E+03 -0.37203104521E+03  0.13097402420E+04  0.50400001928E-02 0.  1.
       -1    1    3    3    0  502 -0.12492865482E+04 -0.12765391964E+03 -0.57022719893E+03  0.13791923220E+04  0.50400001928E-02 0. -1.
</event>
<event>
 5   0  0.4995256E-05  0.2490773E+04  0.7818609E-02  0.8406280E-01
        2   -1    0    0  501    0  0.00000000000E+00  0.00000000000E+00  0.21872693418E+04  0.21872693418E+04  0.25500000920E-02 0. -1.
       -2   -1    0    0    0  501  0.00000000000E+00  0.00000000000E+00 -0.70909748183E+03  0.70909748184E+03  0.25500000920E-02 0.  1.
    10030    2    1    2    0    0  0.00000000000E+00  0.00000000000E+00  0.14781718600E+04  0.28963668237E+04  0.24907727174E+04 0.  0.
        2    1    3    3  502    0  0.11880557113E+04  0.26392378446E+03  0.43174644910E+03  0.12913315351E+04  0.25500000920E-02 0.  1.
       -2    1    3    3    0  502 -0.11880557113E+04 -0.26392378446E+03  0.10464254109E+04  0.16050352886E+04  0.25500000920E-02 0. -1.
</event>
<event>
 5   0  0.5219468E-05  0.2463713E+04  0.7818609E-02  0.8416028E-01
       -2   -1    0    0    0  501  0.00000000000E+00  0.00000000000E+00  0.88644539553E+03  0.88644539553E+03  0.25500000920E-02 0. -1.
        2   -1    0    0  501    0  0.00000000000E+00  0.00000000000E+00 -0.17118594485E+04  0.17118594485E+04  0.25500000920E-02 0.  1.
    10030    2    1    2    0    0  0.00000000000E+00  0.00000000000E+00 -0.82541405300E+03  0.25983048441E+04  0.24637125855E+04 0.  0.
        1    1    3    3  502    0 -0.52089908225E+03  0.31734259778E+03  0.71600697059E+03  0.94058926223E+03  0.50400001928E-02 0. -1.
       -1    1    3    3    0  502  0.52089908225E+03 -0.31734259778E+03 -0.15414210236E+04  0.16577155818E+04  0.50400001928E-02 0.  1.
</event>
<event>
 5   0  0.1692125E-05  0.2707205E+04  0.7818609E-02  0.8332671E-01
       -3   -1    0    0    0  501  0.00000000000E+00  0.00000000000E+00  0.83796938337E+03  0.83796938945E+03  0.10100000352E+00 0.  1.
        3   -1    0    0  501    0  0.00000000000E+00  0.00000000000E+00 -0.21865241690E+04  0.21865241713E+04  0.10100000352E+00 0. -1.
    10030    2    1    2    0    0  0.00000000000E+00  0.00000000000E+00 -0.13485547856E+04  0.30244935607E+04  0.27072054391E+04 0.  0.
        2    1    3    3  502    0  0.70715124646E+03  0.96717524177E+03  0.29425989045E+02  0.11984810063E+04  0.25500000920E-02 0.  1.
       -2    1    3    3    0  502 -0.70715124646E+03 -0.96717524177E+03 -0.13779807746E+04  0.18260125544E+04  0.25500000920E-02 0. -1.
</event>
<event>
 5   0  0.2036578E-05  0.2059832E+04  0.7818609E-02  0.8579147E-01
        1   -1    0    0  501    0  0.00000000000E+00  0.00000000000E+00  0.13012990460E+04  0.13012990460E+04  0.50400001928E-02 0. -1.
       -1   -1    0    0    0  501  0.00000000000E+00  0.00000000000E+00 -0.81512892244E+03  0.81512892246E+03  0.50400001928E-02 0.  1.
    10030    2    1    2    0    0  0.00000000000E+00  0.00000000000E+00  0.48617012351E+03  0.21164279684E+04  0.20598315360E+04 0.  0.
        2    1    3    3  502    0  0.65438529230E+03  0.69173847642E+03 -0.16013130712E+03  0.96559011287E+03  0.25500000920E-02 0.  1.
       -2    1    3    3    0  502 -0.65438529230E+03 -0.69173847642E+03  0.64630143063E+03  0.11508378556E+04  0.25500000920E-02 0. -1.
</event>
<event>
 5   0  0.2063930E-05  0.2474780E+04  0.7818609E-02  0.8412026E-01
        1   -1    0    0  501    0  0.00000000000E+00  0.00000000000E+00  0.15237250738E+04  0.15237250738E+04  0.50400001928E-02 0. -1.
       -1   -1    0    0    0  501  0.00000000000E+00  0.00000000000E+00 -0.10048622361E+04  0.10048622361E+04  0.50400001928E-02 0.  1.
    10030    2    1    2    0    0  0.00000000000E+00  0.00000000000E+00  0.51886283770E+03  0.25285873099E+04  0.24747798164E+04 0.  0.
        3    1    3    3  502    0 -0.43852204556E+03  0.23639790750E+03 -0.89786858043E+03  0.10268171955E+04  0.10100000352E+00 0.  1.
       -3    1    3    3    0  502  0.43852204556E+03 -0.23639790750E+03  0.14167314181E+04  0.15017701144E+04  0.10100000352E+00 0. -1.
</event>
<event>
 5   0  0.4995256E-05  0.2577351E+04  0.7818609E-02  0.8375936E-01
       -2   -1    0    0    0  501  0.00000000000E+00  0.00000000000E+00  0.95822656814E+03  0.95822656815E+03  0.25500000920E-02 0.  1.
        2   -1    0    0  501    0  0.00000000000E+00  0.00000000000E+00 -0.17330807589E+04  0.17330807589E+04  0.25500000920E-02 0. -1.
    10030    2    1    2    0    0  0.00000000000E+00  0.00000000000E+00 -0.77485419072E+03  0.26913073270E+04  0.25773505993E+04 0.  0.
        2    1    3    3  502    0  0.64132725423E+03  0.10157149119E+04 -0.87464763677E+03  0.14859293112E+04  0.25500000920E-02 0. -1.
       -2    1    3    3    0  502 -0.64132725423E+03 -0.10157149119E+04  0.99793446050E+02  0.12053780159E+04  0.25500000920E-02 0.  1.
</event>
<event>
 5   0  0.4959347E-05  0.2456963E+04  0.7818609E-02  0.8418480E-01
       -2   -1    0    0    0  501  0.00000000000E+00  0.00000000000E+00  0.10769919126E+04  0.10769919126E+04  0.25500000920E-02 0.  1.
        2   -1    0    0  501    0  0.00000000000E+00  0.00000000000E+00 -0.14012790835E+04  0.14012790835E+04  0.25500000920E-02 0. -1.
    10030    2    1    2    0    0  0.00000000000E+00  0.00000000000E+00 -0.32428717088E+03  0.24782709961E+04  0.24569625477E+04 0.  0.
        3    1    3    3  502    0  0.10246629859E+04  0.57682437842E+03  0.19661738309E+03  0.11921908420E+04  0.10100000352E+00 0.  1.
       -3    1    3    3    0  502 -0.10246629859E+04 -0.57682437842E+03 -0.52090455397E+03  0.12860801541E+04  0.10100000352E+00 0. -1.
</event>
<event>
 5   0  0.2081874E-05  0.2513457E+04  0.7818609E-02  0.8398207E-01
       -1   -1    0    0    0  501  0.00000000000E+00  0.00000000000E+00  0.68156963383E+03  0.68156963385E+03  0.50400001928E-02 0.  1.
        1   -1    0    0  501    0  0.00000000000E+00  0.00000000000E+00 -0.23172491307E+04  0.23172491307E+04  0.50400001928E-02 0. -1.
    10030    2    1    2    0    0  0.00000000000E+00  0.00000000000E+00 -0.16356794968E+04  0.29988187645E+04  0.25134570945E+04 0.  0.
        1    1    3    3  502    0  0.45547521972E+03  0.10312059183E+04 -0.15513094244E+03  0.11379406536E+04  0.50400001928E-02 0. -1.
       -1    1    3    3    0  502 -0.45547521972E+03 -0.10312059183E+04 -0.14805485544E+04  0.18608781109E+04  0.50400001928E-02 0.  1.
</event>
<event>
 5   0  0.4995256E-05  0.2282025E+04  0.7818609E-02  0.8485042E-01
        2   -1    0    0  501    0  0.00000000000E+00  0.00000000000E+00  0.18773361612E+04  0.18773361612E+04  0.25500000920E-02 0.  1.
       -2   -1    0    0    0  501  0.00000000000E+00  0.00000000000E+00 -0.69348799317E+03  0.69348799317E+03  0.25500000920E-02 0. -1.
    10030    2    1    2    0    0  0.00000000000E+00  0.00000000000E+00  0.11838481681E+04  0.25708241544E+04  0.22820254924E+04 0.  0.
        2    1    3    3  502    0 -0.10919559429E+04 -0.33093696723E+03  0.58651786443E+03  0.12829225475E+04  0.25500000920E-02 0. -1.
       -2    1    3    3    0  502  0.10919559429E+04  0.33093696723E+03  0.59733030365E+03  0.12879016069E+04  0.25500000920E-02 0.  1.
</event>
<event>
 5   0  0.2041718E-05  0.2523575E+04  0.7818609E-02  0.8394635E-01
        1   -1    0    0  501    0  0.00000000000E+00  0.00000000000E+00  0.14231777137E+04  0.14231777137E+04  0.50400001928E-02 0. -1.
       -1   -1    0    0    0  501  0.00000000000E+00  0.00000000000E+00 -0.11186990481E+04  0.11186990481E+04  0.50400001928E-02 0.  1.
    10030    2    1    2    0    0  0.00000000000E+00  0.00000000000E+00  0.30447866559E+03  0.25418767618E+04  0.25235748878E+04 0.  0.
        4    1    3    3  502    0 -0.98503516416E+03 -0.66510059056E+03  0.57893034840E+03  0.13220495571E+04  0.12699999809E+01 0. -1.
       -4    1    3    3    0  502  0.98503516416E+03  0.66510059056E+03 -0.27445168281E+03  0.12198272047E+04  0.12699999809E+01 0.  1.
</event>
<event>
 5   0  0.2063930E-05  0.2515221E+04  0.7818609E-02  0.8397583E-01
       -1   -1    0    0    0  501  0.00000000000E+00  0.00000000000E+00  0.12928619577E+04  0.12928619577E+04  0.50400001928E-02 0.  1.
        1   -1    0    0  501    0  0.00000000000E+00  0.00000000000E+00 -0.12233203401E+04  0.12233203401E+04  0.50400001928E-02 0. -1.
    10030    2    1    2    0    0  0.00000000000E+00  0.00000000000E+00  0.69541617547E+02  0.25161822978E+04  0.25152211273E+04 0.  0.
        3    1    3    3  502    0  0.51330456039E+03 -0.11413170122E+04 -0.89768634187E+02  0.12546491589E+04  0.10100000352E+00 0.  1.
       -3    1    3    3    0  502 -0.51330456039E+03  0.11413170122E+04  0.15931025173E+03  0.12615331389E+04  0.10100000352E+00 0. -1.
</event>
<event>
 5   0  0.5024070E-05  0.2497643E+04  0.7818609E-02  0.8403826E-01
       -2   -1    0    0    0  501  0.00000000000E+00  0.00000000000E+00  0.81167471209E+03  0.81167471210E+03  0.25500000920E-02 0. -1.
        2   -1    0    0  501    0  0.00000000000E+00  0.00000000000E+00 -0.19214042414E+04  0.19214042414E+04  0.25500000920E-02 0.  1.
    10030    2    1    2    0    0  0.00000000000E+00  0.00000000000E+00 -0.11097295293E+04  0.27330789535E+04  0.24976430766E+04 0.  0.
        5    1    3    3  502    0 -0.12257527512E+04  0.22636485058E+03 -0.63836136406E+03  0.14004421351E+04  0.46999998093E+01 0.  1.
       -5    1    3    3    0  502  0.12257527512E+04 -0.22636485058E+03 -0.47136816525E+03  0.13326368184E+04  0.46999998093E+01 0. -1.
</event>
<event>
 5   0  0.4995256E-05  0.1820998E+04  0.7818609E-02  0.8695212E-01
       -2   -1    0    0    0  501  0.00000000000E+00  0.00000000000E+00  0.71216367010E+03  0.71216367011E+03  0.25500000920E-02 0.  1.
        2   -1    0    0  501    0  0.00000000000E+00  0.00000000000E+00 -0.11640703542E+04  0.11640703542E+04  0.25500000920E-02 0. -1.
    10030    2    1    2    0    0  0.00000000000E+00  0.00000000000E+00 -0.45190668412E+03  0.18762340243E+04  0.18209982051E+04 0.  0.
        2    1    3    3  502    0 -0.79924671085E+03 -0.42681746534E+03 -0.13356654844E+03  0.91586487889E+03  0.25500000920E-02 0.  1.
       -2    1    3    3    0  502  0.79924671085E+03  0.42681746534E+03 -0.31834013567E+03  0.96036914544E+03  0.25500000920E-02 0. -1.
</event>
<event>
 5   0  0.1692125E-05  0.2528369E+04  0.7818609E-02  0.8392948E-01
        3   -1    0    0  501    0  0.00000000000E+00  0.00000000000E+00  0.11262884775E+04  0.11262884821E+04  0.10100000352E+00 0.  1.
       -3   -1    0    0    0  501  0.00000000000E+00  0.00000000000E+00 -0.14189637826E+04  0.14189637862E+04  0.10100000352E+00 0. -1.
    10030    2    1    2    0    0  0.00000000000E+00  0.00000000000E+00 -0.29267530508E+03  0.25452522682E+04  0.25283690939E+04 0.  0.
        3    1    3    3  502    0  0.74802480221E+03 -0.46379149174E+03 -0.10598767673E+04  0.13776728293E+04  0.10100000352E+00 0. -1.
       -3    1    3    3    0  502 -0.74802480221E+03  0.46379149174E+03  0.76720146218E+03  0.11675794390E+04  0.10100000352E+00 0.  1.
</event>
<event>
 5   0  0.2066170E-05  0.2407156E+04  0.7818609E-02  0.8436829E-01
        1   -1    0    0  501    0  0.00000000000E+00  0.00000000000E+00  0.13179866324E+04  0.13179866324E+04  0.50400001928E-02 0. -1.
       -1   -1    0    0    0  501  0.00000000000E+00  0.00000000000E+00 -0.10991007149E+04  0.10991007149E+04  0.50400001928E-02 0.  1.
    10030    2    1    2    0    0  0.00000000000E+00  0.00000000000E+00  0.21888591744E+03  0.24170873473E+04  0.24071560397E+04 0.  0.
        5    1    3    3  502    0 -0.36216253991E+03  0.13955520142E+03  0.12534152629E+04  0.13121391964E+04  0.46999998093E+01 0. -1.
       -5    1    3    3    0  502  0.36216253991E+03 -0.13955520142E+03 -0.10345293454E+04  0.11049481509E+04  0.46999998093E+01 0.  1.
</event>
<event>
 5   0  0.2036578E-05  0.2516443E+04  0.7818609E-02  0.8397151E-01
       -1   -1    0    0    0  501  0.00000000000E+00  0.00000000000E+00  0.93064923165E+03  0.93064923166E+03  0.50400001928E-02 0. -1.
        1   -1    0    0  501    0  0.00000000000E+00  0.00000000000E+00 -0.17010931096E+04  0.17010931096E+04  0.50400001928E-02 0.  1.
    10030    2    1    2    0    0  0.00000000000E+00  0.00000000000E+00 -0.77044387797E+03  0.26317423413E+04  0.25164427237E+04 0.  0.
        2    1    3    3  502    0 -0.12086979643E+03 -0.45191981503E+03  0.83631911946E+03  0.95826441887E+03  0.25500000920E-02 0. -1.
       -2    1    3    3    0  502  0.12086979643E+03  0.45191981503E+03 -0.16067629974E+04  0.16734779224E+04  0.25500000920E-02 0.  1.
</event>
<event>
 5   0  0.2081874E-05  0.2483148E+04  0.7818609E-02  0.8409014E-01
       -1   -1    0    0    0  501  0.00000000000E+00  0.00000000000E+00  0.69214726565E+03  0.69214726566E+03  0.50400001928E-02 0.  1.
        1   -1    0    0  501    0  0.00000000000E+00  0.00000000000E+00 -0.22271353820E+04  0.22271353820E+04  0.50400001928E-02 0. -1.
    10030    2    1    2    0    0  0.00000000000E+00  0.00000000000E+00 -0.15349881164E+04  0.29192826477E+04  0.24831477321E+04 0.  0.
        1    1    3    3  502    0 -0.91614149876E+03 -0.55270283836E+03 -0.15079686432E+04  0.18489902926E+04  0.50400001928E-02 0. -1.
       -1    1    3    3    0  502  0.91614149876E+03  0.55270283836E+03 -0.27019473124E+02  0.10702923550E+04  0.50400001928E-02 0.  1.
</event>
<event>
 5   0  0.4995256E-05  0.2468424E+04  0.7818609E-02  0.8414322E-01
        2   -1    0    0  501    0  0.00000000000E+00  0.00000000000E+00  0.94125896988E+03  0.94125896989E+03  0.25500000920E-02 0. -1.
       -2   -1    0    0    0  501  0.00000000000E+00  0.00000000000E+00 -0.16183429087E+04  0.16183429087E+04  0.25500000920E-02 0.  1.
    10030    2    1    2    0    0  0.00000000000E+00  0.00000000000E+00 -0.67708393886E+03  0.25596018786E+04  0.24684244199E+04 0.  0.
        2    1    3    3  502    0  0.12079819364E+04  0.20997130846E+02 -0.60008577485E+03  0.13489863511E+04  0.25500000920E-02 0.  1.
       -2    1    3    3    0  502 -0.12079819364E+04 -0.20997130846E+02 -0.76998164008E+02  0.12106155275E+04  0.25500000920E-02 0. -1.
</event>
<event>
 5   0  0.2081874E-05  0.2528737E+04  0.7818609E-02  0.8392819E-01
       -1   -1    0    0    0  501  0.00000000000E+00  0.00000000000E+00  0.84166171044E+03  0.84166171046E+03  0.50400001928E-02 0. -1.
        1   -1    0    0  501    0  0.00000000000E+00  0.00000000000E+00 -0.18993709140E+04  0.18993709140E+04  0.50400001928E-02 0.  1.
    10030    2    1    2    0    0  0.00000000000E+00  0.00000000000E+00 -0.10577092036E+04  0.27410326245E+04  0.25287370542E+04 0.  0.
        1    1    3    3  502    0  0.35234587215E+03 -0.98324275647E+03  0.24350586001E+03  0.10724779884E+04  0.50400001928E-02 0. -1.
       -1    1    3    3    0  502 -0.35234587215E+03  0.98324275647E+03 -0.13012150636E+04  0.16685546361E+04  0.50400001928E-02 0.  1.
</event>
<event>
 5   0  0.1692125E-05  0.2502339E+04  0.7818609E-02  0.8402153E-01
       -4   -1    0    0    0  501  0.00000000000E+00  0.00000000000E+00  0.13176184258E+04  0.13176190379E+04  0.12699999809E+01 0.  1.
        4   -1    0    0  501    0  0.00000000000E+00  0.00000000000E+00 -0.11880702119E+04  0.11880708907E+04  0.12699999809E+01 0. -1.
    10030    2    1    2    0    0  0.00000000000E+00  0.00000000000E+00  0.12954821393E+03  0.25056899286E+04  0.25023387617E+04 0.  0.
        4    1    3    3  502    0  0.26802524301E+03 -0.16796006187E+03 -0.11473738308E+04  0.11901749593E+04  0.12699999809E+01 0. -1.
       -4    1    3    3    0  502 -0.26802524301E+03  0.16796006187E+03  0.12769220447E+04  0.13155149693E+04  0.12699999809E+01 0.  1.
</event>
<event>
 5   0  0.2063930E-05  0.2511466E+04  0.7818609E-02  0.8398912E-01
        1   -1    0    0  501    0  0.00000000000E+00  0.00000000000E+00  0.23879850996E+04  0.23879850996E+04  0.50400001928E-02 0.  1.
       -1   -1    0    0    0  501  0.00000000000E+00  0.00000000000E+00 -0.66033293366E+03  0.66033293368E+03  0.50400001928E-02 0. -1.
    10030    2    1    2    0    0  0.00000000000E+00  0.00000000000E+00  0.17276521660E+04  0.30483180333E+04  0.25114658719E+04 0.  0.
        3    1    3    3  502    0  0.37172312339E+03  0.77569111436E+02 -0.58897481743E+03  0.70077556556E+03  0.10100000352E+00 0. -1.
       -3    1    3    3    0  502 -0.37172312339E+03 -0.77569111436E+02  0.23166269834E+04  0.23475424678E+04  0.10100000352E+00 0.  1.
</event>
<event>
 5   0  0.1692125E-05  0.2318452E+04  0.7818609E-02  0.8470681E-01
       -3   -1    0    0    0  501  0.00000000000E+00  0.00000000000E+00  0.71959051661E+03  0.71959052370E+03  0.10100000352E+00 0.  1.
        3   -1    0    0  501    0  0.00000000000E+00  0.00000000000E+00 -0.18674575107E+04  0.18674575134E+04  0.10100000352E+00 0. -1.
    10030    2    1    2    0    0  0.00000000000E+00  0.00000000000E+00 -0.11478669941E+04  0.25870480371E+04  0.23184518348E+04 0.  0.
        1    1    3    3  502    0  0.91726919508E+03  0.70448488097E+03 -0.66124846089E+03  0.13322654581E+04  0.50400001928E-02 0. -1.
       -1    1    3    3    0  502 -0.91726919508E+03 -0.70448488097E+03 -0.48661853318E+03  0.12547825790E+04  0.50400001928E-02 0.  1.
</event>
<event>
 5   0  0.2066170E-05  0.2459927E+04  0.7818609E-02  0.8417402E-01
        1   -1    0    0  501    0  0.00000000000E+00  0.00000000000E+00  0.79214348906E+03  0.79214348908E+03  0.50400001928E-02 0.  1.
       -1   -1    0    0    0  501  0.00000000000E+00  0.00000000000E+00 -0.19097680643E+04  0.19097680643E+04  0.50400001928E-02 0. -1.
    10030    2    1    2    0    0  0.00000000000E+00  0.00000000000E+00 -0.11176245753E+04  0.27019115534E+04  0.24599271028E+04 0.  0.
        5    1    3    3  502    0  0.88760635077E+03  0.46310573817E+03  0.22594738653E+03  0.10263460772E+04  0.46999998093E+01 0.  1.
       -5    1    3    3    0  502 -0.88760635077E+03 -0.46310573817E+03 -0.13435719618E+04  0.16755654762E+04  0.46999998093E+01 0. -1.
</event>
<event>
 5   0  0.4995256E-05  0.2499612E+04  0.7818609E-02  0.8403124E-01
       -2   -1    0    0    0  501  0.00000000000E+00  0.00000000000E+00  0.10190782611E+04  0.10190782611E+04  0.25500000920E-02 0. -1.
        2   -1    0    0  501    0  0.00000000000E+00  0.00000000000E+00 -0.15327729368E+04  0.15327729368E+04  0.25500000920E-02 0.  1.
    10030    2    1    2    0    0  0.00000000000E+00  0.00000000000E+00 -0.51369467571E+03  0.25518511979E+04  0.24996124332E+04 0.  0.
        2    1    3    3  502    0  0.62019264273E+03  0.15617274177E+03  0.83936535536E+03  0.10552549641E+04  0.25500000920E-02 0. -1.
       -2    1    3    3    0  502 -0.62019264273E+03 -0.15617274177E+03 -0.13530600311E+04  0.14965962338E+04  0.25500000920E-02 0.  1.
</event>
<event>
 5   0  0.1692125E-05  0.2492903E+04  0.7818609E-02  0.8405518E-01
       -3   -1    0    0    0  501  0.00000000000E+00  0.00000000000E+00  0.91648997160E+03  0.91648997717E+03  0.10100000352E+00 0.  1.
        3   -1    0    0  501    0  0.00000000000E+00  0.00000000000E+00 -0.16952077060E+04  0.16952077090E+04  0.10100000352E+00 0. -1.
    10030    2    1    2    0    0  0.00000000000E+00  0.00000000000E+00 -0.77871773436E+03  0.26116976861E+04  0.24929026243E+04 0.  0.
        3    1    3    3  502    0 -0.10358383558E+04  0.43595539279E+03  0.17542505593E+03  0.11374498514E+04  0.10100000352E+00 0.  1.
       -3    1    3    3    0  502  0.10358383558E+04 -0.43595539279E+03 -0.95414279029E+03  0.14742478348E+04  0.10100000352E+00 0. -1.
</event>
<event>
 5   0  0.2081874E-05  0.2504090E+04  0.7818609E-02  0.8401530E-01
        1   -1    0    0  501    0  0.00000000000E+00  0.00000000000E+00  0.14401365162E+04  0.14401365162E+04  0.50400001928E-02 0. -1.
       -1   -1    0    0    0  501  0.00000000000E+00  0.00000000000E+00 -0.10885193981E+04  0.10885193981E+04  0.50400001928E-02 0.  1.
    10030    2    1    2    0    0  0.00000000000E+00  0.00000000000E+00  0.35161711808E+03  0.25286559144E+04  0.25040898817E+04 0.  0.
        1    1    3    3  502    0  0.10358459809E+03  0.17232818605E+03 -0.10721102352E+04  0.10908011410E+04  0.50400001928E-02 0.  1.
       -1    1    3    3    0  502 -0.10358459809E+03 -0.17232818605E+03  0.14237273533E+04  0.14378547734E+04  0.50400001928E-02 0. -1.
</event>
<event>
 5   0  0.4995256E-05  0.2556404E+04  0.7818609E-02  0.8383162E-01
       -2   -1    0    0    0  501  0.00000000000E+00  0.00000000000E+00  0.27027115160E+04  0.27027115160E+04  0.25500000920E-02 0.  1.
        2   -1    0    0  501    0  0.00000000000E+00  0.00000000000E+00 -0.60450422764E+03  0.60450422765E+03  0.25500000920E-02 0. -1.
    10030    2    1    2    0    0  0.00000000000E+00  0.00000000000E+00  0.20982072884E+04  0.33072157437E+04  0.25564041445E+04 0.  0.
        2    1    3    3  502    0 -0.87573253495E+02  0.11553046292E+04  0.35074295979E+03  0.12105447059E+04  0.25500000920E-02 0. -1.
       -2    1    3    3    0  502  0.87573253495E+02 -0.11553046292E+04  0.17474643286E+04  0.20966710378E+04  0.25500000920E-02 0.  1.
</event>
<event>
 5   0  0.2036578E-05  0.2503717E+04  0.7818609E-02  0.8401662E-01
       -1   -1    0    0    0  501  0.00000000000E+00  0.00000000000E+00  0.76965666684E+03  0.76965666686E+03  0.50400001928E-02 0.  1.
        1   -1    0    0  501    0  0.00000000000E+00  0.00000000000E+00 -0.20361678474E+04  0.20361678474E+04  0.50400001928E-02 0. -1.
    10030    2    1    2    0    0  0.00000000000E+00  0.00000000000E+00 -0.12665111806E+04  0.28058245143E+04  0.25037173631E+04 0.  0.
        2    1    3    3  502    0  0.62475765889E+03 -0.88601783676E+03  0.68212067947E+02  0.10862792577E+04  0.25500000920E-02 0.  1.
       -2    1    3    3    0  502 -0.62475765889E+03  0.88601783676E+03 -0.13347232485E+04  0.17195452566E+04  0.25500000920E-02 0. -1.
</event>
<event>
 5   0  0.2036578E-05  0.2436702E+04  0.7818609E-02  0.8425889E-01
       -1   -1    0    0    0  501  0.00000000000E+00  0.00000000000E+00  0.10068160921E+04  0.10068160921E+04  0.50400001928E-02 0.  1.
        1   -1    0    0  501    0  0.00000000000E+00  0.00000000000E+00 -0.14743298111E+04  0.14743298112E+04  0.50400001928E-02 0. -1.
    10030    2    1    2    0    0  0.00000000000E+00  0.00000000000E+00 -0.46751371903E+03  0.24811459033E+04  0.24367018521E+04 0.  0.
        2    1    3    3  502    0  0.95996292080E+03 -0.20757035345E+03  0.50033990207E+03  0.11022496444E+04  0.25500000920E-02 0.  1.
       -2    1    3    3    0  502 -0.95996292080E+03  0.20757035345E+03 -0.96785362110E+03  0.13788962589E+04  0.25500000920E-02 0. -1.
</event>
<event>
 5   0  0.2041718E-05  0.2610731E+04  0.7818609E-02  0.8364565E-01
        1   -1    0    0  501    0  0.00000000000E+00  0.00000000000E+00  0.19939755680E+04  0.19939755680E+04  0.50400001928E-02 0. -1.
       -1   -1    0    0    0  501  0.00000000000E+00  0.00000000000E+00 -0.85456345250E+03  0.85456345252E+03  0.50400001928E-02 0.  1.
    10030    2    1    2    0    0  0.00000000000E+00  0.00000000000E+00  0.11394121155E+04  0.28485390205E+04  0.26107306606E+04 0.  0.
        4    1    3    3  502    0 -0.57687763166E+03  0.80132435773E+03  0.15013377888E+04  0.17969210603E+04  0.12699999809E+01 0. -1.
       -4    1    3    3    0  502  0.57687763166E+03 -0.80132435773E+03 -0.36192567331E+03  0.10516179601E+04  0.12699999809E+01 0.  1.
</event>
<event>
 5   0  0.2041718E-05  0.2539538E+04  0.7818609E-02  0.8389034E-01
        1   -1    0    0  501    0  0.00000000000E+00  0.00000000000E+00  0.14079698722E+04  0.14079698723E+04  0.50400001928E-02 0. -1.
       -1   -1    0    0    0  501  0.00000000000E+00  0.00000000000E+00 -0.11451332343E+04  0.11451332343E+04  0.50400001928E-02 0.  1.
    10030    2    1    2    0    0  0.00000000000E+00  0.00000000000E+00  0.26283663791E+03  0.25531031066E+04  0.25395378270E+04 0.  0.
        4    1    3    3  502    0 -0.20732524163E+03  0.11899326703E+04  0.52515811394E+03  0.13170862437E+04  0.12699999809E+01 0. -1.
       -4    1    3    3    0  502  0.20732524163E+03 -0.11899326703E+04 -0.26232147603E+03  0.12360168629E+04  0.12699999809E+01 0.  1.
</event>
<event>
 5   0  0.2066170E-05  0.2409180E+04  0.7818609E-02  0.8436075E-01
        1   -1    0    0  501    0  0.00000000000E+00  0.00000000000E+00  0.20174870480E+04  0.20174870480E+04  0.50400001928E-02 0. -1.
       -1   -1    0    0    0  501  0.00000000000E+00  0.00000000000E+00 -0.71922966203E+03  0.71922966204E+03  0.50400001928E-02 0.  1.
    10030    2    1    2    0    0  0.00000000000E+00  0.00000000000E+00  0.12982573859E+04  0.27367167100E+04  0.24091795514E+04 0.  0.
        5    1    3    3  502    0 -0.65641477596E+03  0.82251219303E+03 -0.16745471462E+02  0.10524776323E+04  0.46999998093E+01 0.  1.
       -5    1    3    3    0  502  0.65641477596E+03 -0.82251219303E+03  0.13150028574E+04  0.16842390777E+04  0.46999998093E+01 0. -1.
</event>
<event>
 5   0  0.2063930E-05  0.1694616E+04  0.7818609E-02  0.8764441E-01
       -1   -1    0    0    0  501  0.00000000000E+00  0.00000000000E+00  0.70202671360E+03  0.70202671362E+03  0.50400001928E-02 0. -1.
        1   -1    0    0  501    0  0.00000000000E+00  0.00000000000E+00 -0.10226542876E+04  0.10226542877E+04  0.50400001928E-02 0.  1.
    10030    2    1    2    0    0  0.00000000000E+00  0.00000000000E+00 -0.32062757404E+03  0.17246810013E+04  0.16946157426E+04 0.  0.
        3    1    3    3  502    0  0.38840665926E+03  0.39801495598E+03  0.49028903211E+03  0.74138989968E+03  0.10100000352E+00 0. -1.
       -3    1    3    3    0  502 -0.38840665926E+03 -0.39801495598E+03 -0.81091660615E+03  0.98329110159E+03  0.10100000352E+00 0.  1.
</event>
<event>
 5   0  0.5024070E-05  0.2537531E+04  0.7818609E-02  0.8389736E-01
       -2   -1    0    0    0  501  0.00000000000E+00  0.00000000000E+00  0.15286058352E+04  0.15286058352E+04  0.25500000920E-02 0.  1.
        2   -1    0    0  501    0  0.00000000000E+00  0.00000000000E+00 -0.10530939082E+04  0.10530939082E+04  0.25500000920E-02 0. -1.
    10030    2    1    2    0    0  0.00000000000E+00  0.00000000000E+00  0.47551192709E+03  0.25816997434E+04  0.25375306840E+04 0.  0.
        5    1    3    3  502    0  0.73399807198E+03  0.64584429306E+03 -0.58494484224E+03  0.11393202267E+04  0.46999998093E+01 0. -1.
       -5    1    3    3    0  502 -0.73399807198E+03 -0.64584429306E+03  0.10604567693E+04  0.14423795167E+04  0.46999998093E+01 0.  1.
</event>
<event>
 5   0  0.2066170E-05  0.2386500E+04  0.7818609E-02  0.8444575E-01
       -1   -1    0    0    0  501  0.00000000000E+00  0.00000000000E+00  0.95690444556E+03  0.95690444557E+03  0.50400001928E-02 0. -1.
        1   -1    0    0  501    0  0.00000000000E+00  0.00000000000E+00 -0.14879699466E+04  0.14879699467E+04  0.50400001928E-02 0.  1.
    10030    2    1    2    0    0  0.00000000000E+00  0.00000000000E+00 -0.53106550109E+03  0.24448743922E+04  0.23864995762E+04 0.  0.
        5    1    3    3  502    0 -0.71166036860E+01 -0.67886848246E+03  0.73974950559E+03  0.10040739433E+04  0.46999998093E+01 0. -1.
       -5    1    3    3    0  502  0.71166036860E+01  0.67886848246E+03 -0.12708150067E+04  0.14408004490E+04  0.46999998093E+01 0.  1.
</event>
<event>
 5   0  0.5219468E-05  0.2514866E+04  0.7818609E-02  0.8397709E-01
        2   -1    0    0  501    0  0.00000000000E+00  0.00000000000E+00  0.14070239283E+04  0.14070239283E+04  0.25500000920E-02 0. -1.
       -2   -1    0    0    0  501  0.00000000000E+00  0.00000000000E+00 -0.11237459948E+04  0.11237459948E+04  0.25500000920E-02 0.  1.
    10030    2    1    2    0    0  0.00000000000E+00  0.00000000000E+00  0.28327793348E+03  0.25307699231E+04  0.25148658048E+04 0.  0.
        1    1    3    3  502    0  0.12069614841E+04 -0.75140390985E+02 -0.20512020851E+03  0.12265709936E+04  0.50400001928E-02 0. -1.
       -1    1    3    3    0  502 -0.12069614841E+04  0.75140390985E+02  0.48839814199E+03  0.13041989294E+04  0.50400001928E-02 0.  1.
</event>
<event>
 5   0  0.2063930E-05  0.2452818E+04  0.7818609E-02  0.8419990E-01
        1   -1    0    0  501    0  0.00000000000E+00  0.00000000000E+00  0.21456225054E+04  0.21456225054E+04  0.50400001928E-02 0. -1.
       -1   -1    0    0    0  501  0.00000000000E+00  0.00000000000E+00 -0.70099888418E+03  0.70099888420E+03  0.50400001928E-02 0.  1.
    10030    2    1    2    0    0  0.00000000000E+00  0.00000000000E+00  0.14446236212E+04  0.28466213896E+04  0.24528179567E+04 0.  0.
        3    1    3    3  502    0 -0.12130874085E+03  0.50300854721E+03  0.20127414471E+04  0.20781870831E+04  0.10100000352E+00 0. -1.
       -3    1    3    3    0  502  0.12130874085E+03 -0.50300854721E+03 -0.56811782588E+03  0.76843430653E+03  0.10100000352E+00 0.  1.
</event>
<event>
 5   0  0.2041718E-05  0.2453665E+04  0.7818609E-02  0.8419681E-01
       -1   -1    0    0    0  501  0.00000000000E+00  0.00000000000E+00  0.12930401604E+04  0.12930401604E+04  0.50400001928E-02 0. -1.
        1   -1    0    0  501    0  0.00000000000E+00  0.00000000000E+00 -0.11640148827E+04  0.11640148827E+04  0.50400001928E-02 0.  1.
    10030    2    1    2    0    0  0.00000000000E+00  0.00000000000E+00  0.12902527765E+03  0.24570550431E+04  0.24536650062E+04 0.  0.
        4    1    3    3  502    0 -0.25623031284E+02  0.11536710738E+04  0.48162491804E+03  0.12504309900E+04  0.12699999809E+01 0.  1.
       -4    1    3    3    0  502  0.25623031284E+02 -0.11536710738E+04 -0.35259964039E+03  0.12066240531E+04  0.12699999809E+01 0. -1.
</event>
<event>
 5   0  0.5219468E-05  0.2509449E+04  0.7818609E-02  0.8399627E-01
       -2   -1    0    0    0  501  0.00000000000E+00  0.00000000000E+00  0.83481683760E+03  0.83481683761E+03  0.25500000920E-02 0. -1.
        2   -1    0    0  501    0  0.00000000000E+00  0.00000000000E+00 -0.18858435657E+04  0.18858435657E+04  0.25500000920E-02 0.  1.
    10030    2    1    2    0    0  0.00000000000E+00  0.00000000000E+00 -0.10510267281E+04  0.27206604033E+04  0.25094493115E+04 0.  0.
        1    1    3    3  502    0 -0.94279113102E+03  0.12739800486E+03 -0.14124439700E+04  0.17029631049E+04  0.50400001928E-02 0.  1.
       -1    1    3    3    0  502  0.94279113102E+03 -0.12739800486E+03  0.36141724189E+03  0.10176972984E+04  0.50400001928E-02 0. -1.
</event>
<event>
 5   0  0.4959347E-05  0.2493355E+04  0.7818609E-02  0.8405357E-01
        2   -1    0    0  501    0  0.00000000000E+00  0.00000000000E+00  0.23948515153E+04  0.23948515153E+04  0.25500000920E-02 0.  1.
       -2   -1    0    0    0  501  0.00000000000E+00  0.00000000000E+00 -0.64897739617E+03  0.64897739617E+03  0.25500000920E-02 0. -1.
    10030    2    1    2    0    0  0.00000000000E+00  0.00000000000E+00  0.17458741191E+04  0.30438289115E+04  0.24933547687E+04 0.  0.
        3    1    3    3  502    0 -0.44030478802E+03  0.18407966733E+03 -0.53305136081E+03  0.71547005090E+03  0.10100000352E+00 0. -1.
       -3    1    3    3    0  502  0.44030478802E+03 -0.18407966733E+03  0.22789254799E+04  0.23283588606E+04  0.10100000352E+00 0.  1.
</event>
<event>
 5   0  0.5219468E-05  0.2478161E+04  0.7818609E-02  0.8410807E-01
       -2   -1    0    0    0  501  0.00000000000E+00  0.00000000000E+00  0.68795451371E+03  0.68795451371E+03  0.25500000920E-02 0. -1.
        2   -1    0    0  501    0  0.00000000000E+00  0.00000000000E+00 -0.22317181184E+04  0.22317181185E+04  0.25500000920E-02 0.  1.
    10030    2    1    2    0    0  0.00000000000E+00  0.00000000000E+00 -0.15437636047E+04  0.29196726322E+04  0.24781610544E+04 0.  0.
        1    1    3    3  502    0 -0.47956808486E+03 -0.29825648149E+03  0.52750641211E+03  0.77279071657E+03  0.50400001928E-02 0. -1.
       -1    1    3    3    0  502  0.47956808486E+03  0.29825648149E+03 -0.20712700169E+04  0.21468819156E+04  0.50400001928E-02 0.  1.
</event>
<event>
 5   0  0.4959347E-05  0.2492719E+04  0.7818609E-02  0.8405584E-01
        2   -1    0    0  501    0  0.00000000000E+00  0.00000000000E+00  0.16075603793E+04  0.16075603793E+04  0.25500000920E-02 0. -1.
       -2   -1    0    0    0  501  0.00000000000E+00  0.00000000000E+00 -0.96631673244E+03  0.96631673245E+03  0.25500000920E-02 0.  1.
    10030    2    1    2    0    0  0.00000000000E+00  0.00000000000E+00  0.64124364682E+03  0.25738771117E+04  0.24927193929E+04 0.  0.
        3    1    3    3  502    0 -0.63928892763E+03  0.26540702741E+03  0.13908426924E+04  0.15535683533E+04  0.10100000352E+00 0. -1.
       -3    1    3    3    0  502  0.63928892763E+03 -0.26540702741E+03 -0.74959904557E+03  0.10203087584E+04  0.10100000352E+00 0.  1.
</event>
<event>
 5   0  0.4995256E-05  0.2494716E+04  0.7818609E-02  0.8404870E-01
       -2   -1    0    0    0  501  0.00000000000E+00  0.00000000000E+00  0.88915957069E+03  0.88915957069E+03  0.25500000920E-02 0.  1.
        2   -1    0    0  501    0  0.00000000000E+00  0.00000000000E+00 -0.17498566866E+04  0.17498566866E+04  0.25500000920E-02 0. -1.
    10030    2    1    2    0    0  0.00000000000E+00  0.00000000000E+00 -0.86069711587E+03  0.26390162572E+04  0.24947158717E+04 0.  0.
        2    1    3    3  502    0  0.24867627861E+03  0.74709859264E+03 -0.14537287422E+04  0.16532765814E+04  0.25500000920E-02 0. -1.
       -2    1    3    3    0  502 -0.24867627861E+03 -0.74709859264E+03  0.59303162635E+03  0.98573967584E+03  0.25500000920E-02 0.  1.
</event>
<event>
 5   0  0.5219468E-05  0.2426341E+04  0.7818609E-02  0.8429707E-01
       -2   -1    0    0    0  501  0.00000000000E+00  0.00000000000E+00  0.79063900426E+03  0.79063900426E+03  0.25500000920E-02 0.  1.
        2   -1    0    0  501    0  0.00000000000E+00  0.00000000000E+00 -0.18615098956E+04  0.18615098956E+04  0.25500000920E-02 0. -1.
    10030    2    1    2    0    0  0.00000000000E+00  0.00000000000E+00 -0.10708708913E+04  0.26521488999E+04  0.24263407265E+04 0.  0.
        1    1    3    3  502    0  0.55564275662E+03 -0.10495112701E+04 -0.80666006561E+03  0.14355881166E+04  0.50400001928E-02 0. -1.
       -1    1    3    3    0  502 -0.55564275662E+03  0.10495112701E+04 -0.26421082574E+03  0.12165607833E+04  0.50400001928E-02 0.  1.
</event>
<event>
 5   0  0.2066170E-05  0.2515673E+04  0.7818609E-02  0.8397423E-01
       -1   -1    0    0    0  501  0.00000000000E+00  0.00000000000E+00  0.12005805952E+04  0.12005805952E+04  0.50400001928E-02 0. -1.
        1   -1    0    0  501    0  0.00000000000E+00  0.00000000000E+00 -0.13178224440E+04  0.13178224440E+04  0.50400001928E-02 0.  1.
    10030    2    1    2    0    0  0.00000000000E+00  0.00000000000E+00 -0.11724184880E+03  0.25184030392E+04  0.25156725178E+04 0.  0.
        5    1    3    3  502    0 -0.94229868593E+03  0.81063145113E+03 -0.25139109301E+03  0.12681757507E+04  0.46999998093E+01 0. -1.
       -5    1    3    3    0  502  0.94229868593E+03 -0.81063145113E+03  0.13414924421E+03  0.12502272885E+04  0.46999998093E+01 0.  1.
</event>
<event>
 5   0  0.2066170E-05  0.2551352E+04  0.7818609E-02  0.8384916E-01
       -1   -1    0    0    0  501  0.00000000000E+00  0.00000000000E+00  0.77165928008E+03  0.77165928010E+03  0.50400001928E-02 0.  1.
        1   -1    0    0  501    0  0.00000000000E+00  0.00000000000E+00 -0.21088959969E+04  0.21088959969E+04  0.50400001928E-02 0. -1.
    10030    2    1    2    0    0  0.00000000000E+00  0.00000000000E+00 -0.13372367168E+04  0.28805552770E+04  0.25513519293E+04 0.  0.
        5    1    3    3  502    0  0.11739872831E+04  0.27182724132E+03 -0.11411834102E+04  0.16596559450E+04  0.46999998093E+01 0. -1.
       -5    1    3    3    0  502 -0.11739872831E+04 -0.27182724132E+03 -0.19605330666E+03  0.12208993321E+04  0.46999998093E+01 0.  1.
</event>
<event>
 5   0  0.4995256E-05  0.2534391E+04  0.7818609E-02  0.8390835E-01
       -2   -1    0    0    0  501  0.00000000000E+00  0.00000000000E+00  0.11775170454E+04  0.11775170454E+04  0.25500000920E-02 0.  1.
        2   -1    0    0  501    0  0.00000000000E+00  0.00000000000E+00 -0.13637041808E+04  0.13637041808E+04  0.25500000920E-02 0. -1.
    10030    2    1    2    0    0  0.00000000000E+00  0.00000000000E+00 -0.18618713545E+03  0.25412212262E+04  0.25343913808E+04 0.  0.
        2    1    3    3  502    0  0.30216386137E+03  0.96646844287E+03  0.67081296758E+03  0.12146416293E+04  0.25500000920E-02 0.  1.
       -2    1    3    3    0  502 -0.30216386137E+03 -0.96646844287E+03 -0.85700010303E+03  0.13265795969E+04  0.25500000920E-02 0. -1.
</event>
<event>
 5   0  0.2063930E-05  0.2477473E+04  0.7818609E-02  0.8411055E-01
        1   -1    0    0  501    0  0.00000000000E+00  0.00000000000E+00  0.17695860648E+04  0.17695860648E+04  0.50400001928E-02 0. -1.
       -1   -1    0    0    0  501  0.00000000000E+00  0.00000000000E+00 -0.86713377656E+03  0.86713377657E+03  0.50400001928E-02 0.  1.
    10030    2    1    2    0    0  0.00000000000E+00  0.00000000000E+00  0.90245228827E+03  0.26367198414E+04  0.24774727828E+04 0.  0.
        3    1    3    3  502    0 -0.67605813840E+03 -0.75859496333E+03  0.12052480943E+04  0.15764339199E+04  0.10100000352E+00 0. -1.
       -3    1    3    3    0  502  0.67605813840E+03  0.75859496333E+03 -0.30279580605E+03  0.10602859215E+04  0.10100000352E+00 0.  1.
</event>
<event>
 5   0  0.2066170E-05  0.1573194E+04  0.7818609E-02  0.8837187E-01
        1   -1    0    0  501    0  0.00000000000E+00  0.00000000000E+00  0.20887964953E+04  0.20887964953E+04  0.50400001928E-02 0. -1.
       -1   -1    0    0    0  501  0.00000000000E+00  0.00000000000E+00 -0.29621606535E+03  0.29621606539E+03  0.50400001928E-02 0.  1.
    10030    2    1    2    0    0  0.00000000000E+00  0.00000000000E+00  0.17925804300E+04  0.23850125607E+04  0.15731943036E+04 0.  0.
        5    1    3    3  502    0  0.39646393231E+03 -0.47177003805E+03  0.15519661189E+03  0.63549877794E+03  0.46999998093E+01 0.  1.
       -5    1    3    3    0  502 -0.39646393231E+03  0.47177003805E+03  0.16373838181E+04  0.17495137828E+04  0.46999998093E+01 0. -1.
</event>
<event>
 5   0  0.1692125E-05  0.2434548E+04  0.7818609E-02  0.8426682E-01
       -4   -1    0    0    0  501  0.00000000000E+00  0.00000000000E+00  0.14190556091E+04  0.14190561774E+04  0.12699999809E+01 0.  1.
        4   -1    0    0  501    0  0.00000000000E+00  0.00000000000E+00 -0.10441829964E+04  0.10441837688E+04  0.12699999809E+01 0. -1.
    10030    2    1    2    0    0  0.00000000000E+00  0.00000000000E+00  0.37487261272E+03  0.24632399462E+04  0.24345475056E+04 0.  0.
        5    1    3    3  502    0  0.38325252353E+03  0.33267232821E+03 -0.93203016837E+03  0.10612519491E+04  0.46999998093E+01 0. -1.
       -5    1    3    3    0  502 -0.38325252353E+03 -0.33267232821E+03  0.13069027811E+04  0.14019879971E+04  0.46999998093E+01 0.  1.
</event>
<event>
 5   0  0.4959347E-05  0.2445610E+04  0.7818609E-02  0.8422622E-01
        2   -1    0    0  501    0  0.00000000000E+00  0.00000000000E+00  0.10243603928E+04  0.10243603928E+04  0.25500000920E-02 0. -1.
       -2   -1    0    0    0  501  0.00000000000E+00  0.00000000000E+00 -0.14596938136E+04  0.14596938136E+04  0.25500000920E-02 0.  1.
    10030    2    1    2    0    0  0.00000000000E+00  0.00000000000E+00 -0.43533342085E+03  0.24840542064E+04  0.24456103764E+04 0.  0.
        3    1    3    3  502    0 -0.59436638615E+03 -0.75474216186E+03  0.55076078016E+03  0.11073592818E+04  0.10100000352E+00 0. -1.
       -3    1    3    3    0  502  0.59436638615E+03  0.75474216186E+03 -0.98609420101E+03  0.13766949246E+04  0.10100000352E+00 0.  1.
</event>
<event>
 5   0  0.1692125E-05  0.2514864E+04  0.7818609E-02  0.8397709E-01
       -3   -1    0    0    0  501  0.00000000000E+00  0.00000000000E+00  0.11897005174E+04  0.11897005216E+04  0.10100000352E+00 0.  1.
        3   -1    0    0  501    0  0.00000000000E+00  0.00000000000E+00 -0.13290191674E+04  0.13290191713E+04  0.10100000352E+00 0. -1.
    10030    2    1    2    0    0  0.00000000000E+00  0.00000000000E+00 -0.13931865007E+03  0.25187196929E+04  0.25148636554E+04 0.  0.
        2    1    3    3  502    0  0.85524996813E+03  0.20571073531E+03 -0.96957218172E+03  0.13091369792E+04  0.25500000920E-02 0. -1.
       -2    1    3    3    0  502 -0.85524996813E+03 -0.20571073531E+03  0.83025353165E+03  0.12095827138E+04  0.25500000920E-02 0.  1.
</event>
<event>
 5   0  0.4995256E-05  0.2503582E+04  0.7818609E-02  0.8401711E-01
       -2   -1    0    0    0  501  0.00000000000E+00  0.00000000000E+00  0.52009526816E+03  0.52009526817E+03  0.25500000920E-02 0. -1.
        2   -1    0    0  501    0  0.00000000000E+00  0.00000000000E+00 -0.30128722414E+04  0.30128722414E+04  0.25500000920E-02 0.  1.
    10030    2    1    2    0    0  0.00000000000E+00  0.00000000000E+00 -0.24927769732E+04  0.35329675095E+04  0.25035819110E+04 0.  0.
        2    1    3    3  502    0  0.57907221355E+03 -0.50170060145E+03  0.15055985171E+03  0.78083057763E+03  0.25500000920E-02 0. -1.
       -2    1    3    3    0  502 -0.57907221355E+03  0.50170060145E+03 -0.26433368249E+04  0.27521369319E+04  0.25500000920E-02 0.  1.
</event>
<event>
 5   0  0.2081874E-05  0.2424864E+04  0.7818609E-02  0.8430253E-01
       -1   -1    0    0    0  501  0.00000000000E+00  0.00000000000E+00  0.12769559944E+04  0.12769559944E+04  0.50400001928E-02 0. -1.
        1   -1    0    0  501    0  0.00000000000E+00  0.00000000000E+00 -0.11511679899E+04  0.11511679899E+04  0.50400001928E-02 0.  1.
    10030    2    1    2    0    0  0.00000000000E+00  0.00000000000E+00  0.12578800446E+03  0.24281239843E+04  0.24248635964E+04 0.  0.
        1    1    3    3  502    0  0.12323267292E+03  0.12055144001E+04  0.23603448313E+02  0.12120265605E+04  0.50400001928E-02 0. -1.
       -1    1    3    3    0  502 -0.12323267292E+03 -0.12055144001E+04  0.10218455615E+03  0.12160974238E+04  0.50400001928E-02 0.  1.
</event>
<event>
 5   0  0.4959347E-05  0.2508874E+04  0.7818609E-02  0.8399831E-01
       -2   -1    0    0    0  501  0.00000000000E+00  0.00000000000E+00  0.10815228959E+04  0.10815228959E+04  0.25500000920E-02 0.  1.
        2   -1    0    0  501    0  0.00000000000E+00  0.00000000000E+00 -0.14549970726E+04  0.14549970726E+04  0.25500000920E-02 0. -1.
    10030    2    1    2    0    0  0.00000000000E+00  0.00000000000E+00 -0.37347417672E+03  0.25365199685E+04  0.25088743671E+04 0.  0.
        3    1    3    3  502    0 -0.92261774991E+03  0.68430895940E+03  0.32291119761E+03  0.11932199781E+04  0.10100000352E+00 0.  1.
       -3    1    3    3    0  502  0.92261774991E+03 -0.68430895940E+03 -0.69638537432E+03  0.13432999904E+04  0.10100000352E+00 0. -1.
</event>
<event>
 5   0  0.2036578E-05  0.2468030E+04  0.7818609E-02  0.8414464E-01
        1   -1    0    0  501    0  0.00000000000E+00  0.00000000000E+00  0.23072013455E+04  0.23072013455E+04  0.50400001928E-02 0. -1.
       -1   -1    0    0    0  501  0.00000000000E+00  0.00000000000E+00 -0.66001739949E+03  0.66001739951E+03  0.50400001928E-02 0.  1.
    10030    2    1    2    0    0  0.00000000000E+00  0.00000000000E+00  0.16471839460E+04  0.29672187450E+04  0.24680300097E+04 0.  0.
        2    1    3    3  502    0 -0.78385409801E+03 -0.82391526304E+03  0.13995864401E+04  0.18033595901E+04  0.25500000920E-02 0. -1.
       -2    1    3    3    0  502  0.78385409801E+03  0.82391526304E+03  0.24759750585E+03  0.11638591549E+04  0.25500000920E-02 0.  1.
</event>
<event>
 5   0  0.2063930E-05  0.2471977E+04  0.7818609E-02  0.8413037E-01
        1   -1    0    0  501    0  0.00000000000E+00  0.00000000000E+00  0.88896736238E+03  0.88896736239E+03  0.50400001928E-02 0. -1.
       -1   -1    0    0    0  501  0.00000000000E+00  0.00000000000E+00 -0.17184747261E+04  0.17184747261E+04  0.50400001928E-02 0.  1.
    10030    2    1    2    0    0  0.00000000000E+00  0.00000000000E+00 -0.82950736368E+03  0.26074420885E+04  0.24719773013E+04 0.  0.
        3    1    3    3  502    0 -0.17533930881E+03 -0.12733970650E+03 -0.16982806591E+04  0.17120503735E+04  0.10100000352E+00 0.  1.
       -3    1    3    3    0  502  0.17533930881E+03  0.12733970650E+03  0.86877329546E+03  0.89539171493E+03  0.10100000352E+00 0. -1.
</event>
<event>
 5   0  0.2066170E-05  0.2416497E+04  0.7818609E-02  0.8433353E-01
        1   -1    0    0  501    0  0.00000000000E+00  0.00000000000E+00  0.22834910079E+04  0.22834910079E+04  0.50400001928E-02 0.  1.
       -1   -1    0    0    0  501  0.00000000000E+00  0.00000000000E+00 -0.63931233708E+03  0.63931233710E+03  0.50400001928E-02 0. -1.
    10030    2    1    2    0    0  0.00000000000E+00  0.00000000000E+00  0.16441786708E+04  0.29228033450E+04  0.24164966153E+04 0.  0.
        5    1    3    3  502    0  0.88880182723E+03  0.49510624855E+03  0.16103620941E+04  0.19048325515E+04  0.46999998093E+01 0.  1.
       -5    1    3    3    0  502 -0.88880182723E+03 -0.49510624855E+03  0.33816576733E+02  0.10179707934E+04  0.46999998093E+01 0. -1.
</event>
<event>
 5   0  0.2036578E-05  0.2054056E+04  0.7818609E-02  0.8581757E-01
        1   -1    0    0  501    0  0.00000000000E+00  0.00000000000E+00  0.10076588805E+04  0.10076588805E+04  0.50400001928E-02 0. -1.
       -1   -1    0    0    0  501  0.00000000000E+00  0.00000000000E+00 -0.10467692447E+04  0.10467692447E+04  0.50400001928E-02 0.  1.
    10030    2    1    2    0    0  0.00000000000E+00  0.00000000000E+00 -0.39110364209E+02  0.20544281253E+04  0.20540558175E+04 0.  0.
        2    1    3    3  502    0  0.17163521366E+03 -0.69935999021E+03 -0.75196059354E+03  0.10411569414E+04  0.25500000920E-02 0.  1.
       -2    1    3    3    0  502 -0.17163521366E+03  0.69935999021E+03  0.71285022933E+03  0.10132711838E+04  0.25500000920E-02 0. -1.
</event>
<event>
 5   0  0.4959042E-05  0.1594213E+04  0.7818609E-02  0.8824111E-01
       -2   -1    0    0    0  501  0.00000000000E+00  0.00000000000E+00  0.35624215554E+03  0.35624215555E+03  0.25500000920E-02 0. -1.
        2   -1    0    0  501    0  0.00000000000E+00  0.00000000000E+00 -0.17835581923E+04  0.17835581923E+04  0.25500000920E-02 0.  1.
    10030    2    1    2    0    0  0.00000000000E+00  0.00000000000E+00 -0.14273160368E+04  0.21398003479E+04  0.15942128026E+04 0.  0.
        4    1    3    3  502    0 -0.24899300300E+03 -0.93705501029E+02 -0.17222068334E+04  0.17426348518E+04  0.12699999809E+01 0.  1.
       -4    1    3    3    0  502  0.24899300300E+03  0.93705501029E+02  0.29489079666E+03  0.39716549613E+03  0.12699999809E+01 0. -1.
</event>
<event>
 5   0  0.2041718E-05  0.2540472E+04  0.7818609E-02  0.8388707E-01
        1   -1    0    0  501    0  0.00000000000E+00  0.00000000000E+00  0.81925624258E+03  0.81925624259E+03  0.50400001928E-02 0. -1.
       -1   -1    0    0    0  501  0.00000000000E+00  0.00000000000E+00 -0.19694686465E+04  0.19694686465E+04  0.50400001928E-02 0.  1.
    10030    2    1    2    0    0  0.00000000000E+00  0.00000000000E+00 -0.11502124039E+04  0.27887248891E+04  0.25404719902E+04 0.  0.
        4    1    3    3  502    0 -0.12523634309E+04  0.15923353734E+03 -0.72928940408E+03  0.14579554624E+04  0.12699999809E+01 0.  1.
       -4    1    3    3    0  502  0.12523634309E+04 -0.15923353734E+03 -0.42092299985E+03  0.13307694267E+04  0.12699999809E+01 0. -1.
</event>
<event>
 5   0  0.2066170E-05  0.2262054E+04  0.7818609E-02  0.8493035E-01
       -1   -1    0    0    0  501  0.00000000000E+00  0.00000000000E+00  0.11584555195E+04  0.11584555195E+04  0.50400001928E-02 0. -1.
        1   -1    0    0  501    0  0.00000000000E+00  0.00000000000E+00 -0.11042474235E+04  0.11042474236E+04  0.50400001928E-02 0.  1.
    10030    2    1    2    0    0  0.00000000000E+00  0.00000000000E+00  0.54208095913E+02  0.22627029430E+04  0.22620535119E+04 0.  0.
        5    1    3    3  502    0 -0.32930273137E+03  0.60905840678E+03 -0.86747200408E+03  0.11099199068E+04  0.46999998093E+01 0.  1.
       -5    1    3    3    0  502  0.32930273137E+03 -0.60905840678E+03  0.92168010000E+03  0.11527830362E+04  0.46999998093E+01 0. -1.
</event>
<event>
 5   0  0.2036578E-05  0.2475543E+04  0.7818609E-02  0.8411751E-01
       -1   -1    0    0    0  501  0.00000000000E+00  0.00000000000E+00  0.12699813135E+04  0.12699813135E+04  0.50400001928E-02 0. -1.
        1   -1    0    0  501    0  0.00000000000E+00  0.00000000000E+00 -0.12063781832E+04  0.12063781833E+04  0.50400001928E-02 0.  1.
    10030    2    1    2    0    0  0.00000000000E+00  0.00000000000E+00  0.63603130215E+02  0.24763594967E+04  0.24755425666E+04 0.  0.
        2    1    3    3  502    0  0.94638477814E+03  0.22257906438E+03  0.79814324790E+03  0.12578625650E+04  0.25500000920E-02 0. -1.
       -2    1    3    3    0  502 -0.94638477814E+03 -0.22257906438E+03 -0.73454011769E+03  0.12184969318E+04  0.25500000920E-02 0.  1.
</event>
<event>
 5   0  0.5219468E-05  0.2139314E+04  0.7818609E-02  0.8544120E-01
       -2   -1    0    0    0  501  0.00000000000E+00  0.00000000000E+00  0.72290697208E+03  0.72290697208E+03  0.25500000920E-02 0.  1.
        2   -1    0    0  501    0  0.00000000000E+00  0.00000000000E+00 -0.15827298508E+04  0.15827298508E+04  0.25500000920E-02 0. -1.
    10030    2    1    2    0    0  0.00000000000E+00  0.00000000000E+00 -0.85982287867E+03  0.23056368228E+04  0.21393143238E+04 0.  0.
        1    1    3    3  502    0 -0.42110019308E+03  0.88512664373E+03 -0.89144827773E+03  0.13249356890E+04  0.50400001928E-02 0. -1.
       -1    1    3    3    0  502  0.42110019308E+03 -0.88512664373E+03  0.31625399057E+02  0.98070113385E+03  0.50400001928E-02 0.  1.
</event>
<event>
 5   0  0.4959347E-05  0.2517873E+04  0.7818609E-02  0.8396646E-01
        2   -1    0    0  501    0  0.00000000000E+00  0.00000000000E+00  0.13536937287E+04  0.13536937287E+04  0.25500000920E-02 0. -1.
       -2   -1    0    0    0  501  0.00000000000E+00  0.00000000000E+00 -0.11708117904E+04  0.11708117904E+04  0.25500000920E-02 0.  1.
    10030    2    1    2    0    0  0.00000000000E+00  0.00000000000E+00  0.18288193828E+03  0.25245055191E+04  0.25178725768E+04 0.  0.
        3    1    3    3  502    0  0.35568473399E+03 -0.11625694133E+04  0.41916791688E+03  0.12859941770E+04  0.10100000352E+00 0. -1.
       -3    1    3    3    0  502 -0.35568473399E+03  0.11625694133E+04 -0.23628597860E+03  0.12385113421E+04  0.10100000352E+00 0.  1.
</event>
<event>
 5   0  0.4959347E-05  0.2523725E+04  0.7818609E-02  0.8394582E-01
       -2   -1    0    0    0  501  0.00000000000E+00  0.00000000000E+00  0.15441133272E+04  0.15441133272E+04  0.25500000920E-02 0.  1.
        2   -1    0    0  501    0  0.00000000000E+00  0.00000000000E+00 -0.10312045424E+04  0.10312045424E+04  0.25500000920E-02 0. -1.
    10030    2    1    2    0    0  0.00000000000E+00  0.00000000000E+00  0.51290878475E+03  0.25753178696E+04  0.25237247687E+04 0.  0.
        3    1    3    3  502    0  0.66117556095E+03 -0.33485422802E+03 -0.78570555028E+03  0.10800989299E+04  0.10100000352E+00 0. -1.
       -3    1    3    3    0  502 -0.66117556095E+03  0.33485422802E+03  0.12986143350E+04  0.14952189397E+04  0.10100000352E+00 0.  1.
</event>
<event>
 5   0  0.2041718E-05  0.2496244E+04  0.7818609E-02  0.8404325E-01
        1   -1    0    0  501    0  0.00000000000E+00  0.00000000000E+00  0.14599793934E+04  0.14599793934E+04  0.50400001928E-02 0. -1.
       -1   -1    0    0    0  501  0.00000000000E+00  0.00000000000E+00 -0.10670075283E+04  0.10670075283E+04  0.50400001928E-02 0.  1.
    10030    2    1    2    0    0  0.00000000000E+00  0.00000000000E+00  0.39297186504E+03  0.25269869217E+04  0.24962443822E+04 0.  0.
        4    1    3    3  502    0  0.10666225862E+04 -0.13342497021E+03 -0.44561377967E+03  0.11636405019E+04  0.12699999809E+01 0.  1.
       -4    1    3    3    0  502 -0.10666225862E+04  0.13342497021E+03  0.83858564470E+03  0.13633464198E+04  0.12699999809E+01 0. -1.
</event>
<event>
 5   0  0.5219468E-05  0.2490990E+04  0.7818609E-02  0.8406202E-01
       -2   -1    0    0    0  501  0.00000000000E+00  0.00000000000E+00  0.15186761218E+04  0.15186761218E+04  0.25500000920E-02 0.  1.
        2   -1    0    0  501    0  0.00000000000E+00  0.00000000000E+00 -0.10214542229E+04  0.10214542229E+04  0.25500000920E-02 0. -1.
    10030    2    1    2    0    0  0.00000000000E+00  0.00000000000E+00  0.49722189892E+03  0.25401303447E+04  0.24909902752E+04 0.  0.
        1    1    3    3  502    0 -0.30322344459E+03  0.21518587948E+03  0.14607610204E+04  0.15073394371E+04  0.50400001928E-02 0.  1.
       -1    1    3    3    0  502  0.30322344459E+03 -0.21518587948E+03 -0.96353912146E+03  0.10327909075E+04  0.50400001928E-02 0. -1.
</event>
<event>
 5   0  0.2036578E-05  0.2558244E+04  0.7818609E-02  0.8382525E-01
       -1   -1    0    0    0  501  0.00000000000E+00  0.00000000000E+00  0.14575861693E+04  0.14575861693E+04  0.50400001928E-02 0. -1.
        1   -1    0    0  501    0  0.00000000000E+00  0.00000000000E+00 -0.11225089724E+04  0.11225089724E+04  0.50400001928E-02 0.  1.
    10030    2    1    2    0    0  0.00000000000E+00  0.00000000000E+00  0.33507719690E+03  0.25800951416E+04  0.25582443613E+04 0.  0.
        2    1    3    3  502    0  0.12752119147E+03 -0.22087298682E+03 -0.10966054964E+04  0.11258730592E+04  0.25500000920E-02 0.  1.
       -2    1    3    3    0  502 -0.12752119147E+03  0.22087298682E+03  0.14316826933E+04  0.14542220824E+04  0.25500000920E-02 0. -1.
</event>
<event>
 5   0  0.2063930E-05  0.2443562E+04  0.7818609E-02  0.8423372E-01
        1   -1    0    0  501    0  0.00000000000E+00  0.00000000000E+00  0.17321783247E+04  0.17321783247E+04  0.50400001928E-02 0. -1.
       -1   -1    0    0    0  501  0.00000000000E+00  0.00000000000E+00 -0.86177582413E+03  0.86177582414E+03  0.50400001928E-02 0.  1.
    10030    2    1    2    0    0  0.00000000000E+00  0.00000000000E+00  0.87040250054E+03  0.25939541488E+04  0.24435624840E+04 0.  0.
        3    1    3    3  502    0 -0.93677284943E+02  0.10900797317E+04 -0.14204963796E+03  0.11032802750E+04  0.10100000352E+00 0.  1.
       -3    1    3    3    0  502  0.93677284943E+02 -0.10900797317E+04  0.10124521385E+04  0.14906738739E+04  0.10100000352E+00 0. -1.
</event>
<event>
 5   0  0.2066170E-05  0.2537230E+04  0.7818609E-02  0.8389841E-01
       -1   -1    0    0    0  501  0.00000000000E+00  0.00000000000E+00  0.13660389488E+04  0.13660389488E+04  0.50400001928E-02 0.  1.
        1   -1    0    0  501    0  0.00000000000E+00  0.00000000000E+00 -0.11781387820E+04  0.11781387820E+04  0.50400001928E-02 0. -1.
    10030    2    1    2    0    0  0.00000000000E+00  0.00000000000E+00  0.18790016677E+03  0.25441777308E+04  0.25372295625E+04 0.  0.
        5    1    3    3  502    0  0.11943569953E+04  0.21134101203E+03  0.46673113720E+03  0.12996205985E+04  0.46999998093E+01 0.  1.
       -5    1    3    3    0  502 -0.11943569953E+04 -0.21134101203E+03 -0.27883097043E+03  0.12445571323E+04  0.46999998093E+01 0. -1.
</event>
<event>
 5   0  0.4995256E-05  0.2421940E+04  0.7818609E-02  0.8431335E-01
        2   -1    0    0  501    0  0.00000000000E+00  0.00000000000E+00  0.25843487680E+04  0.25843487680E+04  0.25500000920E-02 0.  1.
       -2   -1    0    0    0  501  0.00000000000E+00  0.00000000000E+00 -0.56743417167E+03  0.56743417168E+03  0.25500000920E-02 0. -1.
    10030    2    1    2    0    0  0.00000000000E+00  0.00000000000E+00  0.20169145963E+04  0.31517829397E+04  0.24219395554E+04 0.  0.
        2    1    3    3  502    0  0.48643980700E+03 -0.11032465985E+04  0.11549444272E+04  0.16696327060E+04  0.25500000920E-02 0.  1.
       -2    1    3    3    0  502 -0.48643980700E+03  0.11032465985E+04  0.86197016912E+03  0.14821502337E+04  0.25500000920E-02 0. -1.
</event>
<event>
 5   0  0.5219468E-05  0.2556901E+04  0.7818609E-02  0.8382990E-01
        2   -1    0    0  501    0  0.00000000000E+00  0.00000000000E+00  0.16993718263E+04  0.16993718263E+04  0.25500000920E-02 0. -1.
       -2   -1    0    0    0  501  0.00000000000E+00  0.00000000000E+00 -0.96178811136E+03  0.96178811136E+03  0.25500000920E-02 0.  1.
    10030    2    1    2    0    0  0.00000000000E+00  0.00000000000E+00  0.73758371494E+03  0.26611599377E+04  0.25569009518E+04 0.  0.
        1    1    3    3  502    0 -0.11710308909E+04  0.41098225381E+03  0.49329952172E+02  0.12420359112E+04  0.50400001928E-02 0.  1.
       -1    1    3    3    0  502  0.11710308909E+04 -0.41098225381E+03  0.68825376277E+03  0.14191240265E+04  0.50400001928E-02 0. -1.
</event>
<event>
 5   0  0.5024070E-05  0.1542931E+04  0.7818609E-02  0.8856396E-01
       -2   -1    0    0    0  501  0.00000000000E+00  0.00000000000E+00  0.13189849057E+04  0.13189849057E+04  0.25500000920E-02 0.  1.
        2   -1    0    0  501    0  0.00000000000E+00  0.00000000000E+00 -0.45122509659E+03  0.45122509660E+03  0.25500000920E-02 0. -1.
    10030    2    1    2    0    0  0.00000000000E+00  0.00000000000E+00  0.86775980906E+03  0.17702100023E+04  0.15429310956E+04 0.  0.
        5    1    3    3  502    0 -0.39083443291E+03 -0.66494493989E+03  0.41634175109E+03  0.87650776992E+03  0.46999998093E+01 0.  1.
       -5    1    3    3    0  502  0.39083443291E+03  0.66494493989E+03  0.45141805797E+03  0.89370223234E+03  0.46999998093E+01 0. -1.
</event>
<event>
 5   0  0.2036578E-05  0.2602011E+04  0.7818609E-02  0.8367518E-01
        1   -1    0    0  501    0  0.00000000000E+00  0.00000000000E+00  0.18089353465E+04  0.18089353465E+04  0.50400001928E-02 0.  1.
       -1   -1    0    0    0  501  0.00000000000E+00  0.00000000000E+00 -0.93569719264E+03  0.93569719265E+03  0.50400001928E-02 0. -1.
    10030    2    1    2    0    0  0.00000000000E+00  0.00000000000E+00  0.87323815383E+03  0.27446325391E+04  0.26020113185E+04 0.  0.
        2    1    3    3  502    0 -0.24529426360E+03 -0.55082379460E+02  0.17830700126E+04  0.18007059766E+04  0.25500000920E-02 0.  1.
       -2    1    3    3    0  502  0.24529426360E+03  0.55082379460E+02 -0.90983185876E+03  0.94392656255E+03  0.25500000920E-02 0. -1.
</event>
<event>
 5   0  0.4959042E-05  0.2454926E+04  0.7818609E-02  0.8419221E-01
       -2   -1    0    0    0  501  0.00000000000E+00  0.00000000000E+00  0.92890038971E+03  0.92890038972E+03  0.25500000920E-02 0. -1.
        2   -1    0    0  501    0  0.00000000000E+00  0.00000000000E+00 -0.16219887590E+04  0.16219887590E+04  0.25500000920E-02 0.  1.
    10030    2    1    2    0    0  0.00000000000E+00  0.00000000000E+00 -0.69308836930E+03  0.25508891487E+04  0.24549264676E+04 0.  0.
        4    1    3    3  502    0  0.46381320391E+03 -0.48801011172E+03  0.71992238040E+03  0.98568068053E+03  0.12699999809E+01 0. -1.
       -4    1    3    3    0  502 -0.46381320391E+03  0.48801011172E+03 -0.14130107497E+04  0.15652084682E+04  0.12699999809E+01 0.  1.
</event>
<event>
 5   0  0.5219468E-05  0.2150458E+04  0.7818609E-02  0.8539336E-01
       -2   -1    0    0    0  501  0.00000000000E+00  0.00000000000E+00  0.83291339449E+03  0.83291339450E+03  0.25500000920E-02 0.  1.
        2   -1    0    0  501    0  0.00000000000E+00  0.00000000000E+00 -0.13880409890E+04  0.13880409890E+04  0.25500000920E-02 0. -1.
    10030    2    1    2    0    0  0.00000000000E+00  0.00000000000E+00 -0.55512759449E+03  0.22209543835E+04  0.21504584924E+04 0.  0.
        1    1    3    3  502    0  0.34554069956E+03  0.25947498986E+02  0.77366718717E+03  0.84772198526E+03  0.50400001928E-02 0.  1.
       -1    1    3    3    0  502 -0.34554069956E+03 -0.25947498986E+02 -0.13287947817E+04  0.13732323982E+04  0.50400001928E-02 0. -1.
</event>
<event>
 5   0  0.2081874E-05  0.2496443E+04  0.7818609E-02  0.8404254E-01
        1   -1    0    0  501    0  0.00000000000E+00  0.00000000000E+00  0.10610100574E+04  0.10610100574E+04  0.50400001928E-02 0. -1.
       -1   -1    0    0    0  501  0.00000000000E+00  0.00000000000E+00 -0.14684652246E+04  0.14684652246E+04  0.50400001928E-02 0.  1.
    10030    2    1    2    0    0  0.00000000000E+00  0.00000000000E+00 -0.40745516724E+03  0.25294752820E+04  0.24964425667E+04 0.  0.
        1    1    3    3  502    0  0.17358002032E+03  0.13485198777E+03 -0.14487011405E+04  0.14652815690E+04  0.50400001928E-02 0.  1.
       -1    1    3    3    0  502 -0.17358002032E+03 -0.13485198777E+03  0.10412459732E+04  0.10641937130E+04  0.50400001928E-02 0. -1.
</event>
<event>
 5   0  0.2066170E-05  0.2266123E+04  0.7818609E-02  0.8491399E-01
       -1   -1    0    0    0  501  0.00000000000E+00  0.00000000000E+00  0.12759576043E+04  0.12759576043E+04  0.50400001928E-02 0. -1.
        1   -1    0    0  501    0  0.00000000000E+00  0.00000000000E+00 -0.10061689184E+04  0.10061689184E+04  0.50400001928E-02 0.  1.
    10030    2    1    2    0    0  0.00000000000E+00  0.00000000000E+00  0.26978868583E+03  0.22821265227E+04  0.22661234588E+04 0.  0.
        5    1    3    3  502    0  0.16630340861E+03 -0.89606512236E+03 -0.54307393661E+03  0.10609151323E+04  0.46999998093E+01 0.  1.
       -5    1    3    3    0  502 -0.16630340861E+03  0.89606512236E+03  0.81286262244E+03  0.12212113905E+04  0.46999998093E+01 0. -1.
</event>
<event>
 5   0  0.5024070E-05  0.2494428E+04  0.7818609E-02  0.8404973E-01
       -2   -1    0    0    0  501  0.00000000000E+00  0.00000000000E+00  0.11250677264E+04  0.11250677264E+04  0.25500000920E-02 0. -1.
        2   -1    0    0  501    0  0.00000000000E+00  0.00000000000E+00 -0.13826214118E+04  0.13826214118E+04  0.25500000920E-02 0.  1.
    10030    2    1    2    0    0  0.00000000000E+00  0.00000000000E+00 -0.25755368543E+03  0.25076891382E+04  0.24944279731E+04 0.  0.
        5    1    3    3  502    0 -0.32597937000E+03  0.19302640131E+03  0.10658160029E+04  0.11311532095E+04  0.46999998093E+01 0. -1.
       -5    1    3    3    0  502  0.32597937000E+03 -0.19302640131E+03 -0.13233696883E+04  0.13765359288E+04  0.46999998093E+01 0.  1.
</event>
<event>
 5   0  0.5024070E-05  0.2092340E+04  0.7818609E-02  0.8564625E-01
        2   -1    0    0  501    0  0.00000000000E+00  0.00000000000E+00  0.10402012188E+04  0.10402012188E+04  0.25500000920E-02 0.  1.
       -2   -1    0    0    0  501  0.00000000000E+00  0.00000000000E+00 -0.10521726417E+04  0.10521726417E+04  0.25500000920E-02 0. -1.
    10030    2    1    2    0    0  0.00000000000E+00  0.00000000000E+00 -0.11971422863E+02  0.20923738606E+04  0.20923396133E+04 0.  0.
        5    1    3    3  502    0  0.10190339451E+04  0.23027187792E+03  0.48731318351E+02  0.10458738693E+04  0.46999998093E+01 0.  1.
       -5    1    3    3    0  502 -0.10190339451E+04 -0.23027187792E+03 -0.60702741214E+02  0.10464999913E+04  0.46999998093E+01 0. -1.
</event>
<event>
 5   0  0.5024070E-05  0.2478736E+04  0.7818609E-02  0.8410600E-01
       -2   -1    0    0    0  501  0.00000000000E+00  0.00000000000E+00  0.13787259596E+04  0.13787259596E+04  0.25500000920E-02 0.  1.
        2   -1    0    0  501    0  0.00000000000E+00  0.00000000000E+00 -0.11140955438E+04  0.11140955438E+04  0.25500000920E-02 0. -1.
    10030    2    1    2    0    0  0.00000000000E+00  0.00000000000E+00  0.26463041578E+03  0.24928215034E+04  0.24787355226E+04 0.  0.
        5    1    3    3  502    0 -0.71909178552E+03  0.90853236266E+03  0.57468565932E+03  0.12933714652E+04  0.46999998093E+01 0.  1.
       -5    1    3    3    0  502  0.71909178552E+03 -0.90853236266E+03 -0.31005524354E+03  0.11994500382E+04  0.46999998093E+01 0. -1.
</event>
<event>
 5   0  0.4959042E-05  0.2490311E+04  0.7818609E-02  0.8406445E-01
       -2   -1    0    0    0  501  0.00000000000E+00  0.00000000000E+00  0.96152128940E+03  0.96152128940E+03  0.25500000920E-02 0. -1.
        2   -1    0    0  501    0  0.00000000000E+00  0.00000000000E+00 -0.16124576169E+04  0.16124576169E+04  0.25500000920E-02 0.  1.
    10030    2    1    2    0    0  0.00000000000E+00  0.00000000000E+00 -0.65093632747E+03  0.25739789063E+04  0.24903110865E+04 0.  0.
        4    1    3    3  502    0 -0.56489130184E+03  0.71597551532E+01 -0.14723687778E+04  0.15770303979E+04  0.12699999809E+01 0.  1.
       -4    1    3    3    0  502  0.56489130184E+03 -0.71597551532E+01  0.82143245036E+03  0.99694850840E+03  0.12699999809E+01 0. -1.
</event>
<event>
 5   0  0.4959042E-05  0.1717467E+04  0.7818609E-02  0.8751464E-01
       -2   -1    0    0    0  501  0.00000000000E+00  0.00000000000E+00  0.51954036563E+03  0.51954036563E+03  0.25500000920E-02 0.  1.
        2   -1    0    0  501    0  0.00000000000E+00  0.00000000000E+00 -0.14193768663E+04  0.14193768663E+04  0.25500000920E-02 0. -1.
    10030    2    1    2    0    0  0.00000000000E+00  0.00000000000E+00 -0.89983650070E+03  0.19389172320E+04  0.17174674100E+04 0.  0.
        4    1    3    3  502    0  0.17306311500E+03  0.84041178186E+03 -0.48868477137E+03  0.98744985875E+03  0.12699999809E+01 0.  1.
       -4    1    3    3    0  502 -0.17306311500E+03 -0.84041178186E+03 -0.41115172933E+03  0.95146737322E+03  0.12699999809E+01 0. -1.
</event>
<event>
 5   0  0.2066170E-05  0.2526299E+04  0.7818609E-02  0.8393676E-01
       -1   -1    0    0    0  501  0.00000000000E+00  0.00000000000E+00  0.14342871559E+04  0.14342871559E+04  0.50400001928E-02 0. -1.
        1   -1    0    0  501    0  0.00000000000E+00  0.00000000000E+00 -0.11124318948E+04  0.11124318948E+04  0.50400001928E-02 0.  1.
    10030    2    1    2    0    0  0.00000000000E+00  0.00000000000E+00  0.32185526115E+03  0.25467190507E+04  0.25262990944E+04 0.  0.
        5    1    3    3  502    0 -0.74420207465E+03  0.19095006199E+03 -0.84978602779E+03  0.11456251730E+04  0.46999998093E+01 0.  1.
       -5    1    3    3    0  502  0.74420207465E+03 -0.19095006199E+03  0.11716412889E+04  0.14010938777E+04  0.46999998093E+01 0. -1.
</event>
<event>
 5   0  0.4959347E-05  0.2607530E+04  0.7818609E-02  0.8365648E-01
       -2   -1    0    0    0  501  0.00000000000E+00  0.00000000000E+00  0.15395002202E+04  0.15395002202E+04  0.25500000920E-02 0.  1.
        2   -1    0    0  501    0  0.00000000000E+00  0.00000000000E+00 -0.11041269217E+04  0.11041269217E+04  0.25500000920E-02 0. -1.
    10030    2    1    2    0    0  0.00000000000E+00  0.00000000000E+00  0.43537329845E+03  0.26436271419E+04  0.26075303558E+04 0.  0.
        3    1    3    3  502    0 -0.10831528428E+04 -0.30445794646E+03 -0.45013439826E+03  0.12118315513E+04  0.10100000352E+00 0. -1.
       -3    1    3    3    0  502  0.10831528428E+04  0.30445794646E+03  0.88550769671E+03  0.14317955906E+04  0.10100000352E+00 0.  1.
</event>
<event>
 5   0  0.4995256E-05  0.2615599E+04  0.7818609E-02  0.8362922E-01
        2   -1    0    0  501    0  0.00000000000E+00  0.00000000000E+00  0.13761677398E+04  0.13761677398E+04  0.25500000920E-02 0. -1.
       -2   -1    0    0    0  501  0.00000000000E+00  0.00000000000E+00 -0.12428279539E+04  0.12428279539E+04  0.25500000920E-02 0.  1.
    10030    2    1    2    0    0  0.00000000000E+00  0.00000000000E+00  0.13333978587E+03  0.26189956938E+04  0.26155991561E+04 0.  0.
        2    1    3    3  502    0 -0.26603271222E+03  0.31993925487E+02  0.13483878837E+04  0.13747533961E+04  0.25500000920E-02 0. -1.
       -2    1    3    3    0  502  0.26603271222E+03 -0.31993925487E+02 -0.12150480978E+04  0.12442422977E+04  0.25500000920E-02 0.  1.
</event>
<event>
 5   0  0.2063930E-05  0.2505627E+04  0.7818609E-02  0.8400983E-01
       -1   -1    0    0    0  501  0.00000000000E+00  0.00000000000E+00  0.74912330636E+03  0.74912330638E+03  0.50400001928E-02 0. -1.
        1   -1    0    0  501    0  0.00000000000E+00  0.00000000000E+00 -0.20951719565E+04  0.20951719565E+04  0.50400001928E-02 0.  1.
    10030    2    1    2    0    0  0.00000000000E+00  0.00000000000E+00 -0.13460486501E+04  0.28442952628E+04  0.25056273813E+04 0.  0.
        3    1    3    3  502    0 -0.71133746855E+03 -0.91817318358E+03 -0.13998206012E+03  0.11698880188E+04  0.10100000352E+00 0. -1.
       -3    1    3    3    0  502  0.71133746855E+03  0.91817318358E+03 -0.12060665900E+04  0.16744072440E+04  0.10100000352E+00 0.  1.
</event>
<event>
 5   0  0.5024070E-05  0.2039414E+04  0.7818609E-02  0.8588412E-01
       -2   -1    0    0    0  501  0.00000000000E+00  0.00000000000E+00  0.55163543196E+03  0.55163543196E+03  0.25500000920E-02 0.  1.
        2   -1    0    0  501    0  0.00000000000E+00  0.00000000000E+00 -0.18849450172E+04  0.18849450172E+04  0.25500000920E-02 0. -1.
    10030    2    1    2    0    0  0.00000000000E+00  0.00000000000E+00 -0.13333095853E+04  0.24365804492E+04  0.20394140911E+04 0.  0.
        5    1    3    3  502    0  0.29846859807E+03 -0.83973379680E+02 -0.18272472356E+04  0.18533724889E+04  0.46999998093E+01 0. -1.
       -5    1    3    3    0  502 -0.29846859807E+03  0.83973379680E+02  0.49393765034E+03  0.58320796030E+03  0.46999998093E+01 0.  1.
</event>
<event>
 5   0  0.4995256E-05  0.2562265E+04  0.7818609E-02  0.8381133E-01
        2   -1    0    0  501    0  0.00000000000E+00  0.00000000000E+00  0.15391096784E+04  0.15391096784E+04  0.25500000920E-02 0.  1.
       -2   -1    0    0    0  501  0.00000000000E+00  0.00000000000E+00 -0.10663963651E+04  0.10663963651E+04  0.25500000920E-02 0. -1.
    10030    2    1    2    0    0  0.00000000000E+00  0.00000000000E+00  0.47271331331E+03  0.26055060435E+04  0.25622653777E+04 0.  0.
        2    1    3    3  502    0 -0.16120676467E+03 -0.12456634024E+04  0.49287565017E+03  0.13492929036E+04  0.25500000920E-02 0.  1.
       -2    1    3    3    0  502  0.16120676467E+03  0.12456634024E+04 -0.20162336868E+02  0.12562131399E+04  0.25500000920E-02 0. -1.
</event>
<event>
 5   0  0.2081874E-05  0.2492417E+04  0.7818609E-02  0.8405692E-01
        1   -1    0    0  501    0  0.00000000000E+00  0.00000000000E+00  0.10391834324E+04  0.10391834324E+04  0.50400001928E-02 0.  1.
       -1   -1    0    0    0  501  0.00000000000E+00  0.00000000000E+00 -0.14944768744E+04  0.14944768744E+04  0.50400001928E-02 0. -1.
    10030    2    1    2    0    0  0.00000000000E+00  0.00000000000E+00 -0.45529344206E+03  0.25336603068E+04  0.24924169859E+04 0.  0.
        1    1    3    3  502    0 -0.46725749138E+03 -0.24459746871E+02  0.94650208653E+03  0.10558380758E+04  0.50400001928E-02 0.  1.
       -1    1    3    3    0  502  0.46725749138E+03  0.24459746871E+02 -0.14017955286E+04  0.14778222310E+04  0.50400001928E-02 0. -1.
</event>
<event>
 5   0  0.5024070E-05  0.2470719E+04  0.7818609E-02  0.8413492E-01
        2   -1    0    0  501    0  0.00000000000E+00  0.00000000000E+00  0.10344596420E+04  0.10344596420E+04  0.25500000920E-02 0. -1.
       -2   -1    0    0    0  501  0.00000000000E+00  0.00000000000E+00 -0.14752752985E+04  0.14752752985E+04  0.25500000920E-02 0.  1.
    10030    2    1    2    0    0  0.00000000000E+00  0.00000000000E+00 -0.44081565653E+03  0.25097349405E+04  0.24707187271E+04 0.  0.
        5    1    3    3  502    0  0.11763511814E+02 -0.11692860247E+04 -0.62509903635E+03  0.13259483711E+04  0.46999998093E+01 0.  1.
       -5    1    3    3    0  502 -0.11763511814E+02  0.11692860247E+04  0.18428337981E+03  0.11837865694E+04  0.46999998093E+01 0. -1.
</event>
<event>
 5   0  0.1692125E-05  0.2512272E+04  0.7818609E-02  0.8398626E-01
       -4   -1    0    0    0  501  0.00000000000E+00  0.00000000000E+00  0.14195769997E+04  0.14195775678E+04  0.12699999809E+01 0. -1.
        4   -1    0    0  501    0  0.00000000000E+00  0.00000000000E+00 -0.11115116180E+04  0.11115123435E+04  0.12699999809E+01 0.  1.
    10030    2    1    2    0    0  0.00000000000E+00  0.00000000000E+00  0.30806538175E+03  0.25310899113E+04  0.25122722503E+04 0.  0.
        5    1    3    3  502    0 -0.38583526731E+03  0.11953795580E+04  0.16148632377E+03  0.12664521562E+04  0.46999998093E+01 0. -1.
       -5    1    3    3    0  502  0.38583526731E+03 -0.11953795580E+04  0.14657905797E+03  0.12646377551E+04  0.46999998093E+01 0.  1.
</event>
<event>
 5   0  0.4959347E-05  0.2527325E+04  0.7818609E-02  0.8393315E-01
       -2   -1    0    0    0  501  0.00000000000E+00  0.00000000000E+00  0.17417338152E+04  0.17417338152E+04  0.25500000920E-02 0.  1.
        2   -1    0    0  501    0  0.00000000000E+00  0.00000000000E+00 -0.91681218146E+03  0.91681218146E+03  0.25500000920E-02 0. -1.
    10030    2    1    2    0    0  0.00000000000E+00  0.00000000000E+00  0.82492163379E+03  0.26585459967E+04  0.25273248930E+04 0.  0.
        3    1    3    3  502    0  0.42090788805E+03  0.42420709740E+03  0.15837017680E+04  0.16926979683E+04  0.10100000352E+00 0.  1.
       -3    1    3    3    0  502 -0.42090788805E+03 -0.42420709740E+03 -0.75878013421E+03  0.96584802841E+03  0.10100000352E+00 0. -1.
</event>
<event>
 5   0  0.2036578E-05  0.2508407E+04  0.7818609E-02  0.8399997E-01
       -1   -1    0    0    0  501  0.00000000000E+00  0.00000000000E+00  0.82654192488E+03  0.82654192489E+03  0.50400001928E-02 0. -1.
        1   -1    0    0  501    0  0.00000000000E+00  0.00000000000E+00 -0.19031410102E+04  0.19031410102E+04  0.50400001928E-02 0.  1.
    10030    2    1    2    0    0  0.00000000000E+00  0.00000000000E+00 -0.10765990853E+04  0.27296829351E+04  0.25084065332E+04 0.  0.
        2    1    3    3  502    0 -0.46143850702E+03 -0.12743663243E+03  0.72321230733E+03  0.86729558544E+03  0.25500000920E-02 0. -1.
       -2    1    3    3    0  502  0.46143850702E+03  0.12743663243E+03 -0.17998113926E+04  0.18623873496E+04  0.25500000920E-02 0.  1.
</event>
<event>
 5   0  0.2066170E-05  0.2501869E+04  0.7818609E-02  0.8402320E-01
       -1   -1    0    0    0  501  0.00000000000E+00  0.00000000000E+00  0.80681693768E+03  0.80681693769E+03  0.50400001928E-02 0. -1.
        1   -1    0    0  501    0  0.00000000000E+00  0.00000000000E+00 -0.19395200451E+04  0.19395200451E+04  0.50400001928E-02 0.  1.
    10030    2    1    2    0    0  0.00000000000E+00  0.00000000000E+00 -0.11327031074E+04  0.27463369828E+04  0.25018693998E+04 0.  0.
        5    1    3    3  502    0  0.13849840044E+03  0.12392895097E+04 -0.45770982273E+03  0.13283601423E+04  0.46999998093E+01 0. -1.
       -5    1    3    3    0  502 -0.13849840044E+03 -0.12392895097E+04 -0.67499328469E+03  0.14179768405E+04  0.46999998093E+01 0.  1.
</event>
<event>
 5   0  0.4995256E-05  0.2127924E+04  0.7818609E-02  0.8549041E-01
        2   -1    0    0  501    0  0.00000000000E+00  0.00000000000E+00  0.15423710488E+04  0.15423710488E+04  0.25500000920E-02 0. -1.
       -2   -1    0    0    0  501  0.00000000000E+00  0.00000000000E+00 -0.73394466694E+03  0.73394466695E+03  0.25500000920E-02 0.  1.
    10030    2    1    2    0    0  0.00000000000E+00  0.00000000000E+00  0.80842638188E+03  0.22763157158E+04  0.21279238762E+04 0.  0.
        2    1    3    3  502    0 -0.18638145004E+03 -0.95721440723E+03  0.85934452684E+03  0.12997963233E+04  0.25500000920E-02 0. -1.
       -2    1    3    3    0  502  0.18638145004E+03  0.95721440723E+03 -0.50918144959E+02  0.97651939244E+03  0.25500000920E-02 0.  1.
</event>
<event>
 5   0  0.5219468E-05  0.2064730E+04  0.7818609E-02  0.8576941E-01
        2   -1    0    0  501    0  0.00000000000E+00  0.00000000000E+00  0.13408455114E+04  0.13408455114E+04  0.25500000920E-02 0.  1.
       -2   -1    0    0    0  501  0.00000000000E+00  0.00000000000E+00 -0.79485510240E+03  0.79485510240E+03  0.25500000920E-02 0. -1.
    10030    2    1    2    0    0  0.00000000000E+00  0.00000000000E+00  0.54599040903E+03  0.21357006138E+04  0.20647303904E+04 0.  0.
        1    1    3    3  502    0  0.42945554949E+03 -0.81711246705E+03  0.75113169592E+03  0.11900855757E+04  0.50400001928E-02 0.  1.
       -1    1    3    3    0  502 -0.42945554949E+03  0.81711246705E+03 -0.20514128688E+03  0.94561503817E+03  0.50400001928E-02 0. -1.
</event>
<event>
 5   0  0.2041718E-05  0.2477015E+04  0.7818609E-02  0.8411220E-01
       -1   -1    0    0    0  501  0.00000000000E+00  0.00000000000E+00  0.86770608802E+03  0.86770608803E+03  0.50400001928E-02 0.  1.
        1   -1    0    0  501    0  0.00000000000E+00  0.00000000000E+00 -0.17677653856E+04  0.17677653857E+04  0.50400001928E-02 0. -1.
    10030    2    1    2    0    0  0.00000000000E+00  0.00000000000E+00 -0.90005929763E+03  0.26354714737E+04  0.24770149675E+04 0.  0.
        4    1    3    3  502    0  0.26772432057E+03  0.10371544887E+04  0.21146025303E+03  0.10918254425E+04  0.12699999809E+01 0.  1.
       -4    1    3    3    0  502 -0.26772432057E+03 -0.10371544887E+04 -0.11115195507E+04  0.15436460312E+04  0.12699999809E+01 0. -1.
</event>
<event>
 5   0  0.2063930E-05  0.2090451E+04  0.7818609E-02  0.8565461E-01
        1   -1    0    0  501    0  0.00000000000E+00  0.00000000000E+00  0.12181333139E+04  0.12181333139E+04  0.50400001928E-02 0.  1.
       -1   -1    0    0    0  501  0.00000000000E+00  0.00000000000E+00 -0.89686131962E+03  0.89686131964E+03  0.50400001928E-02 0. -1.
    10030    2    1    2    0    0  0.00000000000E+00  0.00000000000E+00  0.32127199424E+03  0.21149946335E+04  0.20904512923E+04 0.  0.
        3    1    3    3  502    0  0.35743082257E+03  0.87306904570E+03 -0.29463639747E+03  0.98834051238E+03  0.10100000352E+00 0. -1.
       -3    1    3    3    0  502 -0.35743082257E+03 -0.87306904570E+03  0.61590839171E+03  0.11266541211E+04  0.10100000352E+00 0.  1.
</event>
<event>
 5   0  0.4995256E-05  0.2445110E+04  0.7818609E-02  0.8422806E-01
       -2   -1    0    0    0  501  0.00000000000E+00  0.00000000000E+00  0.12921108634E+04  0.12921108634E+04  0.25500000920E-02 0. -1.
        2   -1    0    0  501    0  0.00000000000E+00  0.00000000000E+00 -0.11567430387E+04  0.11567430387E+04  0.25500000920E-02 0.  1.
    10030    2    1    2    0    0  0.00000000000E+00  0.00000000000E+00  0.13536782461E+03  0.24488539021E+04  0.24451096061E+04 0.  0.
        2    1    3    3  502    0  0.28357874803E+03 -0.53295770455E+03 -0.99704302697E+03  0.11655709411E+04  0.25500000920E-02 0.  1.
       -2    1    3    3    0  502 -0.28357874803E+03  0.53295770455E+03  0.11324108516E+04  0.12832829610E+04  0.25500000920E-02 0. -1.
</event>
<event>
 5   0  0.2063930E-05  0.2460643E+04  0.7818609E-02  0.8417142E-01
       -1   -1    0    0    0  501  0.00000000000E+00  0.00000000000E+00  0.17347187742E+04  0.17347187742E+04  0.50400001928E-02 0.  1.
        1   -1    0    0  501    0  0.00000000000E+00  0.00000000000E+00 -0.87258562957E+03  0.87258562959E+03  0.50400001928E-02 0. -1.
    10030    2    1    2    0    0  0.00000000000E+00  0.00000000000E+00  0.86213314466E+03  0.26073044038E+04  0.24606427402E+04 0.  0.
        3    1    3    3  502    0  0.55212181801E+02  0.95412542849E+03  0.12520277575E+04  0.15751118164E+04  0.10100000352E+00 0.  1.
       -3    1    3    3    0  502 -0.55212181801E+02 -0.95412542849E+03 -0.38989461283E+03  0.10321925875E+04  0.10100000352E+00 0. -1.
</event>
<event>
 5   0  0.2081874E-05  0.2317012E+04  0.7818609E-02  0.8471243E-01
       -1   -1    0    0    0  501  0.00000000000E+00  0.00000000000E+00  0.10370346035E+04  0.10370346035E+04  0.50400001928E-02 0.  1.
        1   -1    0    0  501    0  0.00000000000E+00  0.00000000000E+00 -0.12942061462E+04  0.12942061462E+04  0.50400001928E-02 0. -1.
    10030    2    1    2    0    0  0.00000000000E+00  0.00000000000E+00 -0.25717154273E+03  0.23312407497E+04  0.23170123502E+04 0.  0.
        1    1    3    3  502    0 -0.57125848252E+03 -0.11262101864E+03 -0.11362933653E+04  0.12767859491E+04  0.50400001928E-02 0. -1.
       -1    1    3    3    0  502  0.57125848252E+03  0.11262101864E+03  0.87912182258E+03  0.10544548007E+04  0.50400001928E-02 0.  1.
</event>
<event>
 5   0  0.2036578E-05  0.2358675E+04  0.7818609E-02  0.8455139E-01
       -1   -1    0    0    0  501  0.00000000000E+00  0.00000000000E+00  0.10379703229E+04  0.10379703229E+04  0.50400001928E-02 0.  1.
        1   -1    0    0  501    0  0.00000000000E+00  0.00000000000E+00 -0.13399587411E+04  0.13399587411E+04  0.50400001928E-02 0. -1.
    10030    2    1    2    0    0  0.00000000000E+00  0.00000000000E+00 -0.30198841816E+03  0.23779290640E+04  0.23586753971E+04 0.  0.
        2    1    3    3  502    0  0.53179434545E+03 -0.91482852249E+03  0.37394892701E+03  0.11222986463E+04  0.25500000920E-02 0. -1.
       -2    1    3    3    0  502 -0.53179434545E+03  0.91482852249E+03 -0.67593734517E+03  0.12556304178E+04  0.25500000920E-02 0.  1.
</event>
<event>
 5   0  0.4959042E-05  0.2481173E+04  0.7818609E-02  0.8409723E-01
       -2   -1    0    0    0  501  0.00000000000E+00  0.00000000000E+00  0.13593893426E+04  0.13593893426E+04  0.25500000920E-02 0. -1.
        2   -1    0    0  501    0  0.00000000000E+00  0.00000000000E+00 -0.11321666120E+04  0.11321666120E+04  0.25500000920E-02 0.  1.
    10030    2    1    2    0    0  0.00000000000E+00  0.00000000000E+00  0.22722273058E+03  0.24915559545E+04  0.24811732921E+04 0.  0.
        4    1    3    3  502    0 -0.10048843980E+04 -0.53116432200E+03 -0.38558597196E+03  0.12002526172E+04  0.12699999809E+01 0.  1.
       -4    1    3    3    0  502  0.10048843980E+04  0.53116432200E+03  0.61280870254E+03  0.12913033374E+04  0.12699999809E+01 0. -1.
</event>
<event>
 5   0  0.2036578E-05  0.2508222E+04  0.7818609E-02  0.8400062E-01
        1   -1    0    0  501    0  0.00000000000E+00  0.00000000000E+00  0.24518628825E+04  0.24518628825E+04  0.50400001928E-02 0.  1.
       -1   -1    0    0    0  501  0.00000000000E+00  0.00000000000E+00 -0.64146936709E+03  0.64146936711E+03  0.50400001928E-02 0. -1.
    10030    2    1    2    0    0  0.00000000000E+00  0.00000000000E+00  0.18103935154E+04  0.30933322496E+04  0.25082224235E+04 0.  0.
        2    1    3    3  502    0  0.90283047230E+03  0.11806986704E+02 -0.16821645895E+03  0.91844381631E+03  0.25500000920E-02 0. -1.
       -2    1    3    3    0  502 -0.90283047230E+03 -0.11806986704E+02  0.19786099744E+04  0.21748884333E+04  0.25500000920E-02 0.  1.
</event>
<event>
 5   0  0.4959042E-05  0.2484036E+04  0.7818609E-02  0.8408695E-01
       -2   -1    0    0    0  501  0.00000000000E+00  0.00000000000E+00  0.78982920814E+03  0.78982920814E+03  0.25500000920E-02 0.  1.
        2   -1    0    0  501    0  0.00000000000E+00  0.00000000000E+00 -0.19530910440E+04  0.19530910440E+04  0.25500000920E-02 0. -1.
    10030    2    1    2    0    0  0.00000000000E+00  0.00000000000E+00 -0.11632618359E+04  0.27429202521E+04  0.24840357105E+04 0.  0.
        4    1    3    3  502    0 -0.31678739169E+02  0.12406184367E+04 -0.52676230803E+03  0.13481905615E+04  0.12699999809E+01 0.  1.
       -4    1    3    3    0  502  0.31678739169E+02 -0.12406184367E+04 -0.63649952783E+03  0.13947296906E+04  0.12699999809E+01 0. -1.
</event>
<event>
 5   0  0.5219468E-05  0.2392044E+04  0.7818609E-02  0.8442488E-01
        2   -1    0    0  501    0  0.00000000000E+00  0.00000000000E+00  0.86552608707E+03  0.86552608707E+03  0.25500000920E-02 0.  1.
       -2   -1    0    0    0  501  0.00000000000E+00  0.00000000000E+00 -0.16527164024E+04  0.16527164024E+04  0.25500000920E-02 0. -1.
    10030    2    1    2    0    0  0.00000000000E+00  0.00000000000E+00 -0.78719031530E+03  0.25182424894E+04  0.23920444484E+04 0.  0.
        1    1    3    3  502    0  0.57602928990E+03  0.80382651747E+03 -0.11017827570E+04  0.14804972329E+04  0.50400001928E-02 0. -1.
       -1    1    3    3    0  502 -0.57602928990E+03 -0.80382651747E+03  0.31459244172E+03  0.10377452565E+04  0.50400001928E-02 0.  1.
</event>
<event>
 5   0  0.1692125E-05  0.2503816E+04  0.7818609E-02  0.8401627E-01
       -4   -1    0    0    0  501  0.00000000000E+00  0.00000000000E+00  0.11716458223E+04  0.11716465106E+04  0.12699999809E+01 0. -1.
        4   -1    0    0  501    0  0.00000000000E+00  0.00000000000E+00 -0.13376670410E+04  0.13376676439E+04  0.12699999809E+01 0.  1.
    10030    2    1    2    0    0  0.00000000000E+00  0.00000000000E+00 -0.16602121869E+03  0.25093141546E+04  0.25038159839E+04 0.  0.
        3    1    3    3  502    0 -0.35669051296E+03 -0.10178785140E+04  0.55397049728E+03  0.12125131395E+04  0.10100000352E+00 0. -1.
       -3    1    3    3    0  502  0.35669051296E+03  0.10178785140E+04 -0.71999171597E+03  0.12968010151E+04  0.10100000352E+00 0.  1.
</event>
<event>
 5   0  0.4959347E-05  0.2503274E+04  0.7818609E-02  0.8401820E-01
       -2   -1    0    0    0  501  0.00000000000E+00  0.00000000000E+00  0.10769788410E+04  0.10769788410E+04  0.25500000920E-02 0. -1.
        2   -1    0    0  501    0  0.00000000000E+00  0.00000000000E+00 -0.14546202337E+04  0.14546202337E+04  0.25500000920E-02 0.  1.
    10030    2    1    2    0    0  0.00000000000E+00  0.00000000000E+00 -0.37764139262E+03  0.25315990747E+04  0.25032740269E+04 0.  0.
        3    1    3    3  502    0  0.12461516035E+04  0.43926011464E+01 -0.30711470409E+03  0.12834455834E+04  0.10100000352E+00 0.  1.
       -3    1    3    3    0  502 -0.12461516035E+04 -0.43926011464E+01 -0.70526688531E+02  0.12481534913E+04  0.10100000352E+00 0. -1.
</event>
<event>
 5   0  0.4959042E-05  0.2284278E+04  0.7818609E-02  0.8484146E-01
       -2   -1    0    0    0  501  0.00000000000E+00  0.00000000000E+00  0.12674010072E+04  0.12674010072E+04  0.25500000920E-02 0.  1.
        2   -1    0    0  501    0  0.00000000000E+00  0.00000000000E+00 -0.10292572244E+04  0.10292572244E+04  0.25500000920E-02 0. -1.
    10030    2    1    2    0    0  0.00000000000E+00  0.00000000000E+00  0.23814378278E+03  0.22966582316E+04  0.22842781292E+04 0.  0.
        4    1    3    3  502    0 -0.15137199035E+03  0.99429317160E+03  0.66325166037E+03  0.12047558958E+04  0.12699999809E+01 0.  1.
       -4    1    3    3    0  502  0.15137199035E+03 -0.99429317160E+03 -0.42510787759E+03  0.10919023359E+04  0.12699999809E+01 0. -1.
</event>
<event>
 5   0  0.2063930E-05  0.2327409E+04  0.7818609E-02  0.8467192E-01
       -1   -1    0    0    0  501  0.00000000000E+00  0.00000000000E+00  0.14595474779E+04  0.14595474779E+04  0.50400001928E-02 0. -1.
        1   -1    0    0  501    0  0.00000000000E+00  0.00000000000E+00 -0.92782722283E+03  0.92782722284E+03  0.50400001928E-02 0.  1.
    10030    2    1    2    0    0  0.00000000000E+00  0.00000000000E+00  0.53172025509E+03  0.23873747008E+04  0.23274087592E+04 0.  0.
        3    1    3    3  502    0  0.90564490362E+03  0.57919654254E+03 -0.19120605677E+03  0.10918887730E+04  0.10100000352E+00 0.  1.
       -3    1    3    3    0  502 -0.90564490362E+03 -0.57919654254E+03  0.72292631186E+03  0.12954859277E+04  0.10100000352E+00 0. -1.
</event>
<event>
 5   0  0.2036578E-05  0.2564361E+04  0.7818609E-02  0.8380409E-01
       -1   -1    0    0    0  501  0.00000000000E+00  0.00000000000E+00  0.10049308816E+04  0.10049308816E+04  0.50400001928E-02 0.  1.
        1   -1    0    0  501    0  0.00000000000E+00  0.00000000000E+00 -0.16359202148E+04  0.16359202148E+04  0.50400001928E-02 0. -1.
    10030    2    1    2    0    0  0.00000000000E+00  0.00000000000E+00 -0.63098933322E+03  0.26408510964E+04  0.25643609291E+04 0.  0.
        2    1    3    3  502    0 -0.11211753776E+04 -0.42709769486E+03  0.15025651883E+03  0.12091417161E+04  0.25500000920E-02 0.  1.
       -2    1    3    3    0  502  0.11211753776E+04  0.42709769486E+03 -0.78124585205E+03  0.14317093803E+04  0.25500000920E-02 0. -1.
</event>
<event>
 5   0  0.2066170E-05  0.2499711E+04  0.7818609E-02  0.8403088E-01
        1   -1    0    0  501    0  0.00000000000E+00  0.00000000000E+00  0.99401487943E+03  0.99401487944E+03  0.50400001928E-02 0.  1.
       -1   -1    0    0    0  501  0.00000000000E+00  0.00000000000E+00 -0.15715451796E+04  0.15715451796E+04  0.50400001928E-02 0. -1.
    10030    2    1    2    0    0  0.00000000000E+00  0.00000000000E+00 -0.57753030015E+03  0.25655600590E+04  0.24997114171E+04 0.  0.
        5    1    3    3  502    0  0.30152600019E+03 -0.93352344607E+03  0.50605958758E+03  0.11038579389E+04  0.46999998093E+01 0.  1.
       -5    1    3    3    0  502 -0.30152600019E+03  0.93352344607E+03 -0.10835898877E+04  0.14617021201E+04  0.46999998093E+01 0. -1.
</event>
<event>
 5   0  0.4959042E-05  0.2488704E+04  0.7818609E-02  0.8407021E-01
        2   -1    0    0  501    0  0.00000000000E+00  0.00000000000E+00  0.14417833164E+04  0.14417833164E+04  0.25500000920E-02 0.  1.
       -2   -1    0    0    0  501  0.00000000000E+00  0.00000000000E+00 -0.10739560531E+04  0.10739560531E+04  0.25500000920E-02 0. -1.
    10030    2    1    2    0    0  0.00000000000E+00  0.00000000000E+00  0.36782726329E+03  0.25157393694E+04  0.24887040160E+04 0.  0.
        4    1    3    3  502    0 -0.39613856203E+03 -0.40167186559E+03 -0.93725366067E+03  0.10939433647E+04  0.12699999809E+01 0. -1.
       -4    1    3    3    0  502  0.39613856203E+03  0.40167186559E+03  0.13050809240E+04  0.14217960047E+04  0.12699999809E+01 0.  1.
</event>
<event>
 5   0  0.2081874E-05  0.2480018E+04  0.7818609E-02  0.8410139E-01
        1   -1    0    0  501    0  0.00000000000E+00  0.00000000000E+00  0.12329968947E+04  0.12329968947E+04  0.50400001928E-02 0.  1.
       -1   -1    0    0    0  501  0.00000000000E+00  0.00000000000E+00 -0.12470612871E+04  0.12470612871E+04  0.50400001928E-02 0. -1.
    10030    2    1    2    0    0  0.00000000000E+00  0.00000000000E+00 -0.14064392455E+02  0.24800581818E+04  0.24800183019E+04 0.  0.
        1    1    3    3  502    0 -0.28471868896E+03 -0.30609764286E+03  0.11604034666E+04  0.12334085715E+04  0.50400001928E-02 0.  1.
       -1    1    3    3    0  502  0.28471868896E+03  0.30609764286E+03 -0.11744678591E+04  0.12466496103E+04  0.50400001928E-02 0. -1.
</event>
<event>
 5   0  0.2066170E-05  0.2446524E+04  0.7818609E-02  0.8422288E-01
       -1   -1    0    0    0  501  0.00000000000E+00  0.00000000000E+00  0.69732299023E+03  0.69732299025E+03  0.50400001928E-02 0. -1.
        1   -1    0    0  501    0  0.00000000000E+00  0.00000000000E+00 -0.21458784338E+04  0.21458784338E+04  0.50400001928E-02 0.  1.
    10030    2    1    2    0    0  0.00000000000E+00  0.00000000000E+00 -0.14485554435E+04  0.28432014240E+04  0.24465243642E+04 0.  0.
        5    1    3    3  502    0 -0.22901255309E+03  0.89092351537E+03 -0.16613371678E+04  0.18990141482E+04  0.46999998093E+01 0.  1.
       -5    1    3    3    0  502  0.22901255309E+03 -0.89092351537E+03  0.21278172429E+03  0.94418727586E+03  0.46999998093E+01 0. -1.
</event>
<event>
 5   0  0.2081874E-05  0.2426889E+04  0.7818609E-02  0.8429505E-01
       -1   -1    0    0    0  501  0.00000000000E+00  0.00000000000E+00  0.14209330883E+04  0.14209330883E+04  0.50400001928E-02 0.  1.
        1   -1    0    0  501    0  0.00000000000E+00  0.00000000000E+00 -0.10362537769E+04  0.10362537770E+04  0.50400001928E-02 0. -1.
    10030    2    1    2    0    0  0.00000000000E+00  0.00000000000E+00  0.38467931139E+03  0.24571868653E+04  0.24268887734E+04 0.  0.
        1    1    3    3  502    0  0.21985907460E+03 -0.11923472793E+04  0.24211881111E+03  0.12363864953E+04  0.50400001928E-02 0.  1.
       -1    1    3    3    0  502 -0.21985907460E+03  0.11923472793E+04  0.14256050028E+03  0.12208003700E+04  0.50400001928E-02 0. -1.
</event>
<event>
 5   0  0.2036578E-05  0.2525470E+04  0.7818609E-02  0.8393967E-01
       -1   -1    0    0    0  501  0.00000000000E+00  0.00000000000E+00  0.10239345230E+04  0.10239345230E+04  0.50400001928E-02 0. -1.
        1   -1    0    0  501    0  0.00000000000E+00  0.00000000000E+00 -0.15572285540E+04  0.15572285540E+04  0.50400001928E-02 0.  1.
    10030    2    1    2    0    0  0.00000000000E+00  0.00000000000E+00 -0.53329403106E+03  0.25811630770E+04  0.25254703139E+04 0.  0.
        2    1    3    3  502    0 -0.76498226666E+03 -0.62304299021E+03 -0.10721382289E+04  0.14570040556E+04  0.25500000920E-02 0. -1.
       -2    1    3    3    0  502  0.76498226666E+03  0.62304299021E+03  0.53884419787E+03  0.11241590215E+04  0.25500000920E-02 0.  1.
</event>
<event>
 5   0  0.5024070E-05  0.2396578E+04  0.7818609E-02  0.8440786E-01
        2   -1    0    0  501    0  0.00000000000E+00  0.00000000000E+00  0.13443090610E+04  0.13443090610E+04  0.25500000920E-02 0.  1.
       -2   -1    0    0    0  501  0.00000000000E+00  0.00000000000E+00 -0.10681300291E+04  0.10681300291E+04  0.25500000920E-02 0. -1.
    10030    2    1    2    0    0  0.00000000000E+00  0.00000000000E+00  0.27617903194E+03  0.24124390901E+04  0.23965782912E+04 0.  0.
        5    1    3    3  502    0 -0.90726966188E+03 -0.77908507610E+03  0.61672738869E+02  0.11974712572E+04  0.46999998093E+01 0.  1.
       -5    1    3    3    0  502  0.90726966188E+03  0.77908507610E+03  0.21450629307E+03  0.12149678329E+04  0.46999998093E+01 0. -1.
</event>
<event>
 5   0  0.4959042E-05  0.2434139E+04  0.7818609E-02  0.8426832E-01
       -2   -1    0    0    0  501  0.00000000000E+00  0.00000000000E+00  0.20849701991E+04  0.20849701991E+04  0.25500000920E-02 0.  1.
        2   -1    0    0  501    0  0.00000000000E+00  0.00000000000E+00 -0.71044560111E+03  0.71044560112E+03  0.25500000920E-02 0. -1.
    10030    2    1    2    0    0  0.00000000000E+00  0.00000000000E+00  0.13745245980E+04  0.27954158002E+04  0.24341387852E+04 0.  0.
        4    1    3    3  502    0 -0.67171624641E+03  0.96142583170E+03  0.31386839343E+03  0.12141076257E+04  0.12699999809E+01 0. -1.
       -4    1    3    3    0  502  0.67171624641E+03 -0.96142583170E+03  0.10606562046E+04  0.15813081745E+04  0.12699999809E+01 0.  1.
</event>
<event>
 5   0  0.2063930E-05  0.2517701E+04  0.7818609E-02  0.8396706E-01
        1   -1    0    0  501    0  0.00000000000E+00  0.00000000000E+00  0.13726238381E+04  0.13726238381E+04  0.50400001928E-02 0. -1.
       -1   -1    0    0    0  501  0.00000000000E+00  0.00000000000E+00 -0.11545077018E+04  0.11545077018E+04  0.50400001928E-02 0.  1.
    10030    2    1    2    0    0  0.00000000000E+00  0.00000000000E+00  0.21811613628E+03  0.25271315399E+04  0.25177011680E+04 0.  0.
        3    1    3    3  502    0 -0.44087765465E+03 -0.82846021811E+03 -0.73312300170E+03  0.11908773174E+04  0.10100000352E+00 0.  1.
       -3    1    3    3    0  502  0.44087765465E+03  0.82846021811E+03  0.95123913798E+03  0.13362542225E+04  0.10100000352E+00 0. -1.
</event>
<event>
 5   0  0.2036578E-05  0.2484566E+04  0.7818609E-02  0.8408505E-01
       -1   -1    0    0    0  501  0.00000000000E+00  0.00000000000E+00  0.57289441170E+03  0.57289441172E+03  0.50400001928E-02 0. -1.
        1   -1    0    0  501    0  0.00000000000E+00  0.00000000000E+00 -0.26938075551E+04  0.26938075551E+04  0.50400001928E-02 0.  1.
    10030    2    1    2    0    0  0.00000000000E+00  0.00000000000E+00 -0.21209131434E+04  0.32667019668E+04  0.24845661952E+04 0.  0.
        2    1    3    3  502    0 -0.55512695585E+03 -0.45404967590E+02 -0.25204384999E+04  0.25812473303E+04  0.25500000920E-02 0.  1.
       -2    1    3    3    0  502  0.55512695585E+03  0.45404967590E+02  0.39952535655E+03  0.68545463652E+03  0.25500000920E-02 0. -1.
</event>
<event>
 5   0  0.4959042E-05  0.2522632E+04  0.7818609E-02  0.8394967E-01
        2   -1    0    0  501    0  0.00000000000E+00  0.00000000000E+00  0.12949881277E+04  0.12949881277E+04  0.25500000920E-02 0.  1.
       -2   -1    0    0    0  501  0.00000000000E+00  0.00000000000E+00 -0.12285196960E+04  0.12285196960E+04  0.25500000920E-02 0. -1.
    10030    2    1    2    0    0  0.00000000000E+00  0.00000000000E+00  0.66468431771E+02  0.25235078237E+04  0.25226322927E+04 0.  0.
        4    1    3    3  502    0 -0.18305191418E+03 -0.60544330725E+03 -0.10584039868E+04  0.12330004922E+04  0.12699999809E+01 0. -1.
       -4    1    3    3    0  502  0.18305191418E+03  0.60544330725E+03  0.11248724186E+04  0.12905073315E+04  0.12699999809E+01 0.  1.
</event>
<event>
 5   0  0.2081874E-05  0.2542540E+04  0.7818609E-02  0.8387985E-01
       -1   -1    0    0    0  501  0.00000000000E+00  0.00000000000E+00  0.19907538916E+04  0.19907538916E+04  0.50400001928E-02 0. -1.
        1   -1    0    0  501    0  0.00000000000E+00  0.00000000000E+00 -0.81181689467E+03  0.81181689468E+03  0.50400001928E-02 0.  1.
    10030    2    1    2    0    0  0.00000000000E+00  0.00000000000E+00  0.11789369969E+04  0.28025707863E+04  0.25425401805E+04 0.  0.
        1    1    3    3  502    0 -0.19864515590E+03 -0.25295012535E+03  0.19451662298E+04  0.19715768626E+04  0.50400001928E-02 0. -1.
       -1    1    3    3    0  502  0.19864515590E+03  0.25295012535E+03 -0.76622923283E+03  0.83099392365E+03  0.50400001928E-02 0.  1.
</event>
<event>
 5   0  0.5219468E-05  0.2522721E+04  0.7818609E-02  0.8394936E-01
       -2   -1    0    0    0  501  0.00000000000E+00  0.00000000000E+00  0.54512159691E+03  0.54512159691E+03  0.25500000920E-02 0. -1.
        2   -1    0    0  501    0  0.00000000000E+00  0.00000000000E+00 -0.29186703056E+04  0.29186703056E+04  0.25500000920E-02 0.  1.
    10030    2    1    2    0    0  0.00000000000E+00  0.00000000000E+00 -0.23735487087E+04  0.34637919025E+04  0.25227209262E+04 0.  0.
        1    1    3    3  502    0 -0.38803886136E+03 -0.57170466560E+03  0.26216134166E+03  0.73901891158E+03  0.50400001928E-02 0. -1.
       -1    1    3    3    0  502  0.38803886136E+03  0.57170466560E+03 -0.26357100504E+04  0.27247729909E+04  0.50400001928E-02 0.  1.
</event>
<event>
 5   0  0.2081874E-05  0.2504861E+04  0.7818609E-02  0.8401256E-01
       -1   -1    0    0    0  501  0.00000000000E+00  0.00000000000E+00  0.85550324754E+03  0.85550324755E+03  0.50400001928E-02 0. -1.
        1   -1    0    0  501    0  0.00000000000E+00  0.00000000000E+00 -0.18335200102E+04  0.18335200102E+04  0.50400001928E-02 0.  1.
    10030    2    1    2    0    0  0.00000000000E+00  0.00000000000E+00 -0.97801676263E+03  0.26890232577E+04  0.25048611324E+04 0.  0.
        1    1    3    3  502    0 -0.44841318214E+03  0.11538881851E+04 -0.28518053114E+03  0.12703779993E+04  0.50400001928E-02 0.  1.
       -1    1    3    3    0  502  0.44841318214E+03 -0.11538881851E+04 -0.69283623148E+03  0.14186452585E+04  0.50400001928E-02 0. -1.
</event>
<event>
 5   0  0.2081874E-05  0.2451389E+04  0.7818609E-02  0.8420511E-01
       -1   -1    0    0    0  501  0.00000000000E+00  0.00000000000E+00  0.15334434596E+04  0.15334434596E+04  0.50400001928E-02 0.  1.
        1   -1    0    0  501    0  0.00000000000E+00  0.00000000000E+00 -0.97970808782E+03  0.97970808783E+03  0.50400001928E-02 0. -1.
    10030    2    1    2    0    0  0.00000000000E+00  0.00000000000E+00  0.55373537179E+03  0.25131515474E+04  0.24513889611E+04 0.  0.
        1    1    3    3  502    0 -0.23234128051E+02  0.89081533490E+03  0.11396380086E+04  0.14466743159E+04  0.50400001928E-02 0.  1.
       -1    1    3    3    0  502  0.23234128051E+02 -0.89081533490E+03 -0.58590263680E+03  0.10664772316E+04  0.50400001928E-02 0. -1.
</event>
<event>
 5   0  0.5024070E-05  0.2498934E+04  0.7818609E-02  0.8403365E-01
       -2   -1    0    0    0  501  0.00000000000E+00  0.00000000000E+00  0.86767316987E+03  0.86767316987E+03  0.25500000920E-02 0.  1.
        2   -1    0    0  501    0  0.00000000000E+00  0.00000000000E+00 -0.17992580960E+04  0.17992580960E+04  0.25500000920E-02 0. -1.
    10030    2    1    2    0    0  0.00000000000E+00  0.00000000000E+00 -0.93158492616E+03  0.26669312659E+04  0.24989341533E+04 0.  0.
        5    1    3    3  502    0 -0.44937650987E+03 -0.10126164596E+03 -0.17053177010E+04  0.17664438060E+04  0.46999998093E+01 0. -1.
       -5    1    3    3    0  502  0.44937650987E+03  0.10126164596E+03  0.77373277482E+03  0.90048745988E+03  0.46999998093E+01 0.  1.
</event>
<event>
 5   0  0.1692125E-05  0.2344215E+04  0.7818609E-02  0.8460689E-01
        3   -1    0    0  501    0  0.00000000000E+00  0.00000000000E+00  0.10330308899E+04  0.10330308948E+04  0.10100000352E+00 0.  1.
       -3   -1    0    0    0  501  0.00000000000E+00  0.00000000000E+00 -0.13299078213E+04  0.13299078252E+04  0.10100000352E+00 0. -1.
    10030    2    1    2    0    0  0.00000000000E+00  0.00000000000E+00 -0.29687693146E+03  0.23629387200E+04  0.23442148967E+04 0.  0.
        2    1    3    3  502    0  0.76991097172E+03 -0.88377743572E+03 -0.14518620727E+03  0.11810607499E+04  0.25500000920E-02 0. -1.
       -2    1    3    3    0  502 -0.76991097172E+03  0.88377743572E+03 -0.15169072419E+03  0.11818779700E+04  0.25500000920E-02 0.  1.
</event>
<event>
 5   0  0.4959347E-05  0.2500142E+04  0.7818609E-02  0.8402935E-01
       -2   -1    0    0    0  501  0.00000000000E+00  0.00000000000E+00  0.14761465631E+04  0.14761465631E+04  0.25500000920E-02 0. -1.
        2   -1    0    0  501    0  0.00000000000E+00  0.00000000000E+00 -0.10586198398E+04  0.10586198398E+04  0.25500000920E-02 0.  1.
    10030    2    1    2    0    0  0.00000000000E+00  0.00000000000E+00  0.41752672323E+03  0.25347664029E+04  0.25001424265E+04 0.  0.
        3    1    3    3  502    0  0.49483201835E+02  0.85878096617E+03  0.11283665286E+04  0.14188602356E+04  0.10100000352E+00 0. -1.
       -3    1    3    3    0  502 -0.49483201835E+02 -0.85878096617E+03 -0.71083980538E+03  0.11159061673E+04  0.10100000352E+00 0.  1.
</event>
<event>
 5   0  0.4959042E-05  0.1657993E+04  0.7818609E-02  0.8785692E-01
        2   -1    0    0  501    0  0.00000000000E+00  0.00000000000E+00  0.14636007623E+04  0.14636007623E+04  0.25500000920E-02 0. -1.
       -2   -1    0    0    0  501  0.00000000000E+00  0.00000000000E+00 -0.46955092301E+03  0.46955092302E+03  0.25500000920E-02 0.  1.
    10030    2    1    2    0    0  0.00000000000E+00  0.00000000000E+00  0.99404983927E+03  0.19331516853E+04  0.16579928695E+04 0.  0.
        4    1    3    3  502    0  0.28005096771E+03 -0.72246839814E+03  0.15342421465E+03  0.78989222896E+03  0.12699999809E+01 0.  1.
       -4    1    3    3    0  502 -0.28005096771E+03  0.72246839814E+03  0.84062562463E+03  0.11432594563E+04  0.12699999809E+01 0. -1.
</event>
<event>
 5   0  0.4959347E-05  0.2470285E+04  0.7818609E-02  0.8413649E-01
        2   -1    0    0  501    0  0.00000000000E+00  0.00000000000E+00  0.13409607876E+04  0.13409607876E+04  0.25500000920E-02 0.  1.
       -2   -1    0    0    0  501  0.00000000000E+00  0.00000000000E+00 -0.11376746255E+04  0.11376746255E+04  0.25500000920E-02 0. -1.
    10030    2    1    2    0    0  0.00000000000E+00  0.00000000000E+00  0.20328616209E+03  0.24786354130E+04  0.24702850538E+04 0.  0.
        3    1    3    3  502    0  0.81638856509E+03  0.36801601400E+03 -0.75190925564E+03  0.11693133090E+04  0.10100000352E+00 0. -1.
       -3    1    3    3    0  502 -0.81638856509E+03 -0.36801601400E+03  0.95519541773E+03  0.13093221040E+04  0.10100000352E+00 0.  1.
</event>
<event>
 5   0  0.5219468E-05  0.2524678E+04  0.7818609E-02  0.8394246E-01
       -2   -1    0    0    0  501  0.00000000000E+00  0.00000000000E+00  0.11880033636E+04  0.11880033636E+04  0.25500000920E-02 0.  1.
        2   -1    0    0  501    0  0.00000000000E+00  0.00000000000E+00 -0.13413258626E+04  0.13413258626E+04  0.25500000920E-02 0. -1.
    10030    2    1    2    0    0  0.00000000000E+00  0.00000000000E+00 -0.15332249907E+03  0.25293292262E+04  0.25246779093E+04 0.  0.
        1    1    3    3  502    0 -0.26471246291E+03  0.34244858805E+03 -0.12646603751E+04  0.13366785656E+04  0.50400001928E-02 0. -1.
       -1    1    3    3    0  502  0.26471246291E+03 -0.34244858805E+03  0.11113378760E+04  0.11926506606E+04  0.50400001928E-02 0.  1.
</event>
<event>
 5   0  0.2036578E-05  0.2432213E+04  0.7818609E-02  0.8427541E-01
        1   -1    0    0  501    0  0.00000000000E+00  0.00000000000E+00  0.75155100000E+03  0.75155100001E+03  0.50400001928E-02 0. -1.
       -1   -1    0    0    0  501  0.00000000000E+00  0.00000000000E+00 -0.19678171026E+04  0.19678171026E+04  0.50400001928E-02 0.  1.
    10030    2    1    2    0    0  0.00000000000E+00  0.00000000000E+00 -0.12162661026E+04  0.27193681027E+04  0.24322129112E+04 0.  0.
        2    1    3    3  502    0  0.55433331319E+03 -0.42265464723E+03 -0.17222721162E+04  0.18579945143E+04  0.25500000920E-02 0.  1.
       -2    1    3    3    0  502 -0.55433331319E+03  0.42265464723E+03  0.50600601356E+03  0.86137358835E+03  0.25500000920E-02 0. -1.
</event>
<event>
 5   0  0.2041718E-05  0.2540974E+04  0.7818609E-02  0.8388532E-01
        1   -1    0    0  501    0  0.00000000000E+00  0.00000000000E+00  0.11970439293E+04  0.11970439293E+04  0.50400001928E-02 0.  1.
       -1   -1    0    0    0  501  0.00000000000E+00  0.00000000000E+00 -0.13484361753E+04  0.13484361754E+04  0.50400001928E-02 0. -1.
    10030    2    1    2    0    0  0.00000000000E+00  0.00000000000E+00 -0.15139224605E+03  0.25454801047E+04  0.25409740949E+04 0.  0.
        4    1    3    3  502    0 -0.42109962332E+03 -0.21578814279E+03  0.11054818648E+04  0.12024895765E+04  0.12699999809E+01 0.  1.
       -4    1    3    3    0  502  0.42109962332E+03  0.21578814279E+03 -0.12568741108E+04  0.13429905282E+04  0.12699999809E+01 0. -1.
</event>
<event>
 5   0  0.5024070E-05  0.2491326E+04  0.7818609E-02  0.8406082E-01
        2   -1    0    0  501    0  0.00000000000E+00  0.00000000000E+00  0.16775521745E+04  0.16775521745E+04  0.25500000920E-02 0.  1.
       -2   -1    0    0    0  501  0.00000000000E+00  0.00000000000E+00 -0.92496451893E+03  0.92496451893E+03  0.25500000920E-02 0. -1.
    10030    2    1    2    0    0  0.00000000000E+00  0.00000000000E+00  0.75258765558E+03  0.26025166934E+04  0.24913259442E+04 0.  0.
        5    1    3    3  502    0  0.33605315256E+03  0.60133622144E+03 -0.70786884131E+03  0.98774356948E+03  0.46999998093E+01 0. -1.
       -5    1    3    3    0  502 -0.33605315256E+03 -0.60133622144E+03  0.14604564969E+04  0.16147731240E+04  0.46999998093E+01 0.  1.
</event>
<event>
 5   0  0.2081874E-05  0.2581280E+04  0.7818609E-02  0.8374588E-01
        1   -1    0    0  501    0  0.00000000000E+00  0.00000000000E+00  0.16437357319E+04  0.16437357320E+04  0.50400001928E-02 0. -1.
       -1   -1    0    0    0  501  0.00000000000E+00  0.00000000000E+00 -0.10133937160E+04  0.10133937161E+04  0.50400001928E-02 0.  1.
    10030    2    1    2    0    0  0.00000000000E+00  0.00000000000E+00  0.63034201590E+03  0.26571294480E+04  0.25812798853E+04 0.  0.
        1    1    3    3  502    0 -0.14138939366E+03 -0.10960228963E+04  0.10014658252E+04  0.14913721698E+04  0.50400001928E-02 0. -1.
       -1    1    3    3    0  502  0.14138939366E+03  0.10960228963E+04 -0.37112380927E+03  0.11657572782E+04  0.50400001928E-02 0.  1.
</event>
<event>
 5   0  0.2041718E-05  0.2522621E+04  0.7818609E-02  0.8394971E-01
       -1   -1    0    0    0  501  0.00000000000E+00  0.00000000000E+00  0.74403695255E+03  0.74403695256E+03  0.50400001928E-02 0. -1.
        1   -1    0    0  501    0  0.00000000000E+00  0.00000000000E+00 -0.21382066306E+04  0.21382066306E+04  0.50400001928E-02 0.  1.
    10030    2    1    2    0    0  0.00000000000E+00  0.00000000000E+00 -0.13941696780E+04  0.28822435832E+04  0.25226214503E+04 0.  0.
        4    1    3    3  502    0  0.60539579662E+03  0.53052763401E+03  0.41239779558E+03  0.90445408712E+03  0.12699999809E+01 0. -1.
       -4    1    3    3    0  502 -0.60539579662E+03 -0.53052763401E+03 -0.18065674736E+04  0.19777894960E+04  0.12699999809E+01 0.  1.
</event>
<event>
 5   0  0.2066170E-05  0.2403785E+04  0.7818609E-02  0.8438088E-01
        1   -1    0    0  501    0  0.00000000000E+00  0.00000000000E+00  0.12177626367E+04  0.12177626367E+04  0.50400001928E-02 0.  1.
       -1   -1    0    0    0  501  0.00000000000E+00  0.00000000000E+00 -0.11862287782E+04  0.11862287782E+04  0.50400001928E-02 0. -1.
    10030    2    1    2    0    0  0.00000000000E+00  0.00000000000E+00  0.31533858502E+02  0.24039914149E+04  0.24037845865E+04 0.  0.
        5    1    3    3  502    0 -0.86290643304E+03 -0.13584476752E+03 -0.80981102367E+03  0.11911663600E+04  0.46999998093E+01 0. -1.
       -5    1    3    3    0  502  0.86290643304E+03  0.13584476752E+03  0.84134488217E+03  0.12128250549E+04  0.46999998093E+01 0.  1.
</event>
<event>
 5   0  0.4959042E-05  0.2655571E+04  0.7818609E-02  0.8349566E-01
       -2   -1    0    0    0  501  0.00000000000E+00  0.00000000000E+00  0.75247433270E+03  0.75247433270E+03  0.25500000920E-02 0.  1.
        2   -1    0    0  501    0  0.00000000000E+00  0.00000000000E+00 -0.23429554755E+04  0.23429554755E+04  0.25500000920E-02 0. -1.
    10030    2    1    2    0    0  0.00000000000E+00  0.00000000000E+00 -0.15904811428E+04  0.30954298082E+04  0.26555706415E+04 0.  0.
        4    1    3    3  502    0 -0.53920603356E+03  0.11958195285E+04 -0.55554776260E+03  0.14245569209E+04  0.12699999809E+01 0.  1.
       -4    1    3    3    0  502  0.53920603356E+03 -0.11958195285E+04 -0.10349333802E+04  0.16708728874E+04  0.12699999809E+01 0. -1.
</event>
<event>
 5   0  0.2081874E-05  0.2476723E+04  0.7818609E-02  0.8411325E-01
       -1   -1    0    0    0  501  0.00000000000E+00  0.00000000000E+00  0.98643207616E+03  0.98643207617E+03  0.50400001928E-02 0. -1.
        1   -1    0    0  501    0  0.00000000000E+00  0.00000000000E+00 -0.15546327926E+04  0.15546327926E+04  0.50400001928E-02 0.  1.
    10030    2    1    2    0    0  0.00000000000E+00  0.00000000000E+00 -0.56820071648E+03  0.25410648688E+04  0.24767233623E+04 0.  0.
        1    1    3    3  502    0 -0.10559823343E+04 -0.54063998648E+03  0.80301674423E+02  0.11890494709E+04  0.50400001928E-02 0. -1.
       -1    1    3    3    0  502  0.10559823343E+04  0.54063998648E+03 -0.64850239091E+03  0.13520153979E+04  0.50400001928E-02 0.  1.
</event>
<event>
 5   0  0.4995256E-05  0.2441408E+04  0.7818609E-02  0.8424162E-01
       -2   -1    0    0    0  501  0.00000000000E+00  0.00000000000E+00  0.16506121486E+04  0.16506121486E+04  0.25500000920E-02 0. -1.
        2   -1    0    0  501    0  0.00000000000E+00  0.00000000000E+00 -0.90276706990E+03  0.90276706990E+03  0.25500000920E-02 0.  1.
    10030    2    1    2    0    0  0.00000000000E+00  0.00000000000E+00  0.74784507871E+03  0.25533792185E+04  0.24414080306E+04 0.  0.
        2    1    3    3  502    0  0.81777061314E+02 -0.77194565002E+03  0.13592183753E+04  0.15652674424E+04  0.25500000920E-02 0. -1.
       -2    1    3    3    0  502 -0.81777061314E+02  0.77194565002E+03 -0.61137329661E+03  0.98811177614E+03  0.25500000920E-02 0.  1.
</event>
<event>
 5   0  0.5024070E-05  0.1560216E+04  0.7818609E-02  0.8845369E-01
        2   -1    0    0  501    0  0.00000000000E+00  0.00000000000E+00  0.16629680672E+04  0.16629680672E+04  0.25500000920E-02 0.  1.
       -2   -1    0    0    0  501  0.00000000000E+00  0.00000000000E+00 -0.36595301314E+03  0.36595301315E+03  0.25500000920E-02 0. -1.
    10030    2    1    2    0    0  0.00000000000E+00  0.00000000000E+00  0.12970150540E+04  0.20289210803E+04  0.15602155940E+04 0.  0.
        5    1    3    3  502    0 -0.39765246976E+03  0.16002635143E+03 -0.19906718413E+03  0.47263702103E+03  0.46999998093E+01 0. -1.
       -5    1    3    3    0  502  0.39765246976E+03 -0.16002635143E+03  0.14960822382E+04  0.15562840593E+04  0.46999998093E+01 0.  1.
</event>
<event>
 5   0  0.2063930E-05  0.2511199E+04  0.7818609E-02  0.8399007E-01
       -1   -1    0    0    0  501  0.00000000000E+00  0.00000000000E+00  0.92298197330E+03  0.92298197331E+03  0.50400001928E-02 0. -1.
        1   -1    0    0  501    0  0.00000000000E+00  0.00000000000E+00 -0.17080839785E+04  0.17080839785E+04  0.50400001928E-02 0.  1.
    10030    2    1    2    0    0  0.00000000000E+00  0.00000000000E+00 -0.78510200522E+03  0.26310659518E+04  0.25111994911E+04 0.  0.
        3    1    3    3  502    0  0.10224881170E+04  0.40038623335E+03  0.24539662010E+03  0.11251713632E+04  0.10100000352E+00 0. -1.
       -3    1    3    3    0  502 -0.10224881170E+04 -0.40038623335E+03 -0.10304986253E+04  0.15058945887E+04  0.10100000352E+00 0.  1.
</event>
<event>
 5   0  0.2066170E-05  0.2450360E+04  0.7818609E-02  0.8420887E-01
       -1   -1    0    0    0  501  0.00000000000E+00  0.00000000000E+00  0.76278381039E+03  0.76278381041E+03  0.50400001928E-02 0.  1.
        1   -1    0    0  501    0  0.00000000000E+00  0.00000000000E+00 -0.19678779792E+04  0.19678779792E+04  0.50400001928E-02 0. -1.
    10030    2    1    2    0    0  0.00000000000E+00  0.00000000000E+00 -0.12050941688E+04  0.27306617896E+04  0.24503595356E+04 0.  0.
        5    1    3    3  502    0  0.18720532847E+03 -0.37740617374E+03 -0.18846127378E+04  0.19311314083E+04  0.46999998093E+01 0. -1.
       -5    1    3    3    0  502 -0.18720532847E+03  0.37740617374E+03  0.67951856897E+03  0.79953038126E+03  0.46999998093E+01 0.  1.
</event>
<event>
 5   0  0.4995256E-05  0.2553597E+04  0.7818609E-02  0.8384136E-01
       -2   -1    0    0    0  501  0.00000000000E+00  0.00000000000E+00  0.84558898484E+03  0.84558898485E+03  0.25500000920E-02 0. -1.
        2   -1    0    0  501    0  0.00000000000E+00  0.00000000000E+00 -0.19279043296E+04  0.19279043296E+04  0.25500000920E-02 0.  1.
    10030    2    1    2    0    0  0.00000000000E+00  0.00000000000E+00 -0.10823153447E+04  0.27734933144E+04  0.25535972000E+04 0.  0.
        2    1    3    3  502    0 -0.27126512297E+03  0.11124408995E+04 -0.11546959062E+04  0.16261710112E+04  0.25500000920E-02 0.  1.
       -2    1    3    3    0  502  0.27126512297E+03 -0.11124408995E+04  0.72380561415E+02  0.11473223033E+04  0.25500000920E-02 0. -1.
</event>
<event>
 5   0  0.2041718E-05  0.2348569E+04  0.7818609E-02  0.8459014E-01
        1   -1    0    0  501    0  0.00000000000E+00  0.00000000000E+00  0.13261633929E+04  0.13261633929E+04  0.50400001928E-02 0.  1.
       -1   -1    0    0    0  501  0.00000000000E+00  0.00000000000E+00 -0.10397994334E+04  0.10397994335E+04  0.50400001928E-02 0. -1.
    10030    2    1    2    0    0  0.00000000000E+00  0.00000000000E+00  0.28636395945E+03  0.23659628264E+04  0.23485688788E+04 0.  0.
        4    1    3    3  502    0 -0.54402043694E+03  0.66617920830E+03 -0.66223240722E+03  0.10854982024E+04  0.12699999809E+01 0. -1.
       -4    1    3    3    0  502  0.54402043694E+03 -0.66617920830E+03  0.94859636667E+03  0.12804646239E+04  0.12699999809E+01 0.  1.
</event>
<event>
 5   0  0.4959347E-05  0.2541612E+04  0.7818609E-02  0.8388309E-01
       -2   -1    0    0    0  501  0.00000000000E+00  0.00000000000E+00  0.86856414823E+03  0.86856414823E+03  0.25500000920E-02 0. -1.
        2   -1    0    0  501    0  0.00000000000E+00  0.00000000000E+00 -0.18593302541E+04  0.18593302541E+04  0.25500000920E-02 0.  1.
    10030    2    1    2    0    0  0.00000000000E+00  0.00000000000E+00 -0.99076610587E+03  0.27278944023E+04  0.25416117708E+04 0.  0.
        3    1    3    3  502    0  0.51686635372E+01  0.70143906888E+03 -0.16327213845E+04  0.17770263397E+04  0.10100000352E+00 0.  1.
       -3    1    3    3    0  502 -0.51686635372E+01 -0.70143906888E+03  0.64195527866E+03  0.95086806258E+03  0.10100000352E+00 0. -1.
</event>
<event>
 5   0  0.5024070E-05  0.1946779E+04  0.7818609E-02  0.8631915E-01
       -2   -1    0    0    0  501  0.00000000000E+00  0.00000000000E+00  0.48280661570E+03  0.48280661571E+03  0.25500000920E-02 0.  1.
        2   -1    0    0  501    0  0.00000000000E+00  0.00000000000E+00 -0.19624575963E+04  0.19624575963E+04  0.25500000920E-02 0. -1.
    10030    2    1    2    0    0  0.00000000000E+00  0.00000000000E+00 -0.14796509806E+04  0.24452642120E+04  0.19467794025E+04 0.  0.
        5    1    3    3  502    0  0.27404692971E+03 -0.33786411761E+03  0.35388969969E+03  0.56081538067E+03  0.46999998093E+01 0.  1.
       -5    1    3    3    0  502 -0.27404692971E+03  0.33786411761E+03 -0.18335406802E+04  0.18844488313E+04  0.46999998093E+01 0. -1.
</event>
<event>
 5   0  0.5219468E-05  0.2511938E+04  0.7818609E-02  0.8398745E-01
        2   -1    0    0  501    0  0.00000000000E+00  0.00000000000E+00  0.17825619011E+04  0.17825619011E+04  0.25500000920E-02 0.  1.
       -2   -1    0    0    0  501  0.00000000000E+00  0.00000000000E+00 -0.88493868300E+03  0.88493868301E+03  0.25500000920E-02 0. -1.
    10030    2    1    2    0    0  0.00000000000E+00  0.00000000000E+00  0.89762321808E+03  0.26675005841E+04  0.25119378823E+04 0.  0.
        1    1    3    3  502    0 -0.75767299007E+03  0.95855663082E+03  0.75761001550E+03  0.14376620291E+04  0.50400001928E-02 0. -1.
       -1    1    3    3    0  502  0.75767299007E+03 -0.95855663082E+03  0.14001320258E+03  0.12298385550E+04  0.50400001928E-02 0.  1.
</event>
<event>
 5   0  0.2081874E-05  0.2503529E+04  0.7818609E-02  0.8401729E-01
       -1   -1    0    0    0  501  0.00000000000E+00  0.00000000000E+00  0.75377615600E+03  0.75377615602E+03  0.50400001928E-02 0.  1.
        1   -1    0    0  501    0  0.00000000000E+00  0.00000000000E+00 -0.20787533974E+04  0.20787533974E+04  0.50400001928E-02 0. -1.
    10030    2    1    2    0    0  0.00000000000E+00  0.00000000000E+00 -0.13249772414E+04  0.28325295534E+04  0.25035293049E+04 0.  0.
        1    1    3    3  502    0 -0.86360851692E+03  0.50791729338E+03 -0.15115133815E+04  0.18134145555E+04  0.50400001928E-02 0. -1.
       -1    1    3    3    0  502  0.86360851692E+03 -0.50791729338E+03  0.18653614015E+03  0.10191149979E+04  0.50400001928E-02 0.  1.
</event>
<event>
 5   0  0.5219468E-05  0.2160987E+04  0.7818609E-02  0.8534844E-01
       -2   -1    0    0    0  501  0.00000000000E+00  0.00000000000E+00  0.70195976280E+03  0.70195976280E+03  0.25500000920E-02 0. -1.
        2   -1    0    0  501    0  0.00000000000E+00  0.00000000000E+00 -0.16631529562E+04  0.16631529562E+04  0.25500000920E-02 0.  1.
    10030    2    1    2    0    0  0.00000000000E+00  0.00000000000E+00 -0.96119319345E+03  0.23651127191E+04  0.21609872324E+04 0.  0.
        1    1    3    3  502    0 -0.36478429765E+03 -0.79410880989E+03 -0.11760650890E+04  0.14651981024E+04  0.50400001928E-02 0.  1.
       -1    1    3    3    0  502  0.36478429765E+03  0.79410880989E+03  0.21487189553E+03  0.89991461665E+03  0.50400001928E-02 0. -1.
</event>
<event>
 5   0  0.2081874E-05  0.2773853E+04  0.7818609E-02  0.8311432E-01
       -1   -1    0    0    0  501  0.00000000000E+00  0.00000000000E+00  0.78933366741E+03  0.78933366742E+03  0.50400001928E-02 0.  1.
        1   -1    0    0  501    0  0.00000000000E+00  0.00000000000E+00 -0.24369480045E+04  0.24369480045E+04  0.50400001928E-02 0. -1.
    10030    2    1    2    0    0  0.00000000000E+00  0.00000000000E+00 -0.16476143370E+04  0.32262816719E+04  0.27738529923E+04 0.  0.
        1    1    3    3  502    0 -0.11636206092E+03  0.11735020222E+04 -0.16728879811E+04  0.20467538501E+04  0.50400001928E-02 0. -1.
       -1    1    3    3    0  502  0.11636206092E+03 -0.11735020222E+04  0.25273644084E+02  0.11795278218E+04  0.50400001928E-02 0.  1.
</event>
<event>
 5   0  0.4959042E-05  0.2500577E+04  0.7818609E-02  0.8402780E-01
        2   -1    0    0  501    0  0.00000000000E+00  0.00000000000E+00  0.94739452600E+03  0.94739452600E+03  0.25500000920E-02 0.  1.
       -2   -1    0    0    0  501  0.00000000000E+00  0.00000000000E+00 -0.16500212598E+04  0.16500212598E+04  0.25500000920E-02 0. -1.
    10030    2    1    2    0    0  0.00000000000E+00  0.00000000000E+00 -0.70262673384E+03  0.25974157858E+04  0.25005768209E+04 0.  0.
        4    1    3    3  502    0 -0.10961494533E+03  0.12342271757E+04 -0.17785118200E+03  0.12517846513E+04  0.12699999809E+01 0. -1.
       -4    1    3    3    0  502  0.10961494533E+03 -0.12342271757E+04 -0.52477555183E+03  0.13456311345E+04  0.12699999809E+01 0.  1.
</event>
<event>
 5   0  0.2081874E-05  0.2520884E+04  0.7818609E-02  0.8395583E-01
       -1   -1    0    0    0  501  0.00000000000E+00  0.00000000000E+00  0.13800206094E+04  0.13800206094E+04  0.50400001928E-02 0.  1.
        1   -1    0    0  501    0  0.00000000000E+00  0.00000000000E+00 -0.11512246149E+04  0.11512246149E+04  0.50400001928E-02 0. -1.
    10030    2    1    2    0    0  0.00000000000E+00  0.00000000000E+00  0.22879599450E+03  0.25312452243E+04  0.25208837296E+04 0.  0.
        1    1    3    3  502    0  0.75288716388E+03 -0.37045631128E+03  0.10588152031E+04  0.13509872666E+04  0.50400001928E-02 0.  1.
       -1    1    3    3    0  502 -0.75288716388E+03  0.37045631128E+03 -0.83001920860E+03  0.11802579577E+04  0.50400001928E-02 0. -1.
</event>
<event>
 5   0  0.5024070E-05  0.2498826E+04  0.7818609E-02  0.8403404E-01
       -2   -1    0    0    0  501  0.00000000000E+00  0.00000000000E+00  0.15285693575E+04  0.15285693575E+04  0.25500000920E-02 0.  1.
        2   -1    0    0  501    0  0.00000000000E+00  0.00000000000E+00 -0.10212374687E+04  0.10212374687E+04  0.25500000920E-02 0. -1.
    10030    2    1    2    0    0  0.00000000000E+00  0.00000000000E+00  0.50733188879E+03  0.25498068262E+04  0.24988255652E+04 0.  0.
        5    1    3    3  502    0  0.91840317325E+01  0.80779084683E+03  0.12262112837E+04  0.14684095481E+04  0.46999998093E+01 0.  1.
       -5    1    3    3    0  502 -0.91840317325E+01 -0.80779084683E+03 -0.71887939489E+03  0.10813972781E+04  0.46999998093E+01 0. -1.
</event>
<event>
 5   0  0.5024070E-05  0.2530332E+04  0.7818609E-02  0.8392259E-01
        2   -1    0    0  501    0  0.00000000000E+00  0.00000000000E+00  0.17453669929E+04  0.17453669929E+04  0.25500000920E-02 0.  1.
       -2   -1    0    0    0  501  0.00000000000E+00  0.00000000000E+00 -0.91708243503E+03  0.91708243503E+03  0.25500000920E-02 0. -1.
    10030    2    1    2    0    0  0.00000000000E+00  0.00000000000E+00  0.82828455789E+03  0.26624494280E+04  0.25303323196E+04 0.  0.
        5    1    3    3  502    0  0.46030948518E+03  0.92709509772E+03 -0.35132624374E+03  0.10930884511E+04  0.46999998093E+01 0. -1.
       -5    1    3    3    0  502 -0.46030948518E+03 -0.92709509772E+03  0.11796108016E+04  0.15693609769E+04  0.46999998093E+01 0.  1.
</event>
<event>
 5   0  0.4995256E-05  0.2533283E+04  0.7818609E-02  0.8391223E-01
        2   -1    0    0  501    0  0.00000000000E+00  0.00000000000E+00  0.12914125885E+04  0.12914125885E+04  0.25500000920E-02 0. -1.
       -2   -1    0    0    0  501  0.00000000000E+00  0.00000000000E+00 -0.12423459686E+04  0.12423459686E+04  0.25500000920E-02 0.  1.
    10030    2    1    2    0    0  0.00000000000E+00  0.00000000000E+00  0.49066619935E+02  0.25337585571E+04  0.25332834213E+04 0.  0.
        2    1    3    3  502    0  0.97982367702E+03  0.35229097244E+03  0.74592988293E+03  0.12808492330E+04  0.25500000920E-02 0. -1.
       -2    1    3    3    0  502 -0.97982367702E+03 -0.35229097244E+03 -0.69686326300E+03  0.12529093242E+04  0.25500000920E-02 0.  1.
</event>
<event>
 5   0  0.4995256E-05  0.2461303E+04  0.7818609E-02  0.8416903E-01
       -2   -1    0    0    0  501  0.00000000000E+00  0.00000000000E+00  0.13226525554E+04  0.13226525554E+04  0.25500000920E-02 0.  1.
        2   -1    0    0  501    0  0.00000000000E+00  0.00000000000E+00 -0.11450502080E+04  0.11450502080E+04  0.25500000920E-02 0. -1.
    10030    2    1    2    0    0  0.00000000000E+00  0.00000000000E+00  0.17760234740E+03  0.24677027634E+04  0.24613033812E+04 0.  0.
        2    1    3    3  502    0  0.95398838913E+03  0.16415342687E+03 -0.67308470988E+03  0.11790179052E+04  0.25500000920E-02 0. -1.
       -2    1    3    3    0  502 -0.95398838913E+03 -0.16415342687E+03  0.85068705728E+03  0.12886848581E+04  0.25500000920E-02 0.  1.
</event>
<event>
 5   0  0.5219468E-05  0.2378827E+04  0.7818609E-02  0.8447473E-01
        2   -1    0    0  501    0  0.00000000000E+00  0.00000000000E+00  0.27704533638E+04  0.27704533638E+04  0.25500000920E-02 0. -1.
       -2   -1    0    0    0  501  0.00000000000E+00  0.00000000000E+00 -0.51063991357E+03  0.51063991357E+03  0.25500000920E-02 0.  1.
    10030    2    1    2    0    0  0.00000000000E+00  0.00000000000E+00  0.22598134502E+04  0.32810932773E+04  0.23788266572E+04 0.  0.
        1    1    3    3  502    0 -0.10388212487E+04 -0.45873766894E+03  0.64203108401E+03  0.13045281709E+04  0.50400001928E-02 0.  1.
       -1    1    3    3    0  502  0.10388212487E+04  0.45873766894E+03  0.16177823662E+04  0.19765651065E+04  0.50400001928E-02 0. -1.
</event>
<event>
 5   0  0.2066170E-05  0.2493768E+04  0.7818609E-02  0.8405209E-01
       -1   -1    0    0    0  501  0.00000000000E+00  0.00000000000E+00  0.10982657501E+04  0.10982657501E+04  0.50400001928E-02 0. -1.
        1   -1    0    0  501    0  0.00000000000E+00  0.00000000000E+00 -0.14156130592E+04  0.14156130592E+04  0.50400001928E-02 0.  1.
    10030    2    1    2    0    0  0.00000000000E+00  0.00000000000E+00 -0.31734730906E+03  0.25138788093E+04  0.24937677024E+04 0.  0.
        5    1    3    3  502    0  0.19702659627E+03  0.74321858900E+03  0.83082470627E+03  0.11320270020E+04  0.46999998093E+01 0. -1.
       -5    1    3    3    0  502 -0.19702659627E+03 -0.74321858900E+03 -0.11481720153E+04  0.13818518073E+04  0.46999998093E+01 0.  1.
</event>
<event>
 5   0  0.2063930E-05  0.1823030E+04  0.7818609E-02  0.8694148E-01
        1   -1    0    0  501    0  0.00000000000E+00  0.00000000000E+00  0.55728942924E+03  0.55728942926E+03  0.50400001928E-02 0.  1.
       -1   -1    0    0    0  501  0.00000000000E+00  0.00000000000E+00 -0.14908936860E+04  0.14908936860E+04  0.50400001928E-02 0. -1.
    10030    2    1    2    0    0  0.00000000000E+00  0.00000000000E+00 -0.93360425678E+03  0.20481831153E+04  0.18230296667E+04 0.  0.
        3    1    3    3  502    0 -0.88449297177E+03  0.20294123548E+03 -0.56309850296E+03  0.10679854383E+04  0.10100000352E+00 0. -1.
       -3    1    3    3    0  502  0.88449297177E+03 -0.20294123548E+03 -0.37050575382E+03  0.98019767700E+03  0.10100000352E+00 0.  1.
</event>
<event>
 5   0  0.4959347E-05  0.2462613E+04  0.7818609E-02  0.8416427E-01
        2   -1    0    0  501    0  0.00000000000E+00  0.00000000000E+00  0.14109903158E+04  0.14109903158E+04  0.25500000920E-02 0.  1.
       -2   -1    0    0    0  501  0.00000000000E+00  0.00000000000E+00 -0.10745050395E+04  0.10745050395E+04  0.25500000920E-02 0. -1.
    10030    2    1    2    0    0  0.00000000000E+00  0.00000000000E+00  0.33648527623E+03  0.24854953553E+04  0.24626134126E+04 0.  0.
        3    1    3    3  502    0  0.44843676321E+03  0.69409212813E+03 -0.75306812312E+03  0.11180210290E+04  0.10100000352E+00 0. -1.
       -3    1    3    3    0  502 -0.44843676321E+03 -0.69409212813E+03  0.10895533994E+04  0.13674743263E+04  0.10100000352E+00 0.  1.
</event>
<event>
 5   0  0.2081874E-05  0.2299206E+04  0.7818609E-02  0.8478234E-01
       -1   -1    0    0    0  501  0.00000000000E+00  0.00000000000E+00  0.14227744908E+04  0.14227744909E+04  0.50400001928E-02 0.  1.
        1   -1    0    0  501    0  0.00000000000E+00  0.00000000000E+00 -0.92888038933E+03  0.92888038935E+03  0.50400001928E-02 0. -1.
    10030    2    1    2    0    0  0.00000000000E+00  0.00000000000E+00  0.49389410151E+03  0.23516548802E+04  0.22992062309E+04 0.  0.
        1    1    3    3  502    0 -0.41676186759E+03  0.10696249168E+04  0.18390163535E+03  0.11625866542E+04  0.50400001928E-02 0. -1.
       -1    1    3    3    0  502  0.41676186759E+03 -0.10696249168E+04  0.30999246616E+03  0.11890682260E+04  0.50400001928E-02 0.  1.
</event>
<event>
 5   0  0.4995256E-05  0.2431849E+04  0.7818609E-02  0.8427675E-01
       -2   -1    0    0    0  501  0.00000000000E+00  0.00000000000E+00  0.16737142982E+04  0.16737142982E+04  0.25500000920E-02 0. -1.
        2   -1    0    0  501    0  0.00000000000E+00  0.00000000000E+00 -0.88334778533E+03  0.88334778533E+03  0.25500000920E-02 0.  1.
    10030    2    1    2    0    0  0.00000000000E+00  0.00000000000E+00  0.79036651291E+03  0.25570620836E+04  0.24318485303E+04 0.  0.
        2    1    3    3  502    0  0.11687826636E+04 -0.27106022305E+03  0.60268992195E+03  0.13426696173E+04  0.25500000920E-02 0. -1.
       -2    1    3    3    0  502 -0.11687826636E+04  0.27106022305E+03  0.18767659096E+03  0.12143924662E+04  0.25500000920E-02 0.  1.
</event>
<event>
 5   0  0.2041718E-05  0.2470546E+04  0.7818609E-02  0.8413554E-01
        1   -1    0    0  501    0  0.00000000000E+00  0.00000000000E+00  0.23770505557E+04  0.23770505557E+04  0.50400001928E-02 0.  1.
       -1   -1    0    0    0  501  0.00000000000E+00  0.00000000000E+00 -0.64192978636E+03  0.64192978638E+03  0.50400001928E-02 0. -1.
    10030    2    1    2    0    0  0.00000000000E+00  0.00000000000E+00  0.17351207694E+04  0.30189803421E+04  0.24705461384E+04 0.  0.
        4    1    3    3  502    0  0.64271349164E+03 -0.85180643498E+03  0.16279902490E+04  0.19465376181E+04  0.12699999809E+01 0.  1.
       -4    1    3    3    0  502 -0.64271349164E+03  0.85180643498E+03  0.10713052039E+03  0.10724427240E+04  0.12699999809E+01 0. -1.
</event>
<event>
 5   0  0.2081874E-05  0.2370037E+04  0.7818609E-02  0.8450807E-01
       -1   -1    0    0    0  501  0.00000000000E+00  0.00000000000E+00  0.10030136353E+04  0.10030136353E+04  0.50400001928E-02 0.  1.
        1   -1    0    0  501    0  0.00000000000E+00  0.00000000000E+00 -0.14000497068E+04  0.14000497068E+04  0.50400001928E-02 0. -1.
    10030    2    1    2    0    0  0.00000000000E+00  0.00000000000E+00 -0.39703607153E+03  0.24030633421E+04  0.23700370850E+04 0.  0.
        1    1    3    3  502    0 -0.56017156133E+02  0.10666653253E+04 -0.71885152022E+03  0.12875015907E+04  0.50400001928E-02 0. -1.
       -1    1    3    3    0  502  0.56017156133E+02 -0.10666653253E+04  0.32181544869E+03  0.11155617513E+04  0.50400001928E-02 0.  1.
</event>
<event>
 5   0  0.2036578E-05  0.2344967E+04  0.7818609E-02  0.8460399E-01
       -1   -1    0    0    0  501  0.00000000000E+00  0.00000000000E+00  0.11862413022E+04  0.11862413022E+04  0.50400001928E-02 0. -1.
        1   -1    0    0  501    0  0.00000000000E+00  0.00000000000E+00 -0.11588854704E+04  0.11588854704E+04  0.50400001928E-02 0.  1.
    10030    2    1    2    0    0  0.00000000000E+00  0.00000000000E+00  0.27355831754E+02  0.23451267726E+04  0.23449672147E+04 0.  0.
        2    1    3    3  502    0 -0.28104197259E+03 -0.11378542873E+04  0.45630677747E+02  0.11729361143E+04  0.25500000920E-02 0. -1.
       -2    1    3    3    0  502  0.28104197259E+03  0.11378542873E+04 -0.18274845993E+02  0.11721906583E+04  0.25500000920E-02 0.  1.
</event>
<event>
 5   0  0.2066170E-05  0.2486215E+04  0.7818609E-02  0.8407913E-01
       -1   -1    0    0    0  501  0.00000000000E+00  0.00000000000E+00  0.76803393299E+03  0.76803393300E+03  0.50400001928E-02 0. -1.
        1   -1    0    0  501    0  0.00000000000E+00  0.00000000000E+00 -0.20120411297E+04  0.20120411297E+04  0.50400001928E-02 0.  1.
    10030    2    1    2    0    0  0.00000000000E+00  0.00000000000E+00 -0.12440071967E+04  0.27800750627E+04  0.24862146828E+04 0.  0.
        5    1    3    3  502    0  0.17364715381E+03 -0.36632749194E+02 -0.19977928988E+04  0.20056654379E+04  0.46999998093E+01 0.  1.
       -5    1    3    3    0  502 -0.17364715381E+03  0.36632749194E+02  0.75378570208E+03  0.77440962481E+03  0.46999998093E+01 0. -1.
</event>
<event>
 5   0  0.4959042E-05  0.2506520E+04  0.7818609E-02  0.8400666E-01
       -2   -1    0    0    0  501  0.00000000000E+00  0.00000000000E+00  0.90564342015E+03  0.90564342016E+03  0.25500000920E-02 0.  1.
        2   -1    0    0  501    0  0.00000000000E+00  0.00000000000E+00 -0.17343035274E+04  0.17343035274E+04  0.25500000920E-02 0. -1.
    10030    2    1    2    0    0  0.00000000000E+00  0.00000000000E+00 -0.82866010730E+03  0.26399469476E+04  0.25065199606E+04 0.  0.
        4    1    3    3  502    0  0.68965492052E+03  0.46808037048E+03 -0.14000650507E+04  0.16293885055E+04  0.12699999809E+01 0. -1.
       -4    1    3    3    0  502 -0.68965492052E+03 -0.46808037048E+03  0.57140494345E+03  0.10105584421E+04  0.12699999809E+01 0.  1.
</event>
<event>
 5   0  0.4959042E-05  0.2426682E+04  0.7818609E-02  0.8429581E-01
       -2   -1    0    0    0  501  0.00000000000E+00  0.00000000000E+00  0.87213153136E+03  0.87213153136E+03  0.25500000920E-02 0. -1.
        2   -1    0    0  501    0  0.00000000000E+00  0.00000000000E+00 -0.16880436278E+04  0.16880436278E+04  0.25500000920E-02 0.  1.
    10030    2    1    2    0    0  0.00000000000E+00  0.00000000000E+00 -0.81591209647E+03  0.25601751592E+04  0.24266817460E+04 0.  0.
        4    1    3    3  502    0  0.60205713297E+02  0.10546549242E+04  0.22176490381E+03  0.10793993805E+04  0.12699999809E+01 0. -1.
       -4    1    3    3    0  502 -0.60205713297E+02 -0.10546549242E+04 -0.10376770003E+04  0.14807757787E+04  0.12699999809E+01 0.  1.
</event>
<event>
 5   0  0.2036578E-05  0.2445502E+04  0.7818609E-02  0.8422662E-01
        1   -1    0    0  501    0  0.00000000000E+00  0.00000000000E+00  0.27011830020E+04  0.27011830020E+04  0.50400001928E-02 0. -1.
       -1   -1    0    0    0  501  0.00000000000E+00  0.00000000000E+00 -0.55350571065E+03  0.55350571068E+03  0.50400001928E-02 0.  1.
    10030    2    1    2    0    0  0.00000000000E+00  0.00000000000E+00  0.21476772913E+04  0.32546887126E+04  0.24455021710E+04 0.  0.
        2    1    3    3  502    0  0.14870169805E+02  0.96684379774E+03  0.20698835271E+04  0.22846062827E+04  0.25500000920E-02 0. -1.
       -2    1    3    3    0  502 -0.14870169805E+02 -0.96684379774E+03  0.77793764240E+02  0.97008242997E+03  0.25500000920E-02 0.  1.
</event>
<event>
 5   0  0.4959042E-05  0.2478628E+04  0.7818609E-02  0.8410639E-01
        2   -1    0    0  501    0  0.00000000000E+00  0.00000000000E+00  0.16142337217E+04  0.16142337217E+04  0.25500000920E-02 0.  1.
       -2   -1    0    0    0  501  0.00000000000E+00  0.00000000000E+00 -0.95147244904E+03  0.95147244904E+03  0.25500000920E-02 0. -1.
    10030    2    1    2    0    0  0.00000000000E+00  0.00000000000E+00  0.66276127266E+03  0.25657061707E+04  0.24786277756E+04 0.  0.
        4    1    3    3  502    0  0.61333337717E+03 -0.25921595697E+03  0.14133416388E+04  0.15623402142E+04  0.12699999809E+01 0.  1.
       -4    1    3    3    0  502 -0.61333337717E+03  0.25921595697E+03 -0.75058036614E+03  0.10033659566E+04  0.12699999809E+01 0. -1.
</event>
<event>
 5   0  0.5219468E-05  0.2580085E+04  0.7818609E-02  0.8374997E-01
       -2   -1    0    0    0  501  0.00000000000E+00  0.00000000000E+00  0.88248410057E+03  0.88248410058E+03  0.25500000920E-02 0.  1.
        2   -1    0    0  501    0  0.00000000000E+00  0.00000000000E+00 -0.18858245464E+04  0.18858245464E+04  0.25500000920E-02 0. -1.
    10030    2    1    2    0    0  0.00000000000E+00  0.00000000000E+00 -0.10033404458E+04  0.27683086470E+04  0.25800854084E+04 0.  0.
        1    1    3    3  502    0 -0.30546827796E+02  0.12741187380E+04 -0.71598828463E+03  0.14618313483E+04  0.50400001928E-02 0.  1.
       -1    1    3    3    0  502  0.30546827796E+02 -0.12741187380E+04 -0.28735216117E+03  0.13064772986E+04  0.50400001928E-02 0. -1.
</event>
<event>
 5   0  0.4959042E-05  0.2124121E+04  0.7818609E-02  0.8550691E-01
        2   -1    0    0  501    0  0.00000000000E+00  0.00000000000E+00  0.15506223132E+04  0.15506223132E+04  0.25500000920E-02 0. -1.
       -2   -1    0    0    0  501  0.00000000000E+00  0.00000000000E+00 -0.72743246658E+03  0.72743246658E+03  0.25500000920E-02 0.  1.
    10030    2    1    2    0    0  0.00000000000E+00  0.00000000000E+00  0.82318984666E+03  0.22780547798E+04  0.21241214787E+04 0.  0.
        4    1    3    3  502    0  0.10474862508E+04 -0.12664854537E+03  0.28154680967E+03  0.10920336619E+04  0.12699999809E+01 0.  1.
       -4    1    3    3    0  502 -0.10474862508E+04  0.12664854537E+03  0.54164303699E+03  0.11860211179E+04  0.12699999809E+01 0. -1.
</event>
<event>
 5   0  0.2066170E-05  0.2389484E+04  0.7818609E-02  0.8443451E-01
       -1   -1    0    0    0  501  0.00000000000E+00  0.00000000000E+00  0.10504224386E+04  0.10504224386E+04  0.50400001928E-02 0. -1.
        1   -1    0    0  501    0  0.00000000000E+00  0.00000000000E+00 -0.13588899194E+04  0.13588899194E+04  0.50400001928E-02 0.  1.
    10030    2    1    2    0    0  0.00000000000E+00  0.00000000000E+00 -0.30846748079E+03  0.24093123580E+04  0.23894840137E+04 0.  0.
        5    1    3    3  502    0  0.48420231954E+03  0.17156681883E+03 -0.12418408668E+04  0.13439039728E+04  0.46999998093E+01 0.  1.
       -5    1    3    3    0  502 -0.48420231954E+03 -0.17156681883E+03  0.93337338602E+03  0.10654083852E+04  0.46999998093E+01 0. -1.
</event>
<event>
 5   0  0.5024070E-05  0.2515661E+04  0.7818609E-02  0.8397427E-01
       -2   -1    0    0    0  501  0.00000000000E+00  0.00000000000E+00  0.10565951653E+04  0.10565951653E+04  0.25500000920E-02 0.  1.
        2   -1    0    0  501    0  0.00000000000E+00  0.00000000000E+00 -0.14973928439E+04  0.14973928439E+04  0.25500000920E-02 0. -1.
    10030    2    1    2    0    0  0.00000000000E+00  0.00000000000E+00 -0.44079767862E+03  0.25539880092E+04  0.25156613758E+04 0.  0.
        5    1    3    3  502    0 -0.92396179418E+03  0.18473248682E+03  0.62553304539E+03  0.11309930016E+04  0.46999998093E+01 0.  1.
       -5    1    3    3    0  502  0.92396179418E+03 -0.18473248682E+03 -0.10663307240E+04  0.14229950076E+04  0.46999998093E+01 0. -1.
</event>
<event>
 5   0  0.2066170E-05  0.2377751E+04  0.7818609E-02  0.8447881E-01
        1   -1    0    0  501    0  0.00000000000E+00  0.00000000000E+00  0.85116919838E+03  0.85116919840E+03  0.50400001928E-02 0. -1.
       -1   -1    0    0    0  501  0.00000000000E+00  0.00000000000E+00 -0.16605686313E+04  0.16605686313E+04  0.50400001928E-02 0.  1.
    10030    2    1    2    0    0  0.00000000000E+00  0.00000000000E+00 -0.80939943291E+03  0.25117378297E+04  0.23777509296E+04 0.  0.
        5    1    3    3  502    0  0.10728645011E+04  0.51180193316E+03 -0.42643395972E+03  0.12628727048E+04  0.46999998093E+01 0. -1.
       -5    1    3    3    0  502 -0.10728645011E+04 -0.51180193316E+03 -0.38296547319E+03  0.12488651249E+04  0.46999998093E+01 0.  1.
</event>
<event>
 5   0  0.2063930E-05  0.2620893E+04  0.7818609E-02  0.8361139E-01
        1   -1    0    0  501    0  0.00000000000E+00  0.00000000000E+00  0.17327345628E+04  0.17327345628E+04  0.50400001928E-02 0.  1.
       -1   -1    0    0    0  501  0.00000000000E+00  0.00000000000E+00 -0.99107541146E+03  0.99107541147E+03  0.50400001928E-02 0. -1.
    10030    2    1    2    0    0  0.00000000000E+00  0.00000000000E+00  0.74165915136E+03  0.27238099743E+04  0.26208934506E+04 0.  0.
        3    1    3    3  502    0  0.23148466146E+03 -0.69195398356E+03  0.15020977459E+04  0.16699350623E+04  0.10100000352E+00 0.  1.
       -3    1    3    3    0  502 -0.23148466146E+03  0.69195398356E+03 -0.76043859454E+03  0.10538749120E+04  0.10100000352E+00 0. -1.
</event>
<event>
 5   0  0.5024070E-05  0.2578261E+04  0.7818609E-02  0.8375623E-01
        2   -1    0    0  501    0  0.00000000000E+00  0.00000000000E+00  0.13284289002E+04  0.13284289002E+04  0.25500000920E-02 0.  1.
       -2   -1    0    0    0  501  0.00000000000E+00  0.00000000000E+00 -0.12509946001E+04  0.12509946001E+04  0.25500000920E-02 0. -1.
    10030    2    1    2    0    0  0.00000000000E+00  0.00000000000E+00  0.77434300191E+02  0.25794235003E+04  0.25782609494E+04 0.  0.
        5    1    3    3  502    0 -0.35928730672E+03  0.11784049100E+04  0.41850627445E+03  0.13011130207E+04  0.46999998093E+01 0.  1.
       -5    1    3    3    0  502  0.35928730672E+03 -0.11784049100E+04 -0.34107197426E+03  0.12783104797E+04  0.46999998093E+01 0. -1.
</event>
<event>
 5   0  0.2081874E-05  0.2522935E+04  0.7818609E-02  0.8394860E-01
       -1   -1    0    0    0  501  0.00000000000E+00  0.00000000000E+00  0.62475518613E+03  0.62475518615E+03  0.50400001928E-02 0. -1.
        1   -1    0    0  501    0  0.00000000000E+00  0.00000000000E+00 -0.25470773455E+04  0.25470773455E+04  0.50400001928E-02 0.  1.
    10030    2    1    2    0    0  0.00000000000E+00  0.00000000000E+00 -0.19223221593E+04  0.31718325316E+04  0.25229346255E+04 0.  0.
        1    1    3    3  502    0 -0.49469431661E+03 -0.11510639051E+04 -0.11460557894E+04  0.16979736314E+04  0.50400001928E-02 0. -1.
       -1    1    3    3    0  502  0.49469431661E+03  0.11510639051E+04 -0.77626636990E+03  0.14738589002E+04  0.50400001928E-02 0.  1.
</event>
<event>
 5   0  0.2041718E-05  0.2457695E+04  0.7818609E-02  0.8418214E-01
       -1   -1    0    0    0  501  0.00000000000E+00  0.00000000000E+00  0.98951550097E+03  0.98951550098E+03  0.50400001928E-02 0.  1.
        1   -1    0    0  501    0  0.00000000000E+00  0.00000000000E+00 -0.15260662163E+04  0.15260662164E+04  0.50400001928E-02 0. -1.
    10030    2    1    2    0    0  0.00000000000E+00  0.00000000000E+00 -0.53655071538E+03  0.25155817173E+04  0.24576949987E+04 0.  0.
        4    1    3    3  502    0 -0.10971682392E+04 -0.17705604346E+03 -0.80497028914E+03  0.13722630094E+04  0.12699999809E+01 0. -1.
       -4    1    3    3    0  502  0.10971682392E+04  0.17705604346E+03  0.26841957376E+03  0.11433187080E+04  0.12699999809E+01 0.  1.
</event>
<event>
 5   0  0.2066170E-05  0.2353921E+04  0.7818609E-02  0.8456959E-01
       -1   -1    0    0    0  501  0.00000000000E+00  0.00000000000E+00  0.64341606962E+03  0.64341606964E+03  0.50400001928E-02 0. -1.
        1   -1    0    0  501    0  0.00000000000E+00  0.00000000000E+00 -0.21529397065E+04  0.21529397065E+04  0.50400001928E-02 0.  1.
    10030    2    1    2    0    0  0.00000000000E+00  0.00000000000E+00 -0.15095236369E+04  0.27963557762E+04  0.23539209877E+04 0.  0.
        5    1    3    3  502    0  0.79123793532E+03 -0.84814595326E+03 -0.99177294539E+03  0.15261207991E+04  0.46999998093E+01 0.  1.
       -5    1    3    3    0  502 -0.79123793532E+03  0.84814595326E+03 -0.51775069152E+03  0.12702349770E+04  0.46999998093E+01 0. -1.
</event>
<event>
 5   0  0.2081874E-05  0.2413285E+04  0.7818609E-02  0.8434547E-01
       -1   -1    0    0    0  501  0.00000000000E+00  0.00000000000E+00  0.97937678521E+03  0.97937678522E+03  0.50400001928E-02 0.  1.
        1   -1    0    0  501    0  0.00000000000E+00  0.00000000000E+00 -0.14866455594E+04  0.14866455594E+04  0.50400001928E-02 0. -1.
    10030    2    1    2    0    0  0.00000000000E+00  0.00000000000E+00 -0.50726877418E+03  0.24660223446E+04  0.24132850215E+04 0.  0.
        1    1    3    3  502    0  0.66500571298E+02  0.10299449027E+04 -0.89241696858E+03  0.13644108159E+04  0.50400001928E-02 0. -1.
       -1    1    3    3    0  502 -0.66500571298E+02 -0.10299449027E+04  0.38514819440E+03  0.11016115288E+04  0.50400001928E-02 0.  1.
</event>
<event>
 5   0  0.2081874E-05  0.1703220E+04  0.7818609E-02  0.8759530E-01
        1   -1    0    0  501    0  0.00000000000E+00  0.00000000000E+00  0.47323553092E+03  0.47323553094E+03  0.50400001928E-02 0.  1.
       -1   -1    0    0    0  501  0.00000000000E+00  0.00000000000E+00 -0.15325127962E+04  0.15325127962E+04  0.50400001928E-02 0. -1.
    10030    2    1    2    0    0  0.00000000000E+00  0.00000000000E+00 -0.10592772653E+04  0.20057483272E+04  0.17032198998E+04 0.  0.
        1    1    3    3  502    0 -0.81972325654E+02 -0.54131160358E+03  0.23852972365E+03  0.59718853257E+03  0.50400001928E-02 0.  1.
       -1    1    3    3    0  502  0.81972325654E+02  0.54131160358E+03 -0.12978069889E+04  0.14085597946E+04  0.50400001928E-02 0. -1.
</event>
<event>
 5   0  0.4959042E-05  0.2507430E+04  0.7818609E-02  0.8400343E-01
       -2   -1    0    0    0  501  0.00000000000E+00  0.00000000000E+00  0.86316696373E+03  0.86316696373E+03  0.25500000920E-02 0. -1.
        2   -1    0    0  501    0  0.00000000000E+00  0.00000000000E+00 -0.18209706124E+04  0.18209706124E+04  0.25500000920E-02 0.  1.
    10030    2    1    2    0    0  0.00000000000E+00  0.00000000000E+00 -0.95780364862E+03  0.26841375761E+04  0.25074302977E+04 0.  0.
        4    1    3    3  502    0  0.19267693984E+03  0.49495382052E+03 -0.16945828607E+04  0.17758705956E+04  0.12699999809E+01 0.  1.
       -4    1    3    3    0  502 -0.19267693984E+03 -0.49495382052E+03  0.73677921209E+03  0.90826698049E+03  0.12699999809E+01 0. -1.
</event>
<event>
 5   0  0.2041718E-05  0.2422074E+04  0.7818609E-02  0.8431285E-01
       -1   -1    0    0    0  501  0.00000000000E+00  0.00000000000E+00  0.85016710680E+03  0.85016710681E+03  0.50400001928E-02 0.  1.
        1   -1    0    0  501    0  0.00000000000E+00  0.00000000000E+00 -0.17250851798E+04  0.17250851798E+04  0.50400001928E-02 0. -1.
    10030    2    1    2    0    0  0.00000000000E+00  0.00000000000E+00 -0.87491807303E+03  0.25752522866E+04  0.24220740503E+04 0.  0.
        4    1    3    3  502    0  0.11416458361E+03 -0.10182777350E+04  0.24887699840E+03  0.10544498428E+04  0.12699999809E+01 0.  1.
       -4    1    3    3    0  502 -0.11416458361E+03  0.10182777350E+04 -0.11237950714E+04  0.15208024438E+04  0.12699999809E+01 0. -1.
</event>
<event>
 5   0  0.2081874E-05  0.2501719E+04  0.7818609E-02  0.8402373E-01
        1   -1    0    0  501    0  0.00000000000E+00  0.00000000000E+00  0.11795840272E+04  0.11795840272E+04  0.50400001928E-02 0. -1.
       -1   -1    0    0    0  501  0.00000000000E+00  0.00000000000E+00 -0.13264421526E+04  0.13264421526E+04  0.50400001928E-02 0.  1.
    10030    2    1    2    0    0  0.00000000000E+00  0.00000000000E+00 -0.14685812540E+03  0.25060261799E+04  0.25017193898E+04 0.  0.
        1    1    3    3  502    0 -0.75963044712E+03  0.48531242386E+03 -0.94214945019E+03  0.13039218349E+04  0.50400001928E-02 0.  1.
       -1    1    3    3    0  502  0.75963044712E+03 -0.48531242386E+03  0.79529132479E+03  0.12021043450E+04  0.50400001928E-02 0. -1.
</event>
<event>
 5   0  0.2063930E-05  0.2684018E+04  0.7818609E-02  0.8340209E-01
       -1   -1    0    0    0  501  0.00000000000E+00  0.00000000000E+00  0.20272012982E+04  0.20272012982E+04  0.50400001928E-02 0. -1.
        1   -1    0    0  501    0  0.00000000000E+00  0.00000000000E+00 -0.88841098739E+03  0.88841098740E+03  0.50400001928E-02 0.  1.
    10030    2    1    2    0    0  0.00000000000E+00  0.00000000000E+00  0.11387903108E+04  0.29156122856E+04  0.26840178144E+04 0.  0.
        3    1    3    3  502    0 -0.24692640796E+03  0.72860370458E+02 -0.86133389197E+03  0.89898685651E+03  0.10100000352E+00 0.  1.
       -3    1    3    3    0  502  0.24692640796E+03 -0.72860370458E+02  0.20001242028E+04  0.20166254291E+04  0.10100000352E+00 0. -1.
</event>
<event>
 5   0  0.2063930E-05  0.2515585E+04  0.7818609E-02  0.8397454E-01
       -1   -1    0    0    0  501  0.00000000000E+00  0.00000000000E+00  0.10235667427E+04  0.10235667427E+04  0.50400001928E-02 0. -1.
        1   -1    0    0  501    0  0.00000000000E+00  0.00000000000E+00 -0.15456167234E+04  0.15456167234E+04  0.50400001928E-02 0.  1.
    10030    2    1    2    0    0  0.00000000000E+00  0.00000000000E+00 -0.52204998068E+03  0.25691834661E+04  0.25155849221E+04 0.  0.
        3    1    3    3  502    0 -0.44704153893E+03 -0.45138378555E+03  0.84766830712E+03  0.10593087503E+04  0.10100000352E+00 0. -1.
       -3    1    3    3    0  502  0.44704153893E+03  0.45138378555E+03 -0.13697182878E+04  0.15098747158E+04  0.10100000352E+00 0.  1.
</event>
<event>
 5   0  0.4959042E-05  0.1935618E+04  0.7818609E-02  0.8637328E-01
       -2   -1    0    0    0  501  0.00000000000E+00  0.00000000000E+00  0.11035353438E+04  0.11035353438E+04  0.25500000920E-02 0. -1.
        2   -1    0    0  501    0  0.00000000000E+00  0.00000000000E+00 -0.84877561667E+03  0.84877561668E+03  0.25500000920E-02 0.  1.
    10030    2    1    2    0    0  0.00000000000E+00  0.00000000000E+00  0.25475972708E+03  0.19523109604E+04  0.19356176192E+04 0.  0.
        4    1    3    3  502    0  0.51356044185E+03  0.73292336030E+03  0.49897449360E+03  0.10246453717E+04  0.12699999809E+01 0. -1.
       -4    1    3    3    0  502 -0.51356044185E+03 -0.73292336030E+03 -0.24421476652E+03  0.92766558877E+03  0.12699999809E+01 0.  1.
</event>
<event>
 5   0  0.2036578E-05  0.2325622E+04  0.7818609E-02  0.8467887E-01
        1   -1    0    0  501    0  0.00000000000E+00  0.00000000000E+00  0.17518441231E+04  0.17518441231E+04  0.50400001928E-02 0.  1.
       -1   -1    0    0    0  501  0.00000000000E+00  0.00000000000E+00 -0.77183206301E+03  0.77183206302E+03  0.50400001928E-02 0. -1.
    10030    2    1    2    0    0  0.00000000000E+00  0.00000000000E+00  0.98001206008E+03  0.25236761861E+04  0.23256220360E+04 0.  0.
        2    1    3    3  502    0 -0.24467763473E+03  0.46916303987E+03  0.16136324409E+04  0.16981727701E+04  0.25500000920E-02 0.  1.
       -2    1    3    3    0  502  0.24467763473E+03 -0.46916303987E+03 -0.63362038078E+03  0.82550341602E+03  0.25500000920E-02 0. -1.
</event>
<event>
 5   0  0.2041718E-05  0.2467552E+04  0.7818609E-02  0.8414637E-01
        1   -1    0    0  501    0  0.00000000000E+00  0.00000000000E+00  0.91896709704E+03  0.91896709706E+03  0.50400001928E-02 0.  1.
       -1   -1    0    0    0  501  0.00000000000E+00  0.00000000000E+00 -0.16564278099E+04  0.16564278099E+04  0.50400001928E-02 0. -1.
    10030    2    1    2    0    0  0.00000000000E+00  0.00000000000E+00 -0.73746071285E+03  0.25753949070E+04  0.24675515443E+04 0.  0.
        4    1    3    3  502    0 -0.90672273606E+03 -0.17589685293E+03 -0.12224751211E+04  0.15321660672E+04  0.12699999809E+01 0. -1.
       -4    1    3    3    0  502  0.90672273606E+03  0.17589685293E+03  0.48501440824E+03  0.10432288397E+04  0.12699999809E+01 0.  1.
</event>
<event>
 5   0  0.4959042E-05  0.2500606E+04  0.7818609E-02  0.8402770E-01
        2   -1    0    0  501    0  0.00000000000E+00  0.00000000000E+00  0.18458356243E+04  0.18458356243E+04  0.25500000920E-02 0. -1.
       -2   -1    0    0    0  501  0.00000000000E+00  0.00000000000E+00 -0.84691022041E+03  0.84691022041E+03  0.25500000920E-02 0.  1.
    10030    2    1    2    0    0  0.00000000000E+00  0.00000000000E+00  0.99892540386E+03  0.26927458447E+04  0.25006055710E+04 0.  0.
        4    1    3    3  502    0  0.43969103119E+03  0.86379249866E+03 -0.35102745201E+03  0.10308673865E+04  0.12699999809E+01 0.  1.
       -4    1    3    3    0  502 -0.43969103119E+03 -0.86379249866E+03  0.13499528559E+04  0.16618784581E+04  0.12699999809E+01 0. -1.
</event>
<event>
 5   0  0.5024070E-05  0.2442473E+04  0.7818609E-02  0.8423771E-01
       -2   -1    0    0    0  501  0.00000000000E+00  0.00000000000E+00  0.79910065520E+03  0.79910065521E+03  0.25500000920E-02 0.  1.
        2   -1    0    0  501    0  0.00000000000E+00  0.00000000000E+00 -0.18663707196E+04  0.18663707196E+04  0.25500000920E-02 0. -1.
    10030    2    1    2    0    0  0.00000000000E+00  0.00000000000E+00 -0.10672700644E+04  0.26654713748E+04  0.24424725709E+04 0.  0.
        5    1    3    3  502    0 -0.43813134028E+03  0.77854171145E+03  0.37503868812E+03  0.96889750510E+03  0.46999998093E+01 0.  1.
       -5    1    3    3    0  502  0.43813134028E+03 -0.77854171145E+03 -0.14423087525E+04  0.16965738697E+04  0.46999998093E+01 0. -1.
</event>
<event>
 5   0  0.2041718E-05  0.2563849E+04  0.7818609E-02  0.8380586E-01
        1   -1    0    0  501    0  0.00000000000E+00  0.00000000000E+00  0.17416031665E+04  0.17416031665E+04  0.50400001928E-02 0.  1.
       -1   -1    0    0    0  501  0.00000000000E+00  0.00000000000E+00 -0.94357354664E+03  0.94357354665E+03  0.50400001928E-02 0. -1.
    10030    2    1    2    0    0  0.00000000000E+00  0.00000000000E+00  0.79802961985E+03  0.26851767131E+04  0.25638491973E+04 0.  0.
        4    1    3    3  502    0 -0.77205031399E+03  0.44467512429E+03 -0.56630254842E+03  0.10556977990E+04  0.12699999809E+01 0. -1.
       -4    1    3    3    0  502  0.77205031399E+03 -0.44467512429E+03  0.13643321683E+04  0.16294789142E+04  0.12699999809E+01 0.  1.
</event>
<event>
 5   0  0.4959042E-05  0.2357315E+04  0.7818609E-02  0.8455659E-01
        2   -1    0    0  501    0  0.00000000000E+00  0.00000000000E+00  0.19775776961E+04  0.19775776961E+04  0.25500000920E-02 0. -1.
       -2   -1    0    0    0  501  0.00000000000E+00  0.00000000000E+00 -0.70249254791E+03  0.70249254792E+03  0.25500000920E-02 0.  1.
    10030    2    1    2    0    0  0.00000000000E+00  0.00000000000E+00  0.12750851482E+04  0.26800702440E+04  0.23573150782E+04 0.  0.
        4    1    3    3  502    0 -0.76673950346E+03 -0.70024207823E+03  0.35105207370E+01  0.10383845005E+04  0.12699999809E+01 0.  1.
       -4    1    3    3    0  502  0.76673950346E+03  0.70024207823E+03  0.12715746275E+04  0.16416857435E+04  0.12699999809E+01 0. -1.
</event>
<event>
 5   0  0.4959347E-05  0.2525178E+04  0.7818609E-02  0.8394070E-01
       -2   -1    0    0    0  501  0.00000000000E+00  0.00000000000E+00  0.13420376273E+04  0.13420376273E+04  0.25500000920E-02 0.  1.
        2   -1    0    0  501    0  0.00000000000E+00  0.00000000000E+00 -0.11878441912E+04  0.11878441912E+04  0.25500000920E-02 0. -1.
    10030    2    1    2    0    0  0.00000000000E+00  0.00000000000E+00  0.15419343610E+03  0.25298818185E+04  0.25251784887E+04 0.  0.
        3    1    3    3  502    0 -0.63062171964E+03 -0.10883750983E+04  0.18632952323E+03  0.12715985252E+04  0.10100000352E+00 0. -1.
       -3    1    3    3    0  502  0.63062171964E+03  0.10883750983E+04 -0.32136087131E+02  0.12582832933E+04  0.10100000352E+00 0.  1.
</event>
<event>
 5   0  0.2066170E-05  0.2489818E+04  0.7818609E-02  0.8406622E-01
       -1   -1    0    0    0  501  0.00000000000E+00  0.00000000000E+00  0.91120231264E+03  0.91120231266E+03  0.50400001928E-02 0.  1.
        1   -1    0    0  501    0  0.00000000000E+00  0.00000000000E+00 -0.17008286550E+04  0.17008286550E+04  0.50400001928E-02 0. -1.
    10030    2    1    2    0    0  0.00000000000E+00  0.00000000000E+00 -0.78962634235E+03  0.26120309676E+04  0.24898184704E+04 0.  0.
        5    1    3    3  502    0  0.26666578337E+03 -0.70237348390E+03  0.64655236545E+03  0.99120694215E+03  0.46999998093E+01 0.  1.
       -5    1    3    3    0  502 -0.26666578337E+03  0.70237348390E+03 -0.14361787078E+04  0.16208240255E+04  0.46999998093E+01 0. -1.
</event>
<event>
 5   0  0.4995256E-05  0.2367688E+04  0.7818609E-02  0.8451701E-01
        2   -1    0    0  501    0  0.00000000000E+00  0.00000000000E+00  0.93474420449E+03  0.93474420449E+03  0.25500000920E-02 0. -1.
       -2   -1    0    0    0  501  0.00000000000E+00  0.00000000000E+00 -0.14993264093E+04  0.14993264093E+04  0.25500000920E-02 0.  1.
    10030    2    1    2    0    0  0.00000000000E+00  0.00000000000E+00 -0.56458220477E+03  0.24340706138E+04  0.23676880468E+04 0.  0.
        2    1    3    3  502    0 -0.52977131949E+03 -0.56830309916E+03  0.63598271907E+03  0.10040418728E+04  0.25500000920E-02 0. -1.
       -2    1    3    3    0  502  0.52977131949E+03  0.56830309916E+03 -0.12005649238E+04  0.14300287409E+04  0.25500000920E-02 0.  1.
</event>
<event>
 5   0  0.1692125E-05  0.2462252E+04  0.7818609E-02  0.8416558E-01
       -3   -1    0    0    0  501  0.00000000000E+00  0.00000000000E+00  0.25950812790E+04  0.25950812810E+04  0.10100000352E+00 0. -1.
        3   -1    0    0  501    0  0.00000000000E+00  0.00000000000E+00 -0.58405538156E+03  0.58405539030E+03  0.10100000352E+00 0.  1.
    10030    2    1    2    0    0  0.00000000000E+00  0.00000000000E+00  0.20110258975E+04  0.31791366713E+04  0.24622519803E+04 0.  0.
        4    1    3    3  502    0 -0.11666190107E+04 -0.31921524556E+03  0.13021159947E+04  0.17771904697E+04  0.12699999809E+01 0. -1.
       -4    1    3    3    0  502  0.11666190107E+04  0.31921524556E+03  0.70890990281E+03  0.14019462016E+04  0.12699999809E+01 0.  1.
</event>
<event>
 5   0  0.4995256E-05  0.2363732E+04  0.7818609E-02  0.8453208E-01
        2   -1    0    0  501    0  0.00000000000E+00  0.00000000000E+00  0.23404946668E+04  0.23404946668E+04  0.25500000920E-02 0.  1.
       -2   -1    0    0    0  501  0.00000000000E+00  0.00000000000E+00 -0.59679989056E+03  0.59679989057E+03  0.25500000920E-02 0. -1.
    10030    2    1    2    0    0  0.00000000000E+00  0.00000000000E+00  0.17436947763E+04  0.29372945574E+04  0.23637317623E+04 0.  0.
        2    1    3    3  502    0 -0.54715880043E+03 -0.26780101285E+03  0.21303697376E+04  0.22157561585E+04  0.25500000920E-02 0.  1.
       -2    1    3    3    0  502  0.54715880043E+03  0.26780101285E+03 -0.38667496127E+03  0.72153839888E+03  0.25500000920E-02 0. -1.
</event>
<event>
 5   0  0.2063930E-05  0.2505933E+04  0.7818609E-02  0.8400875E-01
       -1   -1    0    0    0  501  0.00000000000E+00  0.00000000000E+00  0.14528319272E+04  0.14528319273E+04  0.50400001928E-02 0.  1.
        1   -1    0    0  501    0  0.00000000000E+00  0.00000000000E+00 -0.10805967508E+04  0.10805967508E+04  0.50400001928E-02 0. -1.
    10030    2    1    2    0    0  0.00000000000E+00  0.00000000000E+00  0.37223517648E+03  0.25334286780E+04  0.25059333271E+04 0.  0.
        3    1    3    3  502    0  0.32347642564E+03  0.68053663938E+02  0.14079547080E+04  0.14462381440E+04  0.10100000352E+00 0.  1.
       -3    1    3    3    0  502 -0.32347642564E+03 -0.68053663938E+02 -0.10357195315E+04  0.10871905340E+04  0.10100000352E+00 0. -1.
</event>
<event>
 5   0  0.4959347E-05  0.2421264E+04  0.7818609E-02  0.8431585E-01
        2   -1    0    0  501    0  0.00000000000E+00  0.00000000000E+00  0.15268503685E+04  0.15268503685E+04  0.25500000920E-02 0.  1.
       -2   -1    0    0    0  501  0.00000000000E+00  0.00000000000E+00 -0.95990409959E+03  0.95990409959E+03  0.25500000920E-02 0. -1.
    10030    2    1    2    0    0  0.00000000000E+00  0.00000000000E+00  0.56694626886E+03  0.24867544680E+04  0.24212640733E+04 0.  0.
        3    1    3    3  502    0 -0.84396556976E+03 -0.24339670592E+03  0.11391404122E+04  0.14384577604E+04  0.10100000352E+00 0.  1.
       -3    1    3    3    0  502  0.84396556976E+03  0.24339670592E+03 -0.57219414337E+03  0.10482967077E+04  0.10100000352E+00 0. -1.
</event>
<event>
 5   0  0.2041718E-05  0.2041615E+04  0.7818609E-02  0.8587408E-01
        1   -1    0    0  501    0  0.00000000000E+00  0.00000000000E+00  0.12984204730E+04  0.12984204730E+04  0.50400001928E-02 0. -1.
       -1   -1    0    0    0  501  0.00000000000E+00  0.00000000000E+00 -0.80255056256E+03  0.80255056258E+03  0.50400001928E-02 0.  1.
    10030    2    1    2    0    0  0.00000000000E+00  0.00000000000E+00  0.49586991048E+03  0.21009710356E+04  0.20416151264E+04 0.  0.
        4    1    3    3  502    0 -0.34575553126E+03 -0.50775718318E+03 -0.59104816363E+03  0.85246923059E+03  0.12699999809E+01 0.  1.
       -4    1    3    3    0  502  0.34575553126E+03  0.50775718318E+03  0.10869180741E+04  0.12485018050E+04  0.12699999809E+01 0. -1.
</event>
<event>
 5   0  0.2081874E-05  0.2453716E+04  0.7818609E-02  0.8419662E-01
        1   -1    0    0  501    0  0.00000000000E+00  0.00000000000E+00  0.12802602036E+04  0.12802602036E+04  0.50400001928E-02 0.  1.
       -1   -1    0    0    0  501  0.00000000000E+00  0.00000000000E+00 -0.11756833191E+04  0.11756833191E+04  0.50400001928E-02 0. -1.
    10030    2    1    2    0    0  0.00000000000E+00  0.00000000000E+00  0.10457688447E+03  0.24559435227E+04  0.24537160109E+04 0.  0.
        1    1    3    3  502    0 -0.54051067066E+03  0.57666864812E+03 -0.88690344442E+03  0.11879798965E+04  0.50400001928E-02 0. -1.
       -1    1    3    3    0  502  0.54051067066E+03 -0.57666864812E+03  0.99148032888E+03  0.12679636262E+04  0.50400001928E-02 0.  1.
</event>
<event>
 5   0  0.4995256E-05  0.2405708E+04  0.7818609E-02  0.8437370E-01
        2   -1    0    0  501    0  0.00000000000E+00  0.00000000000E+00  0.19442060562E+04  0.19442060563E+04  0.25500000920E-02 0.  1.
       -2   -1    0    0    0  501  0.00000000000E+00  0.00000000000E+00 -0.74418958142E+03  0.74418958142E+03  0.25500000920E-02 0. -1.
    10030    2    1    2    0    0  0.00000000000E+00  0.00000000000E+00  0.12000164748E+04  0.26883956377E+04  0.24057081213E+04 0.  0.
        2    1    3    3  502    0  0.11618762720E+03 -0.11950765391E+04  0.68020750337E+03  0.13799962851E+04  0.25500000920E-02 0.  1.
       -2    1    3    3    0  502 -0.11618762720E+03  0.11950765391E+04  0.51980897146E+03  0.13083993526E+04  0.25500000920E-02 0. -1.
</event>
<event>
 5   0  0.2063930E-05  0.2483094E+04  0.7818609E-02  0.8409033E-01
       -1   -1    0    0    0  501  0.00000000000E+00  0.00000000000E+00  0.10321861149E+04  0.10321861149E+04  0.50400001928E-02 0. -1.
        1   -1    0    0  501    0  0.00000000000E+00  0.00000000000E+00 -0.14933732944E+04  0.14933732944E+04  0.50400001928E-02 0.  1.
    10030    2    1    2    0    0  0.00000000000E+00  0.00000000000E+00 -0.46118717947E+03  0.25255594093E+04  0.24830941818E+04 0.  0.
        3    1    3    3  502    0  0.32131205766E+02 -0.83420262564E+03 -0.11652833778E+04  0.14334614734E+04  0.10100000352E+00 0.  1.
       -3    1    3    3    0  502 -0.32131205766E+02  0.83420262564E+03  0.70409619829E+03  0.10920979359E+04  0.10100000352E+00 0. -1.
</event>
<event>
 5   0  0.4959042E-05  0.2537991E+04  0.7818609E-02  0.8389575E-01
        2   -1    0    0  501    0  0.00000000000E+00  0.00000000000E+00  0.97320630836E+03  0.97320630836E+03  0.25500000920E-02 0. -1.
       -2   -1    0    0    0  501  0.00000000000E+00  0.00000000000E+00 -0.16546852305E+04  0.16546852305E+04  0.25500000920E-02 0.  1.
    10030    2    1    2    0    0  0.00000000000E+00  0.00000000000E+00 -0.68147892216E+03  0.26278915389E+04  0.25379914142E+04 0.  0.
        4    1    3    3  502    0  0.73577180534E+03 -0.96314844234E+03  0.48520488908E+02  0.12130007924E+04  0.12699999809E+01 0. -1.
       -4    1    3    3    0  502 -0.73577180534E+03  0.96314844234E+03 -0.72999941107E+03  0.14148907465E+04  0.12699999809E+01 0.  1.
</event>
<event>
 5   0  0.4959347E-05  0.2505903E+04  0.7818609E-02  0.8400886E-01
       -2   -1    0    0    0  501  0.00000000000E+00  0.00000000000E+00  0.10896428262E+04  0.10896428262E+04  0.25500000920E-02 0. -1.
        2   -1    0    0  501    0  0.00000000000E+00  0.00000000000E+00 -0.14407353263E+04  0.14407353263E+04  0.25500000920E-02 0.  1.
    10030    2    1    2    0    0  0.00000000000E+00  0.00000000000E+00 -0.35109250006E+03  0.25303781525E+04  0.25059025621E+04 0.  0.
        3    1    3    3  502    0 -0.10815145320E+03  0.10102943810E+04  0.56475526262E+03  0.11624715007E+04  0.10100000352E+00 0. -1.
       -3    1    3    3    0  502  0.10815145320E+03 -0.10102943810E+04 -0.91584776267E+03  0.13679066517E+04  0.10100000352E+00 0.  1.
</event>
<event>
 5   0  0.1692125E-05  0.2618616E+04  0.7818609E-02  0.8361905E-01
        4   -1    0    0  501    0  0.00000000000E+00  0.00000000000E+00  0.11013305727E+04  0.11013313050E+04  0.12699999809E+01 0.  1.
       -4   -1    0    0    0  501  0.00000000000E+00  0.00000000000E+00 -0.15565592542E+04  0.15565597723E+04  0.12699999809E+01 0. -1.
    10030    2    1    2    0    0  0.00000000000E+00  0.00000000000E+00 -0.45522868148E+03  0.26578910773E+04  0.26186163954E+04 0.  0.
        4    1    3    3  502    0  0.63345823468E+03  0.70918992933E+03 -0.11411503560E+04  0.14854108653E+04  0.12699999809E+01 0. -1.
       -4    1    3    3    0  502 -0.63345823468E+03 -0.70918992933E+03  0.68592167450E+03  0.11724802119E+04  0.12699999809E+01 0.  1.
</event>
<event>
 5   0  0.2041718E-05  0.2421462E+04  0.7818609E-02  0.8431512E-01
       -1   -1    0    0    0  501  0.00000000000E+00  0.00000000000E+00  0.79259383832E+03  0.79259383833E+03  0.50400001928E-02 0.  1.
        1   -1    0    0  501    0  0.00000000000E+00  0.00000000000E+00 -0.18494579969E+04  0.18494579969E+04  0.50400001928E-02 0. -1.
    10030    2    1    2    0    0  0.00000000000E+00  0.00000000000E+00 -0.10568641586E+04  0.26420518352E+04  0.24214615525E+04 0.  0.
        4    1    3    3  502    0 -0.18712520576E+03 -0.79776528293E+03  0.44406748990E+03  0.93201010604E+03  0.12699999809E+01 0.  1.
       -4    1    3    3    0  502  0.18712520576E+03  0.79776528293E+03 -0.15009316485E+04  0.17100417292E+04  0.12699999809E+01 0. -1.
</event>
<event>
 5   0  0.2063930E-05  0.2504305E+04  0.7818609E-02  0.8401454E-01
       -1   -1    0    0    0  501  0.00000000000E+00  0.00000000000E+00  0.15216184590E+04  0.15216184590E+04  0.50400001928E-02 0. -1.
        1   -1    0    0  501    0  0.00000000000E+00  0.00000000000E+00 -0.10304065621E+04  0.10304065621E+04  0.50400001928E-02 0.  1.
    10030    2    1    2    0    0  0.00000000000E+00  0.00000000000E+00  0.49121189689E+03  0.25520250212E+04  0.25043048099E+04 0.  0.
        3    1    3    3  502    0  0.70199776353E+03 -0.26243926397E+03  0.12678206978E+04  0.14727676528E+04  0.10100000352E+00 0. -1.
       -3    1    3    3    0  502 -0.70199776353E+03  0.26243926397E+03 -0.77660880090E+03  0.10792573683E+04  0.10100000352E+00 0.  1.
</event>
<event>
 5   0  0.2066170E-05  0.2258461E+04  0.7818609E-02  0.8494482E-01
       -1   -1    0    0    0  501  0.00000000000E+00  0.00000000000E+00  0.80759306015E+03  0.80759306016E+03  0.50400001928E-02 0.  1.
        1   -1    0    0  501    0  0.00000000000E+00  0.00000000000E+00 -0.15789659999E+04  0.15789659999E+04  0.50400001928E-02 0. -1.
    10030    2    1    2    0    0  0.00000000000E+00  0.00000000000E+00 -0.77137293975E+03  0.23865590601E+04  0.22584614088E+04 0.  0.
        5    1    3    3  502    0 -0.91006604074E+03 -0.33865600573E+03 -0.99477457068E+03  0.13901462604E+04  0.46999998093E+01 0. -1.
       -5    1    3    3    0  502  0.91006604074E+03  0.33865600573E+03  0.22340163093E+03  0.99641279971E+03  0.46999998093E+01 0.  1.
</event>
<event>
 5   0  0.4959042E-05  0.2500725E+04  0.7818609E-02  0.8402727E-01
       -2   -1    0    0    0  501  0.00000000000E+00  0.00000000000E+00  0.86108928300E+03  0.86108928300E+03  0.25500000920E-02 0. -1.
        2   -1    0    0  501    0  0.00000000000E+00  0.00000000000E+00 -0.18156148956E+04  0.18156148956E+04  0.25500000920E-02 0.  1.
    10030    2    1    2    0    0  0.00000000000E+00  0.00000000000E+00 -0.95452561259E+03  0.26767041786E+04  0.25007251178E+04 0.  0.
        4    1    3    3  502    0 -0.88366279112E+03 -0.44661426934E+03 -0.12945952663E+04  0.16298167843E+04  0.12699999809E+01 0.  1.
       -4    1    3    3    0  502  0.88366279112E+03  0.44661426934E+03  0.34006965373E+03  0.10468873943E+04  0.12699999809E+01 0. -1.
</event>
<event>
 5   0  0.5219468E-05  0.2494932E+04  0.7818609E-02  0.8404793E-01
       -2   -1    0    0    0  501  0.00000000000E+00  0.00000000000E+00  0.11649733021E+04  0.11649733021E+04  0.25500000920E-02 0.  1.
        2   -1    0    0  501    0  0.00000000000E+00  0.00000000000E+00 -0.13357999412E+04  0.13357999412E+04  0.25500000920E-02 0. -1.
    10030    2    1    2    0    0  0.00000000000E+00  0.00000000000E+00 -0.17082663916E+03  0.25007732433E+04  0.24949318776E+04 0.  0.
        1    1    3    3  502    0  0.68090423728E+03  0.79483156158E+03  0.59498631344E+03  0.12039088441E+04  0.50400001928E-02 0.  1.
       -1    1    3    3    0  502 -0.68090423728E+03 -0.79483156158E+03 -0.76581295260E+03  0.12968643992E+04  0.50400001928E-02 0. -1.
</event>
<event>
 5   0  0.5024070E-05  0.2600731E+04  0.7818609E-02  0.8367953E-01
        2   -1    0    0  501    0  0.00000000000E+00  0.00000000000E+00  0.16439970763E+04  0.16439970763E+04  0.25500000920E-02 0. -1.
       -2   -1    0    0    0  501  0.00000000000E+00  0.00000000000E+00 -0.10285603719E+04  0.10285603719E+04  0.25500000920E-02 0.  1.
    10030    2    1    2    0    0  0.00000000000E+00  0.00000000000E+00  0.61543670440E+03  0.26725574481E+04  0.26007308543E+04 0.  0.
        5    1    3    3  502    0 -0.93214354348E+03  0.47275615958E+03  0.11027374649E+04  0.15193557775E+04  0.46999998093E+01 0. -1.
       -5    1    3    3    0  502  0.93214354348E+03 -0.47275615958E+03 -0.48730076049E+03  0.11532016707E+04  0.46999998093E+01 0.  1.
</event>
<event>
 5   0  0.4959042E-05  0.2492046E+04  0.7818609E-02  0.8405825E-01
        2   -1    0    0  501    0  0.00000000000E+00  0.00000000000E+00  0.11754785162E+04  0.11754785162E+04  0.25500000920E-02 0. -1.
       -2   -1    0    0    0  501  0.00000000000E+00  0.00000000000E+00 -0.13208006954E+04  0.13208006954E+04  0.25500000920E-02 0.  1.
    10030    2    1    2    0    0  0.00000000000E+00  0.00000000000E+00 -0.14532217925E+03  0.24962792116E+04  0.24920456188E+04 0.  0.
        4    1    3    3  502    0  0.42223920035E+02 -0.57829845231E+03 -0.11774215094E+04  0.13124538023E+04  0.12699999809E+01 0.  1.
       -4    1    3    3    0  502 -0.42223920035E+02  0.57829845231E+03  0.10320993302E+04  0.11838254093E+04  0.12699999809E+01 0. -1.
</event>
<event>
 5   0  0.4995256E-05  0.2546524E+04  0.7818609E-02  0.8386596E-01
       -2   -1    0    0    0  501  0.00000000000E+00  0.00000000000E+00  0.62837083703E+03  0.62837083704E+03  0.25500000920E-02 0. -1.
        2   -1    0    0  501    0  0.00000000000E+00  0.00000000000E+00 -0.25799987857E+04  0.25799987857E+04  0.25500000920E-02 0.  1.
    10030    2    1    2    0    0  0.00000000000E+00  0.00000000000E+00 -0.19516279487E+04  0.32083696227E+04  0.25465239025E+04 0.  0.
        2    1    3    3  502    0  0.44336905839E+03 -0.80130454050E+03 -0.20903327490E+04  0.22821384906E+04  0.25500000920E-02 0.  1.
       -2    1    3    3    0  502 -0.44336905839E+03  0.80130454050E+03  0.13870480034E+03  0.92623113217E+03  0.25500000920E-02 0. -1.
</event>
<event>
 5   0  0.5024070E-05  0.2483820E+04  0.7818609E-02  0.8408773E-01
        2   -1    0    0  501    0  0.00000000000E+00  0.00000000000E+00  0.21639069397E+04  0.21639069397E+04  0.25500000920E-02 0.  1.
       -2   -1    0    0    0  501  0.00000000000E+00  0.00000000000E+00 -0.71275722711E+03  0.71275722712E+03  0.25500000920E-02 0. -1.
    10030    2    1    2    0    0  0.00000000000E+00  0.00000000000E+00  0.14511497126E+04  0.28766641669E+04  0.24838198889E+04 0.  0.
        5    1    3    3  502    0  0.61516521253E+02  0.16508777351E+03 -0.69820067743E+03  0.72010036197E+03  0.46999998093E+01 0. -1.
       -5    1    3    3    0  502 -0.61516521253E+02 -0.16508777351E+03  0.21493503901E+04  0.21565638049E+04  0.46999998093E+01 0.  1.
</event>
<event>
 5   0  0.5024070E-05  0.2415070E+04  0.7818609E-02  0.8433883E-01
       -2   -1    0    0    0  501  0.00000000000E+00  0.00000000000E+00  0.21335834019E+04  0.21335834019E+04  0.25500000920E-02 0.  1.
        2   -1    0    0  501    0  0.00000000000E+00  0.00000000000E+00 -0.68342332331E+03  0.68342332331E+03  0.25500000920E-02 0. -1.
    10030    2    1    2    0    0  0.00000000000E+00  0.00000000000E+00  0.14501600786E+04  0.28170067252E+04  0.24150699030E+04 0.  0.
        5    1    3    3  502    0  0.99955642583E+03 -0.69577794483E+02 -0.60996340944E+02  0.10038410041E+04  0.46999998093E+01 0. -1.
       -5    1    3    3    0  502 -0.99955642583E+03  0.69577794483E+02  0.15111564195E+04  0.18131657211E+04  0.46999998093E+01 0.  1.
</event>
<event>
 5   0  0.2036578E-05  0.2476123E+04  0.7818609E-02  0.8411541E-01
        1   -1    0    0  501    0  0.00000000000E+00  0.00000000000E+00  0.87986124972E+03  0.87986124974E+03  0.50400001928E-02 0.  1.
       -1   -1    0    0    0  501  0.00000000000E+00  0.00000000000E+00 -0.17420891856E+04  0.17420891856E+04  0.50400001928E-02 0. -1.
    10030    2    1    2    0    0  0.00000000000E+00  0.00000000000E+00 -0.86222793590E+03  0.26219504354E+04  0.24761233960E+04 0.  0.
        2    1    3    3  502    0  0.71597040063E+02 -0.10210945828E+03  0.87319340697E+03  0.88205396864E+03  0.25500000920E-02 0.  1.
       -2    1    3    3    0  502 -0.71597040063E+02  0.10210945828E+03 -0.17354213429E+04  0.17398964667E+04  0.25500000920E-02 0. -1.
</event>
<event>
 5   0  0.2036578E-05  0.2335293E+04  0.7818609E-02  0.8464134E-01
       -1   -1    0    0    0  501  0.00000000000E+00  0.00000000000E+00  0.12414620169E+04  0.12414620169E+04  0.50400001928E-02 0. -1.
        1   -1    0    0  501    0  0.00000000000E+00  0.00000000000E+00 -0.10982195591E+04  0.10982195591E+04  0.50400001928E-02 0.  1.
    10030    2    1    2    0    0  0.00000000000E+00  0.00000000000E+00  0.14324245788E+03  0.23396815760E+04  0.23352925888E+04 0.  0.
        2    1    3    3  502    0  0.77417618597E+03 -0.59434469805E+03  0.71376535175E+03  0.12091548141E+04  0.25500000920E-02 0. -1.
       -2    1    3    3    0  502 -0.77417618597E+03  0.59434469805E+03 -0.57052289387E+03  0.11305267619E+04  0.25500000920E-02 0.  1.
</event>
<event>
 5   0  0.2036578E-05  0.2059045E+04  0.7818609E-02  0.8579502E-01
        1   -1    0    0  501    0  0.00000000000E+00  0.00000000000E+00  0.10859065824E+04  0.10859065824E+04  0.50400001928E-02 0. -1.
       -1   -1    0    0    0  501  0.00000000000E+00  0.00000000000E+00 -0.97606567739E+03  0.97606567740E+03  0.50400001928E-02 0.  1.
    10030    2    1    2    0    0  0.00000000000E+00  0.00000000000E+00  0.10984090498E+03  0.20619722598E+04  0.20590445784E+04 0.  0.
        2    1    3    3  502    0  0.53649969503E+03 -0.29519433679E+03  0.88371096003E+03  0.10751356566E+04  0.25500000920E-02 0. -1.
       -2    1    3    3    0  502 -0.53649969503E+03  0.29519433679E+03 -0.77387005505E+03  0.98683660317E+03  0.25500000920E-02 0.  1.
</event>
<event>
 5   0  0.2066170E-05  0.2515407E+04  0.7818609E-02  0.8397517E-01
        1   -1    0    0  501    0  0.00000000000E+00  0.00000000000E+00  0.15404602357E+04  0.15404602357E+04  0.50400001928E-02 0.  1.
       -1   -1    0    0    0  501  0.00000000000E+00  0.00000000000E+00 -0.10268477708E+04  0.10268477709E+04  0.50400001928E-02 0. -1.
    10030    2    1    2    0    0  0.00000000000E+00  0.00000000000E+00  0.51361246489E+03  0.25673080066E+04  0.25154070519E+04 0.  0.
        5    1    3    3  502    0  0.86444322791E+03  0.88761626018E+03  0.36313194734E+02  0.12395424389E+04  0.46999998093E+01 0.  1.
       -5    1    3    3    0  502 -0.86444322791E+03 -0.88761626018E+03  0.47729927016E+03  0.13277655678E+04  0.46999998093E+01 0. -1.
</event>
<event>
 5   0  0.4959347E-05  0.2481689E+04  0.7818609E-02  0.8409538E-01
       -2   -1    0    0    0  501  0.00000000000E+00  0.00000000000E+00  0.76702924936E+03  0.76702924936E+03  0.25500000920E-02 0. -1.
        2   -1    0    0  501    0  0.00000000000E+00  0.00000000000E+00 -0.20073484175E+04  0.20073484175E+04  0.25500000920E-02 0.  1.
    10030    2    1    2    0    0  0.00000000000E+00  0.00000000000E+00 -0.12403191681E+04  0.27743776669E+04  0.24816889006E+04 0.  0.
        3    1    3    3  502    0 -0.10888926123E+04 -0.41365860385E+03 -0.10982592271E+04  0.16009290746E+04  0.10100000352E+00 0.  1.
       -3    1    3    3    0  502  0.10888926123E+04  0.41365860385E+03 -0.14205994105E+03  0.11734485923E+04  0.10100000352E+00 0. -1.
</event>
<event>
 5   0  0.2063930E-05  0.2492471E+04  0.7818609E-02  0.8405673E-01
        1   -1    0    0  501    0  0.00000000000E+00  0.00000000000E+00  0.23222255480E+04  0.23222255480E+04  0.50400001928E-02 0. -1.
       -1   -1    0    0    0  501  0.00000000000E+00  0.00000000000E+00 -0.66879939392E+03  0.66879939394E+03  0.50400001928E-02 0.  1.
    10030    2    1    2    0    0  0.00000000000E+00  0.00000000000E+00  0.16534261540E+04  0.29910249419E+04  0.24924710944E+04 0.  0.
        3    1    3    3  502    0  0.18608560657E+03  0.13552159681E+03  0.22964896575E+04  0.23079988547E+04  0.10100000352E+00 0. -1.
       -3    1    3    3    0  502 -0.18608560657E+03 -0.13552159681E+03 -0.64306350343E+03  0.68302608722E+03  0.10100000352E+00 0.  1.
</event>
<event>
 5   0  0.2036578E-05  0.2489648E+04  0.7818609E-02  0.8406683E-01
        1   -1    0    0  501    0  0.00000000000E+00  0.00000000000E+00  0.13002193626E+04  0.13002193626E+04  0.50400001928E-02 0.  1.
       -1   -1    0    0    0  501  0.00000000000E+00  0.00000000000E+00 -0.11917887643E+04  0.11917887643E+04  0.50400001928E-02 0. -1.
    10030    2    1    2    0    0  0.00000000000E+00  0.00000000000E+00  0.10843059828E+03  0.24920081270E+04  0.24896480294E+04 0.  0.
        2    1    3    3  502    0 -0.11182013018E+04  0.47589293064E+03  0.32417190173E+03  0.12577502354E+04  0.25500000920E-02 0.  1.
       -2    1    3    3    0  502  0.11182013018E+04 -0.47589293064E+03 -0.21574130344E+03  0.12342578916E+04  0.25500000920E-02 0. -1.
</event>
<event>
 5   0  0.2066170E-05  0.2286433E+04  0.7818609E-02  0.8483290E-01
       -1   -1    0    0    0  501  0.00000000000E+00  0.00000000000E+00  0.10877900753E+04  0.10877900753E+04  0.50400001928E-02 0.  1.
        1   -1    0    0  501    0  0.00000000000E+00  0.00000000000E+00 -0.12014666137E+04  0.12014666137E+04  0.50400001928E-02 0. -1.
    10030    2    1    2    0    0  0.00000000000E+00  0.00000000000E+00 -0.11367653839E+03  0.22892566890E+04  0.22864325559E+04 0.  0.
        5    1    3    3  502    0  0.33212791921E+03  0.10938799110E+04 -0.63103295065E+02  0.11449394439E+04  0.46999998093E+01 0.  1.
       -5    1    3    3    0  502 -0.33212791921E+03 -0.10938799110E+04 -0.50573243330E+02  0.11443172451E+04  0.46999998093E+01 0. -1.
</event>
<event>
 5   0  0.4995256E-05  0.2452922E+04  0.7818609E-02  0.8419952E-01
        2   -1    0    0  501    0  0.00000000000E+00  0.00000000000E+00  0.80940370831E+03  0.80940370831E+03  0.25500000920E-02 0.  1.
       -2   -1    0    0    0  501  0.00000000000E+00  0.00000000000E+00 -0.18584134959E+04  0.18584134959E+04  0.25500000920E-02 0. -1.
    10030    2    1    2    0    0  0.00000000000E+00  0.00000000000E+00 -0.10490097876E+04  0.26678172042E+04  0.24529221555E+04 0.  0.
        2    1    3    3  502    0 -0.12184035389E+04  0.14021223713E+03 -0.53139385584E+03  0.13366174041E+04  0.25500000920E-02 0.  1.
       -2    1    3    3    0  502  0.12184035389E+04 -0.14021223713E+03 -0.51761593178E+03  0.13311998001E+04  0.25500000920E-02 0. -1.
</event>
<event>
 5   0  0.4959042E-05  0.2506920E+04  0.7818609E-02  0.8400525E-01
        2   -1    0    0  501    0  0.00000000000E+00  0.00000000000E+00  0.21874646683E+04  0.21874646683E+04  0.25500000920E-02 0. -1.
       -2   -1    0    0    0  501  0.00000000000E+00  0.00000000000E+00 -0.71825678816E+03  0.71825678816E+03  0.25500000920E-02 0.  1.
    10030    2    1    2    0    0  0.00000000000E+00  0.00000000000E+00  0.14692078802E+04  0.29057214565E+04  0.25069195016E+04 0.  0.
        4    1    3    3  502    0 -0.89238159960E+02 -0.19915670698E+03 -0.69606618620E+03  0.72947693013E+03  0.12699999809E+01 0.  1.
       -4    1    3    3    0  502  0.89238159960E+02  0.19915670698E+03  0.21652740664E+04  0.21762445264E+04  0.12699999809E+01 0. -1.
</event>
<event>
 5   0  0.2063930E-05  0.2518879E+04  0.7818609E-02  0.8396291E-01
        1   -1    0    0  501    0  0.00000000000E+00  0.00000000000E+00  0.14633367564E+04  0.14633367565E+04  0.50400001928E-02 0.  1.
       -1   -1    0    0    0  501  0.00000000000E+00  0.00000000000E+00 -0.10839525182E+04  0.10839525182E+04  0.50400001928E-02 0. -1.
    10030    2    1    2    0    0  0.00000000000E+00  0.00000000000E+00  0.37938423822E+03  0.25472892747E+04  0.25188787682E+04 0.  0.
        3    1    3    3  502    0 -0.24475089168E+03  0.63131635017E+03  0.12636134162E+04  0.14335906699E+04  0.10100000352E+00 0.  1.
       -3    1    3    3    0  502  0.24475089168E+03 -0.63131635017E+03 -0.88422917798E+03  0.11136986048E+04  0.10100000352E+00 0. -1.
</event>
<event>
 5   0  0.4995256E-05  0.2451607E+04  0.7818609E-02  0.8420431E-01
        2   -1    0    0  501    0  0.00000000000E+00  0.00000000000E+00  0.15650400970E+04  0.15650400970E+04  0.25500000920E-02 0.  1.
       -2   -1    0    0    0  501  0.00000000000E+00  0.00000000000E+00 -0.96009968205E+03  0.96009968205E+03  0.25500000920E-02 0. -1.
    10030    2    1    2    0    0  0.00000000000E+00  0.00000000000E+00  0.60494041490E+03  0.25251397790E+04  0.24516072275E+04 0.  0.
        2    1    3    3  502    0 -0.47374040547E+03  0.55297910493E+03  0.13181392957E+04  0.15058907879E+04  0.25500000920E-02 0.  1.
       -2    1    3    3    0  502  0.47374040547E+03 -0.55297910493E+03 -0.71319888079E+03  0.10192489911E+04  0.25500000920E-02 0. -1.
</event>
<event>
 5   0  0.2066170E-05  0.2508850E+04  0.7818609E-02  0.8399840E-01
       -1   -1    0    0    0  501  0.00000000000E+00  0.00000000000E+00  0.78845340432E+03  0.78845340434E+03  0.50400001928E-02 0. -1.
        1   -1    0    0  501    0  0.00000000000E+00  0.00000000000E+00 -0.19957826265E+04  0.19957826265E+04  0.50400001928E-02 0.  1.
    10030    2    1    2    0    0  0.00000000000E+00  0.00000000000E+00 -0.12073292221E+04  0.27842360308E+04  0.25088496218E+04 0.  0.
        5    1    3    3  502    0 -0.68044480461E+03 -0.46874954762E+03  0.44377358743E+03  0.93791703120E+03  0.46999998093E+01 0. -1.
       -5    1    3    3    0  502  0.68044480461E+03  0.46874954762E+03 -0.16511028096E+04  0.18463189996E+04  0.46999998093E+01 0.  1.
</event>
<event>
 5   0  0.2041718E-05  0.2463010E+04  0.7818609E-02  0.8416283E-01
        1   -1    0    0  501    0  0.00000000000E+00  0.00000000000E+00  0.11672393675E+04  0.11672393676E+04  0.50400001928E-02 0. -1.
       -1   -1    0    0    0  501  0.00000000000E+00  0.00000000000E+00 -0.12993093097E+04  0.12993093097E+04  0.50400001928E-02 0.  1.
    10030    2    1    2    0    0  0.00000000000E+00  0.00000000000E+00 -0.13206994219E+03  0.24665486773E+04  0.24630103345E+04 0.  0.
        4    1    3    3  502    0  0.52155844102E+03  0.79319972149E+03 -0.85164545232E+03  0.12753394038E+04  0.12699999809E+01 0.  1.
       -4    1    3    3    0  502 -0.52155844102E+03 -0.79319972149E+03  0.71957551013E+03  0.11912092735E+04  0.12699999809E+01 0. -1.
</event>
<event>
 5   0  0.2036578E-05  0.2693759E+04  0.7818609E-02  0.8337033E-01
       -1   -1    0    0    0  501  0.00000000000E+00  0.00000000000E+00  0.13513014093E+04  0.13513014093E+04  0.50400001928E-02 0. -1.
        1   -1    0    0  501    0  0.00000000000E+00  0.00000000000E+00 -0.13424723231E+04  0.13424723231E+04  0.50400001928E-02 0.  1.
    10030    2    1    2    0    0  0.00000000000E+00  0.00000000000E+00  0.88290862537E+01  0.26937737324E+04  0.26937592633E+04 0.  0.
        2    1    3    3  502    0 -0.44814832976E+03  0.82452916290E+03  0.97054574717E+03  0.13500534483E+04  0.25500000920E-02 0. -1.
       -2    1    3    3    0  502  0.44814832976E+03 -0.82452916290E+03 -0.96171666091E+03  0.13437202841E+04  0.25500000920E-02 0.  1.
</event>
<event>
 5   0  0.2066170E-05  0.2526142E+04  0.7818609E-02  0.8393731E-01
        1   -1    0    0  501    0  0.00000000000E+00  0.00000000000E+00  0.17938303352E+04  0.17938303352E+04  0.50400001928E-02 0.  1.
       -1   -1    0    0    0  501  0.00000000000E+00  0.00000000000E+00 -0.88935288951E+03  0.88935288953E+03  0.50400001928E-02 0. -1.
    10030    2    1    2    0    0  0.00000000000E+00  0.00000000000E+00  0.90447744566E+03  0.26831832247E+04  0.25261418740E+04 0.  0.
        5    1    3    3  502    0 -0.59456824812E+03 -0.68418414773E+03  0.13865267548E+04  0.16565318836E+04  0.46999998093E+01 0.  1.
       -5    1    3    3    0  502  0.59456824812E+03  0.68418414773E+03 -0.48204930915E+03  0.10266513411E+04  0.46999998093E+01 0. -1.
</event>
<event>
 5   0  0.2081874E-05  0.2551496E+04  0.7818609E-02  0.8384866E-01
       -1   -1    0    0    0  501  0.00000000000E+00  0.00000000000E+00  0.10088143050E+04  0.10088143050E+04  0.50400001928E-02 0. -1.
        1   -1    0    0  501    0  0.00000000000E+00  0.00000000000E+00 -0.16133131997E+04  0.16133131998E+04  0.50400001928E-02 0.  1.
    10030    2    1    2    0    0  0.00000000000E+00  0.00000000000E+00 -0.60449889474E+03  0.26221275048E+04  0.25514963722E+04 0.  0.
        1    1    3    3  502    0  0.45386038032E+03  0.10756035979E+04  0.22640401106E+03  0.11891892704E+04  0.50400001928E-02 0. -1.
       -1    1    3    3    0  502 -0.45386038032E+03 -0.10756035979E+04 -0.83090290579E+03  0.14329382344E+04  0.50400001928E-02 0.  1.
</event>
<event>
 5   0  0.4959347E-05  0.2498658E+04  0.7818609E-02  0.8403464E-01
        2   -1    0    0  501    0  0.00000000000E+00  0.00000000000E+00  0.16902496944E+04  0.16902496944E+04  0.25500000920E-02 0.  1.
       -2   -1    0    0    0  501  0.00000000000E+00  0.00000000000E+00 -0.92342726725E+03  0.92342726725E+03  0.25500000920E-02 0. -1.
    10030    2    1    2    0    0  0.00000000000E+00  0.00000000000E+00  0.76682242711E+03  0.26136769616E+04  0.24986577647E+04 0.  0.
        3    1    3    3  502    0  0.38933854751E+03  0.85707613552E+03  0.12425971841E+04  0.15589136534E+04  0.10100000352E+00 0.  1.
       -3    1    3    3    0  502 -0.38933854751E+03 -0.85707613552E+03 -0.47577475703E+03  0.10547633082E+04  0.10100000352E+00 0. -1.
</event>
<event>
 5   0  0.4959347E-05  0.2539359E+04  0.7818609E-02  0.8389096E-01
       -2   -1    0    0    0  501  0.00000000000E+00  0.00000000000E+00  0.12708713235E+04  0.12708713235E+04  0.25500000920E-02 0.  1.
        2   -1    0    0  501    0  0.00000000000E+00  0.00000000000E+00 -0.12684888458E+04  0.12684888458E+04  0.25500000920E-02 0. -1.
    10030    2    1    2    0    0  0.00000000000E+00  0.00000000000E+00  0.23824777015E+01  0.25393601694E+04  0.25393590517E+04 0.  0.
        3    1    3    3  502    0 -0.32021878497E+03  0.63288378977E+03 -0.10519018733E+04  0.12686920520E+04  0.10100000352E+00 0. -1.
       -3    1    3    3    0  502  0.32021878497E+03 -0.63288378977E+03  0.10542843510E+04  0.12706681174E+04  0.10100000352E+00 0.  1.
</event>
<event>
 5   0  0.2066170E-05  0.2417528E+04  0.7818609E-02  0.8432970E-01
        1   -1    0    0  501    0  0.00000000000E+00  0.00000000000E+00  0.14492725017E+04  0.14492725017E+04  0.50400001928E-02 0. -1.
       -1   -1    0    0    0  501  0.00000000000E+00  0.00000000000E+00 -0.10081684904E+04  0.10081684904E+04  0.50400001928E-02 0.  1.
    10030    2    1    2    0    0  0.00000000000E+00  0.00000000000E+00  0.44110401136E+03  0.24574409921E+04  0.24175283826E+04 0.  0.
        5    1    3    3  502    0 -0.87219471677E+03  0.47543373580E+03  0.92063714804E+03  0.13543838856E+04  0.46999998093E+01 0. -1.
       -5    1    3    3    0  502  0.87219471677E+03 -0.47543373580E+03 -0.47953313668E+03  0.11030571065E+04  0.46999998093E+01 0.  1.
</event>
<event>
 5   0  0.2063930E-05  0.2525198E+04  0.7818609E-02  0.8394063E-01
        1   -1    0    0  501    0  0.00000000000E+00  0.00000000000E+00  0.12277672935E+04  0.12277672935E+04  0.50400001928E-02 0.  1.
       -1   -1    0    0    0  501  0.00000000000E+00  0.00000000000E+00 -0.12984187939E+04  0.12984187939E+04  0.50400001928E-02 0. -1.
    10030    2    1    2    0    0  0.00000000000E+00  0.00000000000E+00 -0.70651500415E+02  0.25261860874E+04  0.25251979157E+04 0.  0.
        3    1    3    3  502    0 -0.11330111840E+04  0.55361176345E+03 -0.98245438721E+02  0.12648527598E+04  0.10100000352E+00 0.  1.
       -3    1    3    3    0  502  0.11330111840E+04 -0.55361176345E+03  0.27593938306E+02  0.12613333276E+04  0.10100000352E+00 0. -1.
</event>
<event>
 5   0  0.2063930E-05  0.2857712E+04  0.7818609E-02  0.8285572E-01
        1   -1    0    0  501    0  0.00000000000E+00  0.00000000000E+00  0.20216281237E+04  0.20216281237E+04  0.50400001928E-02 0. -1.
       -1   -1    0    0    0  501  0.00000000000E+00  0.00000000000E+00 -0.10098933939E+04  0.10098933939E+04  0.50400001928E-02 0.  1.
    10030    2    1    2    0    0  0.00000000000E+00  0.00000000000E+00  0.10117347298E+04  0.30315215176E+04  0.28577115929E+04 0.  0.
        3    1    3    3  502    0  0.96342643598E+03  0.99026878146E+03  0.89245797614E+03  0.16447808384E+04  0.10100000352E+00 0. -1.
       -3    1    3    3    0  502 -0.96342643598E+03 -0.99026878146E+03  0.11927675365E+03  0.13867406792E+04  0.10100000352E+00 0.  1.
</event>
<event>
 5   0  0.4995256E-05  0.2509934E+04  0.7818609E-02  0.8399455E-01
        2   -1    0    0  501    0  0.00000000000E+00  0.00000000000E+00  0.89779222557E+03  0.89779222557E+03  0.25500000920E-02 0. -1.
       -2   -1    0    0    0  501  0.00000000000E+00  0.00000000000E+00 -0.17542392051E+04  0.17542392051E+04  0.25500000920E-02 0.  1.
    10030    2    1    2    0    0  0.00000000000E+00  0.00000000000E+00 -0.85644697957E+03  0.26520314307E+04  0.25099341188E+04 0.  0.
        2    1    3    3  502    0 -0.36724821225E+03 -0.11999792127E+04 -0.41660266321E+03  0.13222628858E+04  0.25500000920E-02 0. -1.
       -2    1    3    3    0  502  0.36724821225E+03  0.11999792127E+04 -0.43984431636E+03  0.13297685449E+04  0.25500000920E-02 0.  1.
</event>
<event>
 5   0  0.4995256E-05  0.2472974E+04  0.7818609E-02  0.8412677E-01
        2   -1    0    0  501    0  0.00000000000E+00  0.00000000000E+00  0.20024974887E+04  0.20024974887E+04  0.25500000920E-02 0. -1.
       -2   -1    0    0    0  501  0.00000000000E+00  0.00000000000E+00 -0.76349667652E+03  0.76349667653E+03  0.25500000920E-02 0.  1.
    10030    2    1    2    0    0  0.00000000000E+00  0.00000000000E+00  0.12390008122E+04  0.27659941652E+04  0.24729740616E+04 0.  0.
        2    1    3    3  502    0 -0.11145550106E+04  0.11270927157E+03  0.12049350096E+04  0.16452369522E+04  0.25500000920E-02 0. -1.
       -2    1    3    3    0  502  0.11145550106E+04 -0.11270927157E+03  0.34065802540E+02  0.11207572130E+04  0.25500000920E-02 0.  1.
</event>
<event>
 5   0  0.2041718E-05  0.2505112E+04  0.7818609E-02  0.8401167E-01
        1   -1    0    0  501    0  0.00000000000E+00  0.00000000000E+00  0.13292083713E+04  0.13292083713E+04  0.50400001928E-02 0. -1.
       -1   -1    0    0    0  501  0.00000000000E+00  0.00000000000E+00 -0.11803242104E+04  0.11803242104E+04  0.50400001928E-02 0.  1.
    10030    2    1    2    0    0  0.00000000000E+00  0.00000000000E+00  0.14888416088E+03  0.25095325818E+04  0.25051122301E+04 0.  0.
        4    1    3    3  502    0 -0.71836665191E+01 -0.34550613530E+03  0.12805054690E+04  0.13263189525E+04  0.12699999809E+01 0. -1.
       -4    1    3    3    0  502  0.71836665191E+01  0.34550613530E+03 -0.11316213081E+04  0.11832136293E+04  0.12699999809E+01 0.  1.
</event>
<event>
 5   0  0.5219468E-05  0.2629153E+04  0.7818609E-02  0.8358365E-01
       -2   -1    0    0    0  501  0.00000000000E+00  0.00000000000E+00  0.89673771575E+03  0.89673771576E+03  0.25500000920E-02 0.  1.
        2   -1    0    0  501    0  0.00000000000E+00  0.00000000000E+00 -0.19271094592E+04  0.19271094592E+04  0.25500000920E-02 0. -1.
    10030    2    1    2    0    0  0.00000000000E+00  0.00000000000E+00 -0.10303717434E+04  0.28238471749E+04  0.26291532739E+04 0.  0.
        1    1    3    3  502    0  0.10421169809E+04 -0.38593423787E+03 -0.12694416257E+04  0.16871381328E+04  0.50400001928E-02 0. -1.
       -1    1    3    3    0  502 -0.10421169809E+04  0.38593423787E+03  0.23906988229E+03  0.11367090422E+04  0.50400001928E-02 0.  1.
</event>
<event>
 5   0  0.1692125E-05  0.2501921E+04  0.7818609E-02  0.8402301E-01
       -4   -1    0    0    0  501  0.00000000000E+00  0.00000000000E+00  0.13844100041E+04  0.13844105867E+04  0.12699999809E+01 0.  1.
        4   -1    0    0  501    0  0.00000000000E+00  0.00000000000E+00 -0.11303738509E+04  0.11303745643E+04  0.12699999809E+01 0. -1.
    10030    2    1    2    0    0  0.00000000000E+00  0.00000000000E+00  0.25403615326E+03  0.25147851510E+04  0.25019212594E+04 0.  0.
        4    1    3    3  502    0 -0.59652970054E+03 -0.70680912002E+03 -0.71961554862E+03  0.11718681523E+04  0.12699999809E+01 0. -1.
       -4    1    3    3    0  502  0.59652970054E+03  0.70680912002E+03  0.97365170187E+03  0.13429169986E+04  0.12699999809E+01 0.  1.
</event>
<event>
 5   0  0.1692125E-05  0.2475516E+04  0.7818609E-02  0.8411760E-01
        4   -1    0    0  501    0  0.00000000000E+00  0.00000000000E+00  0.17694143210E+04  0.17694147767E+04  0.12699999809E+01 0. -1.
       -4   -1    0    0    0  501  0.00000000000E+00  0.00000000000E+00 -0.86584786750E+03  0.86584879890E+03  0.12699999809E+01 0.  1.
    10030    2    1    2    0    0  0.00000000000E+00  0.00000000000E+00  0.90356645348E+03  0.26352635756E+04  0.24755164668E+04 0.  0.
        4    1    3    3  502    0  0.17492900950E+03 -0.34625070680E+03  0.17030277544E+04  0.17466524713E+04  0.12699999809E+01 0. -1.
       -4    1    3    3    0  502 -0.17492900950E+03  0.34625070680E+03 -0.79946130088E+03  0.88861110438E+03  0.12699999809E+01 0.  1.
</event>
<event>
 5   0  0.4995256E-05  0.2473115E+04  0.7818609E-02  0.8412626E-01
       -2   -1    0    0    0  501  0.00000000000E+00  0.00000000000E+00  0.63793825810E+03  0.63793825811E+03  0.25500000920E-02 0. -1.
        2   -1    0    0  501    0  0.00000000000E+00  0.00000000000E+00 -0.23969007190E+04  0.23969007190E+04  0.25500000920E-02 0.  1.
    10030    2    1    2    0    0  0.00000000000E+00  0.00000000000E+00 -0.17589624609E+04  0.30348389771E+04  0.24731151769E+04 0.  0.
        2    1    3    3  502    0  0.26945447664E+03  0.47357811997E+03 -0.22416490925E+04  0.23069184217E+04  0.25500000920E-02 0.  1.
       -2    1    3    3    0  502 -0.26945447664E+03 -0.47357811997E+03  0.48268663156E+03  0.72792055541E+03  0.25500000920E-02 0. -1.
</event>
<event>
 5   0  0.2066170E-05  0.2502136E+04  0.7818609E-02  0.8402225E-01
       -1   -1    0    0    0  501  0.00000000000E+00  0.00000000000E+00  0.14917705678E+04  0.14917705678E+04  0.50400001928E-02 0.  1.
        1   -1    0    0  501    0  0.00000000000E+00  0.00000000000E+00 -0.10492035803E+04  0.10492035803E+04  0.50400001928E-02 0. -1.
    10030    2    1    2    0    0  0.00000000000E+00  0.00000000000E+00  0.44256698757E+03  0.25409741481E+04  0.25021359041E+04 0.  0.
        5    1    3    3  502    0  0.71670886232E+03 -0.69110688464E+03 -0.54800284340E+03  0.11364988014E+04  0.46999998093E+01 0. -1.
       -5    1    3    3    0  502 -0.71670886232E+03  0.69110688464E+03  0.99056983097E+03  0.14044753466E+04  0.46999998093E+01 0.  1.
</event>
<event>
 5   0  0.5024070E-05  0.2493915E+04  0.7818609E-02  0.8405157E-01
        2   -1    0    0  501    0  0.00000000000E+00  0.00000000000E+00  0.22661997256E+04  0.22661997256E+04  0.25500000920E-02 0. -1.
       -2   -1    0    0    0  501  0.00000000000E+00  0.00000000000E+00 -0.68612797099E+03  0.68612797100E+03  0.25500000920E-02 0.  1.
    10030    2    1    2    0    0  0.00000000000E+00  0.00000000000E+00  0.15800717546E+04  0.29523276966E+04  0.24939150102E+04 0.  0.
        5    1    3    3  502    0  0.65018006348E+03  0.97987561226E+03  0.12809836186E+04  0.17389167466E+04  0.46999998093E+01 0.  1.
       -5    1    3    3    0  502 -0.65018006348E+03 -0.97987561226E+03  0.29908813598E+03  0.12134109500E+04  0.46999998093E+01 0. -1.
</event>
<event>
 5   0  0.2063930E-05  0.2493526E+04  0.7818609E-02  0.8405295E-01
       -1   -1    0    0    0  501  0.00000000000E+00  0.00000000000E+00  0.87084112348E+03  0.87084112349E+03  0.50400001928E-02 0.  1.
        1   -1    0    0  501    0  0.00000000000E+00  0.00000000000E+00 -0.17849618858E+04  0.17849618858E+04  0.50400001928E-02 0. -1.
    10030    2    1    2    0    0  0.00000000000E+00  0.00000000000E+00 -0.91412076235E+03  0.26558030093E+04  0.24935261892E+04 0.  0.
        3    1    3    3  502    0 -0.60052119480E+03  0.21494565141E+03 -0.15980336405E+04  0.17206216507E+04  0.10100000352E+00 0. -1.
       -3    1    3    3    0  502  0.60052119480E+03 -0.21494565141E+03  0.68391287814E+03  0.93518135864E+03  0.10100000352E+00 0.  1.
</event>
<event>
 5   0  0.4959042E-05  0.2658051E+04  0.7818609E-02  0.8348746E-01
        2   -1    0    0  501    0  0.00000000000E+00  0.00000000000E+00  0.78449628679E+03  0.78449628679E+03  0.25500000920E-02 0.  1.
       -2   -1    0    0    0  501  0.00000000000E+00  0.00000000000E+00 -0.22515188938E+04  0.22515188938E+04  0.25500000920E-02 0. -1.
    10030    2    1    2    0    0  0.00000000000E+00  0.00000000000E+00 -0.14670226070E+04  0.30360151805E+04  0.26580505727E+04 0.  0.
        4    1    3    3  502    0  0.72664447847E+03 -0.68532280020E+03 -0.17348904295E+04  0.20018806043E+04  0.12699999809E+01 0. -1.
       -4    1    3    3    0  502 -0.72664447847E+03  0.68532280020E+03  0.26786782254E+03  0.10341345763E+04  0.12699999809E+01 0.  1.
</event>
<event>
 5   0  0.2036578E-05  0.2408660E+04  0.7818609E-02  0.8436268E-01
        1   -1    0    0  501    0  0.00000000000E+00  0.00000000000E+00  0.21072853628E+04  0.21072853628E+04  0.50400001928E-02 0.  1.
       -1   -1    0    0    0  501  0.00000000000E+00  0.00000000000E+00 -0.68828421688E+03  0.68828421690E+03  0.50400001928E-02 0. -1.
    10030    2    1    2    0    0  0.00000000000E+00  0.00000000000E+00  0.14190011459E+04  0.27955695797E+04  0.24086604208E+04 0.  0.
        2    1    3    3  502    0  0.89088364118E+03 -0.78249346115E+03  0.46482565037E+03  0.12735904224E+04  0.25500000920E-02 0.  1.
       -2    1    3    3    0  502 -0.89088364118E+03  0.78249346115E+03  0.95417549558E+03  0.15219791573E+04  0.25500000920E-02 0. -1.
</event>
<event>
 5   0  0.2081874E-05  0.2507861E+04  0.7818609E-02  0.8400190E-01
        1   -1    0    0  501    0  0.00000000000E+00  0.00000000000E+00  0.14936881858E+04  0.14936881858E+04  0.50400001928E-02 0. -1.
       -1   -1    0    0    0  501  0.00000000000E+00  0.00000000000E+00 -0.10526574838E+04  0.10526574838E+04  0.50400001928E-02 0.  1.
    10030    2    1    2    0    0  0.00000000000E+00  0.00000000000E+00  0.44103070194E+03  0.25463456696E+04  0.25078612779E+04 0.  0.
        1    1    3    3  502    0  0.27926330217E+03  0.12039001459E+04  0.51795179450E+01  0.12358763614E+04  0.50400001928E-02 0. -1.
       -1    1    3    3    0  502 -0.27926330217E+03 -0.12039001459E+04  0.43585118399E+03  0.13104693082E+04  0.50400001928E-02 0.  1.
</event>
<event>
 5   0  0.5024070E-05  0.2522203E+04  0.7818609E-02  0.8395118E-01
       -2   -1    0    0    0  501  0.00000000000E+00  0.00000000000E+00  0.10305956169E+04  0.10305956169E+04  0.25500000920E-02 0. -1.
        2   -1    0    0  501    0  0.00000000000E+00  0.00000000000E+00 -0.15431624756E+04  0.15431624756E+04  0.25500000920E-02 0.  1.
    10030    2    1    2    0    0  0.00000000000E+00  0.00000000000E+00 -0.51256685869E+03  0.25737580926E+04  0.25222025958E+04 0.  0.
        5    1    3    3  502    0  0.85537723496E+03  0.92583037744E+03 -0.29609751100E+03  0.12948080660E+04  0.46999998093E+01 0. -1.
       -5    1    3    3    0  502 -0.85537723496E+03 -0.92583037744E+03 -0.21646934769E+03  0.12789500265E+04  0.46999998093E+01 0.  1.
</event>
<event>
 5   0  0.2066170E-05  0.2413668E+04  0.7818609E-02  0.8434404E-01
       -1   -1    0    0    0  501  0.00000000000E+00  0.00000000000E+00  0.56839439740E+03  0.56839439742E+03  0.50400001928E-02 0.  1.
        1   -1    0    0  501    0  0.00000000000E+00  0.00000000000E+00 -0.25623909011E+04  0.25623909011E+04  0.50400001928E-02 0. -1.
    10030    2    1    2    0    0  0.00000000000E+00  0.00000000000E+00 -0.19939965037E+04  0.31307852985E+04  0.24136682723E+04 0.  0.
        5    1    3    3  502    0  0.39006263636E+03  0.91073792979E+03 -0.18908112304E+04  0.21346619489E+04  0.46999998093E+01 0. -1.
       -5    1    3    3    0  502 -0.39006263636E+03 -0.91073792979E+03 -0.10318527330E+03  0.99612334963E+03  0.46999998093E+01 0.  1.
</event>
<event>
 5   0  0.4959347E-05  0.2496541E+04  0.7818609E-02  0.8404219E-01
       -2   -1    0    0    0  501  0.00000000000E+00  0.00000000000E+00  0.83221214215E+03  0.83221214216E+03  0.25500000920E-02 0.  1.
        2   -1    0    0  501    0  0.00000000000E+00  0.00000000000E+00 -0.18723347820E+04  0.18723347820E+04  0.25500000920E-02 0. -1.
    10030    2    1    2    0    0  0.00000000000E+00  0.00000000000E+00 -0.10401226398E+04  0.27045469241E+04  0.24965413994E+04 0.  0.
        3    1    3    3  502    0 -0.82466053238E+03  0.90617642551E+03 -0.77860683553E+03  0.14517056597E+04  0.10100000352E+00 0. -1.
       -3    1    3    3    0  502  0.82466053238E+03 -0.90617642551E+03 -0.26151580429E+03  0.12528412645E+04  0.10100000352E+00 0.  1.
</event>
<event>
 5   0  0.5219468E-05  0.2417463E+04  0.7818609E-02  0.8432994E-01
       -2   -1    0    0    0  501  0.00000000000E+00  0.00000000000E+00  0.13563685847E+04  0.13563685847E+04  0.25500000920E-02 0.  1.
        2   -1    0    0  501    0  0.00000000000E+00  0.00000000000E+00 -0.10771643316E+04  0.10771643316E+04  0.25500000920E-02 0. -1.
    10030    2    1    2    0    0  0.00000000000E+00  0.00000000000E+00  0.27920425303E+03  0.24335329163E+04  0.24174630173E+04 0.  0.
        1    1    3    3  502    0 -0.19746414614E+03  0.44377277446E+03  0.12538046303E+04  0.13446012106E+04  0.50400001928E-02 0.  1.
       -1    1    3    3    0  502  0.19746414614E+03 -0.44377277446E+03 -0.97460037730E+03  0.10889317058E+04  0.50400001928E-02 0. -1.
</event>
<event>
 5   0  0.2036578E-05  0.2485536E+04  0.7818609E-02  0.8408157E-01
        1   -1    0    0  501    0  0.00000000000E+00  0.00000000000E+00  0.27228758986E+04  0.27228758986E+04  0.50400001928E-02 0. -1.
       -1   -1    0    0    0  501  0.00000000000E+00  0.00000000000E+00 -0.56722086386E+03  0.56722086388E+03  0.50400001928E-02 0.  1.
    10030    2    1    2    0    0  0.00000000000E+00  0.00000000000E+00  0.21556550347E+04  0.32900967624E+04  0.24855357727E+04 0.  0.
        2    1    3    3  502    0  0.79288833097E+03  0.79528706457E+03  0.37325419453E+03  0.11834154445E+04  0.25500000920E-02 0.  1.
       -2    1    3    3    0  502 -0.79288833097E+03 -0.79528706457E+03  0.17824008402E+04  0.21066813180E+04  0.25500000920E-02 0. -1.
</event>
<event>
 5   0  0.2036578E-05  0.2498376E+04  0.7818609E-02  0.8403564E-01
        1   -1    0    0  501    0  0.00000000000E+00  0.00000000000E+00  0.12426002872E+04  0.12426002872E+04  0.50400001928E-02 0. -1.
       -1   -1    0    0    0  501  0.00000000000E+00  0.00000000000E+00 -0.12558102803E+04  0.12558102803E+04  0.50400001928E-02 0.  1.
    10030    2    1    2    0    0  0.00000000000E+00  0.00000000000E+00 -0.13209993075E+02  0.24984105675E+04  0.24983756443E+04 0.  0.
        2    1    3    3  502    0 -0.79509831401E+03 -0.69609364946E+03  0.65954432825E+03  0.12456831133E+04  0.25500000920E-02 0.  1.
       -2    1    3    3    0  502  0.79509831401E+03  0.69609364946E+03 -0.67275432133E+03  0.12527274542E+04  0.25500000920E-02 0. -1.
</event>
<event>
 5   0  0.4959347E-05  0.2506919E+04  0.7818609E-02  0.8400525E-01
       -2   -1    0    0    0  501  0.00000000000E+00  0.00000000000E+00  0.15666199760E+04  0.15666199760E+04  0.25500000920E-02 0. -1.
        2   -1    0    0  501    0  0.00000000000E+00  0.00000000000E+00 -0.10028982036E+04  0.10028982036E+04  0.25500000920E-02 0.  1.
    10030    2    1    2    0    0  0.00000000000E+00  0.00000000000E+00  0.56372177241E+03  0.25695181795E+04  0.25069187139E+04 0.  0.
        3    1    3    3  502    0  0.70800983495E+03  0.10139847733E+04  0.72512531822E+02  0.12388305471E+04  0.10100000352E+00 0.  1.
       -3    1    3    3    0  502 -0.70800983495E+03 -0.10139847733E+04  0.49120924059E+03  0.13306876324E+04  0.10100000352E+00 0. -1.
</event>
<event>
 5   0  0.5024070E-05  0.3078131E+04  0.7818609E-02  0.8221765E-01
        2   -1    0    0  501    0  0.00000000000E+00  0.00000000000E+00  0.13725615694E+04  0.13725615694E+04  0.25500000920E-02 0. -1.
       -2   -1    0    0    0  501  0.00000000000E+00  0.00000000000E+00 -0.17257677162E+04  0.17257677162E+04  0.25500000920E-02 0.  1.
    10030    2    1    2    0    0  0.00000000000E+00  0.00000000000E+00 -0.35320614686E+03  0.30983292856E+04  0.30781308906E+04 0.  0.
        5    1    3    3  502    0  0.65463084395E+03 -0.49137450760E+03  0.11352950126E+04  0.13996096971E+04  0.46999998093E+01 0. -1.
       -5    1    3    3    0  502 -0.65463084395E+03  0.49137450760E+03 -0.14885011595E+04  0.16987195885E+04  0.46999998093E+01 0.  1.
</event>
<event>
 5   0  0.2041718E-05  0.2487417E+04  0.7818609E-02  0.8407482E-01
        1   -1    0    0  501    0  0.00000000000E+00  0.00000000000E+00  0.16993751502E+04  0.16993751502E+04  0.50400001928E-02 0. -1.
       -1   -1    0    0    0  501  0.00000000000E+00  0.00000000000E+00 -0.91022347398E+03  0.91022347399E+03  0.50400001928E-02 0.  1.
    10030    2    1    2    0    0  0.00000000000E+00  0.00000000000E+00  0.78915167622E+03  0.26095986242E+04  0.24874172572E+04 0.  0.
        4    1    3    3  502    0  0.61452614174E+03 -0.10769775707E+04  0.49567567995E+03  0.13353722550E+04  0.12699999809E+01 0.  1.
       -4    1    3    3    0  502 -0.61452614174E+03  0.10769775707E+04  0.29347599628E+03  0.12742263692E+04  0.12699999809E+01 0. -1.
</event>
<event>
 5   0  0.2041718E-05  0.2424007E+04  0.7818609E-02  0.8430570E-01
       -1   -1    0    0    0  501  0.00000000000E+00  0.00000000000E+00  0.14590456160E+04  0.14590456160E+04  0.50400001928E-02 0. -1.
        1   -1    0    0  501    0  0.00000000000E+00  0.00000000000E+00 -0.10067897770E+04  0.10067897770E+04  0.50400001928E-02 0.  1.
    10030    2    1    2    0    0  0.00000000000E+00  0.00000000000E+00  0.45225583898E+03  0.24658353930E+04  0.24240067742E+04 0.  0.
        4    1    3    3  502    0  0.47895392450E+03 -0.10237386942E+04 -0.21904545349E+03  0.11512689953E+04  0.12699999809E+01 0.  1.
       -4    1    3    3    0  502 -0.47895392450E+03  0.10237386942E+04  0.67130129248E+03  0.13145663977E+04  0.12699999809E+01 0. -1.
</event>
<event>
 5   0  0.2081874E-05  0.2521985E+04  0.7818609E-02  0.8395195E-01
        1   -1    0    0  501    0  0.00000000000E+00  0.00000000000E+00  0.13232744294E+04  0.13232744294E+04  0.50400001928E-02 0. -1.
       -1   -1    0    0    0  501  0.00000000000E+00  0.00000000000E+00 -0.12016415811E+04  0.12016415811E+04  0.50400001928E-02 0.  1.
    10030    2    1    2    0    0  0.00000000000E+00  0.00000000000E+00  0.12163284829E+03  0.25249160105E+04  0.25219845976E+04 0.  0.
        1    1    3    3  502    0  0.37925985697E+03 -0.98902577130E+03  0.74578384029E+03  0.12954549594E+04  0.50400001928E-02 0. -1.
       -1    1    3    3    0  502 -0.37925985697E+03  0.98902577130E+03 -0.62415099200E+03  0.12294610511E+04  0.50400001928E-02 0.  1.
</event>
<event>
 5   0  0.2081874E-05  0.2497286E+04  0.7818609E-02  0.8403953E-01
       -1   -1    0    0    0  501  0.00000000000E+00  0.00000000000E+00  0.78513765633E+03  0.78513765635E+03  0.50400001928E-02 0.  1.
        1   -1    0    0  501    0  0.00000000000E+00  0.00000000000E+00 -0.19857790318E+04  0.19857790318E+04  0.50400001928E-02 0. -1.
    10030    2    1    2    0    0  0.00000000000E+00  0.00000000000E+00 -0.12006413755E+04  0.27709166882E+04  0.24972864434E+04 0.  0.
        1    1    3    3  502    0  0.13472193550E+03 -0.11969519071E+04 -0.23522961885E+03  0.12272639657E+04  0.50400001928E-02 0.  1.
       -1    1    3    3    0  502 -0.13472193550E+03  0.11969519071E+04 -0.96541175663E+03  0.15436527225E+04  0.50400001928E-02 0. -1.
</event>
<event>
 5   0  0.2036578E-05  0.2548776E+04  0.7818609E-02  0.8385812E-01
       -1   -1    0    0    0  501  0.00000000000E+00  0.00000000000E+00  0.10790378111E+04  0.10790378111E+04  0.50400001928E-02 0.  1.
        1   -1    0    0  501    0  0.00000000000E+00  0.00000000000E+00 -0.15051045159E+04  0.15051045159E+04  0.50400001928E-02 0. -1.
    10030    2    1    2    0    0  0.00000000000E+00  0.00000000000E+00 -0.42606670473E+03  0.25841423270E+04  0.25487759277E+04 0.  0.
        2    1    3    3  502    0 -0.11906156996E+03 -0.12428436198E+04  0.45909745800E+02  0.12493772951E+04  0.25500000920E-02 0. -1.
       -2    1    3    3    0  502  0.11906156996E+03  0.12428436198E+04 -0.47197645053E+03  0.13347650320E+04  0.25500000920E-02 0.  1.
</event>
<event>
 5   0  0.2066170E-05  0.2494368E+04  0.7818609E-02  0.8404995E-01
        1   -1    0    0  501    0  0.00000000000E+00  0.00000000000E+00  0.24064183641E+04  0.24064183641E+04  0.50400001928E-02 0. -1.
       -1   -1    0    0    0  501  0.00000000000E+00  0.00000000000E+00 -0.64638301943E+03  0.64638301945E+03  0.50400001928E-02 0.  1.
    10030    2    1    2    0    0  0.00000000000E+00  0.00000000000E+00  0.17600353447E+04  0.30528013836E+04  0.24943680308E+04 0.  0.
        5    1    3    3  502    0  0.53300526399E+03 -0.32354735096E+03  0.22019576348E+04  0.22885403678E+04  0.46999998093E+01 0. -1.
       -5    1    3    3    0  502 -0.53300526399E+03  0.32354735096E+03 -0.44192229008E+03  0.76426101577E+03  0.46999998093E+01 0.  1.
</event>
<event>
 5   0  0.2036578E-05  0.2376826E+04  0.7818609E-02  0.8448231E-01
        1   -1    0    0  501    0  0.00000000000E+00  0.00000000000E+00  0.22422995535E+04  0.22422995535E+04  0.50400001928E-02 0. -1.
       -1   -1    0    0    0  501  0.00000000000E+00  0.00000000000E+00 -0.62985573309E+03  0.62985573311E+03  0.50400001928E-02 0.  1.
    10030    2    1    2    0    0  0.00000000000E+00  0.00000000000E+00  0.16124438204E+04  0.28721552866E+04  0.23768258069E+04 0.  0.
        2    1    3    3  502    0  0.92330583679E+03  0.42801261892E+03  0.15478256557E+04  0.18524180766E+04  0.25500000920E-02 0. -1.
       -2    1    3    3    0  502 -0.92330583679E+03 -0.42801261892E+03  0.64618164704E+02  0.10197372100E+04  0.25500000920E-02 0.  1.
</event>
<event>
 5   0  0.5219468E-05  0.2507355E+04  0.7818609E-02  0.8400370E-01
        2   -1    0    0  501    0  0.00000000000E+00  0.00000000000E+00  0.16553787009E+04  0.16553787009E+04  0.25500000920E-02 0. -1.
       -2   -1    0    0    0  501  0.00000000000E+00  0.00000000000E+00 -0.94945461374E+03  0.94945461374E+03  0.25500000920E-02 0.  1.
    10030    2    1    2    0    0  0.00000000000E+00  0.00000000000E+00  0.70592408716E+03  0.26048333146E+04  0.25073547376E+04 0.  0.
        1    1    3    3  502    0 -0.12824904548E+03 -0.96044320122E+03 -0.47345664754E+03  0.10784526682E+04  0.50400001928E-02 0.  1.
       -1    1    3    3    0  502  0.12824904548E+03  0.96044320122E+03  0.11793807347E+04  0.15263806464E+04  0.50400001928E-02 0. -1.
</event>
<event>
 5   0  0.5219468E-05  0.2252302E+04  0.7818609E-02  0.8496969E-01
       -2   -1    0    0    0  501  0.00000000000E+00  0.00000000000E+00  0.10767110748E+04  0.10767110748E+04  0.25500000920E-02 0. -1.
        2   -1    0    0  501    0  0.00000000000E+00  0.00000000000E+00 -0.11778607877E+04  0.11778607877E+04  0.25500000920E-02 0.  1.
    10030    2    1    2    0    0  0.00000000000E+00  0.00000000000E+00 -0.10114971291E+03  0.22545718626E+04  0.22523017158E+04 0.  0.
        1    1    3    3  502    0 -0.90268197591E+02 -0.76412354770E+03  0.77255719739E+03  0.10903567154E+04  0.50400001928E-02 0. -1.
       -1    1    3    3    0  502  0.90268197591E+02  0.76412354770E+03 -0.87370691030E+03  0.11642151471E+04  0.50400001928E-02 0.  1.
</event>
<event>
 5   0  0.4995256E-05  0.2526145E+04  0.7818609E-02  0.8393730E-01
       -2   -1    0    0    0  501  0.00000000000E+00  0.00000000000E+00  0.74648945272E+03  0.74648945273E+03  0.25500000920E-02 0. -1.
        2   -1    0    0  501    0  0.00000000000E+00  0.00000000000E+00 -0.21371400185E+04  0.21371400185E+04  0.25500000920E-02 0.  1.
    10030    2    1    2    0    0  0.00000000000E+00  0.00000000000E+00 -0.13906505658E+04  0.28836294712E+04  0.25261452712E+04 0.  0.
        2    1    3    3  502    0  0.72174017817E+03  0.10075806372E+04 -0.97312586133E+03  0.15757860157E+04  0.25500000920E-02 0. -1.
       -2    1    3    3    0  502 -0.72174017817E+03 -0.10075806372E+04 -0.41752470443E+03  0.13078434555E+04  0.25500000920E-02 0.  1.
</event>
<event>
 5   0  0.2041718E-05  0.2606515E+04  0.7818609E-02  0.8365992E-01
        1   -1    0    0  501    0  0.00000000000E+00  0.00000000000E+00  0.11378865052E+04  0.11378865052E+04  0.50400001928E-02 0.  1.
       -1   -1    0    0    0  501  0.00000000000E+00  0.00000000000E+00 -0.14926621095E+04  0.14926621095E+04  0.50400001928E-02 0. -1.
    10030    2    1    2    0    0  0.00000000000E+00  0.00000000000E+00 -0.35477560433E+03  0.26305486147E+04  0.26065149693E+04 0.  0.
        4    1    3    3  502    0  0.19614545494E+03 -0.11822634653E+04 -0.69422160441E+03  0.13849784077E+04  0.12699999809E+01 0. -1.
       -4    1    3    3    0  502 -0.19614545494E+03  0.11822634653E+04  0.33944600007E+03  0.12455702071E+04  0.12699999809E+01 0.  1.
</event>
<event>
 5   0  0.2041718E-05  0.2500271E+04  0.7818609E-02  0.8402889E-01
        1   -1    0    0  501    0  0.00000000000E+00  0.00000000000E+00  0.10616248871E+04  0.10616248872E+04  0.50400001928E-02 0. -1.
       -1   -1    0    0    0  501  0.00000000000E+00  0.00000000000E+00 -0.14721199312E+04  0.14721199312E+04  0.50400001928E-02 0.  1.
    10030    2    1    2    0    0  0.00000000000E+00  0.00000000000E+00 -0.41049504407E+03  0.25337448184E+04  0.25002713100E+04 0.  0.
        4    1    3    3  502    0 -0.85762003790E+03 -0.38131375470E+02  0.71569378431E+03  0.11176696010E+04  0.12699999809E+01 0. -1.
       -4    1    3    3    0  502  0.85762003790E+03  0.38131375470E+02 -0.11261888284E+04  0.14160752174E+04  0.12699999809E+01 0.  1.
</event>
<event>
 5   0  0.2081874E-05  0.2511941E+04  0.7818609E-02  0.8398744E-01
       -1   -1    0    0    0  501  0.00000000000E+00  0.00000000000E+00  0.89199300485E+03  0.89199300487E+03  0.50400001928E-02 0.  1.
        1   -1    0    0  501    0  0.00000000000E+00  0.00000000000E+00 -0.17684683224E+04  0.17684683225E+04  0.50400001928E-02 0. -1.
    10030    2    1    2    0    0  0.00000000000E+00  0.00000000000E+00 -0.87647531760E+03  0.26604613273E+04  0.25119405829E+04 0.  0.
        1    1    3    3  502    0  0.78169907723E+03  0.89267507540E+03 -0.87433412742E+03  0.14739004050E+04  0.50400001928E-02 0. -1.
       -1    1    3    3    0  502 -0.78169907723E+03 -0.89267507540E+03 -0.21411901818E+01  0.11865609223E+04  0.50400001928E-02 0.  1.
</event>
<event>
 5   0  0.2036578E-05  0.2519374E+04  0.7818609E-02  0.8396116E-01
        1   -1    0    0  501    0  0.00000000000E+00  0.00000000000E+00  0.23555881666E+04  0.23555881666E+04  0.50400001928E-02 0.  1.
       -1   -1    0    0    0  501  0.00000000000E+00  0.00000000000E+00 -0.67363706648E+03  0.67363706650E+03  0.50400001928E-02 0. -1.
    10030    2    1    2    0    0  0.00000000000E+00  0.00000000000E+00  0.16819511001E+04  0.30292252331E+04  0.25193741306E+04 0.  0.
        2    1    3    3  502    0  0.30013618169E+03  0.48879149947E+03  0.21894629052E+04  0.22633485526E+04  0.25500000920E-02 0.  1.
       -2    1    3    3    0  502 -0.30013618169E+03 -0.48879149947E+03 -0.50751180502E+03  0.76587668052E+03  0.25500000920E-02 0. -1.
</event>
<event>
 5   0  0.2036578E-05  0.2397837E+04  0.7818609E-02  0.8440314E-01
       -1   -1    0    0    0  501  0.00000000000E+00  0.00000000000E+00  0.82201986706E+03  0.82201986708E+03  0.50400001928E-02 0.  1.
        1   -1    0    0  501    0  0.00000000000E+00  0.00000000000E+00 -0.17486264708E+04  0.17486264708E+04  0.50400001928E-02 0. -1.
    10030    2    1    2    0    0  0.00000000000E+00  0.00000000000E+00 -0.92660660369E+03  0.25706463378E+04  0.23978371079E+04 0.  0.
        2    1    3    3  502    0  0.93663506287E+03  0.61824274441E+03 -0.11128669192E+02  0.11223338092E+04  0.25500000920E-02 0.  1.
       -2    1    3    3    0  502 -0.93663506287E+03 -0.61824274441E+03 -0.91547793450E+03  0.14483125286E+04  0.25500000920E-02 0. -1.
</event>
<event>
 5   0  0.4959347E-05  0.2464658E+04  0.7818609E-02  0.8415685E-01
        2   -1    0    0  501    0  0.00000000000E+00  0.00000000000E+00  0.18936275501E+04  0.18936275501E+04  0.25500000920E-02 0.  1.
       -2   -1    0    0    0  501  0.00000000000E+00  0.00000000000E+00 -0.80197151628E+03  0.80197151629E+03  0.25500000920E-02 0. -1.
    10030    2    1    2    0    0  0.00000000000E+00  0.00000000000E+00  0.10916560339E+04  0.26955990664E+04  0.24646584816E+04 0.  0.
        3    1    3    3  502    0  0.17552085510E+03  0.20878764871E+03  0.18601977666E+04  0.18800892516E+04  0.10100000352E+00 0.  1.
       -3    1    3    3    0  502 -0.17552085510E+03 -0.20878764871E+03 -0.76854173278E+03  0.81550981481E+03  0.10100000352E+00 0. -1.
</event>
<event>
 5   0  0.5219468E-05  0.2495985E+04  0.7818609E-02  0.8404417E-01
        2   -1    0    0  501    0  0.00000000000E+00  0.00000000000E+00  0.17156473096E+04  0.17156473096E+04  0.25500000920E-02 0.  1.
       -2   -1    0    0    0  501  0.00000000000E+00  0.00000000000E+00 -0.90781199261E+03  0.90781199262E+03  0.25500000920E-02 0. -1.
    10030    2    1    2    0    0  0.00000000000E+00  0.00000000000E+00  0.80783531697E+03  0.26234593022E+04  0.24959849380E+04 0.  0.
        1    1    3    3  502    0  0.50649044086E+03 -0.25140852563E+03  0.15732775809E+04  0.16718077521E+04  0.50400001928E-02 0.  1.
       -1    1    3    3    0  502 -0.50649044086E+03  0.25140852563E+03 -0.76544226390E+03  0.95165155011E+03  0.50400001928E-02 0. -1.
</event>
<event>
 5   0  0.4959347E-05  0.1658730E+04  0.7818609E-02  0.8785258E-01
        2   -1    0    0  501    0  0.00000000000E+00  0.00000000000E+00  0.76237994853E+03  0.76237994854E+03  0.25500000920E-02 0.  1.
       -2   -1    0    0    0  501  0.00000000000E+00  0.00000000000E+00 -0.90223596103E+03  0.90223596104E+03  0.25500000920E-02 0. -1.
    10030    2    1    2    0    0  0.00000000000E+00  0.00000000000E+00 -0.13985601250E+03  0.16646159096E+04  0.16587303645E+04 0.  0.
        3    1    3    3  502    0 -0.70260372910E+03 -0.43302368608E+03 -0.15198047104E+03  0.83920175562E+03  0.10100000352E+00 0.  1.
       -3    1    3    3    0  502  0.70260372910E+03  0.43302368608E+03  0.12124458538E+02  0.82541415395E+03  0.10100000352E+00 0. -1.
</event>
<event>
 5   0  0.2081874E-05  0.2003317E+04  0.7818609E-02  0.8605071E-01
        1   -1    0    0  501    0  0.00000000000E+00  0.00000000000E+00  0.19713253477E+04  0.19713253477E+04  0.50400001928E-02 0. -1.
       -1   -1    0    0    0  501  0.00000000000E+00  0.00000000000E+00 -0.50895702586E+03  0.50895702588E+03  0.50400001928E-02 0.  1.
    10030    2    1    2    0    0  0.00000000000E+00  0.00000000000E+00  0.14623683218E+04  0.24802823735E+04  0.20033171351E+04 0.  0.
        1    1    3    3  502    0  0.10315216876E+03 -0.72115545944E+03  0.15823317221E+04  0.17419756730E+04  0.50400001928E-02 0. -1.
       -1    1    3    3    0  502 -0.10315216876E+03  0.72115545944E+03 -0.11996340030E+03  0.73830670052E+03  0.50400001928E-02 0.  1.
</event>
<event>
 5   0  0.4995256E-05  0.1880917E+04  0.7818609E-02  0.8664414E-01
       -2   -1    0    0    0  501  0.00000000000E+00  0.00000000000E+00  0.11976415439E+04  0.11976415439E+04  0.25500000920E-02 0.  1.
        2   -1    0    0  501    0  0.00000000000E+00  0.00000000000E+00 -0.73850317182E+03  0.73850317183E+03  0.25500000920E-02 0. -1.
    10030    2    1    2    0    0  0.00000000000E+00  0.00000000000E+00  0.45913837209E+03  0.19361447157E+04  0.18809168816E+04 0.  0.
        2    1    3    3  502    0  0.37178412133E+03  0.62108906532E+03  0.84760412308E+03  0.11146334866E+04  0.25500000920E-02 0.  1.
       -2    1    3    3    0  502 -0.37178412133E+03 -0.62108906532E+03 -0.38846575100E+03  0.82151122916E+03  0.25500000920E-02 0. -1.
</event>
<event>
 5   0  0.4995256E-05  0.2534453E+04  0.7818609E-02  0.8390813E-01
       -2   -1    0    0    0  501  0.00000000000E+00  0.00000000000E+00  0.12142027267E+04  0.12142027267E+04  0.25500000920E-02 0.  1.
        2   -1    0    0  501    0  0.00000000000E+00  0.00000000000E+00 -0.13225655110E+04  0.13225655110E+04  0.25500000920E-02 0. -1.
    10030    2    1    2    0    0  0.00000000000E+00  0.00000000000E+00 -0.10836278431E+03  0.25367682376E+04  0.25344527217E+04 0.  0.
        2    1    3    3  502    0  0.15974398119E+03 -0.57030422029E+03 -0.11755163144E+04  0.13162840304E+04  0.25500000920E-02 0. -1.
       -2    1    3    3    0  502 -0.15974398119E+03  0.57030422029E+03  0.10671535301E+04  0.12204842072E+04  0.25500000920E-02 0.  1.
</event>
<event>
 5   0  0.2081874E-05  0.2175709E+04  0.7818609E-02  0.8528607E-01
       -1   -1    0    0    0  501  0.00000000000E+00  0.00000000000E+00  0.13137360523E+04  0.13137360523E+04  0.50400001928E-02 0. -1.
        1   -1    0    0  501    0  0.00000000000E+00  0.00000000000E+00 -0.90081034515E+03  0.90081034517E+03  0.50400001928E-02 0.  1.
    10030    2    1    2    0    0  0.00000000000E+00  0.00000000000E+00  0.41292570710E+03  0.22145463974E+04  0.21757086447E+04 0.  0.
        1    1    3    3  502    0  0.26723068836E+03  0.95105091688E+03  0.67013480273E+03  0.11937297605E+04  0.50400001928E-02 0. -1.
       -1    1    3    3    0  502 -0.26723068836E+03 -0.95105091688E+03 -0.25720909563E+03  0.10208166369E+04  0.50400001928E-02 0.  1.
</event>
<event>
 5   0  0.2041718E-05  0.2492116E+04  0.7818609E-02  0.8405800E-01
        1   -1    0    0  501    0  0.00000000000E+00  0.00000000000E+00  0.11338784249E+04  0.11338784249E+04  0.50400001928E-02 0.  1.
       -1   -1    0    0    0  501  0.00000000000E+00  0.00000000000E+00 -0.13693356789E+04  0.13693356789E+04  0.50400001928E-02 0. -1.
    10030    2    1    2    0    0  0.00000000000E+00  0.00000000000E+00 -0.23545725399E+03  0.25032141038E+04  0.24921157138E+04 0.  0.
        4    1    3    3  502    0  0.85295762025E+03 -0.14664418648E+03  0.78271068172E+03  0.11669099552E+04  0.12699999809E+01 0.  1.
       -4    1    3    3    0  502 -0.85295762025E+03  0.14664418648E+03 -0.10181679357E+04  0.13363041486E+04  0.12699999809E+01 0. -1.
</event>
<event>
 5   0  0.2066170E-05  0.2515671E+04  0.7818609E-02  0.8397424E-01
       -1   -1    0    0    0  501  0.00000000000E+00  0.00000000000E+00  0.12508874332E+04  0.12508874332E+04  0.50400001928E-02 0. -1.
        1   -1    0    0  501    0  0.00000000000E+00  0.00000000000E+00 -0.12648221047E+04  0.12648221047E+04  0.50400001928E-02 0.  1.
    10030    2    1    2    0    0  0.00000000000E+00  0.00000000000E+00 -0.13934671504E+02  0.25157095379E+04  0.25156709451E+04 0.  0.
        5    1    3    3  502    0 -0.10171002083E+04  0.64958821653E+03  0.34753817485E+03  0.12558911409E+04  0.46999998093E+01 0. -1.
       -5    1    3    3    0  502  0.10171002083E+04 -0.64958821653E+03 -0.36147284636E+03  0.12598183970E+04  0.46999998093E+01 0.  1.
</event>
<event>
 5   0  0.4959042E-05  0.2356046E+04  0.7818609E-02  0.8456145E-01
        2   -1    0    0  501    0  0.00000000000E+00  0.00000000000E+00  0.19713296408E+04  0.19713296408E+04  0.25500000920E-02 0. -1.
       -2   -1    0    0    0  501  0.00000000000E+00  0.00000000000E+00 -0.70396058526E+03  0.70396058526E+03  0.25500000920E-02 0.  1.
    10030    2    1    2    0    0  0.00000000000E+00  0.00000000000E+00  0.12673690556E+04  0.26752902261E+04  0.23560461521E+04 0.  0.
        4    1    3    3  502    0  0.55654134924E+03 -0.94006844905E+03  0.11341680086E+04  0.15747398665E+04  0.12699999809E+01 0.  1.
       -4    1    3    3    0  502 -0.55654134924E+03  0.94006844905E+03  0.13320104697E+03  0.11005503597E+04  0.12699999809E+01 0. -1.
</event>
<event>
 5   0  0.2066170E-05  0.2214056E+04  0.7818609E-02  0.8512600E-01
       -1   -1    0    0    0  501  0.00000000000E+00  0.00000000000E+00  0.16141950459E+04  0.16141950459E+04  0.50400001928E-02 0. -1.
        1   -1    0    0  501    0  0.00000000000E+00  0.00000000000E+00 -0.75920881389E+03  0.75920881391E+03  0.50400001928E-02 0.  1.
    10030    2    1    2    0    0  0.00000000000E+00  0.00000000000E+00  0.85498623204E+03  0.23734038598E+04  0.22140561025E+04 0.  0.
        5    1    3    3  502    0  0.78780503346E+03  0.42011831648E+03  0.11290838605E+04  0.14394403860E+04  0.46999998093E+01 0. -1.
       -5    1    3    3    0  502 -0.78780503346E+03 -0.42011831648E+03 -0.27409762851E+03  0.93396347388E+03  0.46999998093E+01 0.  1.
</event>
<event>
 5   0  0.4959347E-05  0.2363471E+04  0.7818609E-02  0.8453307E-01
       -2   -1    0    0    0  501  0.00000000000E+00  0.00000000000E+00  0.10760890561E+04  0.10760890561E+04  0.25500000920E-02 0.  1.
        2   -1    0    0  501    0  0.00000000000E+00  0.00000000000E+00 -0.12977544455E+04  0.12977544455E+04  0.25500000920E-02 0. -1.
    10030    2    1    2    0    0  0.00000000000E+00  0.00000000000E+00 -0.22166538935E+03  0.23738435016E+04  0.23634714776E+04 0.  0.
        3    1    3    3  502    0  0.56538382915E+03 -0.14448263601E+03 -0.11429439872E+04  0.12832985134E+04  0.10100000352E+00 0. -1.
       -3    1    3    3    0  502 -0.56538382915E+03  0.14448263601E+03  0.92127859782E+03  0.10905449882E+04  0.10100000352E+00 0.  1.
</event>
<event>
 5   0  0.2066170E-05  0.2506811E+04  0.7818609E-02  0.8400563E-01
        1   -1    0    0  501    0  0.00000000000E+00  0.00000000000E+00  0.14412579071E+04  0.14412579071E+04  0.50400001928E-02 0. -1.
       -1   -1    0    0    0  501  0.00000000000E+00  0.00000000000E+00 -0.10900375079E+04  0.10900375079E+04  0.50400001928E-02 0.  1.
    10030    2    1    2    0    0  0.00000000000E+00  0.00000000000E+00  0.35122039918E+03  0.25312954150E+04  0.25068108643E+04 0.  0.
        5    1    3    3  502    0 -0.99922928242E+03 -0.51392477532E+03 -0.38517459527E+03  0.11878381171E+04  0.46999998093E+01 0.  1.
       -5    1    3    3    0  502  0.99922928242E+03  0.51392477532E+03  0.73639499445E+03  0.13434572979E+04  0.46999998093E+01 0. -1.
</event>
<event>
 5   0  0.2063930E-05  0.2450856E+04  0.7818609E-02  0.8420706E-01
       -1   -1    0    0    0  501  0.00000000000E+00  0.00000000000E+00  0.16271301129E+04  0.16271301129E+04  0.50400001928E-02 0.  1.
        1   -1    0    0  501    0  0.00000000000E+00  0.00000000000E+00 -0.92289680509E+03  0.92289680511E+03  0.50400001928E-02 0. -1.
    10030    2    1    2    0    0  0.00000000000E+00  0.00000000000E+00  0.70423330784E+03  0.25500269180E+04  0.24508555100E+04 0.  0.
        3    1    3    3  502    0  0.97742916982E+03 -0.59770567632E+03  0.80451312148E+03  0.13999504385E+04  0.10100000352E+00 0. -1.
       -3    1    3    3    0  502 -0.97742916982E+03  0.59770567632E+03 -0.10027981363E+03  0.11500764795E+04  0.10100000352E+00 0.  1.
</event>
<event>
 5   0  0.2063930E-05  0.2604437E+04  0.7818609E-02  0.8366696E-01
        1   -1    0    0  501    0  0.00000000000E+00  0.00000000000E+00  0.92743395944E+03  0.92743395945E+03  0.50400001928E-02 0.  1.
       -1   -1    0    0    0  501  0.00000000000E+00  0.00000000000E+00 -0.18284565909E+04  0.18284565909E+04  0.50400001928E-02 0. -1.
    10030    2    1    2    0    0  0.00000000000E+00  0.00000000000E+00 -0.90102263145E+03  0.27558905503E+04  0.26044367804E+04 0.  0.
        3    1    3    3  502    0  0.11668754590E+04  0.51850119923E+03 -0.72097406005E+03  0.14663715204E+04  0.10100000352E+00 0. -1.
       -3    1    3    3    0  502 -0.11668754590E+04 -0.51850119923E+03 -0.18004857140E+03  0.12895190300E+04  0.10100000352E+00 0.  1.
</event>
<event>
 5   0  0.2066170E-05  0.2480261E+04  0.7818609E-02  0.8410051E-01
       -1   -1    0    0    0  501  0.00000000000E+00  0.00000000000E+00  0.10355585631E+04  0.10355585631E+04  0.50400001928E-02 0.  1.
        1   -1    0    0  501    0  0.00000000000E+00  0.00000000000E+00 -0.14851155483E+04  0.14851155484E+04  0.50400001928E-02 0. -1.
    10030    2    1    2    0    0  0.00000000000E+00  0.00000000000E+00 -0.44955698524E+03  0.25206741115E+04  0.24802613760E+04 0.  0.
        5    1    3    3  502    0  0.85009166686E+03 -0.78562481196E+03  0.22748917441E+03  0.11796760579E+04  0.46999998093E+01 0.  1.
       -5    1    3    3    0  502 -0.85009166686E+03  0.78562481196E+03 -0.67704615966E+03  0.13409980535E+04  0.46999998093E+01 0. -1.
</event>
<event>
 5   0  0.4959042E-05  0.2470988E+04  0.7818609E-02  0.8413395E-01
       -2   -1    0    0    0  501  0.00000000000E+00  0.00000000000E+00  0.12171329597E+04  0.12171329597E+04  0.25500000920E-02 0.  1.
        2   -1    0    0  501    0  0.00000000000E+00  0.00000000000E+00 -0.12541320605E+04  0.12541320605E+04  0.25500000920E-02 0. -1.
    10030    2    1    2    0    0  0.00000000000E+00  0.00000000000E+00 -0.36999100812E+02  0.24712650202E+04  0.24709880345E+04 0.  0.
        4    1    3    3  502    0  0.68952338287E+03 -0.92742537540E+03 -0.45545072384E+03  0.12421744230E+04  0.12699999809E+01 0.  1.
       -4    1    3    3    0  502 -0.68952338287E+03  0.92742537540E+03  0.41845162303E+03  0.12290905972E+04  0.12699999809E+01 0. -1.
</event>
<event>
 5   0  0.4959347E-05  0.2441610E+04  0.7818609E-02  0.8424088E-01
       -2   -1    0    0    0  501  0.00000000000E+00  0.00000000000E+00  0.71756635188E+03  0.71756635189E+03  0.25500000920E-02 0. -1.
        2   -1    0    0  501    0  0.00000000000E+00  0.00000000000E+00 -0.20769722190E+04  0.20769722190E+04  0.25500000920E-02 0.  1.
    10030    2    1    2    0    0  0.00000000000E+00  0.00000000000E+00 -0.13594058671E+04  0.27945385709E+04  0.24416104342E+04 0.  0.
        3    1    3    3  502    0  0.11951829949E+04  0.11762651760E+03 -0.93063557016E+03  0.15193356981E+04  0.10100000352E+00 0. -1.
       -3    1    3    3    0  502 -0.11951829949E+04 -0.11762651760E+03 -0.42877029695E+03  0.12752028728E+04  0.10100000352E+00 0.  1.
</event>
<event>
 5   0  0.4995256E-05  0.2440335E+04  0.7818609E-02  0.8424555E-01
       -2   -1    0    0    0  501  0.00000000000E+00  0.00000000000E+00  0.16420128915E+04  0.16420128915E+04  0.25500000920E-02 0. -1.
        2   -1    0    0  501    0  0.00000000000E+00  0.00000000000E+00 -0.90669769938E+03  0.90669769938E+03  0.25500000920E-02 0.  1.
    10030    2    1    2    0    0  0.00000000000E+00  0.00000000000E+00  0.73531519216E+03  0.25487105909E+04  0.24403354778E+04 0.  0.
        2    1    3    3  502    0 -0.11290415769E+04  0.77626718446E+02  0.84403736197E+03  0.14117931357E+04  0.25500000920E-02 0.  1.
       -2    1    3    3    0  502  0.11290415769E+04 -0.77626718446E+02 -0.10872216981E+03  0.11369174552E+04  0.25500000920E-02 0. -1.
</event>
<event>
 5   0  0.5219468E-05  0.2430700E+04  0.7818609E-02  0.8428099E-01
        2   -1    0    0  501    0  0.00000000000E+00  0.00000000000E+00  0.16622260059E+04  0.16622260059E+04  0.25500000920E-02 0. -1.
       -2   -1    0    0    0  501  0.00000000000E+00  0.00000000000E+00 -0.88861270470E+03  0.88861270471E+03  0.25500000920E-02 0.  1.
    10030    2    1    2    0    0  0.00000000000E+00  0.00000000000E+00  0.77361330121E+03  0.25508387106E+04  0.24306996087E+04 0.  0.
        1    1    3    3  502    0 -0.81537213401E+03  0.43706943786E+03  0.12139337181E+04  0.15262688106E+04  0.50400001928E-02 0. -1.
       -1    1    3    3    0  502  0.81537213401E+03 -0.43706943786E+03 -0.44032041685E+03  0.10245699000E+04  0.50400001928E-02 0.  1.
</event>
<event>
 5   0  0.5024070E-05  0.2501409E+04  0.7818609E-02  0.8402484E-01
        2   -1    0    0  501    0  0.00000000000E+00  0.00000000000E+00  0.16241917029E+04  0.16241917029E+04  0.25500000920E-02 0.  1.
       -2   -1    0    0    0  501  0.00000000000E+00  0.00000000000E+00 -0.96310187341E+03  0.96310187341E+03  0.25500000920E-02 0. -1.
    10030    2    1    2    0    0  0.00000000000E+00  0.00000000000E+00  0.66108982951E+03  0.25872935763E+04  0.25014092603E+04 0.  0.
        5    1    3    3  502    0 -0.31662593793E+03  0.96915357634E+03  0.10797981592E+04  0.14850915102E+04  0.46999998093E+01 0.  1.
       -5    1    3    3    0  502  0.31662593793E+03 -0.96915357634E+03 -0.41870832973E+03  0.11022020661E+04  0.46999998093E+01 0. -1.
</event>
<event>
 5   0  0.4959347E-05  0.2110744E+04  0.7818609E-02  0.8556525E-01
        2   -1    0    0  501    0  0.00000000000E+00  0.00000000000E+00  0.25300307791E+04  0.25300307791E+04  0.25500000920E-02 0.  1.
       -2   -1    0    0    0  501  0.00000000000E+00  0.00000000000E+00 -0.44023573565E+03  0.44023573565E+03  0.25500000920E-02 0. -1.
    10030    2    1    2    0    0  0.00000000000E+00  0.00000000000E+00  0.20897950434E+04  0.29702665147E+04  0.21107439080E+04 0.  0.
        3    1    3    3  502    0  0.61387446746E+03 -0.82576348128E+03  0.71462858361E+03  0.12527654256E+04  0.10100000352E+00 0. -1.
       -3    1    3    3    0  502 -0.61387446746E+03  0.82576348128E+03  0.13751664598E+04  0.17175010892E+04  0.10100000352E+00 0.  1.
</event>
<event>
 5   0  0.2063930E-05  0.2503041E+04  0.7818609E-02  0.8401903E-01
       -1   -1    0    0    0  501  0.00000000000E+00  0.00000000000E+00  0.13455990936E+04  0.13455990936E+04  0.50400001928E-02 0. -1.
        1   -1    0    0  501    0  0.00000000000E+00  0.00000000000E+00 -0.11640197380E+04  0.11640197380E+04  0.50400001928E-02 0.  1.
    10030    2    1    2    0    0  0.00000000000E+00  0.00000000000E+00  0.18157935560E+03  0.25096188317E+04  0.25030412737E+04 0.  0.
        3    1    3    3  502    0 -0.90984792598E+03  0.10212551154E+03  0.94629095585E+03  0.13167078081E+04  0.10100000352E+00 0. -1.
       -3    1    3    3    0  502  0.90984792598E+03 -0.10212551154E+03 -0.76471160025E+03  0.11929110236E+04  0.10100000352E+00 0.  1.
</event>
<event>
 5   0  0.2063930E-05  0.2468065E+04  0.7818609E-02  0.8414452E-01
        1   -1    0    0  501    0  0.00000000000E+00  0.00000000000E+00  0.10662225220E+04  0.10662225220E+04  0.50400001928E-02 0.  1.
       -1   -1    0    0    0  501  0.00000000000E+00  0.00000000000E+00 -0.14282534161E+04  0.14282534161E+04  0.50400001928E-02 0. -1.
    10030    2    1    2    0    0  0.00000000000E+00  0.00000000000E+00 -0.36203089409E+03  0.24944759381E+04  0.24680647960E+04 0.  0.
        3    1    3    3  502    0 -0.80316942833E+03 -0.72815572222E+03 -0.77685276285E+03  0.13337136543E+04  0.10100000352E+00 0. -1.
       -3    1    3    3    0  502  0.80316942833E+03  0.72815572222E+03  0.41482186876E+03  0.11607622838E+04  0.10100000352E+00 0.  1.
</event>
<event>
 5   0  0.2066170E-05  0.2043705E+04  0.7818609E-02  0.8586456E-01
       -1   -1    0    0    0  501  0.00000000000E+00  0.00000000000E+00  0.11747999844E+04  0.11747999844E+04  0.50400001928E-02 0.  1.
        1   -1    0    0  501    0  0.00000000000E+00  0.00000000000E+00 -0.88881688584E+03  0.88881688586E+03  0.50400001928E-02 0. -1.
    10030    2    1    2    0    0  0.00000000000E+00  0.00000000000E+00  0.28598309854E+03  0.20636168702E+04  0.20437045419E+04 0.  0.
        5    1    3    3  502    0  0.30465971611E+03 -0.53231548897E+03  0.96825678545E+03  0.11461765200E+04  0.46999998093E+01 0.  1.
       -5    1    3    3    0  502 -0.30465971611E+03  0.53231548897E+03 -0.68227368691E+03  0.91744035025E+03  0.46999998093E+01 0. -1.
</event>
<event>
 5   0  0.2063930E-05  0.2268986E+04  0.7818609E-02  0.8490251E-01
       -1   -1    0    0    0  501  0.00000000000E+00  0.00000000000E+00  0.11996121387E+04  0.11996121387E+04  0.50400001928E-02 0. -1.
        1   -1    0    0  501    0  0.00000000000E+00  0.00000000000E+00 -0.10729088536E+04  0.10729088537E+04  0.50400001928E-02 0.  1.
    10030    2    1    2    0    0  0.00000000000E+00  0.00000000000E+00  0.12670328502E+03  0.22725209923E+04  0.22689861036E+04 0.  0.
        3    1    3    3  502    0  0.55922497007E+02 -0.72523994822E+03 -0.80862182346E+03  0.10876440464E+04  0.10100000352E+00 0.  1.
       -3    1    3    3    0  502 -0.55922497007E+02  0.72523994822E+03  0.93532510849E+03  0.11848769459E+04  0.10100000352E+00 0. -1.
</event>
<event>
 5   0  0.4995256E-05  0.2485124E+04  0.7818609E-02  0.8408304E-01
       -2   -1    0    0    0  501  0.00000000000E+00  0.00000000000E+00  0.99818732838E+03  0.99818732839E+03  0.25500000920E-02 0. -1.
        2   -1    0    0  501    0  0.00000000000E+00  0.00000000000E+00 -0.15467642895E+04  0.15467642895E+04  0.25500000920E-02 0.  1.
    10030    2    1    2    0    0  0.00000000000E+00  0.00000000000E+00 -0.54857696110E+03  0.25449516179E+04  0.24851241529E+04 0.  0.
        2    1    3    3  502    0 -0.12906979543E+03  0.23108665909E+03  0.96898169884E+03  0.10044827469E+04  0.25500000920E-02 0. -1.
       -2    1    3    3    0  502  0.12906979543E+03 -0.23108665909E+03 -0.15175586599E+04  0.15404688710E+04  0.25500000920E-02 0.  1.
</event>
<event>
 5   0  0.4959347E-05  0.2503182E+04  0.7818609E-02  0.8401853E-01
       -2   -1    0    0    0  501  0.00000000000E+00  0.00000000000E+00  0.13717406493E+04  0.13717406493E+04  0.25500000920E-02 0. -1.
        2   -1    0    0  501    0  0.00000000000E+00  0.00000000000E+00 -0.11419655129E+04  0.11419655129E+04  0.25500000920E-02 0.  1.
    10030    2    1    2    0    0  0.00000000000E+00  0.00000000000E+00  0.22977513646E+03  0.25137061622E+04  0.25031823858E+04 0.  0.
        3    1    3    3  502    0 -0.42341022576E+02 -0.99520360515E+03  0.87587128407E+03  0.13264137719E+04  0.10100000352E+00 0. -1.
       -3    1    3    3    0  502  0.42341022576E+02  0.99520360515E+03 -0.64609614761E+03  0.11872923903E+04  0.10100000352E+00 0.  1.
</event>
<event>
 5   0  0.2063930E-05  0.2643713E+04  0.7818609E-02  0.8353503E-01
        1   -1    0    0  501    0  0.00000000000E+00  0.00000000000E+00  0.19021228257E+04  0.19021228257E+04  0.50400001928E-02 0. -1.
       -1   -1    0    0    0  501  0.00000000000E+00  0.00000000000E+00 -0.91860745198E+03  0.91860745199E+03  0.50400001928E-02 0.  1.
    10030    2    1    2    0    0  0.00000000000E+00  0.00000000000E+00  0.98351537376E+03  0.28207302777E+04  0.26437126942E+04 0.  0.
        3    1    3    3  502    0 -0.93749728988E+03  0.72025831521E+03  0.11226456762E+04  0.16303393922E+04  0.10100000352E+00 0. -1.
       -3    1    3    3    0  502  0.93749728988E+03 -0.72025831521E+03 -0.13913030245E+03  0.11903908856E+04  0.10100000352E+00 0.  1.
</event>
<event>
 5   0  0.2036578E-05  0.2512488E+04  0.7818609E-02  0.8398550E-01
        1   -1    0    0  501    0  0.00000000000E+00  0.00000000000E+00  0.13905371752E+04  0.13905371752E+04  0.50400001928E-02 0. -1.
       -1   -1    0    0    0  501  0.00000000000E+00  0.00000000000E+00 -0.11349204731E+04  0.11349204731E+04  0.50400001928E-02 0.  1.
    10030    2    1    2    0    0  0.00000000000E+00  0.00000000000E+00  0.25561670208E+03  0.25254576483E+04  0.25124880965E+04 0.  0.
        2    1    3    3  502    0  0.98975420475E+03 -0.56605515229E+03 -0.40228220804E+03  0.12090751822E+04  0.25500000920E-02 0. -1.
       -2    1    3    3    0  502 -0.98975420475E+03  0.56605515229E+03  0.65789891012E+03  0.13163824662E+04  0.25500000920E-02 0.  1.
</event>
<event>
 5   0  0.4995256E-05  0.2488979E+04  0.7818609E-02  0.8406922E-01
       -2   -1    0    0    0  501  0.00000000000E+00  0.00000000000E+00  0.93434755459E+03  0.93434755459E+03  0.25500000920E-02 0.  1.
        2   -1    0    0  501    0  0.00000000000E+00  0.00000000000E+00 -0.16575777949E+04  0.16575777949E+04  0.25500000920E-02 0. -1.
    10030    2    1    2    0    0  0.00000000000E+00  0.00000000000E+00 -0.72323024031E+03  0.25919253495E+04  0.24889787136E+04 0.  0.
        2    1    3    3  502    0  0.66507504177E+02  0.22108712738E+03 -0.16350812527E+04  0.16513005386E+04  0.25500000920E-02 0. -1.
       -2    1    3    3    0  502 -0.66507504177E+02 -0.22108712738E+03  0.91185101238E+03  0.94062481085E+03  0.25500000920E-02 0.  1.
</event>
<event>
 5   0  0.2041718E-05  0.2513453E+04  0.7818609E-02  0.8398209E-01
       -1   -1    0    0    0  501  0.00000000000E+00  0.00000000000E+00  0.11885948660E+04  0.11885948660E+04  0.50400001928E-02 0.  1.
        1   -1    0    0  501    0  0.00000000000E+00  0.00000000000E+00 -0.13287632342E+04  0.13287632343E+04  0.50400001928E-02 0. -1.
    10030    2    1    2    0    0  0.00000000000E+00  0.00000000000E+00 -0.14016836821E+03  0.25173581003E+04  0.25134527315E+04 0.  0.
        4    1    3    3  502    0 -0.35306210183E+03  0.98274284136E+03  0.63023270874E+03  0.12196848856E+04  0.12699999809E+01 0.  1.
       -4    1    3    3    0  502  0.35306210183E+03 -0.98274284136E+03 -0.77040107695E+03  0.12976732147E+04  0.12699999809E+01 0. -1.
</event>
<event>
 5   0  0.5219468E-05  0.2464377E+04  0.7818609E-02  0.8415787E-01
       -2   -1    0    0    0  501  0.00000000000E+00  0.00000000000E+00  0.15852751951E+04  0.15852751951E+04  0.25500000920E-02 0. -1.
        2   -1    0    0  501    0  0.00000000000E+00  0.00000000000E+00 -0.95774427760E+03  0.95774427761E+03  0.25500000920E-02 0.  1.
    10030    2    1    2    0    0  0.00000000000E+00  0.00000000000E+00  0.62753091747E+03  0.25430194727E+04  0.24643767947E+04 0.  0.
        1    1    3    3  502    0 -0.78518846294E+03 -0.55418853834E+02  0.12920135236E+04  0.15129081653E+04  0.50400001928E-02 0. -1.
       -1    1    3    3    0  502  0.78518846294E+03  0.55418853834E+02 -0.66448260608E+03  0.10301113073E+04  0.50400001928E-02 0.  1.
</event>
<event>
 5   0  0.2041718E-05  0.2488128E+04  0.7818609E-02  0.8407227E-01
       -1   -1    0    0    0  501  0.00000000000E+00  0.00000000000E+00  0.56059312959E+03  0.56059312961E+03  0.50400001928E-02 0. -1.
        1   -1    0    0  501    0  0.00000000000E+00  0.00000000000E+00 -0.27608165156E+04  0.27608165156E+04  0.50400001928E-02 0.  1.
    10030    2    1    2    0    0  0.00000000000E+00  0.00000000000E+00 -0.22002233860E+04  0.33214096453E+04  0.24881276260E+04 0.  0.
        4    1    3    3  502    0 -0.10655955501E+04 -0.51433753120E+03 -0.16130623751E+04  0.20005021398E+04  0.12699999809E+01 0.  1.
       -4    1    3    3    0  502  0.10655955501E+04  0.51433753120E+03 -0.58716101090E+03  0.13209075055E+04  0.12699999809E+01 0. -1.
</event>
<event>
 5   0  0.2063930E-05  0.2423890E+04  0.7818609E-02  0.8430613E-01
        1   -1    0    0  501    0  0.00000000000E+00  0.00000000000E+00  0.10081523495E+04  0.10081523495E+04  0.50400001928E-02 0.  1.
       -1   -1    0    0    0  501  0.00000000000E+00  0.00000000000E+00 -0.14569332405E+04  0.14569332405E+04  0.50400001928E-02 0. -1.
    10030    2    1    2    0    0  0.00000000000E+00  0.00000000000E+00 -0.44878089101E+03  0.24650855901E+04  0.24238899889E+04 0.  0.
        3    1    3    3  502    0  0.29257441333E+03 -0.11722797890E+04 -0.12806550272E+03  0.12150063680E+04  0.10100000352E+00 0. -1.
       -3    1    3    3    0  502 -0.29257441333E+03  0.11722797890E+04 -0.32071538829E+03  0.12500792221E+04  0.10100000352E+00 0.  1.
</event>
<event>
 5   0  0.2036578E-05  0.2491896E+04  0.7818609E-02  0.8405878E-01
       -1   -1    0    0    0  501  0.00000000000E+00  0.00000000000E+00  0.15710512891E+04  0.15710512891E+04  0.50400001928E-02 0.  1.
        1   -1    0    0  501    0  0.00000000000E+00  0.00000000000E+00 -0.98811916991E+03  0.98811916992E+03  0.50400001928E-02 0. -1.
    10030    2    1    2    0    0  0.00000000000E+00  0.00000000000E+00  0.58293211923E+03  0.25591704591E+04  0.24918955803E+04 0.  0.
        2    1    3    3  502    0 -0.57373960459E+03 -0.33929736565E+03  0.13725417950E+04  0.15258344652E+04  0.25500000920E-02 0.  1.
       -2    1    3    3    0  502  0.57373960459E+03  0.33929736565E+03 -0.78960967574E+03  0.10333359939E+04  0.25500000920E-02 0. -1.
</event>
<event>
 5   0  0.5219468E-05  0.2527731E+04  0.7818609E-02  0.8393172E-01
        2   -1    0    0  501    0  0.00000000000E+00  0.00000000000E+00  0.17142143816E+04  0.17142143816E+04  0.25500000920E-02 0. -1.
       -2   -1    0    0    0  501  0.00000000000E+00  0.00000000000E+00 -0.93183006165E+03  0.93183006166E+03  0.25500000920E-02 0.  1.
    10030    2    1    2    0    0  0.00000000000E+00  0.00000000000E+00  0.78238431994E+03  0.26460444432E+04  0.25277313883E+04 0.  0.
        1    1    3    3  502    0  0.41661279881E+03  0.12836756352E+03  0.16330200638E+04  0.16902067874E+04  0.50400001928E-02 0. -1.
       -1    1    3    3    0  502 -0.41661279881E+03 -0.12836756352E+03 -0.85063574386E+03  0.95583765581E+03  0.50400001928E-02 0.  1.
</event>
<event>
 5   0  0.5024070E-05  0.2530890E+04  0.7818609E-02  0.8392063E-01
        2   -1    0    0  501    0  0.00000000000E+00  0.00000000000E+00  0.12627163072E+04  0.12627163072E+04  0.25500000920E-02 0. -1.
       -2   -1    0    0    0  501  0.00000000000E+00  0.00000000000E+00 -0.12681800833E+04  0.12681800833E+04  0.25500000920E-02 0.  1.
    10030    2    1    2    0    0  0.00000000000E+00  0.00000000000E+00 -0.54637761251E+01  0.25308963905E+04  0.25308904929E+04 0.  0.
        5    1    3    3  502    0 -0.38460972230E+03  0.11866340262E+04  0.21011745337E+03  0.12649886896E+04  0.46999998093E+01 0. -1.
       -5    1    3    3    0  502  0.38460972230E+03 -0.11866340262E+04 -0.21558122949E+03  0.12659077009E+04  0.46999998093E+01 0.  1.
</event>
<event>
 5   0  0.2066170E-05  0.2510362E+04  0.7818609E-02  0.8399303E-01
       -1   -1    0    0    0  501  0.00000000000E+00  0.00000000000E+00  0.11543011627E+04  0.11543011627E+04  0.50400001928E-02 0. -1.
        1   -1    0    0  501    0  0.00000000000E+00  0.00000000000E+00 -0.13648773641E+04  0.13648773641E+04  0.50400001928E-02 0.  1.
    10030    2    1    2    0    0  0.00000000000E+00  0.00000000000E+00 -0.21057620147E+03  0.25191785268E+04  0.25103621478E+04 0.  0.
        5    1    3    3  502    0  0.44819451951E+03 -0.78309841021E+03  0.77032197088E+03  0.11863976889E+04  0.46999998093E+01 0. -1.
       -5    1    3    3    0  502 -0.44819451951E+03  0.78309841021E+03 -0.98089817235E+03  0.13327808379E+04  0.46999998093E+01 0.  1.
</event>
<event>
 5   0  0.4959042E-05  0.2498968E+04  0.7818609E-02  0.8403353E-01
        2   -1    0    0  501    0  0.00000000000E+00  0.00000000000E+00  0.12026080577E+04  0.12026080577E+04  0.25500000920E-02 0.  1.
       -2   -1    0    0    0  501  0.00000000000E+00  0.00000000000E+00 -0.12981873068E+04  0.12981873068E+04  0.25500000920E-02 0. -1.
    10030    2    1    2    0    0  0.00000000000E+00  0.00000000000E+00 -0.95579249051E+02  0.25007953645E+04  0.24989681996E+04 0.  0.
        4    1    3    3  502    0 -0.72432294707E+03  0.22734211528E+03  0.94534756956E+03  0.12124404353E+04  0.12699999809E+01 0.  1.
       -4    1    3    3    0  502  0.72432294707E+03 -0.22734211528E+03 -0.10409268186E+04  0.12883549292E+04  0.12699999809E+01 0. -1.
</event>
<event>
 5   0  0.2081874E-05  0.2442971E+04  0.7818609E-02  0.8423589E-01
       -1   -1    0    0    0  501  0.00000000000E+00  0.00000000000E+00  0.16507297549E+04  0.16507297549E+04  0.50400001928E-02 0. -1.
        1   -1    0    0  501    0  0.00000000000E+00  0.00000000000E+00 -0.90385864545E+03  0.90385864547E+03  0.50400001928E-02 0.  1.
    10030    2    1    2    0    0  0.00000000000E+00  0.00000000000E+00  0.74687110940E+03  0.25545884003E+04  0.24429706181E+04 0.  0.
        1    1    3    3  502    0  0.23595082011E+03 -0.11092726818E+04  0.84789247528E+03  0.14160085882E+04  0.50400001928E-02 0. -1.
       -1    1    3    3    0  502 -0.23595082011E+03  0.11092726818E+04 -0.10102136588E+03  0.11385798121E+04  0.50400001928E-02 0.  1.
</event>
<event>
 5   0  0.2066170E-05  0.2018970E+04  0.7818609E-02  0.8597803E-01
       -1   -1    0    0    0  501  0.00000000000E+00  0.00000000000E+00  0.68206801096E+03  0.68206801098E+03  0.50400001928E-02 0. -1.
        1   -1    0    0  501    0  0.00000000000E+00  0.00000000000E+00 -0.14940735612E+04  0.14940735612E+04  0.50400001928E-02 0.  1.
    10030    2    1    2    0    0  0.00000000000E+00  0.00000000000E+00 -0.81200555021E+03  0.21761415722E+04  0.20189698186E+04 0.  0.
        5    1    3    3  502    0 -0.32936055129E+03  0.34935595174E+03  0.55110501167E+03  0.73093554958E+03  0.46999998093E+01 0. -1.
       -5    1    3    3    0  502  0.32936055129E+03 -0.34935595174E+03 -0.13631105619E+04  0.14452060226E+04  0.46999998093E+01 0.  1.
</event>
<event>
 5   0  0.2036578E-05  0.2454470E+04  0.7818609E-02  0.8419388E-01
       -1   -1    0    0    0  501  0.00000000000E+00  0.00000000000E+00  0.79470466216E+03  0.79470466217E+03  0.50400001928E-02 0. -1.
        1   -1    0    0  501    0  0.00000000000E+00  0.00000000000E+00 -0.18951767606E+04  0.18951767606E+04  0.50400001928E-02 0.  1.
    10030    2    1    2    0    0  0.00000000000E+00  0.00000000000E+00 -0.11004720984E+04  0.26898814228E+04  0.24544700506E+04 0.  0.
        2    1    3    3  502    0 -0.66122815642E+03 -0.18088342212E+03 -0.16657877818E+04  0.18013301811E+04  0.25500000920E-02 0.  1.
       -2    1    3    3    0  502  0.66122815642E+03  0.18088342212E+03  0.56531568337E+03  0.88855124169E+03  0.25500000920E-02 0. -1.
</event>
<event>
 5   0  0.2036578E-05  0.2483862E+04  0.7818609E-02  0.8408758E-01
        1   -1    0    0  501    0  0.00000000000E+00  0.00000000000E+00  0.30370156935E+04  0.30370156935E+04  0.50400001928E-02 0. -1.
       -1   -1    0    0    0  501  0.00000000000E+00  0.00000000000E+00 -0.50786440922E+03  0.50786440924E+03  0.50400001928E-02 0.  1.
    10030    2    1    2    0    0  0.00000000000E+00  0.00000000000E+00  0.25291512842E+04  0.35448801027E+04  0.24838616556E+04 0.  0.
        2    1    3    3  502    0 -0.94870295120E+03 -0.17484556948E+03  0.14829555926E+03  0.97601221082E+03  0.25500000920E-02 0.  1.
       -2    1    3    3    0  502  0.94870295120E+03  0.17484556948E+03  0.23808557250E+04  0.25688678919E+04  0.25500000920E-02 0. -1.
</event>
<event>
 5   0  0.2066170E-05  0.2479136E+04  0.7818609E-02  0.8410456E-01
        1   -1    0    0  501    0  0.00000000000E+00  0.00000000000E+00  0.26780699192E+04  0.26780699192E+04  0.50400001928E-02 0. -1.
       -1   -1    0    0    0  501  0.00000000000E+00  0.00000000000E+00 -0.57374482092E+03  0.57374482094E+03  0.50400001928E-02 0.  1.
    10030    2    1    2    0    0  0.00000000000E+00  0.00000000000E+00  0.21043250983E+04  0.32518147401E+04  0.24791359351E+04 0.  0.
        5    1    3    3  502    0 -0.55829717150E+03 -0.15187176488E+03 -0.38574769530E+03  0.69540214200E+03  0.46999998093E+01 0.  1.
       -5    1    3    3    0  502  0.55829717150E+03  0.15187176488E+03  0.24900727936E+04  0.25564125981E+04  0.46999998093E+01 0. -1.
</event>
<event>
 5   0  0.2066170E-05  0.2219333E+04  0.7818609E-02  0.8510424E-01
        1   -1    0    0  501    0  0.00000000000E+00  0.00000000000E+00  0.10847288237E+04  0.10847288237E+04  0.50400001928E-02 0. -1.
       -1   -1    0    0    0  501  0.00000000000E+00  0.00000000000E+00 -0.11351777200E+04  0.11351777200E+04  0.50400001928E-02 0.  1.
    10030    2    1    2    0    0  0.00000000000E+00  0.00000000000E+00 -0.50448896306E+02  0.22199065436E+04  0.22193332267E+04 0.  0.
        5    1    3    3  502    0 -0.22372434827E+03  0.10110442044E+04  0.37372057741E+03  0.11008869729E+04  0.46999998093E+01 0.  1.
       -5    1    3    3    0  502  0.22372434827E+03 -0.10110442044E+04 -0.42416947371E+03  0.11190195707E+04  0.46999998093E+01 0. -1.
</event>
<event>
 5   0  0.2036578E-05  0.2458183E+04  0.7818609E-02  0.8418036E-01
        1   -1    0    0  501    0  0.00000000000E+00  0.00000000000E+00  0.97205834660E+03  0.97205834661E+03  0.50400001928E-02 0.  1.
       -1   -1    0    0    0  501  0.00000000000E+00  0.00000000000E+00 -0.15540894872E+04  0.15540894872E+04  0.50400001928E-02 0. -1.
    10030    2    1    2    0    0  0.00000000000E+00  0.00000000000E+00 -0.58203114059E+03  0.25261478338E+04  0.24581827901E+04 0.  0.
        2    1    3    3  502    0  0.33977632804E+03  0.76548777507E+03  0.63343759786E+03  0.10500774625E+04  0.25500000920E-02 0.  1.
       -2    1    3    3    0  502 -0.33977632804E+03 -0.76548777507E+03 -0.12154687385E+04  0.14760703713E+04  0.25500000920E-02 0. -1.
</event>
<event>
 5   0  0.2036578E-05  0.2409441E+04  0.7818609E-02  0.8435977E-01
        1   -1    0    0  501    0  0.00000000000E+00  0.00000000000E+00  0.18751815142E+04  0.18751815142E+04  0.50400001928E-02 0. -1.
       -1   -1    0    0    0  501  0.00000000000E+00  0.00000000000E+00 -0.77397923447E+03  0.77397923448E+03  0.50400001928E-02 0.  1.
    10030    2    1    2    0    0  0.00000000000E+00  0.00000000000E+00  0.11012022797E+04  0.26491607487E+04  0.24094410579E+04 0.  0.
        2    1    3    3  502    0  0.80237980345E+03  0.76915444072E+03  0.10615273731E+04  0.15369620250E+04  0.25500000920E-02 0.  1.
       -2    1    3    3    0  502 -0.80237980345E+03 -0.76915444072E+03  0.39674906671E+02  0.11121987236E+04  0.25500000920E-02 0. -1.
</event>
<event>
 5   0  0.2036578E-05  0.2503258E+04  0.7818609E-02  0.8401826E-01
        1   -1    0    0  501    0  0.00000000000E+00  0.00000000000E+00  0.15468251712E+04  0.15468251712E+04  0.50400001928E-02 0. -1.
       -1   -1    0    0    0  501  0.00000000000E+00  0.00000000000E+00 -0.10127682599E+04  0.10127682599E+04  0.50400001928E-02 0.  1.
    10030    2    1    2    0    0  0.00000000000E+00  0.00000000000E+00  0.53405691130E+03  0.25595934311E+04  0.25032582264E+04 0.  0.
        2    1    3    3  502    0 -0.52379885721E+03 -0.92371607284E+03  0.94447841379E+03  0.14211460517E+04  0.25500000920E-02 0. -1.
       -2    1    3    3    0  502  0.52379885721E+03  0.92371607284E+03 -0.41042150249E+03  0.11384473794E+04  0.25500000920E-02 0.  1.
</event>
<event>
 5   0  0.5219468E-05  0.2267743E+04  0.7818609E-02  0.8490749E-01
       -2   -1    0    0    0  501  0.00000000000E+00  0.00000000000E+00  0.99810569395E+03  0.99810569396E+03  0.25500000920E-02 0. -1.
        2   -1    0    0  501    0  0.00000000000E+00  0.00000000000E+00 -0.12881040956E+04  0.12881040956E+04  0.25500000920E-02 0.  1.
    10030    2    1    2    0    0  0.00000000000E+00  0.00000000000E+00 -0.28999840165E+03  0.22862097896E+04  0.22677425182E+04 0.  0.
        1    1    3    3  502    0  0.10898572434E+04  0.54688472027E+02 -0.45554075857E+03  0.11824960984E+04  0.50400001928E-02 0. -1.
       -1    1    3    3    0  502 -0.10898572434E+04 -0.54688472027E+02  0.16554235693E+03  0.11037136911E+04  0.50400001928E-02 0.  1.
</event>
<event>
 5   0  0.2066170E-05  0.1908772E+04  0.7818609E-02  0.8650502E-01
        1   -1    0    0  501    0  0.00000000000E+00  0.00000000000E+00  0.11270307067E+04  0.11270307067E+04  0.50400001928E-02 0. -1.
       -1   -1    0    0    0  501  0.00000000000E+00  0.00000000000E+00 -0.80818796558E+03  0.80818796560E+03  0.50400001928E-02 0.  1.
    10030    2    1    2    0    0  0.00000000000E+00  0.00000000000E+00  0.31884274107E+03  0.19352186723E+04  0.19087720178E+04 0.  0.
        5    1    3    3  502    0 -0.24137347003E+03  0.21070725791E+03  0.10708608770E+04  0.11177762784E+04  0.46999998093E+01 0. -1.
       -5    1    3    3    0  502  0.24137347003E+03 -0.21070725791E+03 -0.75201813593E+03  0.81744239390E+03  0.46999998093E+01 0.  1.
</event>
<event>
 5   0  0.2036578E-05  0.2345989E+04  0.7818609E-02  0.8460006E-01
       -1   -1    0    0    0  501  0.00000000000E+00  0.00000000000E+00  0.82145451980E+03  0.82145451981E+03  0.50400001928E-02 0. -1.
        1   -1    0    0  501    0  0.00000000000E+00  0.00000000000E+00 -0.16749749732E+04  0.16749749732E+04  0.50400001928E-02 0.  1.
    10030    2    1    2    0    0  0.00000000000E+00  0.00000000000E+00 -0.85352045344E+03  0.24964294931E+04  0.23459887147E+04 0.  0.
        2    1    3    3  502    0 -0.83861897117E+03  0.43245189685E+03 -0.11683118220E+04  0.15017486258E+04  0.25500000920E-02 0.  1.
       -2    1    3    3    0  502  0.83861897117E+03 -0.43245189685E+03  0.31479136852E+03  0.99468086721E+03  0.25500000920E-02 0. -1.
</event>
<event>
 5   0  0.2081874E-05  0.1626510E+04  0.7818609E-02  0.8804426E-01
       -1   -1    0    0    0  501  0.00000000000E+00  0.00000000000E+00  0.48207250635E+03  0.48207250638E+03  0.50400001928E-02 0. -1.
        1   -1    0    0  501    0  0.00000000000E+00  0.00000000000E+00 -0.13719583792E+04  0.13719583792E+04  0.50400001928E-02 0.  1.
    10030    2    1    2    0    0  0.00000000000E+00  0.00000000000E+00 -0.88988587285E+03  0.18540308856E+04  0.16265096551E+04 0.  0.
        1    1    3    3  502    0  0.41178961503E+03  0.52192474646E+03 -0.97887480371E+03  0.11832886416E+04  0.50400001928E-02 0.  1.
       -1    1    3    3    0  502 -0.41178961503E+03 -0.52192474646E+03  0.88988930860E+02  0.67074224398E+03  0.50400001928E-02 0. -1.
</event>
<event>
 5   0  0.5024070E-05  0.2565922E+04  0.7818609E-02  0.8379870E-01
        2   -1    0    0  501    0  0.00000000000E+00  0.00000000000E+00  0.17213058999E+04  0.17213058999E+04  0.25500000920E-02 0.  1.
       -2   -1    0    0    0  501  0.00000000000E+00  0.00000000000E+00 -0.95624442438E+03  0.95624442439E+03  0.25500000920E-02 0. -1.
    10030    2    1    2    0    0  0.00000000000E+00  0.00000000000E+00  0.76506147550E+03  0.26775503243E+04  0.25659221886E+04 0.  0.
        5    1    3    3  502    0  0.11830154180E+04  0.12468415293E+03  0.88395097579E+03  0.14820469071E+04  0.46999998093E+01 0. -1.
       -5    1    3    3    0  502 -0.11830154180E+04 -0.12468415293E+03 -0.11888950029E+03  0.11955034172E+04  0.46999998093E+01 0.  1.
</event>
<event>
 5   0  0.5024070E-05  0.2462504E+04  0.7818609E-02  0.8416467E-01
        2   -1    0    0  501    0  0.00000000000E+00  0.00000000000E+00  0.10579879980E+04  0.10579879980E+04  0.25500000920E-02 0. -1.
       -2   -1    0    0    0  501  0.00000000000E+00  0.00000000000E+00 -0.14328908016E+04  0.14328908016E+04  0.25500000920E-02 0.  1.
    10030    2    1    2    0    0  0.00000000000E+00  0.00000000000E+00 -0.37490280360E+03  0.24908787996E+04  0.24625038238E+04 0.  0.
        5    1    3    3  502    0  0.45152537019E+03  0.21985214614E+03  0.94966809147E+03  0.10742912548E+04  0.46999998093E+01 0. -1.
       -5    1    3    3    0  502 -0.45152537019E+03 -0.21985214614E+03 -0.13245708951E+04  0.14165875448E+04  0.46999998093E+01 0.  1.
</event>
<event>
 5   0  0.4959042E-05  0.2532294E+04  0.7818609E-02  0.8391570E-01
        2   -1    0    0  501    0  0.00000000000E+00  0.00000000000E+00  0.60463048542E+03  0.60463048542E+03  0.25500000920E-02 0.  1.
       -2   -1    0    0    0  501  0.00000000000E+00  0.00000000000E+00 -0.26514177513E+04  0.26514177513E+04  0.25500000920E-02 0. -1.
    10030    2    1    2    0    0  0.00000000000E+00  0.00000000000E+00 -0.20467872659E+04  0.32560482367E+04  0.25322938234E+04 0.  0.
        4    1    3    3  502    0  0.25658459388E+02  0.35618817559E+03  0.53853348730E+03  0.64617977592E+03  0.12699999809E+01 0.  1.
       -4    1    3    3    0  502 -0.25658459388E+02 -0.35618817559E+03 -0.25853207532E+04  0.26098684608E+04  0.12699999809E+01 0. -1.
</event>
<event>
 5   0  0.2066170E-05  0.2553656E+04  0.7818609E-02  0.8384116E-01
        1   -1    0    0  501    0  0.00000000000E+00  0.00000000000E+00  0.17937418198E+04  0.17937418198E+04  0.50400001928E-02 0. -1.
       -1   -1    0    0    0  501  0.00000000000E+00  0.00000000000E+00 -0.90887624544E+03  0.90887624546E+03  0.50400001928E-02 0.  1.
    10030    2    1    2    0    0  0.00000000000E+00  0.00000000000E+00  0.88486557440E+03  0.27026180653E+04  0.25536556781E+04 0.  0.
        5    1    3    3  502    0  0.11529433034E+03 -0.12678333438E+04  0.33888329805E+03  0.13174058410E+04  0.46999998093E+01 0. -1.
       -5    1    3    3    0  502 -0.11529433034E+03  0.12678333438E+04  0.54598227635E+03  0.13852122243E+04  0.46999998093E+01 0.  1.
</event>
<event>
 5   0  0.4995256E-05  0.1753377E+04  0.7818609E-02  0.8731494E-01
        2   -1    0    0  501    0  0.00000000000E+00  0.00000000000E+00  0.17935439459E+04  0.17935439459E+04  0.25500000920E-02 0. -1.
       -2   -1    0    0    0  501  0.00000000000E+00  0.00000000000E+00 -0.42852735484E+03  0.42852735485E+03  0.25500000920E-02 0.  1.
    10030    2    1    2    0    0  0.00000000000E+00  0.00000000000E+00  0.13650165911E+04  0.22220713008E+04  0.17533769052E+04 0.  0.
        2    1    3    3  502    0 -0.34511029456E+03  0.72592125093E+03  0.11261026018E+04  0.13835352716E+04  0.25500000920E-02 0. -1.
       -2    1    3    3    0  502  0.34511029456E+03 -0.72592125093E+03  0.23891398929E+03  0.83853602919E+03  0.25500000920E-02 0.  1.
</event>
<event>
 5   0  0.2036578E-05  0.2523929E+04  0.7818609E-02  0.8394510E-01
        1   -1    0    0  501    0  0.00000000000E+00  0.00000000000E+00  0.14013396707E+04  0.14013396707E+04  0.50400001928E-02 0. -1.
       -1   -1    0    0    0  501  0.00000000000E+00  0.00000000000E+00 -0.11364517546E+04  0.11364517546E+04  0.50400001928E-02 0.  1.
    10030    2    1    2    0    0  0.00000000000E+00  0.00000000000E+00  0.26488791607E+03  0.25377914253E+04  0.25239294186E+04 0.  0.
        2    1    3    3  502    0 -0.18274723362E+03 -0.11758411902E+04 -0.29004931895E+03  0.12247969886E+04  0.25500000920E-02 0.  1.
       -2    1    3    3    0  502  0.18274723362E+03  0.11758411902E+04  0.55493723502E+03  0.13129944367E+04  0.25500000920E-02 0. -1.
</event>
<event>
 5   0  0.4995256E-05  0.2411899E+04  0.7818609E-02  0.8435062E-01
       -2   -1    0    0    0  501  0.00000000000E+00  0.00000000000E+00  0.24055615285E+04  0.24055615285E+04  0.25500000920E-02 0. -1.
        2   -1    0    0  501    0  0.00000000000E+00  0.00000000000E+00 -0.60456344603E+03  0.60456344604E+03  0.25500000920E-02 0.  1.
    10030    2    1    2    0    0  0.00000000000E+00  0.00000000000E+00  0.18009980824E+04  0.30101249745E+04  0.24118993074E+04 0.  0.
        2    1    3    3  502    0  0.83547891681E+03 -0.50609424085E+03  0.17831297556E+04  0.20331522634E+04  0.25500000920E-02 0. -1.
       -2    1    3    3    0  502 -0.83547891681E+03  0.50609424085E+03  0.17868326843E+02  0.97697271106E+03  0.25500000920E-02 0.  1.
</event>
<event>
 5   0  0.2066170E-05  0.2899826E+04  0.7818609E-02  0.8272929E-01
        1   -1    0    0  501    0  0.00000000000E+00  0.00000000000E+00  0.18035958443E+04  0.18035958443E+04  0.50400001928E-02 0. -1.
       -1   -1    0    0    0  501  0.00000000000E+00  0.00000000000E+00 -0.11655869187E+04  0.11655869187E+04  0.50400001928E-02 0.  1.
    10030    2    1    2    0    0  0.00000000000E+00  0.00000000000E+00  0.63800892561E+03  0.29691827631E+04  0.28998260105E+04 0.  0.
        5    1    3    3  502    0  0.50949400195E+03  0.55194617031E+02 -0.10697520406E+04  0.11861796247E+04  0.46999998093E+01 0.  1.
       -5    1    3    3    0  502 -0.50949400195E+03 -0.55194617031E+02  0.17077609662E+04  0.17830031384E+04  0.46999998093E+01 0. -1.
</event>
<event>
 5   0  0.4959042E-05  0.2502317E+04  0.7818609E-02  0.8402161E-01
        2   -1    0    0  501    0  0.00000000000E+00  0.00000000000E+00  0.16425229768E+04  0.16425229768E+04  0.25500000920E-02 0.  1.
       -2   -1    0    0    0  501  0.00000000000E+00  0.00000000000E+00 -0.95304425611E+03  0.95304425611E+03  0.25500000920E-02 0. -1.
    10030    2    1    2    0    0  0.00000000000E+00  0.00000000000E+00  0.68947872071E+03  0.25955672329E+04  0.25023165975E+04 0.  0.
        4    1    3    3  502    0  0.90093972834E+02 -0.77806795564E+03  0.13567454752E+04  0.15666098956E+04  0.12699999809E+01 0.  1.
       -4    1    3    3    0  502 -0.90093972834E+02  0.77806795564E+03 -0.66726675450E+03  0.10289573374E+04  0.12699999809E+01 0. -1.
</event>
<event>
 5   0  0.2081874E-05  0.2455362E+04  0.7818609E-02  0.8419063E-01
       -1   -1    0    0    0  501  0.00000000000E+00  0.00000000000E+00  0.85808252253E+03  0.85808252254E+03  0.50400001928E-02 0.  1.
        1   -1    0    0  501    0  0.00000000000E+00  0.00000000000E+00 -0.17564747292E+04  0.17564747292E+04  0.50400001928E-02 0. -1.
    10030    2    1    2    0    0  0.00000000000E+00  0.00000000000E+00 -0.89839220666E+03  0.26145572517E+04  0.24553616975E+04 0.  0.
        1    1    3    3  502    0 -0.54732673749E+03  0.93744116593E+03 -0.10598196200E+04  0.15170959508E+04  0.50400001928E-02 0. -1.
       -1    1    3    3    0  502  0.54732673749E+03 -0.93744116593E+03  0.16142741332E+03  0.10974613009E+04  0.50400001928E-02 0.  1.
</event>
<event>
 5   0  0.2066170E-05  0.2380529E+04  0.7818609E-02  0.8446829E-01
        1   -1    0    0  501    0  0.00000000000E+00  0.00000000000E+00  0.71337571416E+03  0.71337571418E+03  0.50400001928E-02 0. -1.
       -1   -1    0    0    0  501  0.00000000000E+00  0.00000000000E+00 -0.19859509363E+04  0.19859509363E+04  0.50400001928E-02 0.  1.
    10030    2    1    2    0    0  0.00000000000E+00  0.00000000000E+00 -0.12725752222E+04  0.26993266505E+04  0.23805286535E+04 0.  0.
        5    1    3    3  502    0 -0.18843425868E+03 -0.18250615515E+03 -0.19527529645E+04  0.19703000271E+04  0.46999998093E+01 0.  1.
       -5    1    3    3    0  502  0.18843425868E+03  0.18250615515E+03  0.68017774231E+03  0.72902662341E+03  0.46999998093E+01 0. -1.
</event>
<event>
 5   0  0.2081874E-05  0.2561942E+04  0.7818609E-02  0.8381245E-01
        1   -1    0    0  501    0  0.00000000000E+00  0.00000000000E+00  0.16163727355E+04  0.16163727355E+04  0.50400001928E-02 0. -1.
       -1   -1    0    0    0  501  0.00000000000E+00  0.00000000000E+00 -0.10151658260E+04  0.10151658260E+04  0.50400001928E-02 0.  1.
    10030    2    1    2    0    0  0.00000000000E+00  0.00000000000E+00  0.60120690947E+03  0.26315385615E+04  0.25619417348E+04 0.  0.
        1    1    3    3  502    0 -0.42911911695E+03  0.11206341566E+03 -0.93378512583E+03  0.10337582343E+04  0.50400001928E-02 0.  1.
       -1    1    3    3    0  502  0.42911911695E+03 -0.11206341566E+03  0.15349920353E+04  0.15977803272E+04  0.50400001928E-02 0. -1.
</event>
<event>
 5   0  0.4995256E-05  0.2505289E+04  0.7818609E-02  0.8401104E-01
       -2   -1    0    0    0  501  0.00000000000E+00  0.00000000000E+00  0.89801752566E+03  0.89801752567E+03  0.25500000920E-02 0.  1.
        2   -1    0    0  501    0  0.00000000000E+00  0.00000000000E+00 -0.17473136426E+04  0.17473136426E+04  0.25500000920E-02 0. -1.
    10030    2    1    2    0    0  0.00000000000E+00  0.00000000000E+00 -0.84929611690E+03  0.26453311682E+04  0.25052890243E+04 0.  0.
        2    1    3    3  502    0  0.39290651045E+03  0.30197749664E+03 -0.16394144647E+04  0.17126720998E+04  0.25500000920E-02 0. -1.
       -2    1    3    3    0  502 -0.39290651045E+03 -0.30197749664E+03  0.79011834778E+03  0.93265906843E+03  0.25500000920E-02 0.  1.
</event>
<event>
 5   0  0.4959347E-05  0.2901664E+04  0.7818609E-02  0.8272383E-01
        2   -1    0    0  501    0  0.00000000000E+00  0.00000000000E+00  0.23373833606E+04  0.23373833606E+04  0.25500000920E-02 0.  1.
       -2   -1    0    0    0  501  0.00000000000E+00  0.00000000000E+00 -0.90054247969E+03  0.90054247970E+03  0.25500000920E-02 0. -1.
    10030    2    1    2    0    0  0.00000000000E+00  0.00000000000E+00  0.14368408810E+04  0.32379258403E+04  0.29016636660E+04 0.  0.
        3    1    3    3  502    0 -0.10176865566E+04  0.51418701727E+03  0.17195130919E+04  0.20632012746E+04  0.10100000352E+00 0.  1.
       -3    1    3    3    0  502  0.10176865566E+04 -0.51418701727E+03 -0.28267221098E+03  0.11747245657E+04  0.10100000352E+00 0. -1.
</event>
<event>
 5   0  0.2066170E-05  0.2464267E+04  0.7818609E-02  0.8415827E-01
       -1   -1    0    0    0  501  0.00000000000E+00  0.00000000000E+00  0.11085477151E+04  0.11085477151E+04  0.50400001928E-02 0.  1.
        1   -1    0    0  501    0  0.00000000000E+00  0.00000000000E+00 -0.13694973709E+04  0.13694973709E+04  0.50400001928E-02 0. -1.
    10030    2    1    2    0    0  0.00000000000E+00  0.00000000000E+00 -0.26094965586E+03  0.24780450860E+04  0.24642671782E+04 0.  0.
        5    1    3    3  502    0 -0.60985981295E+03 -0.69561558591E+02 -0.12047940864E+04  0.13521533502E+04  0.46999998093E+01 0. -1.
       -5    1    3    3    0  502  0.60985981295E+03  0.69561558591E+02  0.94384443049E+03  0.11258917358E+04  0.46999998093E+01 0.  1.
</event>
<event>
 5   0  0.5024070E-05  0.1582909E+04  0.7818609E-02  0.8831117E-01
       -2   -1    0    0    0  501  0.00000000000E+00  0.00000000000E+00  0.55613885712E+03  0.55613885712E+03  0.25500000920E-02 0.  1.
        2   -1    0    0  501    0  0.00000000000E+00  0.00000000000E+00 -0.11263379745E+04  0.11263379746E+04  0.25500000920E-02 0. -1.
    10030    2    1    2    0    0  0.00000000000E+00  0.00000000000E+00 -0.57019911743E+03  0.16824768317E+04  0.15829091116E+04 0.  0.
        5    1    3    3  502    0 -0.27370562772E+03  0.16422579913E+03  0.48467420084E+03  0.58035855701E+03  0.46999998093E+01 0.  1.
       -5    1    3    3    0  502  0.27370562772E+03 -0.16422579913E+03 -0.10548733183E+04  0.11021182747E+04  0.46999998093E+01 0. -1.
</event>
<event>
 5   0  0.5024070E-05  0.2121328E+04  0.7818609E-02  0.8551906E-01
       -2   -1    0    0    0  501  0.00000000000E+00  0.00000000000E+00  0.16577217903E+04  0.16577217903E+04  0.25500000920E-02 0. -1.
        2   -1    0    0  501    0  0.00000000000E+00  0.00000000000E+00 -0.67864688539E+03  0.67864688539E+03  0.25500000920E-02 0.  1.
    10030    2    1    2    0    0  0.00000000000E+00  0.00000000000E+00  0.97907490495E+03  0.23363686757E+04  0.21213276313E+04 0.  0.
        5    1    3    3  502    0 -0.59337544312E+03  0.39992221845E+03  0.13518155806E+04  0.15295292254E+04  0.46999998093E+01 0. -1.
       -5    1    3    3    0  502  0.59337544312E+03 -0.39992221845E+03 -0.37274067568E+03  0.80683945033E+03  0.46999998093E+01 0.  1.
</event>
<event>
 5   0  0.5024070E-05  0.2511284E+04  0.7818609E-02  0.8398977E-01
        2   -1    0    0  501    0  0.00000000000E+00  0.00000000000E+00  0.17004350746E+04  0.17004350746E+04  0.25500000920E-02 0. -1.
       -2   -1    0    0    0  501  0.00000000000E+00  0.00000000000E+00 -0.92719594365E+03  0.92719594365E+03  0.25500000920E-02 0.  1.
    10030    2    1    2    0    0  0.00000000000E+00  0.00000000000E+00  0.77323913095E+03  0.26276310183E+04  0.25112837383E+04 0.  0.
        5    1    3    3  502    0  0.11398550753E+04 -0.43271901499E+03  0.72547896995E+02  0.12213929040E+04  0.46999998093E+01 0.  1.
       -5    1    3    3    0  502 -0.11398550753E+04  0.43271901499E+03  0.70069123396E+03  0.14062381142E+04  0.46999998093E+01 0. -1.
</event>
<event>
 5   0  0.2081874E-05  0.2523037E+04  0.7818609E-02  0.8394824E-01
       -1   -1    0    0    0  501  0.00000000000E+00  0.00000000000E+00  0.20593467289E+04  0.20593467289E+04  0.50400001928E-02 0.  1.
        1   -1    0    0  501    0  0.00000000000E+00  0.00000000000E+00 -0.77278310199E+03  0.77278310201E+03  0.50400001928E-02 0. -1.
    10030    2    1    2    0    0  0.00000000000E+00  0.00000000000E+00  0.12865636269E+04  0.28321298310E+04  0.25230365461E+04 0.  0.
        1    1    3    3  502    0 -0.40280928689E+03  0.11231534932E+04  0.18360225292E+03  0.12072443324E+04  0.50400001928E-02 0. -1.
       -1    1    3    3    0  502  0.40280928689E+03 -0.11231534932E+04  0.11029613740E+04  0.16248854986E+04  0.50400001928E-02 0.  1.
</event>
<event>
 5   0  0.4959042E-05  0.2499815E+04  0.7818609E-02  0.8403051E-01
       -2   -1    0    0    0  501  0.00000000000E+00  0.00000000000E+00  0.11038973615E+04  0.11038973615E+04  0.25500000920E-02 0.  1.
        2   -1    0    0  501    0  0.00000000000E+00  0.00000000000E+00 -0.14152304982E+04  0.14152304982E+04  0.25500000920E-02 0. -1.
    10030    2    1    2    0    0  0.00000000000E+00  0.00000000000E+00 -0.31133313669E+03  0.25191278598E+04  0.24998153635E+04 0.  0.
        4    1    3    3  502    0 -0.47330824539E+03  0.17156417955E+03  0.99720523620E+03  0.11170831925E+04  0.12699999809E+01 0.  1.
       -4    1    3    3    0  502  0.47330824539E+03 -0.17156417955E+03 -0.13085383729E+04  0.14020446673E+04  0.12699999809E+01 0. -1.
</event>
<event>
 5   0  0.2081874E-05  0.2571289E+04  0.7818609E-02  0.8378019E-01
       -1   -1    0    0    0  501  0.00000000000E+00  0.00000000000E+00  0.95717401293E+03  0.95717401294E+03  0.50400001928E-02 0.  1.
        1   -1    0    0  501    0  0.00000000000E+00  0.00000000000E+00 -0.17268356037E+04  0.17268356037E+04  0.50400001928E-02 0. -1.
    10030    2    1    2    0    0  0.00000000000E+00  0.00000000000E+00 -0.76966159076E+03  0.26840096166E+04  0.25712892988E+04 0.  0.
        1    1    3    3  502    0  0.79575689614E+03 -0.91794300454E+03 -0.82402963155E+03  0.14679486473E+04  0.50400001928E-02 0.  1.
       -1    1    3    3    0  502 -0.79575689614E+03  0.91794300454E+03  0.54368040784E+02  0.12160609694E+04  0.50400001928E-02 0. -1.
</event>
<event>
 5   0  0.2063930E-05  0.1799306E+04  0.7818609E-02  0.8706669E-01
       -1   -1    0    0    0  501  0.00000000000E+00  0.00000000000E+00  0.84492738458E+03  0.84492738459E+03  0.50400001928E-02 0.  1.
        1   -1    0    0  501    0  0.00000000000E+00  0.00000000000E+00 -0.95792266967E+03  0.95792266968E+03  0.50400001928E-02 0. -1.
    10030    2    1    2    0    0  0.00000000000E+00  0.00000000000E+00 -0.11299528509E+03  0.18028500543E+04  0.17993055282E+04 0.  0.
        3    1    3    3  502    0  0.51361351529E+03  0.72166865766E+03 -0.21419444195E+03  0.91130881906E+03  0.10100000352E+00 0. -1.
       -3    1    3    3    0  502 -0.51361351529E+03 -0.72166865766E+03  0.10119915686E+03  0.89154123521E+03  0.10100000352E+00 0.  1.
</event>
<event>
 5   0  0.2036578E-05  0.2285302E+04  0.7818609E-02  0.8483739E-01
       -1   -1    0    0    0  501  0.00000000000E+00  0.00000000000E+00  0.18388824269E+04  0.18388824269E+04  0.50400001928E-02 0.  1.
        1   -1    0    0  501    0  0.00000000000E+00  0.00000000000E+00 -0.71002410053E+03  0.71002410055E+03  0.50400001928E-02 0. -1.
    10030    2    1    2    0    0  0.00000000000E+00  0.00000000000E+00  0.11288583264E+04  0.25489065275E+04  0.22853015916E+04 0.  0.
        2    1    3    3  502    0 -0.40030015866E+03  0.18879878302E+03  0.17393971263E+04  0.17948224315E+04  0.25500000920E-02 0.  1.
       -2    1    3    3    0  502  0.40030015866E+03 -0.18879878302E+03 -0.61053879997E+03  0.75408409595E+03  0.25500000920E-02 0. -1.
</event>
<event>
 5   0  0.4959042E-05  0.2442260E+04  0.7818609E-02  0.8423849E-01
        2   -1    0    0  501    0  0.00000000000E+00  0.00000000000E+00  0.23233292246E+04  0.23233292246E+04  0.25500000920E-02 0.  1.
       -2   -1    0    0    0  501  0.00000000000E+00  0.00000000000E+00 -0.64181988081E+03  0.64181988082E+03  0.25500000920E-02 0. -1.
    10030    2    1    2    0    0  0.00000000000E+00  0.00000000000E+00  0.16815093438E+04  0.29651491055E+04  0.24422603351E+04 0.  0.
        4    1    3    3  502    0  0.30188133649E+03 -0.85335627100E+03  0.18358785992E+04  0.20469003666E+04  0.12699999809E+01 0.  1.
       -4    1    3    3    0  502 -0.30188133649E+03  0.85335627100E+03 -0.15436925541E+03  0.91824873890E+03  0.12699999809E+01 0. -1.
</event>
<event>
 5   0  0.2041718E-05  0.2379472E+04  0.7818609E-02  0.8447229E-01
       -1   -1    0    0    0  501  0.00000000000E+00  0.00000000000E+00  0.15608400769E+04  0.15608400769E+04  0.50400001928E-02 0.  1.
        1   -1    0    0  501    0  0.00000000000E+00  0.00000000000E+00 -0.90686509593E+03  0.90686509595E+03  0.50400001928E-02 0. -1.
    10030    2    1    2    0    0  0.00000000000E+00  0.00000000000E+00  0.65397498096E+03  0.24677051729E+04  0.23794716944E+04 0.  0.
        4    1    3    3  502    0 -0.46727223655E+03 -0.89612847260E+03  0.97802353054E+03  0.14063858722E+04  0.12699999809E+01 0.  1.
       -4    1    3    3    0  502  0.46727223655E+03  0.89612847260E+03 -0.32404854958E+03  0.10613193006E+04  0.12699999809E+01 0. -1.
</event>
<event>
 5   0  0.2063930E-05  0.2469971E+04  0.7818609E-02  0.8413762E-01
        1   -1    0    0  501    0  0.00000000000E+00  0.00000000000E+00  0.67530933488E+03  0.67530933490E+03  0.50400001928E-02 0.  1.
       -1   -1    0    0    0  501  0.00000000000E+00  0.00000000000E+00 -0.22585040467E+04  0.22585040467E+04  0.50400001928E-02 0. -1.
    10030    2    1    2    0    0  0.00000000000E+00  0.00000000000E+00 -0.15831947118E+04  0.29338133816E+04  0.24699707412E+04 0.  0.
        3    1    3    3  502    0  0.11389723301E+04 -0.36339644854E+03 -0.42381499920E+03  0.12684376655E+04  0.10100000352E+00 0.  1.
       -3    1    3    3    0  502 -0.11389723301E+04  0.36339644854E+03 -0.11593797126E+04  0.16653757161E+04  0.10100000352E+00 0. -1.
</event>
<event>
 5   0  0.5219468E-05  0.2486768E+04  0.7818609E-02  0.8407715E-01
        2   -1    0    0  501    0  0.00000000000E+00  0.00000000000E+00  0.28926237081E+04  0.28926237081E+04  0.25500000920E-02 0. -1.
       -2   -1    0    0    0  501  0.00000000000E+00  0.00000000000E+00 -0.53446411147E+03  0.53446411148E+03  0.25500000920E-02 0.  1.
    10030    2    1    2    0    0  0.00000000000E+00  0.00000000000E+00  0.23581595967E+04  0.34270878196E+04  0.24867678299E+04 0.  0.
        1    1    3    3  502    0  0.33980376955E+03 -0.56970175699E+03  0.26283955570E+04  0.27108098233E+04  0.50400001928E-02 0. -1.
       -1    1    3    3    0  502 -0.33980376955E+03  0.56970175699E+03 -0.27023596037E+03  0.71627799633E+03  0.50400001928E-02 0.  1.
</event>
<event>
 5   0  0.5024070E-05  0.2514559E+04  0.7818609E-02  0.8397817E-01
       -2   -1    0    0    0  501  0.00000000000E+00  0.00000000000E+00  0.13734816164E+04  0.13734816164E+04  0.25500000920E-02 0. -1.
        2   -1    0    0  501    0  0.00000000000E+00  0.00000000000E+00 -0.11509084072E+04  0.11509084072E+04  0.25500000920E-02 0.  1.
    10030    2    1    2    0    0  0.00000000000E+00  0.00000000000E+00  0.22257320917E+03  0.25243900236E+04  0.25145588396E+04 0.  0.
        5    1    3    3  502    0  0.59869030649E+03  0.11047856017E+04  0.69312364484E+02  0.12584941806E+04  0.46999998093E+01 0.  1.
       -5    1    3    3    0  502 -0.59869030649E+03 -0.11047856017E+04  0.15326084469E+03  0.12658958430E+04  0.46999998093E+01 0. -1.
</event>
<event>
 5   0  0.2041718E-05  0.2514342E+04  0.7818609E-02  0.8397894E-01
        1   -1    0    0  501    0  0.00000000000E+00  0.00000000000E+00  0.24155371326E+04  0.24155371326E+04  0.50400001928E-02 0.  1.
       -1   -1    0    0    0  501  0.00000000000E+00  0.00000000000E+00 -0.65429722005E+03  0.65429722007E+03  0.50400001928E-02 0. -1.
    10030    2    1    2    0    0  0.00000000000E+00  0.00000000000E+00  0.17612399125E+04  0.30698343526E+04  0.25143422446E+04 0.  0.
        4    1    3    3  502    0 -0.34842424764E+03 -0.67918175949E+03  0.21001996597E+04  0.22346202233E+04  0.12699999809E+01 0.  1.
       -4    1    3    3    0  502  0.34842424764E+03  0.67918175949E+03 -0.33895974719E+03  0.83521412936E+03  0.12699999809E+01 0. -1.
</event>
<event>
 5   0  0.4959042E-05  0.2537064E+04  0.7818609E-02  0.8389899E-01
        2   -1    0    0  501    0  0.00000000000E+00  0.00000000000E+00  0.65126573018E+03  0.65126573019E+03  0.25500000920E-02 0.  1.
       -2   -1    0    0    0  501  0.00000000000E+00  0.00000000000E+00 -0.24708398628E+04  0.24708398628E+04  0.25500000920E-02 0. -1.
    10030    2    1    2    0    0  0.00000000000E+00  0.00000000000E+00 -0.18195741326E+04  0.31221055930E+04  0.25370639152E+04 0.  0.
        4    1    3    3  502    0  0.11738863229E+03  0.23104462995E+03  0.61834107777E+03  0.67045433355E+03  0.12699999809E+01 0.  1.
       -4    1    3    3    0  502 -0.11738863229E+03 -0.23104462995E+03 -0.24379152103E+04  0.24516512594E+04  0.12699999809E+01 0. -1.
</event>
<event>
 5   0  0.4995256E-05  0.2472214E+04  0.7818609E-02  0.8412952E-01
       -2   -1    0    0    0  501  0.00000000000E+00  0.00000000000E+00  0.65250208606E+03  0.65250208607E+03  0.25500000920E-02 0.  1.
        2   -1    0    0  501    0  0.00000000000E+00  0.00000000000E+00 -0.23416943408E+04  0.23416943408E+04  0.25500000920E-02 0. -1.
    10030    2    1    2    0    0  0.00000000000E+00  0.00000000000E+00 -0.16891922548E+04  0.29941964269E+04  0.24722139408E+04 0.  0.
        2    1    3    3  502    0 -0.37862303512E+03 -0.97568356442E+03 -0.47958353882E+02  0.10476706660E+04  0.25500000920E-02 0.  1.
       -2    1    3    3    0  502  0.37862303512E+03  0.97568356442E+03 -0.16412339009E+04  0.19465257610E+04  0.25500000920E-02 0. -1.
</event>
<event>
 5   0  0.2081874E-05  0.2613359E+04  0.7818609E-02  0.8363678E-01
       -1   -1    0    0    0  501  0.00000000000E+00  0.00000000000E+00  0.16600112955E+04  0.16600112955E+04  0.50400001928E-02 0.  1.
        1   -1    0    0  501    0  0.00000000000E+00  0.00000000000E+00 -0.10285540464E+04  0.10285540464E+04  0.50400001928E-02 0. -1.
    10030    2    1    2    0    0  0.00000000000E+00  0.00000000000E+00  0.63145724911E+03  0.26885653418E+04  0.26133590147E+04 0.  0.
        1    1    3    3  502    0  0.12592183541E+04  0.21182798063E+03  0.30422450430E+02  0.12772734564E+04  0.50400001928E-02 0. -1.
       -1    1    3    3    0  502 -0.12592183541E+04 -0.21182798063E+03  0.60103479868E+03  0.14112918855E+04  0.50400001928E-02 0.  1.
</event>
<event>
 5   0  0.4995256E-05  0.2469021E+04  0.7818609E-02  0.8414106E-01
        2   -1    0    0  501    0  0.00000000000E+00  0.00000000000E+00  0.13221240003E+04  0.13221240003E+04  0.25500000920E-02 0.  1.
       -2   -1    0    0    0  501  0.00000000000E+00  0.00000000000E+00 -0.11527027934E+04  0.11527027934E+04  0.25500000920E-02 0. -1.
    10030    2    1    2    0    0  0.00000000000E+00  0.00000000000E+00  0.16942120692E+03  0.24748267938E+04  0.24690208816E+04 0.  0.
        2    1    3    3  502    0 -0.45086922974E+03  0.91088725039E+03  0.78708468959E+03  0.12854963842E+04  0.25500000920E-02 0.  1.
       -2    1    3    3    0  502  0.45086922974E+03 -0.91088725039E+03 -0.61766348267E+03  0.11893304095E+04  0.25500000920E-02 0. -1.
</event>
<event>
 5   0  0.2036578E-05  0.2306868E+04  0.7818609E-02  0.8475218E-01
        1   -1    0    0  501    0  0.00000000000E+00  0.00000000000E+00  0.15017958583E+04  0.15017958583E+04  0.50400001928E-02 0. -1.
       -1   -1    0    0    0  501  0.00000000000E+00  0.00000000000E+00 -0.88587951209E+03  0.88587951210E+03  0.50400001928E-02 0.  1.
    10030    2    1    2    0    0  0.00000000000E+00  0.00000000000E+00  0.61591634620E+03  0.23876753704E+04  0.23068681646E+04 0.  0.
        2    1    3    3  502    0  0.90028782536E+03 -0.60559944696E+03 -0.97082561460E+02  0.10893548010E+04  0.25500000920E-02 0. -1.
       -2    1    3    3    0  502 -0.90028782536E+03  0.60559944696E+03  0.71299890767E+03  0.12983205694E+04  0.25500000920E-02 0.  1.
</event>
<event>
 5   0  0.2081874E-05  0.2603078E+04  0.7818609E-02  0.8367157E-01
        1   -1    0    0  501    0  0.00000000000E+00  0.00000000000E+00  0.14561179092E+04  0.14561179092E+04  0.50400001928E-02 0. -1.
       -1   -1    0    0    0  501  0.00000000000E+00  0.00000000000E+00 -0.11633696331E+04  0.11633696331E+04  0.50400001928E-02 0.  1.
    10030    2    1    2    0    0  0.00000000000E+00  0.00000000000E+00  0.29274827607E+03  0.26194875423E+04  0.26030776844E+04 0.  0.
        1    1    3    3  502    0  0.98672789708E+03  0.66160350699E+03 -0.38862786061E+03  0.12499531021E+04  0.50400001928E-02 0.  1.
       -1    1    3    3    0  502 -0.98672789708E+03 -0.66160350699E+03  0.68137613668E+03  0.13695344402E+04  0.50400001928E-02 0. -1.
</event>
<event>
 5   0  0.5219468E-05  0.2482938E+04  0.7818609E-02  0.8409089E-01
       -2   -1    0    0    0  501  0.00000000000E+00  0.00000000000E+00  0.83274335675E+03  0.83274335675E+03  0.25500000920E-02 0.  1.
        2   -1    0    0  501    0  0.00000000000E+00  0.00000000000E+00 -0.18508047870E+04  0.18508047870E+04  0.25500000920E-02 0. -1.
    10030    2    1    2    0    0  0.00000000000E+00  0.00000000000E+00 -0.10180614302E+04  0.26835481437E+04  0.24829380910E+04 0.  0.
        1    1    3    3  502    0  0.56041581344E+03 -0.10759666769E+04 -0.79390841640E+03  0.14498485257E+04  0.50400001928E-02 0. -1.
       -1    1    3    3    0  502 -0.56041581344E+03  0.10759666769E+04 -0.22415301380E+03  0.12336996180E+04  0.50400001928E-02 0.  1.
</event>
<event>
 5   0  0.4995256E-05  0.2450845E+04  0.7818609E-02  0.8420710E-01
        2   -1    0    0  501    0  0.00000000000E+00  0.00000000000E+00  0.16139793559E+04  0.16139793559E+04  0.25500000920E-02 0.  1.
       -2   -1    0    0    0  501  0.00000000000E+00  0.00000000000E+00 -0.93040827823E+03  0.93040827823E+03  0.25500000920E-02 0. -1.
    10030    2    1    2    0    0  0.00000000000E+00  0.00000000000E+00  0.68357107768E+03  0.25443876341E+04  0.24508445513E+04 0.  0.
        2    1    3    3  502    0  0.27379067106E+03  0.35916158018E+03  0.15244318823E+04  0.15899216761E+04  0.25500000920E-02 0.  1.
       -2    1    3    3    0  502 -0.27379067106E+03 -0.35916158018E+03 -0.84086080466E+03  0.95446595804E+03  0.25500000920E-02 0. -1.
</event>
<event>
 5   0  0.2081874E-05  0.2534786E+04  0.7818609E-02  0.8390696E-01
        1   -1    0    0  501    0  0.00000000000E+00  0.00000000000E+00  0.14619265528E+04  0.14619265528E+04  0.50400001928E-02 0. -1.
       -1   -1    0    0    0  501  0.00000000000E+00  0.00000000000E+00 -0.10987457000E+04  0.10987457000E+04  0.50400001928E-02 0.  1.
    10030    2    1    2    0    0  0.00000000000E+00  0.00000000000E+00  0.36318085275E+03  0.25606722528E+04  0.25347863923E+04 0.  0.
        1    1    3    3  502    0  0.49903562736E+02  0.36656765971E+03 -0.10429865485E+04  0.11066540359E+04  0.50400001928E-02 0.  1.
       -1    1    3    3    0  502 -0.49903562736E+02 -0.36656765971E+03  0.14061674013E+04  0.14540182169E+04  0.50400001928E-02 0. -1.
</event>
<event>
 5   0  0.2036578E-05  0.2465104E+04  0.7818609E-02  0.8415524E-01
       -1   -1    0    0    0  501  0.00000000000E+00  0.00000000000E+00  0.10467574595E+04  0.10467574595E+04  0.50400001928E-02 0.  1.
        1   -1    0    0  501    0  0.00000000000E+00  0.00000000000E+00 -0.14513244391E+04  0.14513244391E+04  0.50400001928E-02 0. -1.
    10030    2    1    2    0    0  0.00000000000E+00  0.00000000000E+00 -0.40456697966E+03  0.24980818986E+04  0.24651042029E+04 0.  0.
        2    1    3    3  502    0  0.80618250123E+02  0.40149943699E+02 -0.14479854999E+04  0.14507836944E+04  0.25500000920E-02 0. -1.
       -2    1    3    3    0  502 -0.80618250123E+02 -0.40149943699E+02  0.10434185202E+04  0.10472982042E+04  0.25500000920E-02 0.  1.
</event>
<event>
 5   0  0.5219468E-05  0.2583086E+04  0.7818609E-02  0.8373969E-01
        2   -1    0    0  501    0  0.00000000000E+00  0.00000000000E+00  0.24765650360E+04  0.24765650360E+04  0.25500000920E-02 0. -1.
       -2   -1    0    0    0  501  0.00000000000E+00  0.00000000000E+00 -0.67354728283E+03  0.67354728283E+03  0.25500000920E-02 0.  1.
    10030    2    1    2    0    0  0.00000000000E+00  0.00000000000E+00  0.18030177532E+04  0.31501123189E+04  0.25830862555E+04 0.  0.
        1    1    3    3  502    0 -0.91951522964E+03 -0.63704489384E+03  0.16887803516E+04  0.20256637259E+04  0.50400001928E-02 0. -1.
       -1    1    3    3    0  502  0.91951522964E+03  0.63704489384E+03  0.11423740158E+03  0.11244485930E+04  0.50400001928E-02 0.  1.
</event>
<event>
 5   0  0.2036578E-05  0.2495343E+04  0.7818609E-02  0.8404646E-01
       -1   -1    0    0    0  501  0.00000000000E+00  0.00000000000E+00  0.57717945175E+03  0.57717945177E+03  0.50400001928E-02 0. -1.
        1   -1    0    0  501    0  0.00000000000E+00  0.00000000000E+00 -0.26970549528E+04  0.26970549528E+04  0.50400001928E-02 0.  1.
    10030    2    1    2    0    0  0.00000000000E+00  0.00000000000E+00 -0.21198755011E+04  0.32742344046E+04  0.24953434225E+04 0.  0.
        2    1    3    3  502    0  0.87455932163E+03  0.43067105440E+03 -0.38193371370E+02  0.97559740558E+03  0.25500000920E-02 0. -1.
       -2    1    3    3    0  502 -0.87455932163E+03 -0.43067105440E+03 -0.20816821297E+04  0.22986369990E+04  0.25500000920E-02 0.  1.
</event>
<event>
 5   0  0.2063930E-05  0.2510017E+04  0.7818609E-02  0.8399426E-01
       -1   -1    0    0    0  501  0.00000000000E+00  0.00000000000E+00  0.10754316757E+04  0.10754316757E+04  0.50400001928E-02 0.  1.
        1   -1    0    0  501    0  0.00000000000E+00  0.00000000000E+00 -0.14645707357E+04  0.14645707358E+04  0.50400001928E-02 0. -1.
    10030    2    1    2    0    0  0.00000000000E+00  0.00000000000E+00 -0.38913906004E+03  0.25400024115E+04  0.25100165422E+04 0.  0.
        3    1    3    3  502    0 -0.10731056667E+04 -0.45684236234E+03  0.27441611957E+03  0.11981506303E+04  0.10100000352E+00 0.  1.
       -3    1    3    3    0  502  0.10731056667E+04  0.45684236234E+03 -0.66355517961E+03  0.13418517812E+04  0.10100000352E+00 0. -1.
</event>
<event>
 5   0  0.4959042E-05  0.2560374E+04  0.7818609E-02  0.8381787E-01
       -2   -1    0    0    0  501  0.00000000000E+00  0.00000000000E+00  0.77393159188E+03  0.77393159188E+03  0.25500000920E-02 0. -1.
        2   -1    0    0  501    0  0.00000000000E+00  0.00000000000E+00 -0.21176018674E+04  0.21176018674E+04  0.25500000920E-02 0.  1.
    10030    2    1    2    0    0  0.00000000000E+00  0.00000000000E+00 -0.13436702755E+04  0.28915334593E+04  0.25603741791E+04 0.  0.
        4    1    3    3  502    0  0.77292686812E+03 -0.65342799850E+03 -0.15571206394E+04  0.18571511492E+04  0.12699999809E+01 0.  1.
       -4    1    3    3    0  502 -0.77292686812E+03  0.65342799850E+03  0.21345036381E+03  0.10343823101E+04  0.12699999809E+01 0. -1.
</event>
<event>
 5   0  0.4959042E-05  0.2238436E+04  0.7818609E-02  0.8502599E-01
       -2   -1    0    0    0  501  0.00000000000E+00  0.00000000000E+00  0.95132171459E+03  0.95132171460E+03  0.25500000920E-02 0. -1.
        2   -1    0    0  501    0  0.00000000000E+00  0.00000000000E+00 -0.13167455201E+04  0.13167455201E+04  0.25500000920E-02 0.  1.
    10030    2    1    2    0    0  0.00000000000E+00  0.00000000000E+00 -0.36542380555E+03  0.22680672347E+04  0.22384357091E+04 0.  0.
        4    1    3    3  502    0 -0.99076305692E+03  0.45425119930E+03  0.75000069356E+02  0.10925118811E+04  0.12699999809E+01 0. -1.
       -4    1    3    3    0  502  0.99076305692E+03 -0.45425119930E+03 -0.44042387490E+03  0.11755553537E+04  0.12699999809E+01 0.  1.
</event>
<event>
 5   0  0.4959042E-05  0.2512330E+04  0.7818609E-02  0.8398606E-01
        2   -1    0    0  501    0  0.00000000000E+00  0.00000000000E+00  0.23060352057E+04  0.23060352057E+04  0.25500000920E-02 0. -1.
       -2   -1    0    0    0  501  0.00000000000E+00  0.00000000000E+00 -0.68427009056E+03  0.68427009057E+03  0.25500000920E-02 0.  1.
    10030    2    1    2    0    0  0.00000000000E+00  0.00000000000E+00  0.16217651151E+04  0.29903052962E+04  0.25123303278E+04 0.  0.
        4    1    3    3  502    0 -0.94712614978E+02  0.10772460693E+04  0.15716384216E+04  0.19077417316E+04  0.12699999809E+01 0. -1.
       -4    1    3    3    0  502  0.94712614978E+02 -0.10772460693E+04  0.50126693517E+02  0.10825635647E+04  0.12699999809E+01 0.  1.
</event>
<event>
 5   0  0.4959347E-05  0.1891278E+04  0.7818609E-02  0.8659210E-01
        2   -1    0    0  501    0  0.00000000000E+00  0.00000000000E+00  0.13555991684E+04  0.13555991684E+04  0.25500000920E-02 0. -1.
       -2   -1    0    0    0  501  0.00000000000E+00  0.00000000000E+00 -0.65965867374E+03  0.65965867375E+03  0.25500000920E-02 0.  1.
    10030    2    1    2    0    0  0.00000000000E+00  0.00000000000E+00  0.69594049461E+03  0.20152578421E+04  0.18912776100E+04 0.  0.
        3    1    3    3  502    0 -0.47933720763E+03 -0.81497157004E+03  0.36611349317E+03  0.10138944317E+04  0.10100000352E+00 0. -1.
       -3    1    3    3    0  502  0.47933720763E+03  0.81497157004E+03  0.32982700144E+03  0.10013634104E+04  0.10100000352E+00 0.  1.
</event>
<event>
 5   0  0.2081874E-05  0.2497547E+04  0.7818609E-02  0.8403860E-01
       -1   -1    0    0    0  501  0.00000000000E+00  0.00000000000E+00  0.13519042456E+04  0.13519042456E+04  0.50400001928E-02 0.  1.
        1   -1    0    0  501    0  0.00000000000E+00  0.00000000000E+00 -0.11535099995E+04  0.11535099996E+04  0.50400001928E-02 0. -1.
    10030    2    1    2    0    0  0.00000000000E+00  0.00000000000E+00  0.19839424608E+03  0.25054142452E+04  0.24975468490E+04 0.  0.
        1    1    3    3  502    0  0.10244897098E+04 -0.20116546458E+03 -0.58808026414E+03  0.11982842345E+04  0.50400001928E-02 0. -1.
       -1    1    3    3    0  502 -0.10244897098E+04  0.20116546458E+03  0.78647451022E+03  0.13071300107E+04  0.50400001928E-02 0.  1.
</event>
<event>
 5   0  0.4995256E-05  0.1937166E+04  0.7818609E-02  0.8636575E-01
       -2   -1    0    0    0  501  0.00000000000E+00  0.00000000000E+00  0.11558581761E+04  0.11558581761E+04  0.25500000920E-02 0.  1.
        2   -1    0    0  501    0  0.00000000000E+00  0.00000000000E+00 -0.81165034541E+03  0.81165034542E+03  0.25500000920E-02 0. -1.
    10030    2    1    2    0    0  0.00000000000E+00  0.00000000000E+00  0.34420783070E+03  0.19675085215E+04  0.19371656490E+04 0.  0.
        2    1    3    3  502    0 -0.21595448911E+03 -0.84380919037E+03  0.60241743264E+03  0.10590359079E+04  0.25500000920E-02 0.  1.
       -2    1    3    3    0  502  0.21595448911E+03  0.84380919037E+03 -0.25820960194E+03  0.90847261360E+03  0.25500000920E-02 0. -1.
</event>
<event>
 5   0  0.5219468E-05  0.2443011E+04  0.7818609E-02  0.8423574E-01
       -2   -1    0    0    0  501  0.00000000000E+00  0.00000000000E+00  0.97919799284E+03  0.97919799284E+03  0.25500000920E-02 0.  1.
        2   -1    0    0  501    0  0.00000000000E+00  0.00000000000E+00 -0.15237728478E+04  0.15237728478E+04  0.25500000920E-02 0. -1.
    10030    2    1    2    0    0  0.00000000000E+00  0.00000000000E+00 -0.54457485499E+03  0.25029708407E+04  0.24430106951E+04 0.  0.
        1    1    3    3  502    0  0.17061044508E+03 -0.37347834088E+03 -0.14509495566E+04  0.15079285828E+04  0.50400001928E-02 0. -1.
       -1    1    3    3    0  502 -0.17061044508E+03  0.37347834088E+03  0.90637470163E+03  0.99504225783E+03  0.50400001928E-02 0.  1.
</event>
<event>
 5   0  0.2036578E-05  0.2507342E+04  0.7818609E-02  0.8400375E-01
        1   -1    0    0  501    0  0.00000000000E+00  0.00000000000E+00  0.24411535093E+04  0.24411535093E+04  0.50400001928E-02 0.  1.
       -1   -1    0    0    0  501  0.00000000000E+00  0.00000000000E+00 -0.64383132841E+03  0.64383132843E+03  0.50400001928E-02 0. -1.
    10030    2    1    2    0    0  0.00000000000E+00  0.00000000000E+00  0.17973221808E+04  0.30849848377E+04  0.25073421041E+04 0.  0.
        2    1    3    3  502    0  0.26109234550E+02  0.95724764052E+03 -0.96872893363E+02  0.96249108821E+03  0.25500000920E-02 0. -1.
       -2    1    3    3    0  502 -0.26109234550E+02 -0.95724764052E+03  0.18941950742E+04  0.21224937495E+04  0.25500000920E-02 0.  1.
</event>
<event>
 5   0  0.2036578E-05  0.2583466E+04  0.7818609E-02  0.8373839E-01
        1   -1    0    0  501    0  0.00000000000E+00  0.00000000000E+00  0.12675565812E+04  0.12675565812E+04  0.50400001928E-02 0.  1.
       -1   -1    0    0    0  501  0.00000000000E+00  0.00000000000E+00 -0.13163709711E+04  0.13163709711E+04  0.50400001928E-02 0. -1.
    10030    2    1    2    0    0  0.00000000000E+00  0.00000000000E+00 -0.48814389960E+02  0.25839275523E+04  0.25834664215E+04 0.  0.
        2    1    3    3  502    0 -0.33397436949E+03 -0.10468707844E+04 -0.70356990667E+03  0.13047942107E+04  0.25500000920E-02 0. -1.
       -2    1    3    3    0  502  0.33397436949E+03  0.10468707844E+04  0.65475551671E+03  0.12791333416E+04  0.25500000920E-02 0.  1.
</event>
<event>
 5   0  0.5219468E-05  0.2503859E+04  0.7818609E-02  0.8401612E-01
        2   -1    0    0  501    0  0.00000000000E+00  0.00000000000E+00  0.19364597837E+04  0.19364597837E+04  0.25500000920E-02 0. -1.
       -2   -1    0    0    0  501  0.00000000000E+00  0.00000000000E+00 -0.80937806205E+03  0.80937806205E+03  0.25500000920E-02 0.  1.
    10030    2    1    2    0    0  0.00000000000E+00  0.00000000000E+00  0.11270817216E+04  0.27458378457E+04  0.25038594744E+04 0.  0.
        1    1    3    3  502    0 -0.68800663630E+03  0.14715305959E+03  0.16991459323E+04  0.18390497692E+04  0.50400001928E-02 0. -1.
       -1    1    3    3    0  502  0.68800663630E+03 -0.14715305959E+03 -0.57206421064E+03  0.90678807649E+03  0.50400001928E-02 0.  1.
</event>
<event>
 5   0  0.4959042E-05  0.2528049E+04  0.7818609E-02  0.8393061E-01
        2   -1    0    0  501    0  0.00000000000E+00  0.00000000000E+00  0.13961004229E+04  0.13961004229E+04  0.25500000920E-02 0. -1.
       -2   -1    0    0    0  501  0.00000000000E+00  0.00000000000E+00 -0.11444435238E+04  0.11444435238E+04  0.25500000920E-02 0.  1.
    10030    2    1    2    0    0  0.00000000000E+00  0.00000000000E+00  0.25165689915E+03  0.25405439467E+04  0.25280491195E+04 0.  0.
        4    1    3    3  502    0  0.39405890960E+03 -0.51950630476E+03 -0.96238424440E+03  0.11624776435E+04  0.12699999809E+01 0.  1.
       -4    1    3    3    0  502 -0.39405890960E+03  0.51950630476E+03  0.12140411435E+04  0.13780663032E+04  0.12699999809E+01 0. -1.
</event>
<event>
 5   0  0.4959042E-05  0.2474035E+04  0.7818609E-02  0.8412295E-01
       -2   -1    0    0    0  501  0.00000000000E+00  0.00000000000E+00  0.92629141020E+03  0.92629141021E+03  0.25500000920E-02 0.  1.
        2   -1    0    0  501    0  0.00000000000E+00  0.00000000000E+00 -0.16519766548E+04  0.16519766548E+04  0.25500000920E-02 0. -1.
    10030    2    1    2    0    0  0.00000000000E+00  0.00000000000E+00 -0.72568524457E+03  0.25782680650E+04  0.24740345876E+04 0.  0.
        4    1    3    3  502    0  0.84520696544E+02 -0.12208307393E+04 -0.17456923827E+03  0.12361421739E+04  0.12699999809E+01 0. -1.
       -4    1    3    3    0  502 -0.84520696544E+02  0.12208307393E+04 -0.55111600631E+03  0.13421258911E+04  0.12699999809E+01 0.  1.
</event>
<event>
 5   0  0.2063930E-05  0.2483608E+04  0.7818609E-02  0.8408849E-01
        1   -1    0    0  501    0  0.00000000000E+00  0.00000000000E+00  0.21192120460E+04  0.21192120460E+04  0.50400001928E-02 0. -1.
       -1   -1    0    0    0  501  0.00000000000E+00  0.00000000000E+00 -0.72766511015E+03  0.72766511016E+03  0.50400001928E-02 0.  1.
    10030    2    1    2    0    0  0.00000000000E+00  0.00000000000E+00  0.13915469359E+04  0.28468771562E+04  0.24836075913E+04 0.  0.
        3    1    3    3  502    0 -0.25802101618E+03  0.75851812668E+03 -0.39176265126E+03  0.89185345120E+03  0.10100000352E+00 0.  1.
       -3    1    3    3    0  502  0.25802101618E+03 -0.75851812668E+03  0.17833095872E+04  0.19550237050E+04  0.10100000352E+00 0. -1.
</event>
<event>
 5   0  0.2066170E-05  0.2425114E+04  0.7818609E-02  0.8430161E-01
       -1   -1    0    0    0  501  0.00000000000E+00  0.00000000000E+00  0.96682986583E+03  0.96682986584E+03  0.50400001928E-02 0.  1.
        1   -1    0    0  501    0  0.00000000000E+00  0.00000000000E+00 -0.15207372135E+04  0.15207372135E+04  0.50400001928E-02 0. -1.
    10030    2    1    2    0    0  0.00000000000E+00  0.00000000000E+00 -0.55390734763E+03  0.24875670793E+04  0.24251137343E+04 0.  0.
        5    1    3    3  502    0 -0.37305517559E+03 -0.84795089544E+03  0.52555032093E+03  0.10650897215E+04  0.46999998093E+01 0.  1.
       -5    1    3    3    0  502  0.37305517559E+03  0.84795089544E+03 -0.10794576686E+04  0.14224773578E+04  0.46999998093E+01 0. -1.
</event>
<event>
 5   0  0.4995256E-05  0.2519739E+04  0.7818609E-02  0.8395987E-01
        2   -1    0    0  501    0  0.00000000000E+00  0.00000000000E+00  0.16797089856E+04  0.16797089856E+04  0.25500000920E-02 0.  1.
       -2   -1    0    0    0  501  0.00000000000E+00  0.00000000000E+00 -0.94496792893E+03  0.94496792893E+03  0.25500000920E-02 0. -1.
    10030    2    1    2    0    0  0.00000000000E+00  0.00000000000E+00  0.73474105664E+03  0.26246769145E+04  0.25197389716E+04 0.  0.
        2    1    3    3  502    0  0.10319489103E+04  0.71764447081E+03  0.27813491936E+03  0.12873582148E+04  0.25500000920E-02 0. -1.
       -2    1    3    3    0  502 -0.10319489103E+04 -0.71764447081E+03  0.45660613727E+03  0.13373186997E+04  0.25500000920E-02 0.  1.
</event>
<event>
 5   0  0.2036578E-05  0.2379823E+04  0.7818609E-02  0.8447096E-01
        1   -1    0    0  501    0  0.00000000000E+00  0.00000000000E+00  0.17998118663E+04  0.17998118663E+04  0.50400001928E-02 0.  1.
       -1   -1    0    0    0  501  0.00000000000E+00  0.00000000000E+00 -0.78668771897E+03  0.78668771899E+03  0.50400001928E-02 0. -1.
    10030    2    1    2    0    0  0.00000000000E+00  0.00000000000E+00  0.10131241474E+04  0.25864995853E+04  0.23798234319E+04 0.  0.
        2    1    3    3  502    0 -0.47414567807E+03 -0.16114843215E+03  0.16797040466E+04  0.17527659928E+04  0.25500000920E-02 0.  1.
       -2    1    3    3    0  502  0.47414567807E+03  0.16114843215E+03 -0.66657989926E+03  0.83373359254E+03  0.25500000920E-02 0. -1.
</event>
<event>
 5   0  0.2036578E-05  0.2495019E+04  0.7818609E-02  0.8404762E-01
        1   -1    0    0  501    0  0.00000000000E+00  0.00000000000E+00  0.98315614381E+03  0.98315614382E+03  0.50400001928E-02 0. -1.
       -1   -1    0    0    0  501  0.00000000000E+00  0.00000000000E+00 -0.15829421969E+04  0.15829421970E+04  0.50400001928E-02 0.  1.
    10030    2    1    2    0    0  0.00000000000E+00  0.00000000000E+00 -0.59978605314E+03  0.25660983408E+04  0.24950185140E+04 0.  0.
        2    1    3    3  502    0  0.17867238355E+03  0.97155719217E+03 -0.10834584300E+04  0.14661955422E+04  0.25500000920E-02 0.  1.
       -2    1    3    3    0  502 -0.17867238355E+03 -0.97155719217E+03  0.48367237686E+03  0.10999027986E+04  0.25500000920E-02 0. -1.
</event>
<event>
 5   0  0.2081874E-05  0.2457280E+04  0.7818609E-02  0.8418365E-01
       -1   -1    0    0    0  501  0.00000000000E+00  0.00000000000E+00  0.13320505138E+04  0.13320505138E+04  0.50400001928E-02 0.  1.
        1   -1    0    0  501    0  0.00000000000E+00  0.00000000000E+00 -0.11332573204E+04  0.11332573204E+04  0.50400001928E-02 0. -1.
    10030    2    1    2    0    0  0.00000000000E+00  0.00000000000E+00  0.19879319333E+03  0.24653078342E+04  0.24572797935E+04 0.  0.
        1    1    3    3  502    0 -0.29939986930E+03 -0.10223647632E+04 -0.51471921939E+03  0.11831339170E+04  0.50400001928E-02 0. -1.
       -1    1    3    3    0  502  0.29939986930E+03  0.10223647632E+04  0.71351241273E+03  0.12821739172E+04  0.50400001928E-02 0.  1.
</event>
<event>
 5   0  0.4995256E-05  0.2467516E+04  0.7818609E-02  0.8414650E-01
        2   -1    0    0  501    0  0.00000000000E+00  0.00000000000E+00  0.21221431927E+04  0.21221431927E+04  0.25500000920E-02 0. -1.
       -2   -1    0    0    0  501  0.00000000000E+00  0.00000000000E+00 -0.71727443295E+03  0.71727443295E+03  0.25500000920E-02 0.  1.
    10030    2    1    2    0    0  0.00000000000E+00  0.00000000000E+00  0.14048687598E+04  0.28394176257E+04  0.24675162048E+04 0.  0.
        2    1    3    3  502    0  0.10132920524E+04  0.56196955661E+03  0.21478406507E+03  0.11784323318E+04  0.25500000920E-02 0.  1.
       -2    1    3    3    0  502 -0.10132920524E+04 -0.56196955661E+03  0.11900846947E+04  0.16609852939E+04  0.25500000920E-02 0. -1.
</event>
<event>
 5   0  0.4959042E-05  0.2445579E+04  0.7818609E-02  0.8422634E-01
       -2   -1    0    0    0  501  0.00000000000E+00  0.00000000000E+00  0.71931521603E+03  0.71931521603E+03  0.25500000920E-02 0.  1.
        2   -1    0    0  501    0  0.00000000000E+00  0.00000000000E+00 -0.20786625291E+04  0.20786625291E+04  0.25500000920E-02 0. -1.
    10030    2    1    2    0    0  0.00000000000E+00  0.00000000000E+00 -0.13593473130E+04  0.27979777451E+04  0.24455785296E+04 0.  0.
        4    1    3    3  502    0 -0.59259331622E+03 -0.10694137092E+04 -0.70253994776E+03  0.14100980501E+04  0.12699999809E+01 0. -1.
       -4    1    3    3    0  502  0.59259331622E+03  0.10694137092E+04 -0.65680736529E+03  0.13878796950E+04  0.12699999809E+01 0.  1.
</event>
<event>
 5   0  0.2063930E-05  0.2535575E+04  0.7818609E-02  0.8390420E-01
       -1   -1    0    0    0  501  0.00000000000E+00  0.00000000000E+00  0.14300290033E+04  0.14300290033E+04  0.50400001928E-02 0.  1.
        1   -1    0    0  501    0  0.00000000000E+00  0.00000000000E+00 -0.11239525786E+04  0.11239525787E+04  0.50400001928E-02 0. -1.
    10030    2    1    2    0    0  0.00000000000E+00  0.00000000000E+00  0.30607642470E+03  0.25539815820E+04  0.25355747166E+04 0.  0.
        3    1    3    3  502    0 -0.32363069947E+03 -0.55033889582E+03  0.12562862435E+04  0.14092071763E+04  0.10100000352E+00 0.  1.
       -3    1    3    3    0  502  0.32363069947E+03  0.55033889582E+03 -0.95020981884E+03  0.11447744057E+04  0.10100000352E+00 0. -1.
</event>
<event>
 5   0  0.5219468E-05  0.2515512E+04  0.7818609E-02  0.8397480E-01
       -2   -1    0    0    0  501  0.00000000000E+00  0.00000000000E+00  0.68772206257E+03  0.68772206257E+03  0.25500000920E-02 0.  1.
        2   -1    0    0  501    0  0.00000000000E+00  0.00000000000E+00 -0.23002756466E+04  0.23002756466E+04  0.25500000920E-02 0. -1.
    10030    2    1    2    0    0  0.00000000000E+00  0.00000000000E+00 -0.16125535840E+04  0.29879977092E+04  0.25155121245E+04 0.  0.
        1    1    3    3  502    0  0.49979369422E+02 -0.11141706785E+04 -0.11562194608E+03  0.11212683322E+04  0.50400001928E-02 0. -1.
       -1    1    3    3    0  502 -0.49979369422E+02  0.11141706785E+04 -0.14969316380E+04  0.18667293770E+04  0.50400001928E-02 0.  1.
</event>
<event>
 5   0  0.2036578E-05  0.2490454E+04  0.7818609E-02  0.8406394E-01
        1   -1    0    0  501    0  0.00000000000E+00  0.00000000000E+00  0.16440825749E+04  0.16440825749E+04  0.50400001928E-02 0. -1.
       -1   -1    0    0    0  501  0.00000000000E+00  0.00000000000E+00 -0.94313422164E+03  0.94313422165E+03  0.50400001928E-02 0.  1.
    10030    2    1    2    0    0  0.00000000000E+00  0.00000000000E+00  0.70094835323E+03  0.25872167965E+04  0.24904542072E+04 0.  0.
        2    1    3    3  502    0  0.74236318892E+03  0.27689719607E+02 -0.68771450609E+03  0.10123344639E+04  0.25500000920E-02 0.  1.
       -2    1    3    3    0  502 -0.74236318892E+03 -0.27689719607E+02  0.13886628593E+04  0.15748823327E+04  0.25500000920E-02 0. -1.
</event>
<event>
 5   0  0.2081874E-05  0.2454559E+04  0.7818609E-02  0.8419355E-01
       -1   -1    0    0    0  501  0.00000000000E+00  0.00000000000E+00  0.85008216802E+03  0.85008216804E+03  0.50400001928E-02 0. -1.
        1   -1    0    0  501    0  0.00000000000E+00  0.00000000000E+00 -0.17718466065E+04  0.17718466065E+04  0.50400001928E-02 0.  1.
    10030    2    1    2    0    0  0.00000000000E+00  0.00000000000E+00 -0.92176443845E+03  0.26219287745E+04  0.24545591903E+04 0.  0.
        1    1    3    3  502    0 -0.51438261788E+03  0.65101354644E+03  0.50510819312E+03  0.97136110794E+03  0.50400001928E-02 0. -1.
       -1    1    3    3    0  502  0.51438261788E+03 -0.65101354644E+03 -0.14268726316E+04  0.16505676666E+04  0.50400001928E-02 0.  1.
</event>
<event>
 5   0  0.2063930E-05  0.2422630E+04  0.7818609E-02  0.8431080E-01
        1   -1    0    0  501    0  0.00000000000E+00  0.00000000000E+00  0.10465384062E+04  0.10465384062E+04  0.50400001928E-02 0. -1.
       -1   -1    0    0    0  501  0.00000000000E+00  0.00000000000E+00 -0.14020351369E+04  0.14020351369E+04  0.50400001928E-02 0.  1.
    10030    2    1    2    0    0  0.00000000000E+00  0.00000000000E+00 -0.35549673065E+03  0.24485735431E+04  0.24226296602E+04 0.  0.
        3    1    3    3  502    0 -0.71937630273E+02  0.10541700163E+04 -0.77640398019E+03  0.13112027290E+04  0.10100000352E+00 0.  1.
       -3    1    3    3    0  502  0.71937630273E+02 -0.10541700163E+04  0.42090724954E+03  0.11373708141E+04  0.10100000352E+00 0. -1.
</event>
<event>
 5   0  0.2081874E-05  0.2538771E+04  0.7818609E-02  0.8389302E-01
        1   -1    0    0  501    0  0.00000000000E+00  0.00000000000E+00  0.14669574322E+04  0.14669574322E+04  0.50400001928E-02 0. -1.
       -1   -1    0    0    0  501  0.00000000000E+00  0.00000000000E+00 -0.10984229692E+04  0.10984229692E+04  0.50400001928E-02 0.  1.
    10030    2    1    2    0    0  0.00000000000E+00  0.00000000000E+00  0.36853446303E+03  0.25653804014E+04  0.25387711502E+04 0.  0.
        1    1    3    3  502    0 -0.30821551983E+03  0.12169827524E+04  0.37410841053E+03  0.13099621861E+04  0.50400001928E-02 0. -1.
       -1    1    3    3    0  502  0.30821551983E+03 -0.12169827524E+04 -0.55739474973E+01  0.12554182152E+04  0.50400001928E-02 0.  1.
</event>
<event>
 5   0  0.2081874E-05  0.1700220E+04  0.7818609E-02  0.8761239E-01
       -1   -1    0    0    0  501  0.00000000000E+00  0.00000000000E+00  0.41414983067E+03  0.41414983070E+03  0.50400001928E-02 0.  1.
        1   -1    0    0  501    0  0.00000000000E+00  0.00000000000E+00 -0.17449899401E+04  0.17449899402E+04  0.50400001928E-02 0. -1.
    10030    2    1    2    0    0  0.00000000000E+00  0.00000000000E+00 -0.13308401095E+04  0.21591397709E+04  0.17002203249E+04 0.  0.
        1    1    3    3  502    0  0.83184807773E+03  0.12686934037E+03 -0.51186902972E+03  0.98492484868E+03  0.50400001928E-02 0.  1.
       -1    1    3    3    0  502 -0.83184807773E+03 -0.12686934037E+03 -0.81897107976E+03  0.11742149222E+04  0.50400001928E-02 0. -1.
</event>
<event>
 5   0  0.2036578E-05  0.2525462E+04  0.7818609E-02  0.8393970E-01
        1   -1    0    0  501    0  0.00000000000E+00  0.00000000000E+00  0.19814808659E+04  0.19814808659E+04  0.50400001928E-02 0. -1.
       -1   -1    0    0    0  501  0.00000000000E+00  0.00000000000E+00 -0.80469607942E+03  0.80469607944E+03  0.50400001928E-02 0.  1.
    10030    2    1    2    0    0  0.00000000000E+00  0.00000000000E+00  0.11767847865E+04  0.27861769454E+04  0.25254622423E+04 0.  0.
        2    1    3    3  502    0 -0.48926005334E+01  0.61985343215E+03  0.18020744796E+04  0.19057058128E+04  0.25500000920E-02 0. -1.
       -2    1    3    3    0  502  0.48926005334E+01 -0.61985343215E+03 -0.62528969314E+03  0.88047113254E+03  0.25500000920E-02 0.  1.
</event>
<event>
 5   0  0.2081874E-05  0.2601066E+04  0.7818609E-02  0.8367839E-01
        1   -1    0    0  501    0  0.00000000000E+00  0.00000000000E+00  0.24808434147E+04  0.24808434147E+04  0.50400001928E-02 0.  1.
       -1   -1    0    0    0  501  0.00000000000E+00  0.00000000000E+00 -0.68177861416E+03  0.68177861418E+03  0.50400001928E-02 0. -1.
    10030    2    1    2    0    0  0.00000000000E+00  0.00000000000E+00  0.17990648005E+04  0.31626220288E+04  0.26010659240E+04 0.  0.
        1    1    3    3  502    0  0.93794304964E+03 -0.80762315690E+03  0.13849678072E+04  0.18574520599E+04  0.50400001928E-02 0. -1.
       -1    1    3    3    0  502 -0.93794304964E+03  0.80762315690E+03  0.41409699333E+03  0.13051699689E+04  0.50400001928E-02 0.  1.
</event>
<event>
 5   0  0.4995256E-05  0.2510648E+04  0.7818609E-02  0.8399202E-01
        2   -1    0    0  501    0  0.00000000000E+00  0.00000000000E+00  0.12258205969E+04  0.12258205969E+04  0.25500000920E-02 0. -1.
       -2   -1    0    0    0  501  0.00000000000E+00  0.00000000000E+00 -0.12855370219E+04  0.12855370219E+04  0.25500000920E-02 0.  1.
    10030    2    1    2    0    0  0.00000000000E+00  0.00000000000E+00 -0.59716424965E+02  0.25113576188E+04  0.25106475337E+04 0.  0.
        2    1    3    3  502    0  0.30820590299E+03 -0.60128648621E+03  0.10284114483E+04  0.12305146989E+04  0.25500000920E-02 0. -1.
       -2    1    3    3    0  502 -0.30820590299E+03  0.60128648621E+03 -0.10881278732E+04  0.12808429200E+04  0.25500000920E-02 0.  1.
</event>
<event>
 5   0  0.2036578E-05  0.2522898E+04  0.7818609E-02  0.8394873E-01
       -1   -1    0    0    0  501  0.00000000000E+00  0.00000000000E+00  0.20835041680E+04  0.20835041680E+04  0.50400001928E-02 0.  1.
        1   -1    0    0  501    0  0.00000000000E+00  0.00000000000E+00 -0.76373913510E+03  0.76373913511E+03  0.50400001928E-02 0. -1.
    10030    2    1    2    0    0  0.00000000000E+00  0.00000000000E+00  0.13197650329E+04  0.28472433031E+04  0.25228980727E+04 0.  0.
        2    1    3    3  502    0  0.10064054081E+04  0.73719434227E+03  0.87085491817E+03  0.15214123807E+04  0.25500000920E-02 0.  1.
       -2    1    3    3    0  502 -0.10064054081E+04 -0.73719434227E+03  0.44891011472E+03  0.13258309224E+04  0.25500000920E-02 0. -1.
</event>
<event>
 5   0  0.2066170E-05  0.2484477E+04  0.7818609E-02  0.8408536E-01
        1   -1    0    0  501    0  0.00000000000E+00  0.00000000000E+00  0.77898036182E+03  0.77898036184E+03  0.50400001928E-02 0. -1.
       -1   -1    0    0    0  501  0.00000000000E+00  0.00000000000E+00 -0.19809960805E+04  0.19809960805E+04  0.50400001928E-02 0.  1.
    10030    2    1    2    0    0  0.00000000000E+00  0.00000000000E+00 -0.12020157186E+04  0.27599764423E+04  0.24844774449E+04 0.  0.
        5    1    3    3  502    0 -0.72221176469E+03  0.47391704417E+03 -0.15927191158E+04  0.18118949941E+04  0.46999998093E+01 0.  1.
       -5    1    3    3    0  502  0.72221176469E+03 -0.47391704417E+03  0.39070339719E+03  0.94808144818E+03  0.46999998093E+01 0. -1.
</event>
<event>
 5   0  0.5219468E-05  0.2832573E+04  0.7818609E-02  0.8293227E-01
        2   -1    0    0  501    0  0.00000000000E+00  0.00000000000E+00  0.21951778039E+04  0.21951778039E+04  0.25500000920E-02 0.  1.
       -2   -1    0    0    0  501  0.00000000000E+00  0.00000000000E+00 -0.91376067008E+03  0.91376067008E+03  0.25500000920E-02 0. -1.
    10030    2    1    2    0    0  0.00000000000E+00  0.00000000000E+00  0.12814171338E+04  0.31089384740E+04  0.28325727818E+04 0.  0.
        1    1    3    3  502    0  0.11243949494E+04 -0.54414123797E+03 -0.91882233319E+02  0.12525158817E+04  0.50400001928E-02 0. -1.
       -1    1    3    3    0  502 -0.11243949494E+04  0.54414123797E+03  0.13732993671E+04  0.18564225922E+04  0.50400001928E-02 0.  1.
</event>
<event>
 5   0  0.5219468E-05  0.2514030E+04  0.7818609E-02  0.8398004E-01
        2   -1    0    0  501    0  0.00000000000E+00  0.00000000000E+00  0.14550653493E+04  0.14550653493E+04  0.25500000920E-02 0. -1.
       -2   -1    0    0    0  501  0.00000000000E+00  0.00000000000E+00 -0.10859214830E+04  0.10859214830E+04  0.25500000920E-02 0.  1.
    10030    2    1    2    0    0  0.00000000000E+00  0.00000000000E+00  0.36914386624E+03  0.25409868323E+04  0.25140300094E+04 0.  0.
        1    1    3    3  502    0 -0.41979745126E+03 -0.10573401518E+03 -0.10081993662E+04  0.10972126249E+04  0.50400001928E-02 0.  1.
       -1    1    3    3    0  502  0.41979745126E+03  0.10573401518E+03  0.13773432325E+04  0.14437742075E+04  0.50400001928E-02 0. -1.
</event>
<event>
 5   0  0.4995256E-05  0.2478696E+04  0.7818609E-02  0.8410615E-01
       -2   -1    0    0    0  501  0.00000000000E+00  0.00000000000E+00  0.97860836328E+03  0.97860836329E+03  0.25500000920E-02 0. -1.
        2   -1    0    0  501    0  0.00000000000E+00  0.00000000000E+00 -0.15695590301E+04  0.15695590301E+04  0.25500000920E-02 0.  1.
    10030    2    1    2    0    0  0.00000000000E+00  0.00000000000E+00 -0.59095066683E+03  0.25481673934E+04  0.24786961036E+04 0.  0.
        2    1    3    3  502    0  0.19328478378E+03  0.11408004920E+04  0.16104153524E+03  0.11682119441E+04  0.25500000920E-02 0. -1.
       -2    1    3    3    0  502 -0.19328478378E+03 -0.11408004920E+04 -0.75199220207E+03  0.13799554493E+04  0.25500000920E-02 0.  1.
</event>
<event>
 5   0  0.5024070E-05  0.2630207E+04  0.7818609E-02  0.8358012E-01
       -2   -1    0    0    0  501  0.00000000000E+00  0.00000000000E+00  0.63817840731E+03  0.63817840731E+03  0.25500000920E-02 0.  1.
        2   -1    0    0  501    0  0.00000000000E+00  0.00000000000E+00 -0.27100529688E+04  0.27100529688E+04  0.25500000920E-02 0. -1.
    10030    2    1    2    0    0  0.00000000000E+00  0.00000000000E+00 -0.20718745615E+04  0.33482313761E+04  0.26302070545E+04 0.  0.
        5    1    3    3  502    0 -0.12266554384E+04 -0.32312186252E+03 -0.59425526240E+03  0.14008043080E+04  0.46999998093E+01 0. -1.
       -5    1    3    3    0  502  0.12266554384E+04  0.32312186252E+03 -0.14776192991E+04  0.19474270681E+04  0.46999998093E+01 0.  1.
</event>
<event>
 5   0  0.2041718E-05  0.2496516E+04  0.7818609E-02  0.8404228E-01
        1   -1    0    0  501    0  0.00000000000E+00  0.00000000000E+00  0.11834814604E+04  0.11834814604E+04  0.50400001928E-02 0.  1.
       -1   -1    0    0    0  501  0.00000000000E+00  0.00000000000E+00 -0.13165801108E+04  0.13165801108E+04  0.50400001928E-02 0. -1.
    10030    2    1    2    0    0  0.00000000000E+00  0.00000000000E+00 -0.13309865035E+03  0.25000615712E+04  0.24965160943E+04 0.  0.
        4    1    3    3  502    0  0.79407712066E+02  0.53135573237E+03  0.10617726226E+04  0.11899610137E+04  0.12699999809E+01 0.  1.
       -4    1    3    3    0  502 -0.79407712066E+02 -0.53135573237E+03 -0.11948712729E+04  0.13101005575E+04  0.12699999809E+01 0. -1.
</event>
<event>
 5   0  0.5219468E-05  0.2634011E+04  0.7818609E-02  0.8356739E-01
        2   -1    0    0  501    0  0.00000000000E+00  0.00000000000E+00  0.15635231604E+04  0.15635231604E+04  0.25500000920E-02 0. -1.
       -2   -1    0    0    0  501  0.00000000000E+00  0.00000000000E+00 -0.11093561257E+04  0.11093561257E+04  0.25500000920E-02 0.  1.
    10030    2    1    2    0    0  0.00000000000E+00  0.00000000000E+00  0.45416703467E+03  0.26728792861E+04  0.26340113862E+04 0.  0.
        1    1    3    3  502    0  0.12884148388E+04  0.21219684375E+03  0.52900693816E+02  0.13068430590E+04  0.50400001928E-02 0. -1.
       -1    1    3    3    0  502 -0.12884148388E+04 -0.21219684375E+03  0.40126634086E+03  0.13660362271E+04  0.50400001928E-02 0.  1.
</event>
<event>
 5   0  0.2081874E-05  0.2439520E+04  0.7818609E-02  0.8424854E-01
        1   -1    0    0  501    0  0.00000000000E+00  0.00000000000E+00  0.21102927564E+04  0.21102927564E+04  0.50400001928E-02 0.  1.
       -1   -1    0    0    0  501  0.00000000000E+00  0.00000000000E+00 -0.70502738288E+03  0.70502738290E+03  0.50400001928E-02 0. -1.
    10030    2    1    2    0    0  0.00000000000E+00  0.00000000000E+00  0.14052653736E+04  0.28153201393E+04  0.24395197718E+04 0.  0.
        1    1    3    3  502    0  0.11928367958E+04  0.14364446014E+03  0.94558854300E+03  0.15289313408E+04  0.50400001928E-02 0. -1.
       -1    1    3    3    0  502 -0.11928367958E+04 -0.14364446014E+03  0.45967683056E+03  0.12863887985E+04  0.50400001928E-02 0.  1.
</event>
<event>
 5   0  0.2036578E-05  0.2489119E+04  0.7818609E-02  0.8406872E-01
       -1   -1    0    0    0  501  0.00000000000E+00  0.00000000000E+00  0.87745522003E+03  0.87745522005E+03  0.50400001928E-02 0. -1.
        1   -1    0    0  501    0  0.00000000000E+00  0.00000000000E+00 -0.17652503132E+04  0.17652503132E+04  0.50400001928E-02 0.  1.
    10030    2    1    2    0    0  0.00000000000E+00  0.00000000000E+00 -0.88779509314E+03  0.26427055332E+04  0.24891188015E+04 0.  0.
        2    1    3    3  502    0 -0.26629784144E+03  0.90944413669E+03  0.41268377345E+03  0.10335913482E+04  0.25500000920E-02 0. -1.
       -2    1    3    3    0  502  0.26629784144E+03 -0.90944413669E+03 -0.13004788666E+04  0.16091141851E+04  0.25500000920E-02 0.  1.
</event>
<event>
 5   0  0.2081874E-05  0.2350385E+04  0.7818609E-02  0.8458316E-01
        1   -1    0    0  501    0  0.00000000000E+00  0.00000000000E+00  0.17065291726E+04  0.17065291726E+04  0.50400001928E-02 0. -1.
       -1   -1    0    0    0  501  0.00000000000E+00  0.00000000000E+00 -0.80929046175E+03  0.80929046176E+03  0.50400001928E-02 0.  1.
    10030    2    1    2    0    0  0.00000000000E+00  0.00000000000E+00  0.89723871088E+03  0.25158196344E+04  0.23503853149E+04 0.  0.
        1    1    3    3  502    0  0.59338998684E+03 -0.19781030861E+03 -0.61631373048E+03  0.87811343748E+03  0.50400001928E-02 0.  1.
       -1    1    3    3    0  502 -0.59338998684E+03  0.19781030861E+03  0.15135524414E+04  0.16377061969E+04  0.50400001928E-02 0. -1.
</event>
<event>
 5   0  0.2066170E-05  0.2483230E+04  0.7818609E-02  0.8408984E-01
        1   -1    0    0  501    0  0.00000000000E+00  0.00000000000E+00  0.14944445336E+04  0.14944445336E+04  0.50400001928E-02 0.  1.
       -1   -1    0    0    0  501  0.00000000000E+00  0.00000000000E+00 -0.10315592864E+04  0.10315592864E+04  0.50400001928E-02 0. -1.
    10030    2    1    2    0    0  0.00000000000E+00  0.00000000000E+00  0.46288524722E+03  0.25260038200E+04  0.24832302645E+04 0.  0.
        5    1    3    3  502    0  0.21454599901E+03  0.11176226671E+04  0.73645730935E+03  0.13555448610E+04  0.46999998093E+01 0.  1.
       -5    1    3    3    0  502 -0.21454599901E+03 -0.11176226671E+04 -0.27357206213E+03  0.11704589591E+04  0.46999998093E+01 0. -1.
</event>
<event>
 5   0  0.2036578E-05  0.2523501E+04  0.7818609E-02  0.8394661E-01
        1   -1    0    0  501    0  0.00000000000E+00  0.00000000000E+00  0.16538148617E+04  0.16538148617E+04  0.50400001928E-02 0.  1.
       -1   -1    0    0    0  501  0.00000000000E+00  0.00000000000E+00 -0.96263140664E+03  0.96263140665E+03  0.50400001928E-02 0. -1.
    10030    2    1    2    0    0  0.00000000000E+00  0.00000000000E+00  0.69118345502E+03  0.26164462683E+04  0.25235008434E+04 0.  0.
        2    1    3    3  502    0  0.13860536536E+03  0.63383220948E+03  0.14676045761E+04  0.16046239151E+04  0.25500000920E-02 0.  1.
       -2    1    3    3    0  502 -0.13860536536E+03 -0.63383220948E+03 -0.77642112112E+03  0.10118223532E+04  0.25500000920E-02 0. -1.
</event>
<event>
 5   0  0.5219468E-05  0.2479724E+04  0.7818609E-02  0.8410245E-01
        2   -1    0    0  501    0  0.00000000000E+00  0.00000000000E+00  0.56047982224E+03  0.56047982225E+03  0.25500000920E-02 0.  1.
       -2   -1    0    0    0  501  0.00000000000E+00  0.00000000000E+00 -0.27427523544E+04  0.27427523544E+04  0.25500000920E-02 0. -1.
    10030    2    1    2    0    0  0.00000000000E+00  0.00000000000E+00 -0.21822725322E+04  0.33032321767E+04  0.24797236556E+04 0.  0.
        1    1    3    3  502    0  0.77056390962E+03  0.94137569410E+03 -0.77226550235E+03  0.14409548717E+04  0.50400001928E-02 0.  1.
       -1    1    3    3    0  502 -0.77056390962E+03 -0.94137569410E+03 -0.14100070298E+04  0.18622773049E+04  0.50400001928E-02 0. -1.
</event>
<event>
 5   0  0.4959347E-05  0.2532417E+04  0.7818609E-02  0.8391527E-01
        2   -1    0    0  501    0  0.00000000000E+00  0.00000000000E+00  0.26450071123E+04  0.26450071123E+04  0.25500000920E-02 0. -1.
       -2   -1    0    0    0  501  0.00000000000E+00  0.00000000000E+00 -0.60615488833E+03  0.60615488834E+03  0.25500000920E-02 0.  1.
    10030    2    1    2    0    0  0.00000000000E+00  0.00000000000E+00  0.20388522239E+04  0.32511620006E+04  0.25324170200E+04 0.  0.
        3    1    3    3  502    0  0.35380060941E+02 -0.10463466626E+04  0.19337269340E+04  0.21989526945E+04  0.10100000352E+00 0. -1.
       -3    1    3    3    0  502 -0.35380060941E+02  0.10463466626E+04  0.10512528995E+03  0.10522093061E+04  0.10100000352E+00 0.  1.
</event>
<event>
 5   0  0.2081874E-05  0.2483296E+04  0.7818609E-02  0.8408961E-01
       -1   -1    0    0    0  501  0.00000000000E+00  0.00000000000E+00  0.93472382713E+03  0.93472382714E+03  0.50400001928E-02 0. -1.
        1   -1    0    0  501    0  0.00000000000E+00  0.00000000000E+00 -0.16493533095E+04  0.16493533095E+04  0.50400001928E-02 0.  1.
    10030    2    1    2    0    0  0.00000000000E+00  0.00000000000E+00 -0.71462948233E+03  0.25840771366E+04  0.24832960659E+04 0.  0.
        1    1    3    3  502    0  0.63421860437E+03 -0.83965437277E+03 -0.10431825866E+04  0.14817161040E+04  0.50400001928E-02 0.  1.
       -1    1    3    3    0  502 -0.63421860437E+03  0.83965437277E+03  0.32855310428E+03  0.11023610326E+04  0.50400001928E-02 0. -1.
</event>
<event>
 5   0  0.2036578E-05  0.2307694E+04  0.7818609E-02  0.8474894E-01
       -1   -1    0    0    0  501  0.00000000000E+00  0.00000000000E+00  0.83952246469E+03  0.83952246470E+03  0.50400001928E-02 0.  1.
        1   -1    0    0  501    0  0.00000000000E+00  0.00000000000E+00 -0.15858574039E+04  0.15858574039E+04  0.50400001928E-02 0. -1.
    10030    2    1    2    0    0  0.00000000000E+00  0.00000000000E+00 -0.74633493919E+03  0.24253798686E+04  0.23076940147E+04 0.  0.
        2    1    3    3  502    0 -0.93238409477E+03 -0.15523207057E+03 -0.10686749750E+04  0.14267106568E+04  0.25500000920E-02 0. -1.
       -2    1    3    3    0  502  0.93238409477E+03  0.15523207057E+03  0.32234003583E+03  0.99866921181E+03  0.25500000920E-02 0.  1.
</event>
<event>
 5   0  0.2081874E-05  0.2579398E+04  0.7818609E-02  0.8375233E-01
       -1   -1    0    0    0  501  0.00000000000E+00  0.00000000000E+00  0.94307902401E+03  0.94307902403E+03  0.50400001928E-02 0. -1.
        1   -1    0    0  501    0  0.00000000000E+00  0.00000000000E+00 -0.17637157102E+04  0.17637157102E+04  0.50400001928E-02 0.  1.
    10030    2    1    2    0    0  0.00000000000E+00  0.00000000000E+00 -0.82063668616E+03  0.27067947342E+04  0.25793978294E+04 0.  0.
        1    1    3    3  502    0 -0.42332057716E+03 -0.11303942170E+04 -0.88699092814E+03  0.14979133164E+04  0.50400001928E-02 0. -1.
       -1    1    3    3    0  502  0.42332057716E+03  0.11303942170E+04  0.66354241988E+02  0.12088814178E+04  0.50400001928E-02 0.  1.
</event>
<event>
 5   0  0.2041718E-05  0.2447566E+04  0.7818609E-02  0.8421907E-01
       -1   -1    0    0    0  501  0.00000000000E+00  0.00000000000E+00  0.99506366337E+03  0.99506366339E+03  0.50400001928E-02 0. -1.
        1   -1    0    0  501    0  0.00000000000E+00  0.00000000000E+00 -0.15050747615E+04  0.15050747615E+04  0.50400001928E-02 0.  1.
    10030    2    1    2    0    0  0.00000000000E+00  0.00000000000E+00 -0.51001109812E+03  0.25001384249E+04  0.24475663062E+04 0.  0.
        4    1    3    3  502    0  0.38644789212E+03 -0.49369521299E+03 -0.13285636500E+04  0.14690677049E+04  0.12699999809E+01 0.  1.
       -4    1    3    3    0  502 -0.38644789212E+03  0.49369521299E+03  0.81855255183E+03  0.10310707200E+04  0.12699999809E+01 0. -1.
</event>
<event>
 5   0  0.2063930E-05  0.2480012E+04  0.7818609E-02  0.8410141E-01
        1   -1    0    0  501    0  0.00000000000E+00  0.00000000000E+00  0.92171875171E+03  0.92171875172E+03  0.50400001928E-02 0.  1.
       -1   -1    0    0    0  501  0.00000000000E+00  0.00000000000E+00 -0.16682037338E+04  0.16682037338E+04  0.50400001928E-02 0. -1.
    10030    2    1    2    0    0  0.00000000000E+00  0.00000000000E+00 -0.74648498206E+03  0.25899224855E+04  0.24800118251E+04 0.  0.
        3    1    3    3  502    0  0.23461885301E+03 -0.40138834078E+02 -0.16441218183E+04  0.16612626812E+04  0.10100000352E+00 0. -1.
       -3    1    3    3    0  502 -0.23461885301E+03  0.40138834078E+02  0.89763683625E+03  0.92865980434E+03  0.10100000352E+00 0.  1.
</event>
<event>
 5   0  0.5219468E-05  0.2443264E+04  0.7818609E-02  0.8423481E-01
        2   -1    0    0  501    0  0.00000000000E+00  0.00000000000E+00  0.20867590199E+04  0.20867590199E+04  0.25500000920E-02 0.  1.
       -2   -1    0    0    0  501  0.00000000000E+00  0.00000000000E+00 -0.71516885954E+03  0.71516885954E+03  0.25500000920E-02 0. -1.
    10030    2    1    2    0    0  0.00000000000E+00  0.00000000000E+00  0.13715901603E+04  0.28019278794E+04  0.24432642660E+04 0.  0.
        1    1    3    3  502    0 -0.11687142842E+02  0.10704620665E+04  0.10878611191E+02  0.10705811362E+04  0.50400001928E-02 0.  1.
       -1    1    3    3    0  502  0.11687142842E+02 -0.10704620665E+04  0.13607115491E+04  0.17313467432E+04  0.50400001928E-02 0. -1.
</event>
<event>
 5   0  0.2066170E-05  0.2499836E+04  0.7818609E-02  0.8403044E-01
        1   -1    0    0  501    0  0.00000000000E+00  0.00000000000E+00  0.15928339448E+04  0.15928339448E+04  0.50400001928E-02 0.  1.
       -1   -1    0    0    0  501  0.00000000000E+00  0.00000000000E+00 -0.98082761955E+03  0.98082761956E+03  0.50400001928E-02 0. -1.
    10030    2    1    2    0    0  0.00000000000E+00  0.00000000000E+00  0.61200632525E+03  0.25736615644E+04  0.24998364158E+04 0.  0.
        5    1    3    3  502    0  0.11647692221E+04  0.13750155191E+03  0.75082701470E+03  0.13926080976E+04  0.46999998093E+01 0.  1.
       -5    1    3    3    0  502 -0.11647692221E+04 -0.13750155191E+03 -0.13882068945E+03  0.11810534668E+04  0.46999998093E+01 0. -1.
</event>
<event>
 5   0  0.4995256E-05  0.2450027E+04  0.7818609E-02  0.8421008E-01
        2   -1    0    0  501    0  0.00000000000E+00  0.00000000000E+00  0.19065355818E+04  0.19065355818E+04  0.25500000920E-02 0. -1.
       -2   -1    0    0    0  501  0.00000000000E+00  0.00000000000E+00 -0.78711263566E+03  0.78711263566E+03  0.25500000920E-02 0.  1.
    10030    2    1    2    0    0  0.00000000000E+00  0.00000000000E+00  0.11194229462E+04  0.26936482175E+04  0.24500271401E+04 0.  0.
        2    1    3    3  502    0  0.11461194214E+03 -0.91594154000E+03 -0.32570900817E+03  0.97886217619E+03  0.25500000920E-02 0.  1.
       -2    1    3    3    0  502 -0.11461194214E+03  0.91594154000E+03  0.14451319543E+04  0.17147860413E+04  0.25500000920E-02 0. -1.
</event>
<event>
 5   0  0.2041718E-05  0.2500351E+04  0.7818609E-02  0.8402860E-01
        1   -1    0    0  501    0  0.00000000000E+00  0.00000000000E+00  0.12189921555E+04  0.12189921555E+04  0.50400001928E-02 0. -1.
       -1   -1    0    0    0  501  0.00000000000E+00  0.00000000000E+00 -0.12821566804E+04  0.12821566804E+04  0.50400001928E-02 0.  1.
    10030    2    1    2    0    0  0.00000000000E+00  0.00000000000E+00 -0.63164524865E+02  0.25011488359E+04  0.25003511238E+04 0.  0.
        4    1    3    3  502    0 -0.11931861914E+04 -0.13524912027E+02  0.34144569681E+03  0.12411538935E+04  0.12699999809E+01 0. -1.
       -4    1    3    3    0  502  0.11931861914E+04  0.13524912027E+02 -0.40461022168E+03  0.12599949424E+04  0.12699999809E+01 0.  1.
</event>
<event>
 5   0  0.4959347E-05  0.2636851E+04  0.7818609E-02  0.8355790E-01
        2   -1    0    0  501    0  0.00000000000E+00  0.00000000000E+00  0.14640216633E+04  0.14640216633E+04  0.25500000920E-02 0.  1.
       -2   -1    0    0    0  501  0.00000000000E+00  0.00000000000E+00 -0.11873091652E+04  0.11873091652E+04  0.25500000920E-02 0. -1.
    10030    2    1    2    0    0  0.00000000000E+00  0.00000000000E+00  0.27671249805E+03  0.26513308285E+04  0.26368514094E+04 0.  0.
        3    1    3    3  502    0 -0.49653794562E+03 -0.11972545652E+04 -0.10437753377E+03  0.13003319211E+04  0.10100000352E+00 0.  1.
       -3    1    3    3    0  502  0.49653794562E+03  0.11972545652E+04  0.38109003182E+03  0.13509989074E+04  0.10100000352E+00 0. -1.
</event>
<event>
 5   0  0.2081874E-05  0.2537803E+04  0.7818609E-02  0.8389641E-01
        1   -1    0    0  501    0  0.00000000000E+00  0.00000000000E+00  0.14905183280E+04  0.14905183281E+04  0.50400001928E-02 0. -1.
       -1   -1    0    0    0  501  0.00000000000E+00  0.00000000000E+00 -0.10802353136E+04  0.10802353136E+04  0.50400001928E-02 0.  1.
    10030    2    1    2    0    0  0.00000000000E+00  0.00000000000E+00  0.41028301447E+03  0.25707536416E+04  0.25378026192E+04 0.  0.
        1    1    3    3  502    0  0.37294295259E+03 -0.90918827582E+03 -0.60802717208E+03  0.11555980308E+04  0.50400001928E-02 0.  1.
       -1    1    3    3    0  502 -0.37294295259E+03  0.90918827582E+03  0.10183101866E+04  0.14151556108E+04  0.50400001928E-02 0. -1.
</event>
<event>
 5   0  0.4959347E-05  0.2470989E+04  0.7818609E-02  0.8413394E-01
        2   -1    0    0  501    0  0.00000000000E+00  0.00000000000E+00  0.16752167488E+04  0.16752167488E+04  0.25500000920E-02 0. -1.
       -2   -1    0    0    0  501  0.00000000000E+00  0.00000000000E+00 -0.91119386275E+03  0.91119386275E+03  0.25500000920E-02 0.  1.
    10030    2    1    2    0    0  0.00000000000E+00  0.00000000000E+00  0.76402288606E+03  0.25864106116E+04  0.24709894539E+04 0.  0.
        3    1    3    3  502    0  0.32847301854E+03  0.20069003130E+03  0.16108496604E+04  0.16562027808E+04  0.10100000352E+00 0. -1.
       -3    1    3    3    0  502 -0.32847301854E+03 -0.20069003130E+03 -0.84682677431E+03  0.93020783078E+03  0.10100000352E+00 0.  1.
</event>
<event>
 5   0  0.2063930E-05  0.2520802E+04  0.7818609E-02  0.8395612E-01
       -1   -1    0    0    0  501  0.00000000000E+00  0.00000000000E+00  0.93240340160E+03  0.93240340161E+03  0.50400001928E-02 0. -1.
        1   -1    0    0  501    0  0.00000000000E+00  0.00000000000E+00 -0.17037802938E+04  0.17037802938E+04  0.50400001928E-02 0.  1.
    10030    2    1    2    0    0  0.00000000000E+00  0.00000000000E+00 -0.77137689220E+03  0.26361836954E+04  0.25208018895E+04 0.  0.
        3    1    3    3  502    0 -0.63910860336E+03 -0.45628309620E+03  0.64531557557E+03  0.10164085168E+04  0.10100000352E+00 0. -1.
       -3    1    3    3    0  502  0.63910860336E+03  0.45628309620E+03 -0.14166924678E+04  0.16197751786E+04  0.10100000352E+00 0.  1.
</event>
<event>
 5   0  0.2066170E-05  0.2217855E+04  0.7818609E-02  0.8511033E-01
       -1   -1    0    0    0  501  0.00000000000E+00  0.00000000000E+00  0.77318693201E+03  0.77318693203E+03  0.50400001928E-02 0.  1.
        1   -1    0    0  501    0  0.00000000000E+00  0.00000000000E+00 -0.15904563508E+04  0.15904563508E+04  0.50400001928E-02 0. -1.
    10030    2    1    2    0    0  0.00000000000E+00  0.00000000000E+00 -0.81726941879E+03  0.23636432828E+04  0.22178548793E+04 0.  0.
        5    1    3    3  502    0 -0.76848540740E+03  0.37749946462E+03 -0.11596727261E+04  0.14415056673E+04  0.46999998093E+01 0. -1.
       -5    1    3    3    0  502  0.76848540740E+03 -0.37749946462E+03  0.34240330730E+03  0.92213761556E+03  0.46999998093E+01 0.  1.
</event>
<event>
 5   0  0.2063930E-05  0.2485005E+04  0.7818609E-02  0.8408347E-01
        1   -1    0    0  501    0  0.00000000000E+00  0.00000000000E+00  0.15271367581E+04  0.15271367581E+04  0.50400001928E-02 0. -1.
       -1   -1    0    0    0  501  0.00000000000E+00  0.00000000000E+00 -0.10109199373E+04  0.10109199373E+04  0.50400001928E-02 0.  1.
    10030    2    1    2    0    0  0.00000000000E+00  0.00000000000E+00  0.51621682084E+03  0.25380566954E+04  0.24850054291E+04 0.  0.
        3    1    3    3  502    0 -0.60773507841E+03  0.36634078952E+03 -0.78359976390E+03  0.10571547189E+04  0.10100000352E+00 0.  1.
       -3    1    3    3    0  502  0.60773507841E+03 -0.36634078952E+03  0.12998165847E+04  0.14809019764E+04  0.10100000352E+00 0. -1.
</event>
<event>
 5   0  0.5024070E-05  0.2553758E+04  0.7818609E-02  0.8384080E-01
       -2   -1    0    0    0  501  0.00000000000E+00  0.00000000000E+00  0.13348429684E+04  0.13348429684E+04  0.25500000920E-02 0.  1.
        2   -1    0    0  501    0  0.00000000000E+00  0.00000000000E+00 -0.12214318072E+04  0.12214318072E+04  0.25500000920E-02 0. -1.
    10030    2    1    2    0    0  0.00000000000E+00  0.00000000000E+00  0.11341116120E+03  0.25562747755E+04  0.25537577482E+04 0.  0.
        5    1    3    3  502    0  0.67023612993E+03 -0.70089321850E+03  0.88814438109E+03  0.13150248307E+04  0.46999998093E+01 0.  1.
       -5    1    3    3    0  502 -0.67023612993E+03  0.70089321850E+03 -0.77473321989E+03  0.12412499449E+04  0.46999998093E+01 0. -1.
</event>
<event>
 5   0  0.5219468E-05  0.2525521E+04  0.7818609E-02  0.8393949E-01
        2   -1    0    0  501    0  0.00000000000E+00  0.00000000000E+00  0.11983346181E+04  0.11983346181E+04  0.25500000920E-02 0. -1.
       -2   -1    0    0    0  501  0.00000000000E+00  0.00000000000E+00 -0.13306505944E+04  0.13306505944E+04  0.25500000920E-02 0.  1.
    10030    2    1    2    0    0  0.00000000000E+00  0.00000000000E+00 -0.13231597625E+03  0.25289852125E+04  0.25255214684E+04 0.  0.
        1    1    3    3  502    0  0.28466206529E+03  0.94778930055E+03  0.71928223532E+03  0.12233985384E+04  0.50400001928E-02 0. -1.
       -1    1    3    3    0  502 -0.28466206529E+03 -0.94778930055E+03 -0.85159821157E+03  0.13055866741E+04  0.50400001928E-02 0.  1.
</event>
<event>
 5   0  0.5219468E-05  0.2448959E+04  0.7818609E-02  0.8421398E-01
        2   -1    0    0  501    0  0.00000000000E+00  0.00000000000E+00  0.14082741854E+04  0.14082741854E+04  0.25500000920E-02 0.  1.
       -2   -1    0    0    0  501  0.00000000000E+00  0.00000000000E+00 -0.10646716909E+04  0.10646716909E+04  0.25500000920E-02 0. -1.
    10030    2    1    2    0    0  0.00000000000E+00  0.00000000000E+00  0.34360249448E+03  0.24729458763E+04  0.24489586833E+04 0.  0.
        1    1    3    3  502    0  0.50487629115E+03 -0.18108689026E+03 -0.93973344939E+03  0.10820311858E+04  0.50400001928E-02 0. -1.
       -1    1    3    3    0  502 -0.50487629115E+03  0.18108689026E+03  0.12833359439E+04  0.13909146904E+04  0.50400001928E-02 0.  1.
</event>
<event>
 5   0  0.2036578E-05  0.2345834E+04  0.7818609E-02  0.8460065E-01
       -1   -1    0    0    0  501  0.00000000000E+00  0.00000000000E+00  0.10176584063E+04  0.10176584063E+04  0.50400001928E-02 0. -1.
        1   -1    0    0  501    0  0.00000000000E+00  0.00000000000E+00 -0.13518630809E+04  0.13518630809E+04  0.50400001928E-02 0.  1.
    10030    2    1    2    0    0  0.00000000000E+00  0.00000000000E+00 -0.33420467460E+03  0.23695214872E+04  0.23458344600E+04 0.  0.
        2    1    3    3  502    0 -0.35003815360E+03 -0.39964677233E+03 -0.12233622848E+04  0.13337389293E+04  0.25500000920E-02 0.  1.
       -2    1    3    3    0  502  0.35003815360E+03  0.39964677233E+03  0.88915761017E+03  0.10357825579E+04  0.25500000920E-02 0. -1.
</event>
<event>
 5   0  0.2036578E-05  0.2529089E+04  0.7818609E-02  0.8392695E-01
        1   -1    0    0  501    0  0.00000000000E+00  0.00000000000E+00  0.11677904995E+04  0.11677904995E+04  0.50400001928E-02 0.  1.
       -1   -1    0    0    0  501  0.00000000000E+00  0.00000000000E+00 -0.13693147068E+04  0.13693147068E+04  0.50400001928E-02 0. -1.
    10030    2    1    2    0    0  0.00000000000E+00  0.00000000000E+00 -0.20152420729E+03  0.25371052063E+04  0.25290889311E+04 0.  0.
        2    1    3    3  502    0 -0.27589655079E+03  0.43734567892E+03 -0.12584053196E+04  0.13605050893E+04  0.25500000920E-02 0. -1.
       -2    1    3    3    0  502  0.27589655079E+03 -0.43734567892E+03  0.10568811123E+04  0.11766001169E+04  0.25500000920E-02 0.  1.
</event>
<event>
 5   0  0.4995256E-05  0.2556600E+04  0.7818609E-02  0.8383095E-01
       -2   -1    0    0    0  501  0.00000000000E+00  0.00000000000E+00  0.11593344548E+04  0.11593344548E+04  0.25500000920E-02 0.  1.
        2   -1    0    0  501    0  0.00000000000E+00  0.00000000000E+00 -0.14094727108E+04  0.14094727108E+04  0.25500000920E-02 0. -1.
    10030    2    1    2    0    0  0.00000000000E+00  0.00000000000E+00 -0.25013825596E+03  0.25688071656E+04  0.25565995202E+04 0.  0.
        2    1    3    3  502    0  0.45529203098E+03 -0.12127969209E+03  0.10689023243E+04  0.11681403067E+04  0.25500000920E-02 0.  1.
       -2    1    3    3    0  502 -0.45529203098E+03  0.12127969209E+03 -0.13190405803E+04  0.14006668589E+04  0.25500000920E-02 0. -1.
</event>
<event>
 5   0  0.2066170E-05  0.2437327E+04  0.7818609E-02  0.8425660E-01
       -1   -1    0    0    0  501  0.00000000000E+00  0.00000000000E+00  0.85129377679E+03  0.85129377681E+03  0.50400001928E-02 0.  1.
        1   -1    0    0  501    0  0.00000000000E+00  0.00000000000E+00 -0.17445683100E+04  0.17445683100E+04  0.50400001928E-02 0. -1.
    10030    2    1    2    0    0  0.00000000000E+00  0.00000000000E+00 -0.89327453318E+03  0.25958620868E+04  0.24373265235E+04 0.  0.
        5    1    3    3  502    0  0.84910116434E+03  0.59475241469E+02 -0.13754931474E+04  0.16175640885E+04  0.46999998093E+01 0. -1.
       -5    1    3    3    0  502 -0.84910116434E+03 -0.59475241469E+02  0.48221861425E+03  0.97829799834E+03  0.46999998093E+01 0.  1.
</event>
<event>
 5   0  0.2041718E-05  0.2084576E+04  0.7818609E-02  0.8568069E-01
        1   -1    0    0  501    0  0.00000000000E+00  0.00000000000E+00  0.13016198316E+04  0.13016198316E+04  0.50400001928E-02 0.  1.
       -1   -1    0    0    0  501  0.00000000000E+00  0.00000000000E+00 -0.83462450718E+03  0.83462450720E+03  0.50400001928E-02 0. -1.
    10030    2    1    2    0    0  0.00000000000E+00  0.00000000000E+00  0.46699532443E+03  0.21362443388E+04  0.20845755544E+04 0.  0.
        4    1    3    3  502    0 -0.21004456220E+03  0.42249487797E+03 -0.71891506881E+03  0.85991925730E+03  0.12699999809E+01 0. -1.
       -4    1    3    3    0  502  0.21004456220E+03 -0.42249487797E+03  0.11859103932E+04  0.12763250815E+04  0.12699999809E+01 0.  1.
</event>
<event>
 5   0  0.2063930E-05  0.2536498E+04  0.7818609E-02  0.8390097E-01
        1   -1    0    0  501    0  0.00000000000E+00  0.00000000000E+00  0.16021263467E+04  0.16021263467E+04  0.50400001928E-02 0. -1.
       -1   -1    0    0    0  501  0.00000000000E+00  0.00000000000E+00 -0.10039503901E+04  0.10039503902E+04  0.50400001928E-02 0.  1.
    10030    2    1    2    0    0  0.00000000000E+00  0.00000000000E+00  0.59817595651E+03  0.26060767368E+04  0.25364978776E+04 0.  0.
        3    1    3    3  502    0 -0.60008280332E+03 -0.28634416366E+03  0.14086959424E+04  0.15577280312E+04  0.10100000352E+00 0. -1.
       -3    1    3    3    0  502  0.60008280332E+03  0.28634416366E+03 -0.81051998587E+03  0.10483487056E+04  0.10100000352E+00 0.  1.
</event>
<event>
 5   0  0.2066170E-05  0.2474452E+04  0.7818609E-02  0.8412144E-01
        1   -1    0    0  501    0  0.00000000000E+00  0.00000000000E+00  0.12867411339E+04  0.12867411340E+04  0.50400001928E-02 0.  1.
       -1   -1    0    0    0  501  0.00000000000E+00  0.00000000000E+00 -0.11896164166E+04  0.11896164166E+04  0.50400001928E-02 0. -1.
    10030    2    1    2    0    0  0.00000000000E+00  0.00000000000E+00  0.97124717315E+02  0.24763575506E+04  0.24744521631E+04 0.  0.
        5    1    3    3  502    0 -0.11128370201E+03  0.58481904825E+03  0.11339752639E+04  0.12807495347E+04  0.46999998093E+01 0.  1.
       -5    1    3    3    0  502  0.11128370201E+03 -0.58481904825E+03 -0.10368505466E+04  0.11956080158E+04  0.46999998093E+01 0. -1.
</event>
<event>
 5   0  0.4995256E-05  0.2488238E+04  0.7818609E-02  0.8407188E-01
       -2   -1    0    0    0  501  0.00000000000E+00  0.00000000000E+00  0.88565352825E+03  0.88565352826E+03  0.25500000920E-02 0.  1.
        2   -1    0    0  501    0  0.00000000000E+00  0.00000000000E+00 -0.17476724232E+04  0.17476724232E+04  0.25500000920E-02 0. -1.
    10030    2    1    2    0    0  0.00000000000E+00  0.00000000000E+00 -0.86201889495E+03  0.26333259515E+04  0.24882381300E+04 0.  0.
        2    1    3    3  502    0  0.24774937833E+03 -0.74918858236E+03  0.58693295487E+03  0.98343966766E+03  0.25500000920E-02 0.  1.
       -2    1    3    3    0  502 -0.24774937833E+03  0.74918858236E+03 -0.14489518498E+04  0.16498862838E+04  0.25500000920E-02 0. -1.
</event>
<event>
 5   0  0.4995256E-05  0.2485899E+04  0.7818609E-02  0.8408026E-01
       -2   -1    0    0    0  501  0.00000000000E+00  0.00000000000E+00  0.10473907413E+04  0.10473907413E+04  0.25500000920E-02 0.  1.
        2   -1    0    0  501    0  0.00000000000E+00  0.00000000000E+00 -0.14750209365E+04  0.14750209365E+04  0.25500000920E-02 0. -1.
    10030    2    1    2    0    0  0.00000000000E+00  0.00000000000E+00 -0.42763019521E+03  0.25224116779E+04  0.24858988493E+04 0.  0.
        2    1    3    3  502    0  0.53114738232E+03 -0.49367196134E+03  0.81051416304E+03  0.10875489670E+04  0.25500000920E-02 0.  1.
       -2    1    3    3    0  502 -0.53114738232E+03  0.49367196134E+03 -0.12381443582E+04  0.14348627109E+04  0.25500000920E-02 0. -1.
</event>
<event>
 5   0  0.2041718E-05  0.2509029E+04  0.7818609E-02  0.8399776E-01
       -1   -1    0    0    0  501  0.00000000000E+00  0.00000000000E+00  0.12918138418E+04  0.12918138418E+04  0.50400001928E-02 0. -1.
        1   -1    0    0  501    0  0.00000000000E+00  0.00000000000E+00 -0.12182924955E+04  0.12182924955E+04  0.50400001928E-02 0.  1.
    10030    2    1    2    0    0  0.00000000000E+00  0.00000000000E+00  0.73521346288E+02  0.25101063373E+04  0.25090293813E+04 0.  0.
        4    1    3    3  502    0 -0.40446126517E+03  0.41318763705E+03 -0.10770422027E+04  0.12224297353E+04  0.12699999809E+01 0.  1.
       -4    1    3    3    0  502  0.40446126517E+03 -0.41318763705E+03  0.11505635490E+04  0.12876766021E+04  0.12699999809E+01 0. -1.
</event>
<event>
 5   0  0.2081874E-05  0.2484128E+04  0.7818609E-02  0.8408662E-01
        1   -1    0    0  501    0  0.00000000000E+00  0.00000000000E+00  0.16646352363E+04  0.16646352363E+04  0.50400001928E-02 0.  1.
       -1   -1    0    0    0  501  0.00000000000E+00  0.00000000000E+00 -0.92676316081E+03  0.92676316083E+03  0.50400001928E-02 0. -1.
    10030    2    1    2    0    0  0.00000000000E+00  0.00000000000E+00  0.73787207544E+03  0.25913983971E+04  0.24841277046E+04 0.  0.
        1    1    3    3  502    0  0.73315441101E+03 -0.84375538156E+03 -0.19600680539E+03  0.11348379629E+04  0.50400001928E-02 0. -1.
       -1    1    3    3    0  502 -0.73315441101E+03  0.84375538156E+03  0.93387888083E+03  0.14565604342E+04  0.50400001928E-02 0.  1.
</event>
<event>
 5   0  0.2081874E-05  0.2457691E+04  0.7818609E-02  0.8418215E-01
       -1   -1    0    0    0  501  0.00000000000E+00  0.00000000000E+00  0.11080987433E+04  0.11080987433E+04  0.50400001928E-02 0.  1.
        1   -1    0    0  501    0  0.00000000000E+00  0.00000000000E+00 -0.13627502499E+04  0.13627502499E+04  0.50400001928E-02 0. -1.
    10030    2    1    2    0    0  0.00000000000E+00  0.00000000000E+00 -0.25465150658E+03  0.24708489932E+04  0.24576914691E+04 0.  0.
        1    1    3    3  502    0  0.29950758883E+03  0.50752476895E+03 -0.12114194190E+04  0.13471537387E+04  0.50400001928E-02 0. -1.
       -1    1    3    3    0  502 -0.29950758883E+03 -0.50752476895E+03  0.95676791239E+03  0.11236952545E+04  0.50400001928E-02 0.  1.
</event>
<event>
 5   0  0.2066170E-05  0.2212352E+04  0.7818609E-02  0.8513305E-01
        1   -1    0    0  501    0  0.00000000000E+00  0.00000000000E+00  0.20893055992E+04  0.20893055992E+04  0.50400001928E-02 0.  1.
       -1   -1    0    0    0  501  0.00000000000E+00  0.00000000000E+00 -0.58566115619E+03  0.58566115622E+03  0.50400001928E-02 0. -1.
    10030    2    1    2    0    0  0.00000000000E+00  0.00000000000E+00  0.15036444430E+04  0.26749667554E+04  0.22123518101E+04 0.  0.
        5    1    3    3  502    0 -0.43799651579E+03 -0.90700758274E+03  0.13047145065E+04  0.16482735624E+04  0.46999998093E+01 0.  1.
       -5    1    3    3    0  502  0.43799651579E+03  0.90700758274E+03  0.19892993650E+03  0.10266931930E+04  0.46999998093E+01 0. -1.
</event>
<event>
 5   0  0.5219468E-05  0.2496538E+04  0.7818609E-02  0.8404220E-01
       -2   -1    0    0    0  501  0.00000000000E+00  0.00000000000E+00  0.72261402447E+03  0.72261402447E+03  0.25500000920E-02 0. -1.
        2   -1    0    0  501    0  0.00000000000E+00  0.00000000000E+00 -0.21563041633E+04  0.21563041633E+04  0.25500000920E-02 0.  1.
    10030    2    1    2    0    0  0.00000000000E+00  0.00000000000E+00 -0.14336901389E+04  0.28789181878E+04  0.24965381066E+04 0.  0.
        1    1    3    3  502    0 -0.10257684930E+04  0.30160528849E+03 -0.14597270391E+04  0.18094114457E+04  0.50400001928E-02 0.  1.
       -1    1    3    3    0  502  0.10257684930E+04 -0.30160528849E+03  0.26036900203E+02  0.10695067421E+04  0.50400001928E-02 0. -1.
</event>
<event>
 5   0  0.4959347E-05  0.2425729E+04  0.7818609E-02  0.8429933E-01
       -2   -1    0    0    0  501  0.00000000000E+00  0.00000000000E+00  0.70799277066E+03  0.70799277066E+03  0.25500000920E-02 0.  1.
        2   -1    0    0  501    0  0.00000000000E+00  0.00000000000E+00 -0.20777611957E+04  0.20777611957E+04  0.25500000920E-02 0. -1.
    10030    2    1    2    0    0  0.00000000000E+00  0.00000000000E+00 -0.13697684251E+04  0.27857539664E+04  0.24257286788E+04 0.  0.
        3    1    3    3  502    0  0.43793091435E+03 -0.45698741648E+02  0.61296594738E+03  0.75471790994E+03  0.10100000352E+00 0.  1.
       -3    1    3    3    0  502 -0.43793091435E+03  0.45698741648E+02 -0.19827343725E+04  0.20310360565E+04  0.10100000352E+00 0. -1.
</event>
<event>
 5   0  0.5219468E-05  0.2459745E+04  0.7818609E-02  0.8417469E-01
       -2   -1    0    0    0  501  0.00000000000E+00  0.00000000000E+00  0.60822675438E+03  0.60822675439E+03  0.25500000920E-02 0.  1.
        2   -1    0    0  501    0  0.00000000000E+00  0.00000000000E+00 -0.24868784898E+04  0.24868784898E+04  0.25500000920E-02 0. -1.
    10030    2    1    2    0    0  0.00000000000E+00  0.00000000000E+00 -0.18786517354E+04  0.30951052442E+04  0.24597447285E+04 0.  0.
        1    1    3    3  502    0 -0.91656307480E+03  0.81770268553E+02 -0.19660673808E+04  0.21707591283E+04  0.50400001928E-02 0. -1.
       -1    1    3    3    0  502  0.91656307480E+03 -0.81770268553E+02  0.87415645431E+02  0.92434611591E+03  0.50400001928E-02 0.  1.
</event>
<event>
 5   0  0.4959347E-05  0.2294922E+04  0.7818609E-02  0.8479926E-01
       -2   -1    0    0    0  501  0.00000000000E+00  0.00000000000E+00  0.67322593312E+03  0.67322593313E+03  0.25500000920E-02 0.  1.
        2   -1    0    0  501    0  0.00000000000E+00  0.00000000000E+00 -0.19557570787E+04  0.19557570787E+04  0.25500000920E-02 0. -1.
    10030    2    1    2    0    0  0.00000000000E+00  0.00000000000E+00 -0.12825311456E+04  0.26289830119E+04  0.22949216843E+04 0.  0.
        3    1    3    3  502    0 -0.58273749652E+03 -0.15394151325E+03 -0.17598123671E+04  0.18601668089E+04  0.10100000352E+00 0. -1.
       -3    1    3    3    0  502  0.58273749652E+03  0.15394151325E+03  0.47728122148E+03  0.76881620296E+03  0.10100000352E+00 0.  1.
</event>
<event>
 5   0  0.5024070E-05  0.2575237E+04  0.7818609E-02  0.8376662E-01
        2   -1    0    0  501    0  0.00000000000E+00  0.00000000000E+00  0.19608458769E+04  0.19608458769E+04  0.25500000920E-02 0. -1.
       -2   -1    0    0    0  501  0.00000000000E+00  0.00000000000E+00 -0.84553358046E+03  0.84553358047E+03  0.25500000920E-02 0.  1.
    10030    2    1    2    0    0  0.00000000000E+00  0.00000000000E+00  0.11153122964E+04  0.28063794574E+04  0.25752367154E+04 0.  0.
        5    1    3    3  502    0 -0.10896954139E+02  0.33718867767E+03  0.19118172151E+04  0.19413608891E+04  0.46999998093E+01 0. -1.
       -5    1    3    3    0  502  0.10896954139E+02 -0.33718867767E+03 -0.79650491865E+03  0.86501856823E+03  0.46999998093E+01 0.  1.
</event>
<event>
 5   0  0.2036578E-05  0.2504738E+04  0.7818609E-02  0.8401300E-01
        1   -1    0    0  501    0  0.00000000000E+00  0.00000000000E+00  0.15760775486E+04  0.15760775486E+04  0.50400001928E-02 0.  1.
       -1   -1    0    0    0  501  0.00000000000E+00  0.00000000000E+00 -0.99514643550E+03  0.99514643552E+03  0.50400001928E-02 0. -1.
    10030    2    1    2    0    0  0.00000000000E+00  0.00000000000E+00  0.58093111305E+03  0.25712239841E+04  0.25047378741E+04 0.  0.
        2    1    3    3  502    0 -0.59560775034E+03  0.10971010001E+04  0.18756118701E+03  0.12623622284E+04  0.25500000920E-02 0.  1.
       -2    1    3    3    0  502  0.59560775034E+03 -0.10971010001E+04  0.39336992604E+03  0.13088617557E+04  0.25500000920E-02 0. -1.
</event>
<event>
 5   0  0.2063930E-05  0.2490277E+04  0.7818609E-02  0.8406458E-01
       -1   -1    0    0    0  501  0.00000000000E+00  0.00000000000E+00  0.15277315405E+04  0.15277315405E+04  0.50400001928E-02 0.  1.
        1   -1    0    0  501    0  0.00000000000E+00  0.00000000000E+00 -0.10148184292E+04  0.10148184292E+04  0.50400001928E-02 0. -1.
    10030    2    1    2    0    0  0.00000000000E+00  0.00000000000E+00  0.51291311131E+03  0.25425499696E+04  0.24902771911E+04 0.  0.
        3    1    3    3  502    0  0.74756664209E+03  0.15297120289E+03 -0.74812468771E+03  0.10686190303E+04  0.10100000352E+00 0. -1.
       -3    1    3    3    0  502 -0.74756664209E+03 -0.15297120289E+03  0.12610377990E+04  0.14739309394E+04  0.10100000352E+00 0.  1.
</event>
<event>
 5   0  0.5219468E-05  0.2493231E+04  0.7818609E-02  0.8405401E-01
       -2   -1    0    0    0  501  0.00000000000E+00  0.00000000000E+00  0.10314551431E+04  0.10314551431E+04  0.25500000920E-02 0.  1.
        2   -1    0    0  501    0  0.00000000000E+00  0.00000000000E+00 -0.15066580016E+04  0.15066580016E+04  0.25500000920E-02 0. -1.
    10030    2    1    2    0    0  0.00000000000E+00  0.00000000000E+00 -0.47520285847E+03  0.25381131448E+04  0.24932309518E+04 0.  0.
        1    1    3    3  502    0  0.61890254516E+03 -0.35389931879E+03 -0.12786369103E+04  0.14639663373E+04  0.50400001928E-02 0. -1.
       -1    1    3    3    0  502 -0.61890254516E+03  0.35389931879E+03  0.80343405187E+03  0.10741468075E+04  0.50400001928E-02 0.  1.
</event>
<event>
 5   0  0.2063930E-05  0.2515541E+04  0.7818609E-02  0.8397470E-01
       -1   -1    0    0    0  501  0.00000000000E+00  0.00000000000E+00  0.97041191552E+03  0.97041191554E+03  0.50400001928E-02 0.  1.
        1   -1    0    0  501    0  0.00000000000E+00  0.00000000000E+00 -0.16302224165E+04  0.16302224165E+04  0.50400001928E-02 0. -1.
    10030    2    1    2    0    0  0.00000000000E+00  0.00000000000E+00 -0.65981050098E+03  0.26006343321E+04  0.25155414987E+04 0.  0.
        3    1    3    3  502    0  0.11991534766E+04  0.34833775007E+03 -0.48559490278E+03  0.13398174011E+04  0.10100000352E+00 0. -1.
       -3    1    3    3    0  502 -0.11991534766E+04 -0.34833775007E+03 -0.17421559820E+03  0.12608169309E+04  0.10100000352E+00 0.  1.
</event>
<event>
 5   0  0.2036578E-05  0.2503750E+04  0.7818609E-02  0.8401651E-01
        1   -1    0    0  501    0  0.00000000000E+00  0.00000000000E+00  0.16183747196E+04  0.16183747196E+04  0.50400001928E-02 0.  1.
       -1   -1    0    0    0  501  0.00000000000E+00  0.00000000000E+00 -0.96837336572E+03  0.96837336574E+03  0.50400001928E-02 0. -1.
    10030    2    1    2    0    0  0.00000000000E+00  0.00000000000E+00  0.65000135391E+03  0.25867480854E+04  0.25037499670E+04 0.  0.
        2    1    3    3  502    0 -0.96605485912E+02 -0.50372206846E+03  0.15048386297E+04  0.15898452264E+04  0.25500000920E-02 0.  1.
       -2    1    3    3    0  502  0.96605485912E+02  0.50372206846E+03 -0.85483727584E+03  0.99690285903E+03  0.25500000920E-02 0. -1.
</event>
<event>
 5   0  0.2041718E-05  0.2479277E+04  0.7818609E-02  0.8410406E-01
       -1   -1    0    0    0  501  0.00000000000E+00  0.00000000000E+00  0.11529914455E+04  0.11529914455E+04  0.50400001928E-02 0. -1.
        1   -1    0    0  501    0  0.00000000000E+00  0.00000000000E+00 -0.13327966218E+04  0.13327966218E+04  0.50400001928E-02 0.  1.
    10030    2    1    2    0    0  0.00000000000E+00  0.00000000000E+00 -0.17980517632E+03  0.24857880672E+04  0.24792765908E+04 0.  0.
        4    1    3    3  502    0  0.11955289146E+03 -0.71324675442E+03  0.91956225847E+03  0.11698761416E+04  0.12699999809E+01 0. -1.
       -4    1    3    3    0  502 -0.11955289146E+03  0.71324675442E+03 -0.10993674348E+04  0.13159119257E+04  0.12699999809E+01 0.  1.
</event>
<event>
 5   0  0.4959042E-05  0.2550077E+04  0.7818609E-02  0.8385360E-01
        2   -1    0    0  501    0  0.00000000000E+00  0.00000000000E+00  0.24915817678E+04  0.24915817678E+04  0.25500000920E-02 0. -1.
       -2   -1    0    0    0  501  0.00000000000E+00  0.00000000000E+00 -0.65248620686E+03  0.65248620687E+03  0.25500000920E-02 0.  1.
    10030    2    1    2    0    0  0.00000000000E+00  0.00000000000E+00  0.18390955610E+04  0.31440679747E+04  0.25500766552E+04 0.  0.
        4    1    3    3  502    0  0.54110961793E+03 -0.81030288976E+03 -0.94406218536E+02  0.97893030332E+03  0.12699999809E+01 0.  1.
       -4    1    3    3    0  502 -0.54110961793E+03  0.81030288976E+03  0.19335017795E+04  0.21651376714E+04  0.12699999809E+01 0. -1.
</event>
<event>
 5   0  0.2066170E-05  0.2695335E+04  0.7818609E-02  0.8336520E-01
       -1   -1    0    0    0  501  0.00000000000E+00  0.00000000000E+00  0.14004519579E+04  0.14004519580E+04  0.50400001928E-02 0. -1.
        1   -1    0    0  501    0  0.00000000000E+00  0.00000000000E+00 -0.12968726739E+04  0.12968726739E+04  0.50400001928E-02 0.  1.
    10030    2    1    2    0    0  0.00000000000E+00  0.00000000000E+00  0.10357928406E+03  0.26973246319E+04  0.26953351371E+04 0.  0.
        5    1    3    3  502    0  0.69010000791E+03  0.64981095030E+03  0.10104599392E+04  0.13854759726E+04  0.46999998093E+01 0. -1.
       -5    1    3    3    0  502 -0.69010000791E+03 -0.64981095030E+03 -0.90688065513E+03  0.13118486592E+04  0.46999998093E+01 0.  1.
</event>
<event>
 5   0  0.2066170E-05  0.2496873E+04  0.7818609E-02  0.8404100E-01
        1   -1    0    0  501    0  0.00000000000E+00  0.00000000000E+00  0.18142641185E+04  0.18142641185E+04  0.50400001928E-02 0. -1.
       -1   -1    0    0    0  501  0.00000000000E+00  0.00000000000E+00 -0.85907776708E+03  0.85907776709E+03  0.50400001928E-02 0.  1.
    10030    2    1    2    0    0  0.00000000000E+00  0.00000000000E+00  0.95518635143E+03  0.26733418856E+04  0.24968732189E+04 0.  0.
        5    1    3    3  502    0  0.77405204965E+03 -0.94928200655E+03  0.73606544846E+03  0.14290232111E+04  0.46999998093E+01 0. -1.
       -5    1    3    3    0  502 -0.77405204965E+03  0.94928200655E+03  0.21912090297E+03  0.12443186745E+04  0.46999998093E+01 0.  1.
</event>
<event>
 5   0  0.2066170E-05  0.2399255E+04  0.7818609E-02  0.8439782E-01
        1   -1    0    0  501    0  0.00000000000E+00  0.00000000000E+00  0.10675418313E+04  0.10675418313E+04  0.50400001928E-02 0. -1.
       -1   -1    0    0    0  501  0.00000000000E+00  0.00000000000E+00 -0.13480562978E+04  0.13480562978E+04  0.50400001928E-02 0.  1.
    10030    2    1    2    0    0  0.00000000000E+00  0.00000000000E+00 -0.28051446645E+03  0.24155981291E+04  0.23992552919E+04 0.  0.
        5    1    3    3  502    0 -0.71825647668E+03  0.94636732088E+03 -0.30746353808E+03  0.12272161136E+04  0.46999998093E+01 0.  1.
       -5    1    3    3    0  502  0.71825647668E+03 -0.94636732088E+03  0.26949071632E+02  0.11883820155E+04  0.46999998093E+01 0. -1.
</event>
<event>
 5   0  0.5024070E-05  0.2629923E+04  0.7818609E-02  0.8358108E-01
        2   -1    0    0  501    0  0.00000000000E+00  0.00000000000E+00  0.12975259744E+04  0.12975259744E+04  0.25500000920E-02 0.  1.
       -2   -1    0    0    0  501  0.00000000000E+00  0.00000000000E+00 -0.13326312344E+04  0.13326312344E+04  0.25500000920E-02 0. -1.
    10030    2    1    2    0    0  0.00000000000E+00  0.00000000000E+00 -0.35105259930E+02  0.26301572088E+04  0.26299229197E+04 0.  0.
        5    1    3    3  502    0  0.43646174017E+03 -0.54420678269E+03 -0.11323006086E+04  0.13299573795E+04  0.46999998093E+01 0. -1.
       -5    1    3    3    0  502 -0.43646174017E+03  0.54420678269E+03  0.10971953487E+04  0.13001998293E+04  0.46999998093E+01 0.  1.
</event>
<event>
 5   0  0.4959347E-05  0.2469150E+04  0.7818609E-02  0.8414059E-01
       -2   -1    0    0    0  501  0.00000000000E+00  0.00000000000E+00  0.93287018348E+03  0.93287018348E+03  0.25500000920E-02 0.  1.
        2   -1    0    0  501    0  0.00000000000E+00  0.00000000000E+00 -0.16338554597E+04  0.16338554597E+04  0.25500000920E-02 0. -1.
    10030    2    1    2    0    0  0.00000000000E+00  0.00000000000E+00 -0.70098527620E+03  0.25667256432E+04  0.24691496856E+04 0.  0.
        3    1    3    3  502    0 -0.40203277830E+03 -0.82671005515E+03 -0.12071306648E+04  0.15173148395E+04  0.10100000352E+00 0. -1.
       -3    1    3    3    0  502  0.40203277830E+03  0.82671005515E+03  0.50614538864E+03  0.10494108036E+04  0.10100000352E+00 0.  1.
</event>
<event>
 5   0  0.2036578E-05  0.1700511E+04  0.7818609E-02  0.8761073E-01
       -1   -1    0    0    0  501  0.00000000000E+00  0.00000000000E+00  0.10472388235E+04  0.10472388235E+04  0.50400001928E-02 0. -1.
        1   -1    0    0  501    0  0.00000000000E+00  0.00000000000E+00 -0.69032426069E+03  0.69032426071E+03  0.50400001928E-02 0.  1.
    10030    2    1    2    0    0  0.00000000000E+00  0.00000000000E+00  0.35691456283E+03  0.17375630842E+04  0.17005109428E+04 0.  0.
        2    1    3    3  502    0 -0.67146892958E+03  0.63594092611E+02 -0.35052905632E+03  0.76012193189E+03  0.25500000920E-02 0.  1.
       -2    1    3    3    0  502  0.67146892958E+03 -0.63594092611E+02  0.70744361916E+03  0.97744115235E+03  0.25500000920E-02 0. -1.
</event>
<event>
 5   0  0.2036578E-05  0.2700436E+04  0.7818609E-02  0.8334864E-01
       -1   -1    0    0    0  501  0.00000000000E+00  0.00000000000E+00  0.12132096949E+04  0.12132096950E+04  0.50400001928E-02 0.  1.
        1   -1    0    0  501    0  0.00000000000E+00  0.00000000000E+00 -0.15026986918E+04  0.15026986918E+04  0.50400001928E-02 0. -1.
    10030    2    1    2    0    0  0.00000000000E+00  0.00000000000E+00 -0.28948899682E+03  0.27159083867E+04  0.27004359807E+04 0.  0.
        2    1    3    3  502    0 -0.21124361644E+03  0.10144113627E+04 -0.10154033622E+04  0.14507578248E+04  0.25500000920E-02 0. -1.
       -2    1    3    3    0  502  0.21124361644E+03 -0.10144113627E+04  0.72591436543E+03  0.12651505619E+04  0.25500000920E-02 0.  1.
</event>
<event>
 5   0  0.5219468E-05  0.2483201E+04  0.7818609E-02  0.8408995E-01
        2   -1    0    0  501    0  0.00000000000E+00  0.00000000000E+00  0.21617697714E+04  0.21617697714E+04  0.25500000920E-02 0. -1.
       -2   -1    0    0    0  501  0.00000000000E+00  0.00000000000E+00 -0.71310636671E+03  0.71310636672E+03  0.25500000920E-02 0.  1.
    10030    2    1    2    0    0  0.00000000000E+00  0.00000000000E+00  0.14486634047E+04  0.28748761381E+04  0.24832009885E+04 0.  0.
        1    1    3    3  502    0  0.82301006137E+03  0.16383762101E+03 -0.33509143859E+03  0.90358984026E+03  0.50400001928E-02 0.  1.
       -1    1    3    3    0  502 -0.82301006137E+03 -0.16383762101E+03  0.17837548433E+04  0.19712862978E+04  0.50400001928E-02 0. -1.
</event>
<event>
 5   0  0.5219468E-05  0.2458312E+04  0.7818609E-02  0.8417990E-01
       -2   -1    0    0    0  501  0.00000000000E+00  0.00000000000E+00  0.83274550873E+03  0.83274550873E+03  0.25500000920E-02 0.  1.
        2   -1    0    0  501    0  0.00000000000E+00  0.00000000000E+00 -0.18142688012E+04  0.18142688012E+04  0.25500000920E-02 0. -1.
    10030    2    1    2    0    0  0.00000000000E+00  0.00000000000E+00 -0.98152329244E+03  0.26470143099E+04  0.24583117750E+04 0.  0.
        1    1    3    3  502    0 -0.11929996158E+04 -0.26369412960E+03 -0.63539080924E+03  0.13771362161E+04  0.50400001928E-02 0. -1.
       -1    1    3    3    0  502  0.11929996158E+04  0.26369412960E+03 -0.34613248319E+03  0.12698780938E+04  0.50400001928E-02 0.  1.
</event>
<event>
 5   0  0.4959347E-05  0.2445339E+04  0.7818609E-02  0.8422722E-01
       -2   -1    0    0    0  501  0.00000000000E+00  0.00000000000E+00  0.14227485790E+04  0.14227485790E+04  0.25500000920E-02 0. -1.
        2   -1    0    0  501    0  0.00000000000E+00  0.00000000000E+00 -0.10507272739E+04  0.10507272739E+04  0.25500000920E-02 0.  1.
    10030    2    1    2    0    0  0.00000000000E+00  0.00000000000E+00  0.37202130505E+03  0.24734758529E+04  0.24453390242E+04 0.  0.
        3    1    3    3  502    0 -0.10030637503E+04 -0.54885238011E+03 -0.25203687102E+03  0.11708537129E+04  0.10100000352E+00 0. -1.
       -3    1    3    3    0  502  0.10030637503E+04  0.54885238011E+03  0.62405817607E+03  0.13026221400E+04  0.10100000352E+00 0.  1.
</event>
<event>
 5   0  0.2041718E-05  0.2445197E+04  0.7818609E-02  0.8422774E-01
        1   -1    0    0  501    0  0.00000000000E+00  0.00000000000E+00  0.80193046742E+03  0.80193046744E+03  0.50400001928E-02 0. -1.
       -1   -1    0    0    0  501  0.00000000000E+00  0.00000000000E+00 -0.18639354696E+04  0.18639354696E+04  0.50400001928E-02 0.  1.
    10030    2    1    2    0    0  0.00000000000E+00  0.00000000000E+00 -0.10620050022E+04  0.26658659371E+04  0.24451966321E+04 0.  0.
        4    1    3    3  502    0 -0.70165960487E+03  0.12135679526E+03  0.55251303582E+03  0.90129126286E+03  0.12699999809E+01 0. -1.
       -4    1    3    3    0  502  0.70165960487E+03 -0.12135679526E+03 -0.16145180380E+04  0.17645746742E+04  0.12699999809E+01 0.  1.
</event>
<event>
 5   0  0.2041718E-05  0.2469939E+04  0.7818609E-02  0.8413774E-01
        1   -1    0    0  501    0  0.00000000000E+00  0.00000000000E+00  0.21602728483E+04  0.21602728483E+04  0.50400001928E-02 0.  1.
       -1   -1    0    0    0  501  0.00000000000E+00  0.00000000000E+00 -0.70599845006E+03  0.70599845008E+03  0.50400001928E-02 0. -1.
    10030    2    1    2    0    0  0.00000000000E+00  0.00000000000E+00  0.14542743983E+04  0.28662712984E+04  0.24699386897E+04 0.  0.
        4    1    3    3  502    0  0.85727350696E+03  0.50946760795E+03 -0.11822814103E+03  0.10042184103E+04  0.12699999809E+01 0. -1.
       -4    1    3    3    0  502 -0.85727350696E+03 -0.50946760795E+03  0.15725025393E+04  0.18620528881E+04  0.12699999809E+01 0.  1.
</event>
<event>
 5   0  0.2081874E-05  0.2469503E+04  0.7818609E-02  0.8413931E-01
       -1   -1    0    0    0  501  0.00000000000E+00  0.00000000000E+00  0.15040896060E+04  0.15040896060E+04  0.50400001928E-02 0.  1.
        1   -1    0    0  501    0  0.00000000000E+00  0.00000000000E+00 -0.10136441241E+04  0.10136441242E+04  0.50400001928E-02 0. -1.
    10030    2    1    2    0    0  0.00000000000E+00  0.00000000000E+00  0.49044548184E+03  0.25177337302E+04  0.24695032629E+04 0.  0.
        1    1    3    3  502    0  0.11646489900E+04 -0.65656968222E+02  0.65796699640E+03  0.13392679626E+04  0.50400001928E-02 0.  1.
       -1    1    3    3    0  502 -0.11646489900E+04  0.65656968222E+02 -0.16752151456E+03  0.11784657675E+04  0.50400001928E-02 0. -1.
</event>
<event>
 5   0  0.5024070E-05  0.2533236E+04  0.7818609E-02  0.8391240E-01
       -2   -1    0    0    0  501  0.00000000000E+00  0.00000000000E+00  0.17140755988E+04  0.17140755988E+04  0.25500000920E-02 0.  1.
        2   -1    0    0  501    0  0.00000000000E+00  0.00000000000E+00 -0.93596838732E+03  0.93596838733E+03  0.25500000920E-02 0. -1.
    10030    2    1    2    0    0  0.00000000000E+00  0.00000000000E+00  0.77810721145E+03  0.26500439861E+04  0.25332355389E+04 0.  0.
        5    1    3    3  502    0 -0.12618721589E+03  0.12135429976E+04  0.74486750759E+03  0.14294962450E+04  0.46999998093E+01 0.  1.
       -5    1    3    3    0  502  0.12618721589E+03 -0.12135429976E+04  0.33239703858E+02  0.12205477411E+04  0.46999998093E+01 0. -1.
</event>
<event>
 5   0  0.2063930E-05  0.2541187E+04  0.7818609E-02  0.8388458E-01
       -1   -1    0    0    0  501  0.00000000000E+00  0.00000000000E+00  0.13448861544E+04  0.13448861544E+04  0.50400001928E-02 0. -1.
        1   -1    0    0  501    0  0.00000000000E+00  0.00000000000E+00 -0.12004049896E+04  0.12004049896E+04  0.50400001928E-02 0.  1.
    10030    2    1    2    0    0  0.00000000000E+00  0.00000000000E+00  0.14448116487E+03  0.25452911440E+04  0.25411871637E+04 0.  0.
        3    1    3    3  502    0  0.18111175036E+03 -0.98318061697E+03 -0.71322129637E+03  0.12280595342E+04  0.10100000352E+00 0. -1.
       -3    1    3    3    0  502 -0.18111175036E+03  0.98318061697E+03  0.85770246123E+03  0.13172316098E+04  0.10100000352E+00 0.  1.
</event>
<event>
 5   0  0.1692125E-05  0.2501859E+04  0.7818609E-02  0.8402324E-01
        4   -1    0    0  501    0  0.00000000000E+00  0.00000000000E+00  0.16432963932E+04  0.16432968839E+04  0.12699999809E+01 0. -1.
       -4   -1    0    0    0  501  0.00000000000E+00  0.00000000000E+00 -0.95224610896E+03  0.95224695585E+03  0.12699999809E+01 0.  1.
    10030    2    1    2    0    0  0.00000000000E+00  0.00000000000E+00  0.69105028424E+03  0.25955438398E+04  0.25018587748E+04 0.  0.
        2    1    3    3  502    0 -0.84649370658E+02 -0.10613637309E+04 -0.33569542908E+03  0.11164004238E+04  0.25500000920E-02 0.  1.
       -2    1    3    3    0  502  0.84649370658E+02  0.10613637309E+04  0.10267457133E+04  0.14791434160E+04  0.25500000920E-02 0. -1.
</event>
<event>
 5   0  0.5219468E-05  0.2436445E+04  0.7818609E-02  0.8425984E-01
        2   -1    0    0  501    0  0.00000000000E+00  0.00000000000E+00  0.16349612616E+04  0.16349612616E+04  0.25500000920E-02 0. -1.
       -2   -1    0    0    0  501  0.00000000000E+00  0.00000000000E+00 -0.90770719984E+03  0.90770719985E+03  0.25500000920E-02 0.  1.
    10030    2    1    2    0    0  0.00000000000E+00  0.00000000000E+00  0.72725406171E+03  0.25426684614E+04  0.24364450403E+04 0.  0.
        1    1    3    3  502    0  0.45079242375E+03  0.10869502864E+04  0.69263579306E+03  0.13654373205E+04  0.50400001928E-02 0. -1.
       -1    1    3    3    0  502 -0.45079242375E+03 -0.10869502864E+04  0.34618268656E+02  0.11772311409E+04  0.50400001928E-02 0.  1.
</event>
<event>
 5   0  0.4959042E-05  0.2532233E+04  0.7818609E-02  0.8391592E-01
        2   -1    0    0  501    0  0.00000000000E+00  0.00000000000E+00  0.12685336656E+04  0.12685336656E+04  0.25500000920E-02 0. -1.
       -2   -1    0    0    0  501  0.00000000000E+00  0.00000000000E+00 -0.12637039341E+04  0.12637039341E+04  0.25500000920E-02 0.  1.
    10030    2    1    2    0    0  0.00000000000E+00  0.00000000000E+00  0.48297314324E+01  0.25322375997E+04  0.25322329938E+04 0.  0.
        4    1    3    3  502    0  0.37670992049E+03  0.66133921116E+03  0.10142316370E+04  0.12680486359E+04  0.12699999809E+01 0.  1.
       -4    1    3    3    0  502 -0.37670992049E+03 -0.66133921116E+03 -0.10094019056E+04  0.12641889639E+04  0.12699999809E+01 0. -1.
</event>
<event>
 5   0  0.5024070E-05  0.2464651E+04  0.7818609E-02  0.8415688E-01
        2   -1    0    0  501    0  0.00000000000E+00  0.00000000000E+00  0.21158839216E+04  0.21158839216E+04  0.25500000920E-02 0.  1.
       -2   -1    0    0    0  501  0.00000000000E+00  0.00000000000E+00 -0.71772669844E+03  0.71772669844E+03  0.25500000920E-02 0. -1.
    10030    2    1    2    0    0  0.00000000000E+00  0.00000000000E+00  0.13981572232E+04  0.28336106201E+04  0.24646511975E+04 0.  0.
        5    1    3    3  502    0  0.28415884152E+02 -0.70306461594E+03  0.18622078886E+04  0.19907153556E+04  0.46999998093E+01 0.  1.
       -5    1    3    3    0  502 -0.28415884152E+02  0.70306461594E+03 -0.46405066547E+03  0.84289526442E+03  0.46999998093E+01 0. -1.
</event>
<event>
 5   0  0.2041718E-05  0.2631787E+04  0.7818609E-02  0.8357483E-01
        1   -1    0    0  501    0  0.00000000000E+00  0.00000000000E+00  0.14747326633E+04  0.14747326633E+04  0.50400001928E-02 0.  1.
       -1   -1    0    0    0  501  0.00000000000E+00  0.00000000000E+00 -0.11741627402E+04  0.11741627402E+04  0.50400001928E-02 0. -1.
    10030    2    1    2    0    0  0.00000000000E+00  0.00000000000E+00  0.30056992304E+03  0.26488954035E+04  0.26317873357E+04 0.  0.
        4    1    3    3  502    0 -0.76161446416E+03 -0.69862443889E+03 -0.66952925137E+03  0.12314234568E+04  0.12699999809E+01 0. -1.
       -4    1    3    3    0  502  0.76161446416E+03  0.69862443889E+03  0.97009917441E+03  0.14174719467E+04  0.12699999809E+01 0.  1.
</event>
<event>
 5   0  0.5219468E-05  0.2476211E+04  0.7818609E-02  0.8411510E-01
        2   -1    0    0  501    0  0.00000000000E+00  0.00000000000E+00  0.12327137023E+04  0.12327137023E+04  0.25500000920E-02 0. -1.
       -2   -1    0    0    0  501  0.00000000000E+00  0.00000000000E+00 -0.12435210418E+04  0.12435210418E+04  0.25500000920E-02 0.  1.
    10030    2    1    2    0    0  0.00000000000E+00  0.00000000000E+00 -0.10807339454E+02  0.24762347441E+04  0.24762111601E+04 0.  0.
        1    1    3    3  502    0 -0.17767988190E+01  0.64779668002E+03 -0.10605259080E+04  0.12427223733E+04  0.50400001928E-02 0.  1.
       -1    1    3    3    0  502  0.17767988190E+01 -0.64779668002E+03  0.10497185685E+04  0.12335123707E+04  0.50400001928E-02 0. -1.
</event>
<event>
 5   0  0.2041718E-05  0.2505465E+04  0.7818609E-02  0.8401041E-01
        1   -1    0    0  501    0  0.00000000000E+00  0.00000000000E+00  0.12422603204E+04  0.12422603204E+04  0.50400001928E-02 0.  1.
       -1   -1    0    0    0  501  0.00000000000E+00  0.00000000000E+00 -0.12632932456E+04  0.12632932456E+04  0.50400001928E-02 0. -1.
    10030    2    1    2    0    0  0.00000000000E+00  0.00000000000E+00 -0.21032925190E+02  0.25055535661E+04  0.25054652838E+04 0.  0.
        4    1    3    3  502    0  0.58077691060E+03  0.40827136660E+03 -0.10427108285E+04  0.12614415616E+04  0.12699999809E+01 0. -1.
       -4    1    3    3    0  502 -0.58077691060E+03 -0.40827136660E+03  0.10216779033E+04  0.12441120045E+04  0.12699999809E+01 0.  1.
</event>
<event>
 5   0  0.2036578E-05  0.2407759E+04  0.7818609E-02  0.8436604E-01
       -1   -1    0    0    0  501  0.00000000000E+00  0.00000000000E+00  0.12901101477E+04  0.12901101477E+04  0.50400001928E-02 0.  1.
        1   -1    0    0  501    0  0.00000000000E+00  0.00000000000E+00 -0.11234125522E+04  0.11234125522E+04  0.50400001928E-02 0. -1.
    10030    2    1    2    0    0  0.00000000000E+00  0.00000000000E+00  0.16669759549E+03  0.24135226999E+04  0.24077590690E+04 0.  0.
        2    1    3    3  502    0 -0.68365379219E+03 -0.53007166135E+03  0.92259095098E+03  0.12647262694E+04  0.25500000920E-02 0.  1.
       -2    1    3    3    0  502  0.68365379219E+03  0.53007166135E+03 -0.75589335549E+03  0.11487964305E+04  0.25500000920E-02 0. -1.
</event>
<event>
 5   0  0.2036578E-05  0.1791063E+04  0.7818609E-02  0.8711067E-01
        1   -1    0    0  501    0  0.00000000000E+00  0.00000000000E+00  0.96899091125E+03  0.96899091127E+03  0.50400001928E-02 0.  1.
       -1   -1    0    0    0  501  0.00000000000E+00  0.00000000000E+00 -0.82764082471E+03  0.82764082472E+03  0.50400001928E-02 0. -1.
    10030    2    1    2    0    0  0.00000000000E+00  0.00000000000E+00  0.14135008654E+03  0.17966317360E+04  0.17910627426E+04 0.  0.
        2    1    3    3  502    0 -0.49968578748E+03 -0.24406501816E+03  0.77479978399E+03  0.95371291517E+03  0.25500000920E-02 0.  1.
       -2    1    3    3    0  502  0.49968578748E+03  0.24406501816E+03 -0.63344969744E+03  0.84291882082E+03  0.25500000920E-02 0. -1.
</event>
<event>
 5   0  0.2081874E-05  0.2428596E+04  0.7818609E-02  0.8428875E-01
       -1   -1    0    0    0  501  0.00000000000E+00  0.00000000000E+00  0.97945487712E+03  0.97945487713E+03  0.50400001928E-02 0. -1.
        1   -1    0    0  501    0  0.00000000000E+00  0.00000000000E+00 -0.15054491151E+04  0.15054491151E+04  0.50400001928E-02 0.  1.
    10030    2    1    2    0    0  0.00000000000E+00  0.00000000000E+00 -0.52599423800E+03  0.24849039923E+04  0.24285958726E+04 0.  0.
        1    1    3    3  502    0  0.36143725943E+03  0.10029100225E+04 -0.85790188353E+03  0.13683789854E+04  0.50400001928E-02 0.  1.
       -1    1    3    3    0  502 -0.36143725943E+03 -0.10029100225E+04  0.33190764552E+03  0.11165250069E+04  0.50400001928E-02 0. -1.
</event>
<event>
 5   0  0.2041718E-05  0.2491728E+04  0.7818609E-02  0.8405938E-01
       -1   -1    0    0    0  501  0.00000000000E+00  0.00000000000E+00  0.10869615520E+04  0.10869615521E+04  0.50400001928E-02 0.  1.
        1   -1    0    0  501    0  0.00000000000E+00  0.00000000000E+00 -0.14279960223E+04  0.14279960223E+04  0.50400001928E-02 0. -1.
    10030    2    1    2    0    0  0.00000000000E+00  0.00000000000E+00 -0.34103447028E+03  0.25149575744E+04  0.24917277321E+04 0.  0.
        4    1    3    3  502    0 -0.98597031201E+02 -0.24666076942E+03 -0.13990800251E+04  0.14240749416E+04  0.12699999809E+01 0. -1.
       -4    1    3    3    0  502  0.98597031201E+02  0.24666076942E+03  0.10580455548E+04  0.10908826328E+04  0.12699999809E+01 0.  1.
</event>
<event>
 5   0  0.4959042E-05  0.2472132E+04  0.7818609E-02  0.8412981E-01
        2   -1    0    0  501    0  0.00000000000E+00  0.00000000000E+00  0.21455513925E+04  0.21455513925E+04  0.25500000920E-02 0. -1.
       -2   -1    0    0    0  501  0.00000000000E+00  0.00000000000E+00 -0.71210574930E+03  0.71210574931E+03  0.25500000920E-02 0.  1.
    10030    2    1    2    0    0  0.00000000000E+00  0.00000000000E+00  0.14334456432E+04  0.28576571418E+04  0.24721322635E+04 0.  0.
        4    1    3    3  502    0  0.11097088774E+04 -0.40363163225E+03  0.29438925631E+03  0.12169794305E+04  0.12699999809E+01 0.  1.
       -4    1    3    3    0  502 -0.11097088774E+04  0.40363163225E+03  0.11390563869E+04  0.16406777113E+04  0.12699999809E+01 0. -1.
</event>
<event>
 5   0  0.4959042E-05  0.2469800E+04  0.7818609E-02  0.8413824E-01
        2   -1    0    0  501    0  0.00000000000E+00  0.00000000000E+00  0.11660999086E+04  0.11660999086E+04  0.25500000920E-02 0. -1.
       -2   -1    0    0    0  501  0.00000000000E+00  0.00000000000E+00 -0.13077597236E+04  0.13077597236E+04  0.25500000920E-02 0.  1.
    10030    2    1    2    0    0  0.00000000000E+00  0.00000000000E+00 -0.14165981505E+03  0.24738596322E+04  0.24698003921E+04 0.  0.
        4    1    3    3  502    0 -0.78006397073E+03 -0.74471902078E+03  0.53171564714E+03  0.12024264471E+04  0.12699999809E+01 0. -1.
       -4    1    3    3    0  502  0.78006397073E+03  0.74471902078E+03 -0.67337546219E+03  0.12714331852E+04  0.12699999809E+01 0.  1.
</event>
<event>
 5   0  0.2066170E-05  0.2450112E+04  0.7818609E-02  0.8420977E-01
        1   -1    0    0  501    0  0.00000000000E+00  0.00000000000E+00  0.11287973951E+04  0.11287973951E+04  0.50400001928E-02 0.  1.
       -1   -1    0    0    0  501  0.00000000000E+00  0.00000000000E+00 -0.13295225765E+04  0.13295225765E+04  0.50400001928E-02 0. -1.
    10030    2    1    2    0    0  0.00000000000E+00  0.00000000000E+00 -0.20072518141E+03  0.24583199716E+04  0.24501115248E+04 0.  0.
        5    1    3    3  502    0 -0.38280467471E+03 -0.83116642202E+03  0.71683675806E+03  0.11624345434E+04  0.46999998093E+01 0.  1.
       -5    1    3    3    0  502  0.38280467471E+03  0.83116642202E+03 -0.91756193947E+03  0.12958854281E+04  0.46999998093E+01 0. -1.
</event>
<event>
 5   0  0.4995256E-05  0.2110064E+04  0.7818609E-02  0.8556823E-01
       -2   -1    0    0    0  501  0.00000000000E+00  0.00000000000E+00  0.58340960571E+03  0.58340960571E+03  0.25500000920E-02 0. -1.
        2   -1    0    0  501    0  0.00000000000E+00  0.00000000000E+00 -0.19079091332E+04  0.19079091332E+04  0.25500000920E-02 0.  1.
    10030    2    1    2    0    0  0.00000000000E+00  0.00000000000E+00 -0.13244995275E+04  0.24913187389E+04  0.21100639944E+04 0.  0.
        2    1    3    3  502    0 -0.64131075748E+03 -0.75208599799E+03 -0.10979520322E+04  0.14772987176E+04  0.25500000920E-02 0.  1.
       -2    1    3    3    0  502  0.64131075748E+03  0.75208599799E+03 -0.22654749532E+03  0.10140200213E+04  0.25500000920E-02 0. -1.
</event>
<event>
 5   0  0.2066170E-05  0.2496898E+04  0.7818609E-02  0.8404091E-01
        1   -1    0    0  501    0  0.00000000000E+00  0.00000000000E+00  0.20704380098E+04  0.20704380098E+04  0.50400001928E-02 0. -1.
       -1   -1    0    0    0  501  0.00000000000E+00  0.00000000000E+00 -0.75279957816E+03  0.75279957817E+03  0.50400001928E-02 0.  1.
    10030    2    1    2    0    0  0.00000000000E+00  0.00000000000E+00  0.13176384316E+04  0.28232375880E+04  0.24968979638E+04 0.  0.
        5    1    3    3  502    0  0.96845909316E+03 -0.59138995520E+03  0.70261106953E+02  0.11369317514E+04  0.46999998093E+01 0.  1.
       -5    1    3    3    0  502 -0.96845909316E+03  0.59138995520E+03  0.12473773247E+04  0.16863058365E+04  0.46999998093E+01 0. -1.
</event>
<event>
 5   0  0.5219468E-05  0.2494664E+04  0.7818609E-02  0.8404889E-01
       -2   -1    0    0    0  501  0.00000000000E+00  0.00000000000E+00  0.27747392253E+04  0.27747392253E+04  0.25500000920E-02 0.  1.
        2   -1    0    0  501    0  0.00000000000E+00  0.00000000000E+00 -0.56071490621E+03  0.56071490622E+03  0.25500000920E-02 0. -1.
    10030    2    1    2    0    0  0.00000000000E+00  0.00000000000E+00  0.22140243191E+04  0.33354541315E+04  0.24946644219E+04 0.  0.
        1    1    3    3  502    0  0.52292456825E+03 -0.74777813920E+03 -0.30030268768E+02  0.91297539212E+03  0.50400001928E-02 0. -1.
       -1    1    3    3    0  502 -0.52292456825E+03  0.74777813920E+03  0.22440545879E+04  0.24224787394E+04  0.50400001928E-02 0.  1.
</event>
<event>
 5   0  0.4959042E-05  0.2558531E+04  0.7818609E-02  0.8382425E-01
        2   -1    0    0  501    0  0.00000000000E+00  0.00000000000E+00  0.19664860522E+04  0.19664860522E+04  0.25500000920E-02 0.  1.
       -2   -1    0    0    0  501  0.00000000000E+00  0.00000000000E+00 -0.83220507314E+03  0.83220507314E+03  0.25500000920E-02 0. -1.
    10030    2    1    2    0    0  0.00000000000E+00  0.00000000000E+00  0.11342809790E+04  0.27986911253E+04  0.25585305696E+04 0.  0.
        4    1    3    3  502    0  0.22156658246E+03 -0.83833500270E+03 -0.46168784429E+03  0.98237192839E+03  0.12699999809E+01 0. -1.
       -4    1    3    3    0  502 -0.22156658246E+03  0.83833500270E+03  0.15959688233E+04  0.18163191969E+04  0.12699999809E+01 0.  1.
</event>
<event>
 5   0  0.2066170E-05  0.2500785E+04  0.7818609E-02  0.8402706E-01
        1   -1    0    0  501    0  0.00000000000E+00  0.00000000000E+00  0.63155760971E+03  0.63155760973E+03  0.50400001928E-02 0.  1.
       -1   -1    0    0    0  501  0.00000000000E+00  0.00000000000E+00 -0.24755950195E+04  0.24755950195E+04  0.50400001928E-02 0. -1.
    10030    2    1    2    0    0  0.00000000000E+00  0.00000000000E+00 -0.18440374098E+04  0.31071526292E+04  0.25007845754E+04 0.  0.
        5    1    3    3  502    0 -0.58130280346E+03  0.10325950839E+04 -0.42612915112E+03  0.12592750693E+04  0.46999998093E+01 0.  1.
       -5    1    3    3    0  502  0.58130280346E+03 -0.10325950839E+04 -0.14179082587E+04  0.18478775600E+04  0.46999998093E+01 0. -1.
</event>
<event>
 5   0  0.4959042E-05  0.2531608E+04  0.7818609E-02  0.8391811E-01
        2   -1    0    0  501    0  0.00000000000E+00  0.00000000000E+00  0.12387637705E+04  0.12387637705E+04  0.25500000920E-02 0. -1.
       -2   -1    0    0    0  501  0.00000000000E+00  0.00000000000E+00 -0.12934347674E+04  0.12934347674E+04  0.25500000920E-02 0.  1.
    10030    2    1    2    0    0  0.00000000000E+00  0.00000000000E+00 -0.54670996930E+02  0.25321985379E+04  0.25316082867E+04 0.  0.
        4    1    3    3  502    0  0.36355824474E+03 -0.89367223482E+03  0.79226622524E+03  0.12484037989E+04  0.12699999809E+01 0. -1.
       -4    1    3    3    0  502 -0.36355824474E+03  0.89367223482E+03 -0.84693722217E+03  0.12837947390E+04  0.12699999809E+01 0.  1.
</event>
<event>
 5   0  0.5024070E-05  0.2528759E+04  0.7818609E-02  0.8392811E-01
       -2   -1    0    0    0  501  0.00000000000E+00  0.00000000000E+00  0.22524807313E+04  0.22524807313E+04  0.25500000920E-02 0. -1.
        2   -1    0    0  501    0  0.00000000000E+00  0.00000000000E+00 -0.70973122993E+03  0.70973122993E+03  0.25500000920E-02 0.  1.
    10030    2    1    2    0    0  0.00000000000E+00  0.00000000000E+00  0.15427495014E+04  0.29622119612E+04  0.25287593162E+04 0.  0.
        5    1    3    3  502    0  0.38492202860E+03  0.33169978704E+03 -0.58485413928E+03  0.77476846287E+03  0.46999998093E+01 0.  1.
       -5    1    3    3    0  502 -0.38492202860E+03 -0.33169978704E+03  0.21276036407E+04  0.21874434984E+04  0.46999998093E+01 0. -1.
</event>
<event>
 5   0  0.5219468E-05  0.2446085E+04  0.7818609E-02  0.8422449E-01
        2   -1    0    0  501    0  0.00000000000E+00  0.00000000000E+00  0.97105951832E+03  0.97105951833E+03  0.25500000920E-02 0. -1.
       -2   -1    0    0    0  501  0.00000000000E+00  0.00000000000E+00 -0.15404137780E+04  0.15404137780E+04  0.25500000920E-02 0.  1.
    10030    2    1    2    0    0  0.00000000000E+00  0.00000000000E+00 -0.56935425967E+03  0.25114732963E+04  0.24460854125E+04 0.  0.
        1    1    3    3  502    0  0.11668495919E+04 -0.36630000633E+03 -0.29591487560E+03  0.12582842597E+04  0.50400001928E-02 0. -1.
       -1    1    3    3    0  502 -0.11668495919E+04  0.36630000633E+03 -0.27343938408E+03  0.12531890366E+04  0.50400001928E-02 0.  1.
</event>
<event>
 5   0  0.2041718E-05  0.2494907E+04  0.7818609E-02  0.8404802E-01
        1   -1    0    0  501    0  0.00000000000E+00  0.00000000000E+00  0.17865124917E+04  0.17865124917E+04  0.50400001928E-02 0. -1.
       -1   -1    0    0    0  501  0.00000000000E+00  0.00000000000E+00 -0.87104899222E+03  0.87104899223E+03  0.50400001928E-02 0.  1.
    10030    2    1    2    0    0  0.00000000000E+00  0.00000000000E+00  0.91546349947E+03  0.26575614839E+04  0.24949067361E+04 0.  0.
        4    1    3    3  502    0 -0.22063459359E+02 -0.11880671077E+04  0.86215245484E+03  0.14680935655E+04  0.12699999809E+01 0. -1.
       -4    1    3    3    0  502  0.22063459359E+02  0.11880671077E+04  0.53311044638E+02  0.11894679185E+04  0.12699999809E+01 0.  1.
</event>
<event>
 5   0  0.5219468E-05  0.2319448E+04  0.7818609E-02  0.8470292E-01
       -2   -1    0    0    0  501  0.00000000000E+00  0.00000000000E+00  0.16265730804E+04  0.16265730804E+04  0.25500000920E-02 0. -1.
        2   -1    0    0  501    0  0.00000000000E+00  0.00000000000E+00 -0.82686726537E+03  0.82686726537E+03  0.25500000920E-02 0.  1.
    10030    2    1    2    0    0  0.00000000000E+00  0.00000000000E+00  0.79970581506E+03  0.24534403458E+04  0.23194482404E+04 0.  0.
        1    1    3    3  502    0 -0.71009746510E+03 -0.91124518313E+03  0.50748494636E+03  0.12618031402E+04  0.50400001928E-02 0. -1.
       -1    1    3    3    0  502  0.71009746510E+03  0.91124518313E+03  0.29222086871E+03  0.11916372056E+04  0.50400001928E-02 0.  1.
</event>
<event>
 5   0  0.2036578E-05  0.2436518E+04  0.7818609E-02  0.8425957E-01
        1   -1    0    0  501    0  0.00000000000E+00  0.00000000000E+00  0.18270308257E+04  0.18270308257E+04  0.50400001928E-02 0. -1.
       -1   -1    0    0    0  501  0.00000000000E+00  0.00000000000E+00 -0.81233181493E+03  0.81233181495E+03  0.50400001928E-02 0.  1.
    10030    2    1    2    0    0  0.00000000000E+00  0.00000000000E+00  0.10146990108E+04  0.26393626407E+04  0.24365182262E+04 0.  0.
        2    1    3    3  502    0 -0.19682159704E+03  0.93891896711E+03 -0.30606199207E+03  0.10069664894E+04  0.25500000920E-02 0. -1.
       -2    1    3    3    0  502  0.19682159704E+03 -0.93891896711E+03  0.13207610028E+04  0.16323961512E+04  0.25500000920E-02 0.  1.
</event>
<event>
 5   0  0.4959347E-05  0.2296557E+04  0.7818609E-02  0.8479280E-01
        2   -1    0    0  501    0  0.00000000000E+00  0.00000000000E+00  0.16419757255E+04  0.16419757255E+04  0.25500000920E-02 0.  1.
       -2   -1    0    0    0  501  0.00000000000E+00  0.00000000000E+00 -0.80302224225E+03  0.80302224226E+03  0.25500000920E-02 0. -1.
    10030    2    1    2    0    0  0.00000000000E+00  0.00000000000E+00  0.83895348328E+03  0.24449979678E+04  0.22965565779E+04 0.  0.
        3    1    3    3  502    0 -0.42795554212E+03  0.37972673870E+03  0.14794209948E+04  0.15861982323E+04  0.10100000352E+00 0.  1.
       -3    1    3    3    0  502  0.42795554212E+03 -0.37972673870E+03 -0.64046751154E+03  0.85879973547E+03  0.10100000352E+00 0. -1.
</event>
<event>
 5   0  0.2041718E-05  0.2575607E+04  0.7818609E-02  0.8376534E-01
        1   -1    0    0  501    0  0.00000000000E+00  0.00000000000E+00  0.12405954751E+04  0.12405954751E+04  0.50400001928E-02 0. -1.
       -1   -1    0    0    0  501  0.00000000000E+00  0.00000000000E+00 -0.13368079880E+04  0.13368079881E+04  0.50400001928E-02 0.  1.
    10030    2    1    2    0    0  0.00000000000E+00  0.00000000000E+00 -0.96212512936E+02  0.25774034632E+04  0.25756070671E+04 0.  0.
        4    1    3    3  502    0  0.12597145506E+04 -0.23136240566E+03  0.86252113530E+02  0.12836862357E+04  0.12699999809E+01 0.  1.
       -4    1    3    3    0  502 -0.12597145506E+04  0.23136240566E+03 -0.18246462647E+03  0.12937172275E+04  0.12699999809E+01 0. -1.
</event>
<event>
 5   0  0.2081874E-05  0.2389638E+04  0.7818609E-02  0.8443393E-01
       -1   -1    0    0    0  501  0.00000000000E+00  0.00000000000E+00  0.12143574213E+04  0.12143574213E+04  0.50400001928E-02 0.  1.
        1   -1    0    0  501    0  0.00000000000E+00  0.00000000000E+00 -0.11755953725E+04  0.11755953725E+04  0.50400001928E-02 0. -1.
    10030    2    1    2    0    0  0.00000000000E+00  0.00000000000E+00  0.38762048861E+02  0.23899527938E+04  0.23896384371E+04 0.  0.
        1    1    3    3  502    0  0.20331740249E+03 -0.60020045770E+03 -0.99367591936E+03  0.11785458787E+04  0.50400001928E-02 0. -1.
       -1    1    3    3    0  502 -0.20331740249E+03  0.60020045770E+03  0.10324379682E+04  0.12114069150E+04  0.50400001928E-02 0.  1.
</event>
<event>
 5   0  0.4959347E-05  0.2271070E+04  0.7818609E-02  0.8489416E-01
       -2   -1    0    0    0  501  0.00000000000E+00  0.00000000000E+00  0.10451636242E+04  0.10451636242E+04  0.25500000920E-02 0. -1.
        2   -1    0    0  501    0  0.00000000000E+00  0.00000000000E+00 -0.12337203278E+04  0.12337203278E+04  0.25500000920E-02 0.  1.
    10030    2    1    2    0    0  0.00000000000E+00  0.00000000000E+00 -0.18855670362E+03  0.22788839521E+04  0.22710698881E+04 0.  0.
        3    1    3    3  502    0  0.70699398829E+03  0.81094984668E+03  0.27023375061E+03  0.11092819495E+04  0.10100000352E+00 0. -1.
       -3    1    3    3    0  502 -0.70699398829E+03 -0.81094984668E+03 -0.45879045423E+03  0.11696020026E+04  0.10100000352E+00 0.  1.
</event>
<event>
 5   0  0.4959042E-05  0.2444930E+04  0.7818609E-02  0.8422872E-01
        2   -1    0    0  501    0  0.00000000000E+00  0.00000000000E+00  0.22281446236E+04  0.22281446236E+04  0.25500000920E-02 0. -1.
       -2   -1    0    0    0  501  0.00000000000E+00  0.00000000000E+00 -0.67070165020E+03  0.67070165021E+03  0.25500000920E-02 0.  1.
    10030    2    1    2    0    0  0.00000000000E+00  0.00000000000E+00  0.15574429734E+04  0.28988462738E+04  0.24449296726E+04 0.  0.
        4    1    3    3  502    0 -0.46787807440E+03  0.39357301271E+03  0.20338433002E+04  0.21237537032E+04  0.12699999809E+01 0. -1.
       -4    1    3    3    0  502  0.46787807440E+03 -0.39357301271E+03 -0.47640032681E+03  0.77509257068E+03  0.12699999809E+01 0.  1.
</event>
<event>
 5   0  0.2066170E-05  0.2493996E+04  0.7818609E-02  0.8405128E-01
        1   -1    0    0  501    0  0.00000000000E+00  0.00000000000E+00  0.14732972380E+04  0.14732972380E+04  0.50400001928E-02 0.  1.
       -1   -1    0    0    0  501  0.00000000000E+00  0.00000000000E+00 -0.10554582409E+04  0.10554582409E+04  0.50400001928E-02 0. -1.
    10030    2    1    2    0    0  0.00000000000E+00  0.00000000000E+00  0.41783899711E+03  0.25287554789E+04  0.24939957587E+04 0.  0.
        5    1    3    3  502    0  0.26399815776E+03  0.26455371835E+03  0.14151632064E+04  0.14636914593E+04  0.46999998093E+01 0.  1.
       -5    1    3    3    0  502 -0.26399815776E+03 -0.26455371835E+03 -0.99732420934E+03  0.10650640195E+04  0.46999998093E+01 0. -1.
</event>
<event>
 5   0  0.5219468E-05  0.2435293E+04  0.7818609E-02  0.8426407E-01
        2   -1    0    0  501    0  0.00000000000E+00  0.00000000000E+00  0.20579718302E+04  0.20579718302E+04  0.25500000920E-02 0.  1.
       -2   -1    0    0    0  501  0.00000000000E+00  0.00000000000E+00 -0.72044868382E+03  0.72044868383E+03  0.25500000920E-02 0. -1.
    10030    2    1    2    0    0  0.00000000000E+00  0.00000000000E+00  0.13375231463E+04  0.27784205140E+04  0.24352930800E+04 0.  0.
        1    1    3    3  502    0 -0.77277465320E+03 -0.81069086991E+02 -0.40083253775E+03  0.87431092000E+03  0.50400001928E-02 0. -1.
       -1    1    3    3    0  502  0.77277465320E+03  0.81069086991E+02  0.17383556841E+04  0.19041095940E+04  0.50400001928E-02 0.  1.
</event>
<event>
 5   0  0.4959347E-05  0.2520079E+04  0.7818609E-02  0.8395867E-01
        2   -1    0    0  501    0  0.00000000000E+00  0.00000000000E+00  0.19142027077E+04  0.19142027077E+04  0.25500000920E-02 0.  1.
       -2   -1    0    0    0  501  0.00000000000E+00  0.00000000000E+00 -0.82943134012E+03  0.82943134013E+03  0.25500000920E-02 0. -1.
    10030    2    1    2    0    0  0.00000000000E+00  0.00000000000E+00  0.10847713676E+04  0.27436340478E+04  0.25200791393E+04 0.  0.
        3    1    3    3  502    0 -0.44947238728E+03 -0.41469189982E+03 -0.65702678255E+03  0.89759623545E+03  0.10100000352E+00 0. -1.
       -3    1    3    3    0  502  0.44947238728E+03  0.41469189982E+03  0.17417981501E+04  0.18460378124E+04  0.10100000352E+00 0.  1.
</event>
<event>
 5   0  0.2081874E-05  0.2486676E+04  0.7818609E-02  0.8407748E-01
        1   -1    0    0  501    0  0.00000000000E+00  0.00000000000E+00  0.16623117788E+04  0.16623117788E+04  0.50400001928E-02 0. -1.
       -1   -1    0    0    0  501  0.00000000000E+00  0.00000000000E+00 -0.92996331789E+03  0.92996331790E+03  0.50400001928E-02 0.  1.
    10030    2    1    2    0    0  0.00000000000E+00  0.00000000000E+00  0.73234846092E+03  0.25922750967E+04  0.24866756742E+04 0.  0.
        1    1    3    3  502    0 -0.68323949885E+03  0.90876356306E+03 -0.15840642806E+03  0.11479372905E+04  0.50400001928E-02 0.  1.
       -1    1    3    3    0  502  0.68323949885E+03 -0.90876356306E+03  0.89075488898E+03  0.14443378063E+04  0.50400001928E-02 0. -1.
</event>
<event>
 5   0  0.2081874E-05  0.2523479E+04  0.7818609E-02  0.8394669E-01
       -1   -1    0    0    0  501  0.00000000000E+00  0.00000000000E+00  0.16486662821E+04  0.16486662821E+04  0.50400001928E-02 0. -1.
        1   -1    0    0  501    0  0.00000000000E+00  0.00000000000E+00 -0.96562052845E+03  0.96562052846E+03  0.50400001928E-02 0.  1.
    10030    2    1    2    0    0  0.00000000000E+00  0.00000000000E+00  0.68304575364E+03  0.26142868106E+04  0.25234785567E+04 0.  0.
        1    1    3    3  502    0  0.40170889618E+03 -0.29066133451E+03  0.15435034003E+04  0.16211899319E+04  0.50400001928E-02 0. -1.
       -1    1    3    3    0  502 -0.40170889618E+03  0.29066133451E+03 -0.86045764665E+03  0.99309687863E+03  0.50400001928E-02 0.  1.
</event>
<event>
 5   0  0.2063930E-05  0.2541289E+04  0.7818609E-02  0.8388422E-01
        1   -1    0    0  501    0  0.00000000000E+00  0.00000000000E+00  0.10414671891E+04  0.10414671891E+04  0.50400001928E-02 0. -1.
       -1   -1    0    0    0  501  0.00000000000E+00  0.00000000000E+00 -0.15502532379E+04  0.15502532379E+04  0.50400001928E-02 0.  1.
    10030    2    1    2    0    0  0.00000000000E+00  0.00000000000E+00 -0.50878604884E+03  0.25917204270E+04  0.25412893437E+04 0.  0.
        3    1    3    3  502    0 -0.62581531375E+03  0.87108762781E+03 -0.94916060380E+03  0.14322514878E+04  0.10100000352E+00 0.  1.
       -3    1    3    3    0  502  0.62581531375E+03 -0.87108762781E+03  0.44037455496E+03  0.11594689393E+04  0.10100000352E+00 0. -1.
</event>
<event>
 5   0  0.2066170E-05  0.2476534E+04  0.7818609E-02  0.8411393E-01
        1   -1    0    0  501    0  0.00000000000E+00  0.00000000000E+00  0.98498035744E+03  0.98498035746E+03  0.50400001928E-02 0. -1.
       -1   -1    0    0    0  501  0.00000000000E+00  0.00000000000E+00 -0.15566864788E+04  0.15566864788E+04  0.50400001928E-02 0.  1.
    10030    2    1    2    0    0  0.00000000000E+00  0.00000000000E+00 -0.57170612131E+03  0.25416668362E+04  0.24765343561E+04 0.  0.
        5    1    3    3  502    0 -0.45479033948E+03 -0.87226495060E+03  0.48599205870E+03  0.10972195624E+04  0.46999998093E+01 0. -1.
       -5    1    3    3    0  502  0.45479033948E+03  0.87226495060E+03 -0.10576981800E+04  0.14444472738E+04  0.46999998093E+01 0.  1.
</event>
<event>
 5   0  0.2066170E-05  0.2546268E+04  0.7818609E-02  0.8386685E-01
        1   -1    0    0  501    0  0.00000000000E+00  0.00000000000E+00  0.21399526848E+04  0.21399526848E+04  0.50400001928E-02 0. -1.
       -1   -1    0    0    0  501  0.00000000000E+00  0.00000000000E+00 -0.75743261708E+03  0.75743261709E+03  0.50400001928E-02 0.  1.
    10030    2    1    2    0    0  0.00000000000E+00  0.00000000000E+00  0.13825200677E+04  0.28973853019E+04  0.25462678276E+04 0.  0.
        5    1    3    3  502    0  0.59362495038E+03 -0.91661104001E+03  0.14359351185E+04  0.18040227645E+04  0.46999998093E+01 0. -1.
       -5    1    3    3    0  502 -0.59362495038E+03  0.91661104001E+03 -0.53415050821E+02  0.10933625373E+04  0.46999998093E+01 0.  1.
</event>
<event>
 5   0  0.4959042E-05  0.2509927E+04  0.7818609E-02  0.8399458E-01
        2   -1    0    0  501    0  0.00000000000E+00  0.00000000000E+00  0.13284170068E+04  0.13284170068E+04  0.25500000920E-02 0. -1.
       -2   -1    0    0    0  501  0.00000000000E+00  0.00000000000E+00 -0.11855714608E+04  0.11855714608E+04  0.25500000920E-02 0.  1.
    10030    2    1    2    0    0  0.00000000000E+00  0.00000000000E+00  0.14284554600E+03  0.25139884675E+04  0.25099269242E+04 0.  0.
        4    1    3    3  502    0  0.55567358837E+03  0.57119694302E+03  0.10424721580E+04  0.13121695384E+04  0.12699999809E+01 0. -1.
       -4    1    3    3    0  502 -0.55567358837E+03 -0.57119694302E+03 -0.89962661196E+03  0.12018189291E+04  0.12699999809E+01 0.  1.
</event>
<event>
 5   0  0.5219468E-05  0.2490721E+04  0.7818609E-02  0.8406299E-01
       -2   -1    0    0    0  501  0.00000000000E+00  0.00000000000E+00  0.70203894607E+03  0.70203894607E+03  0.25500000920E-02 0. -1.
        2   -1    0    0  501    0  0.00000000000E+00  0.00000000000E+00 -0.22091699216E+04  0.22091699216E+04  0.25500000920E-02 0.  1.
    10030    2    1    2    0    0  0.00000000000E+00  0.00000000000E+00 -0.15071309755E+04  0.29112088677E+04  0.24907214404E+04 0.  0.
        1    1    3    3  502    0  0.82790426204E+03  0.65843661547E+03 -0.15217570098E+04  0.18532966952E+04  0.50400001928E-02 0.  1.
       -1    1    3    3    0  502 -0.82790426204E+03 -0.65843661547E+03  0.14626034253E+02  0.10579121724E+04  0.50400001928E-02 0. -1.
</event>
<event>
 5   0  0.2036578E-05  0.2580758E+04  0.7818609E-02  0.8374767E-01
       -1   -1    0    0    0  501  0.00000000000E+00  0.00000000000E+00  0.11742207111E+04  0.11742207111E+04  0.50400001928E-02 0.  1.
        1   -1    0    0  501    0  0.00000000000E+00  0.00000000000E+00 -0.14180285901E+04  0.14180285902E+04  0.50400001928E-02 0. -1.
    10030    2    1    2    0    0  0.00000000000E+00  0.00000000000E+00 -0.24380787906E+03  0.25922493013E+04  0.25807584463E+04 0.  0.
        2    1    3    3  502    0  0.91231309970E+03 -0.38215371747E+03 -0.95428051973E+03  0.13744118619E+04  0.25500000920E-02 0. -1.
       -2    1    3    3    0  502 -0.91231309970E+03  0.38215371747E+03  0.71047264068E+03  0.12178374394E+04  0.25500000920E-02 0.  1.
</event>
<event>
 5   0  0.5024070E-05  0.2481960E+04  0.7818609E-02  0.8409441E-01
        2   -1    0    0  501    0  0.00000000000E+00  0.00000000000E+00  0.21891772082E+04  0.21891772082E+04  0.25500000920E-02 0. -1.
       -2   -1    0    0    0  501  0.00000000000E+00  0.00000000000E+00 -0.70347495843E+03  0.70347495843E+03  0.25500000920E-02 0.  1.
    10030    2    1    2    0    0  0.00000000000E+00  0.00000000000E+00  0.14857022498E+04  0.28926521667E+04  0.24819599880E+04 0.  0.
        5    1    3    3  502    0  0.97178910127E+03 -0.40570063984E+03  0.15080271041E+04  0.18393300148E+04  0.46999998093E+01 0. -1.
       -5    1    3    3    0  502 -0.97178910127E+03  0.40570063984E+03 -0.22324854334E+02  0.10533221519E+04  0.46999998093E+01 0.  1.
</event>
<event>
 5   0  0.2036578E-05  0.2459987E+04  0.7818609E-02  0.8417381E-01
        1   -1    0    0  501    0  0.00000000000E+00  0.00000000000E+00  0.18659614426E+04  0.18659614426E+04  0.50400001928E-02 0.  1.
       -1   -1    0    0    0  501  0.00000000000E+00  0.00000000000E+00 -0.81078011089E+03  0.81078011091E+03  0.50400001928E-02 0. -1.
    10030    2    1    2    0    0  0.00000000000E+00  0.00000000000E+00  0.10551813317E+04  0.26767415535E+04  0.24599873377E+04 0.  0.
        2    1    3    3  502    0 -0.48792444521E+03  0.10833622884E+04  0.87363816589E+03  0.14747839697E+04  0.25500000920E-02 0.  1.
       -2    1    3    3    0  502  0.48792444521E+03 -0.10833622884E+04  0.18154316579E+03  0.12019575838E+04  0.25500000920E-02 0. -1.
</event>
<event>
 5   0  0.4995256E-05  0.2502921E+04  0.7818609E-02  0.8401946E-01
        2   -1    0    0  501    0  0.00000000000E+00  0.00000000000E+00  0.19168651518E+04  0.19168651518E+04  0.25500000920E-02 0.  1.
       -2   -1    0    0    0  501  0.00000000000E+00  0.00000000000E+00 -0.81703877473E+03  0.81703877474E+03  0.25500000920E-02 0. -1.
    10030    2    1    2    0    0  0.00000000000E+00  0.00000000000E+00  0.10998263770E+04  0.27339039265E+04  0.25029208177E+04 0.  0.
        2    1    3    3  502    0  0.65937886762E+03  0.31620677819E+03  0.16592073854E+04  0.18132116163E+04  0.25500000920E-02 0.  1.
       -2    1    3    3    0  502 -0.65937886762E+03 -0.31620677819E+03 -0.55938100835E+03  0.92069231025E+03  0.25500000920E-02 0. -1.
</event>
<event>
 5   0  0.4959347E-05  0.2500206E+04  0.7818609E-02  0.8402912E-01
       -2   -1    0    0    0  501  0.00000000000E+00  0.00000000000E+00  0.96965048430E+03  0.96965048431E+03  0.25500000920E-02 0.  1.
        2   -1    0    0  501    0  0.00000000000E+00  0.00000000000E+00 -0.16116711314E+04  0.16116711314E+04  0.25500000920E-02 0. -1.
    10030    2    1    2    0    0  0.00000000000E+00  0.00000000000E+00 -0.64202064712E+03  0.25813216157E+04  0.25002061460E+04 0.  0.
        3    1    3    3  502    0  0.41333394619E+03 -0.45619758325E+03  0.80231312605E+03  0.10112702648E+04  0.10100000352E+00 0.  1.
       -3    1    3    3    0  502 -0.41333394619E+03  0.45619758325E+03 -0.14443337732E+04  0.15700513509E+04  0.10100000352E+00 0. -1.
</event>
<event>
 5   0  0.5219468E-05  0.2528810E+04  0.7818609E-02  0.8392793E-01
        2   -1    0    0  501    0  0.00000000000E+00  0.00000000000E+00  0.16425777041E+04  0.16425777041E+04  0.25500000920E-02 0. -1.
       -2   -1    0    0    0  501  0.00000000000E+00  0.00000000000E+00 -0.97329918811E+03  0.97329918811E+03  0.25500000920E-02 0.  1.
    10030    2    1    2    0    0  0.00000000000E+00  0.00000000000E+00  0.66927851599E+03  0.26158768922E+04  0.25288096376E+04 0.  0.
        1    1    3    3  502    0  0.10268435435E+04 -0.97759901004E+02  0.10910863255E+04  0.15014772828E+04  0.50400001928E-02 0.  1.
       -1    1    3    3    0  502 -0.10268435435E+04  0.97759901004E+02 -0.42180780951E+03  0.11143996094E+04  0.50400001928E-02 0. -1.
</event>
<event>
 5   0  0.4959042E-05  0.2490877E+04  0.7818609E-02  0.8406243E-01
       -2   -1    0    0    0  501  0.00000000000E+00  0.00000000000E+00  0.11170578538E+04  0.11170578538E+04  0.25500000920E-02 0. -1.
        2   -1    0    0  501    0  0.00000000000E+00  0.00000000000E+00 -0.13885737558E+04  0.13885737558E+04  0.25500000920E-02 0.  1.
    10030    2    1    2    0    0  0.00000000000E+00  0.00000000000E+00 -0.27151590191E+03  0.25056316096E+04  0.24908771303E+04 0.  0.
        4    1    3    3  502    0  0.22052266307E+03  0.31992796406E+03 -0.13260384569E+04  0.13817972895E+04  0.12699999809E+01 0.  1.
       -4    1    3    3    0  502 -0.22052266307E+03 -0.31992796406E+03  0.10545225550E+04  0.11238343201E+04  0.12699999809E+01 0. -1.
</event>
<event>
 5   0  0.2066170E-05  0.2497157E+04  0.7818609E-02  0.8403999E-01
       -1   -1    0    0    0  501  0.00000000000E+00  0.00000000000E+00  0.11512313673E+04  0.11512313673E+04  0.50400001928E-02 0.  1.
        1   -1    0    0  501    0  0.00000000000E+00  0.00000000000E+00 -0.13541575502E+04  0.13541575502E+04  0.50400001928E-02 0. -1.
    10030    2    1    2    0    0  0.00000000000E+00  0.00000000000E+00 -0.20292618297E+03  0.25053889175E+04  0.24971573023E+04 0.  0.
        5    1    3    3  502    0  0.85053978082E+03 -0.34403845264E+03  0.74817328270E+03  0.11838774120E+04  0.46999998093E+01 0.  1.
       -5    1    3    3    0  502 -0.85053978082E+03  0.34403845264E+03 -0.95109946567E+03  0.13215115055E+04  0.46999998093E+01 0. -1.
</event>
<event>
 5   0  0.2041718E-05  0.2507189E+04  0.7818609E-02  0.8400429E-01
       -1   -1    0    0    0  501  0.00000000000E+00  0.00000000000E+00  0.12130198777E+04  0.12130198777E+04  0.50400001928E-02 0.  1.
        1   -1    0    0  501    0  0.00000000000E+00  0.00000000000E+00 -0.12955266177E+04  0.12955266177E+04  0.50400001928E-02 0. -1.
    10030    2    1    2    0    0  0.00000000000E+00  0.00000000000E+00 -0.82506739932E+02  0.25085464954E+04  0.25071892943E+04 0.  0.
        4    1    3    3  502    0 -0.12304329635E+04 -0.22410712247E+03 -0.12679027032E+03  0.12570865784E+04  0.12699999809E+01 0. -1.
       -4    1    3    3    0  502  0.12304329635E+04  0.22410712247E+03  0.44283530384E+02  0.12514599170E+04  0.12699999809E+01 0.  1.
</event>
<event>
 5   0  0.1692125E-05  0.2412121E+04  0.7818609E-02  0.8434980E-01
       -3   -1    0    0    0  501  0.00000000000E+00  0.00000000000E+00  0.13777917883E+04  0.13777917920E+04  0.10100000352E+00 0. -1.
        3   -1    0    0  501    0  0.00000000000E+00  0.00000000000E+00 -0.10557338954E+04  0.10557339003E+04  0.10100000352E+00 0.  1.
    10030    2    1    2    0    0  0.00000000000E+00  0.00000000000E+00  0.32205789286E+03  0.24335256922E+04  0.24121206455E+04 0.  0.
        2    1    3    3  502    0  0.40364518118E+03 -0.44361858360E+03  0.12166672448E+04  0.13564682320E+04  0.25500000920E-02 0. -1.
       -2    1    3    3    0  502 -0.40364518118E+03  0.44361858360E+03 -0.89460935193E+03  0.10770574602E+04  0.25500000920E-02 0.  1.
</event>
<event>
 5   0  0.4959347E-05  0.2549089E+04  0.7818609E-02  0.8385703E-01
       -2   -1    0    0    0  501  0.00000000000E+00  0.00000000000E+00  0.13265849365E+04  0.13265849365E+04  0.25500000920E-02 0.  1.
        2   -1    0    0  501    0  0.00000000000E+00  0.00000000000E+00 -0.12245457060E+04  0.12245457060E+04  0.25500000920E-02 0. -1.
    10030    2    1    2    0    0  0.00000000000E+00  0.00000000000E+00  0.10203923053E+03  0.25511306425E+04  0.25490891610E+04 0.  0.
        3    1    3    3  502    0 -0.45388330162E+03 -0.98959077564E+03 -0.61220555636E+03  0.12490378730E+04  0.10100000352E+00 0. -1.
       -3    1    3    3    0  502  0.45388330162E+03  0.98959077564E+03  0.71424478688E+03  0.13020927695E+04  0.10100000352E+00 0.  1.
</event>
<event>
 5   0  0.4995256E-05  0.2420171E+04  0.7818609E-02  0.8431990E-01
       -2   -1    0    0    0  501  0.00000000000E+00  0.00000000000E+00  0.95517019092E+03  0.95517019093E+03  0.25500000920E-02 0.  1.
        2   -1    0    0  501    0  0.00000000000E+00  0.00000000000E+00 -0.15330320756E+04  0.15330320756E+04  0.25500000920E-02 0. -1.
    10030    2    1    2    0    0  0.00000000000E+00  0.00000000000E+00 -0.57786188471E+03  0.24882022666E+04  0.24201706885E+04 0.  0.
        2    1    3    3  502    0 -0.20950256601E+03 -0.15694979323E+03  0.92571157139E+03  0.96201168193E+03  0.25500000920E-02 0.  1.
       -2    1    3    3    0  502  0.20950256601E+03  0.15694979323E+03 -0.15035734561E+04  0.15261905846E+04  0.25500000920E-02 0. -1.
</event>
<event>
 5   0  0.5024070E-05  0.1685254E+04  0.7818609E-02  0.8769820E-01
       -2   -1    0    0    0  501  0.00000000000E+00  0.00000000000E+00  0.84537907533E+03  0.84537907533E+03  0.25500000920E-02 0. -1.
        2   -1    0    0  501    0  0.00000000000E+00  0.00000000000E+00 -0.83988357209E+03  0.83988357209E+03  0.25500000920E-02 0.  1.
    10030    2    1    2    0    0  0.00000000000E+00  0.00000000000E+00  0.54955032421E+01  0.16852626474E+04  0.16852536872E+04 0.  0.
        5    1    3    3  502    0 -0.38358290698E+03 -0.17095877565E+03  0.73325499497E+03  0.84501344791E+03  0.46999998093E+01 0. -1.
       -5    1    3    3    0  502  0.38358290698E+03  0.17095877565E+03 -0.72775949172E+03  0.84024919952E+03  0.46999998093E+01 0.  1.
</event>
<event>
 5   0  0.2041718E-05  0.2471382E+04  0.7818609E-02  0.8413252E-01
        1   -1    0    0  501    0  0.00000000000E+00  0.00000000000E+00  0.69589402306E+03  0.69589402308E+03  0.50400001928E-02 0. -1.
       -1   -1    0    0    0  501  0.00000000000E+00  0.00000000000E+00 -0.21942028639E+04  0.21942028639E+04  0.50400001928E-02 0.  1.
    10030    2    1    2    0    0  0.00000000000E+00  0.00000000000E+00 -0.14983088408E+04  0.28900968870E+04  0.24713823325E+04 0.  0.
        4    1    3    3  502    0  0.38896315238E+03 -0.16869388821E+00  0.62243666697E+03  0.73397641628E+03  0.12699999809E+01 0. -1.
       -4    1    3    3    0  502 -0.38896315238E+03  0.16869388821E+00 -0.21207455078E+04  0.21561204707E+04  0.12699999809E+01 0.  1.
</event>
<event>
 5   0  0.2081874E-05  0.2519594E+04  0.7818609E-02  0.8396038E-01
        1   -1    0    0  501    0  0.00000000000E+00  0.00000000000E+00  0.10614360786E+04  0.10614360786E+04  0.50400001928E-02 0.  1.
       -1   -1    0    0    0  501  0.00000000000E+00  0.00000000000E+00 -0.14952278285E+04  0.14952278285E+04  0.50400001928E-02 0. -1.
    10030    2    1    2    0    0  0.00000000000E+00  0.00000000000E+00 -0.43379174985E+03  0.25566639071E+04  0.25195942236E+04 0.  0.
        1    1    3    3  502    0  0.10878421282E+04  0.24845542666E+03  0.37647951118E+03  0.11776533519E+04  0.50400001928E-02 0.  1.
       -1    1    3    3    0  502 -0.10878421282E+04 -0.24845542666E+03 -0.81027126103E+03  0.13790105552E+04  0.50400001928E-02 0. -1.
</event>
<event>
 5   0  0.4995256E-05  0.2463476E+04  0.7818609E-02  0.8416114E-01
       -2   -1    0    0    0  501  0.00000000000E+00  0.00000000000E+00  0.66973854370E+03  0.66973854371E+03  0.25500000920E-02 0.  1.
        2   -1    0    0  501    0  0.00000000000E+00  0.00000000000E+00 -0.22653299129E+04  0.22653299129E+04  0.25500000920E-02 0. -1.
    10030    2    1    2    0    0  0.00000000000E+00  0.00000000000E+00 -0.15955913692E+04  0.29350684566E+04  0.24634762080E+04 0.  0.
        2    1    3    3  502    0 -0.72110307041E+03  0.69438238976E+03 -0.16528286206E+04  0.19323558136E+04  0.25500000920E-02 0. -1.
       -2    1    3    3    0  502  0.72110307041E+03 -0.69438238976E+03  0.57237251439E+02  0.10027126429E+04  0.25500000920E-02 0.  1.
</event>
<event>
 5   0  0.2041718E-05  0.2431655E+04  0.7818609E-02  0.8427746E-01
        1   -1    0    0  501    0  0.00000000000E+00  0.00000000000E+00  0.12604331804E+04  0.12604331805E+04  0.50400001928E-02 0.  1.
       -1   -1    0    0    0  501  0.00000000000E+00  0.00000000000E+00 -0.11728007440E+04  0.11728007440E+04  0.50400001928E-02 0. -1.
    10030    2    1    2    0    0  0.00000000000E+00  0.00000000000E+00  0.87632436438E+02  0.24332339245E+04  0.24316553801E+04 0.  0.
        4    1    3    3  502    0  0.66092539694E+03  0.97789259534E+03 -0.24815916597E+03  0.12061015268E+04  0.12699999809E+01 0. -1.
       -4    1    3    3    0  502 -0.66092539694E+03 -0.97789259534E+03  0.33579160241E+03  0.12271323977E+04  0.12699999809E+01 0.  1.
</event>
<event>
 5   0  0.4959042E-05  0.2507477E+04  0.7818609E-02  0.8400327E-01
       -2   -1    0    0    0  501  0.00000000000E+00  0.00000000000E+00  0.19854729649E+04  0.19854729649E+04  0.25500000920E-02 0. -1.
        2   -1    0    0  501    0  0.00000000000E+00  0.00000000000E+00 -0.79168048312E+03  0.79168048312E+03  0.25500000920E-02 0.  1.
    10030    2    1    2    0    0  0.00000000000E+00  0.00000000000E+00  0.11937924818E+04  0.27771534480E+04  0.25074769758E+04 0.  0.
        4    1    3    3  502    0 -0.46299976773E+02 -0.59352864631E+03 -0.62514669220E+03  0.86326701634E+03  0.12699999809E+01 0.  1.
       -4    1    3    3    0  502  0.46299976773E+02  0.59352864631E+03  0.18189391740E+04  0.19138864317E+04  0.12699999809E+01 0. -1.
</event>
<event>
 5   0  0.2066170E-05  0.2487923E+04  0.7818609E-02  0.8407301E-01
        1   -1    0    0  501    0  0.00000000000E+00  0.00000000000E+00  0.14361866595E+04  0.14361866595E+04  0.50400001928E-02 0.  1.
       -1   -1    0    0    0  501  0.00000000000E+00  0.00000000000E+00 -0.10774645691E+04  0.10774645692E+04  0.50400001928E-02 0. -1.
    10030    2    1    2    0    0  0.00000000000E+00  0.00000000000E+00  0.35872209035E+03  0.25136512287E+04  0.24879230216E+04 0.  0.
        5    1    3    3  502    0 -0.88806621329E+03 -0.79616556713E+03  0.53639474101E+03  0.13077777402E+04  0.46999998093E+01 0.  1.
       -5    1    3    3    0  502  0.88806621329E+03  0.79616556713E+03 -0.17767265066E+03  0.12058734885E+04  0.46999998093E+01 0. -1.
</event>
<event>
 5   0  0.5024070E-05  0.2328793E+04  0.7818609E-02  0.8466654E-01
        2   -1    0    0  501    0  0.00000000000E+00  0.00000000000E+00  0.12266586015E+04  0.12266586015E+04  0.25500000920E-02 0.  1.
       -2   -1    0    0    0  501  0.00000000000E+00  0.00000000000E+00 -0.11052946666E+04  0.11052946666E+04  0.25500000920E-02 0. -1.
    10030    2    1    2    0    0  0.00000000000E+00  0.00000000000E+00  0.12136393492E+03  0.23319532681E+04  0.23287930006E+04 0.  0.
        5    1    3    3  502    0 -0.88420284307E+03 -0.65244071830E+03  0.44630658087E+03  0.11860460416E+04  0.46999998093E+01 0.  1.
       -5    1    3    3    0  502  0.88420284307E+03  0.65244071830E+03 -0.32494264595E+03  0.11459072265E+04  0.46999998093E+01 0. -1.
</event>
<event>
 5   0  0.5219468E-05  0.2519707E+04  0.7818609E-02  0.8395998E-01
       -2   -1    0    0    0  501  0.00000000000E+00  0.00000000000E+00  0.14053590064E+04  0.14053590064E+04  0.25500000920E-02 0.  1.
        2   -1    0    0  501    0  0.00000000000E+00  0.00000000000E+00 -0.11294130188E+04  0.11294130188E+04  0.25500000920E-02 0. -1.
    10030    2    1    2    0    0  0.00000000000E+00  0.00000000000E+00  0.27594598760E+03  0.25347720252E+04  0.25197069337E+04 0.  0.
        1    1    3    3  502    0  0.97863819863E+03 -0.41986824032E+03  0.81520580489E+03  0.13411124365E+04  0.50400001928E-02 0.  1.
       -1    1    3    3    0  502 -0.97863819863E+03  0.41986824032E+03 -0.53925981730E+03  0.11936595887E+04  0.50400001928E-02 0. -1.
</event>
<event>
 5   0  0.2063930E-05  0.2621484E+04  0.7818609E-02  0.8360940E-01
        1   -1    0    0  501    0  0.00000000000E+00  0.00000000000E+00  0.18118368113E+04  0.18118368113E+04  0.50400001928E-02 0.  1.
       -1   -1    0    0    0  501  0.00000000000E+00  0.00000000000E+00 -0.94823327716E+03  0.94823327717E+03  0.50400001928E-02 0. -1.
    10030    2    1    2    0    0  0.00000000000E+00  0.00000000000E+00  0.86360353418E+03  0.27600700885E+04  0.26214835169E+04 0.  0.
        3    1    3    3  502    0 -0.88409958009E+02  0.40400207646E+03 -0.87774053665E+03  0.97028988366E+03  0.10100000352E+00 0. -1.
       -3    1    3    3    0  502  0.88409958009E+02 -0.40400207646E+03  0.17413440708E+04  0.17897802048E+04  0.10100000352E+00 0.  1.
</event>
<event>
 5   0  0.2041718E-05  0.2559701E+04  0.7818609E-02  0.8382020E-01
        1   -1    0    0  501    0  0.00000000000E+00  0.00000000000E+00  0.22004878547E+04  0.22004878547E+04  0.50400001928E-02 0.  1.
       -1   -1    0    0    0  501  0.00000000000E+00  0.00000000000E+00 -0.74438812481E+03  0.74438812483E+03  0.50400001928E-02 0. -1.
    10030    2    1    2    0    0  0.00000000000E+00  0.00000000000E+00  0.14560997299E+04  0.29448759795E+04  0.25597007855E+04 0.  0.
        4    1    3    3  502    0  0.55780478005E+03  0.34853940037E+03 -0.53506112877E+03  0.84789027042E+03  0.12699999809E+01 0. -1.
       -4    1    3    3    0  502 -0.55780478005E+03 -0.34853940037E+03  0.19911608586E+04  0.20969857091E+04  0.12699999809E+01 0.  1.
</event>
<event>
 5   0  0.2041718E-05  0.2144507E+04  0.7818609E-02  0.8541887E-01
       -1   -1    0    0    0  501  0.00000000000E+00  0.00000000000E+00  0.84546645850E+03  0.84546645851E+03  0.50400001928E-02 0. -1.
        1   -1    0    0  501    0  0.00000000000E+00  0.00000000000E+00 -0.13598738979E+04  0.13598738979E+04  0.50400001928E-02 0.  1.
    10030    2    1    2    0    0  0.00000000000E+00  0.00000000000E+00 -0.51440743939E+03  0.22053403564E+04  0.21445071867E+04 0.  0.
        4    1    3    3  502    0  0.97217648726E+03  0.41880571921E+03 -0.81473879456E+02  0.10616802526E+04  0.12699999809E+01 0.  1.
       -4    1    3    3    0  502 -0.97217648726E+03 -0.41880571921E+03 -0.43293355993E+03  0.11436601038E+04  0.12699999809E+01 0. -1.
</event>
<event>
 5   0  0.2041718E-05  0.2547060E+04  0.7818609E-02  0.8386409E-01
        1   -1    0    0  501    0  0.00000000000E+00  0.00000000000E+00  0.20796518634E+04  0.20796518634E+04  0.50400001928E-02 0.  1.
       -1   -1    0    0    0  501  0.00000000000E+00  0.00000000000E+00 -0.77987998451E+03  0.77987998453E+03  0.50400001928E-02 0. -1.
    10030    2    1    2    0    0  0.00000000000E+00  0.00000000000E+00  0.12997718789E+04  0.28595318479E+04  0.25470601587E+04 0.  0.
        4    1    3    3  502    0  0.74511137399E+03  0.67020376240E+03  0.15321099240E+04  0.18307720981E+04  0.12699999809E+01 0.  1.
       -4    1    3    3    0  502 -0.74511137399E+03 -0.67020376240E+03 -0.23233804517E+03  0.10287597499E+04  0.12699999809E+01 0. -1.
</event>
<event>
 5   0  0.2063930E-05  0.2669199E+04  0.7818609E-02  0.8345069E-01
        1   -1    0    0  501    0  0.00000000000E+00  0.00000000000E+00  0.16733358682E+04  0.16733358682E+04  0.50400001928E-02 0. -1.
       -1   -1    0    0    0  501  0.00000000000E+00  0.00000000000E+00 -0.10644339951E+04  0.10644339951E+04  0.50400001928E-02 0.  1.
    10030    2    1    2    0    0  0.00000000000E+00  0.00000000000E+00  0.60890187304E+03  0.27377698633E+04  0.26691988187E+04 0.  0.
        3    1    3    3  502    0  0.12405014954E+04  0.45620799469E+03  0.11480681386E+03  0.13267065649E+04  0.10100000352E+00 0.  1.
       -3    1    3    3    0  502 -0.12405014954E+04 -0.45620799469E+03  0.49409505918E+03  0.14110632985E+04  0.10100000352E+00 0. -1.
</event>
<event>
 5   0  0.5024070E-05  0.2502926E+04  0.7818609E-02  0.8401944E-01
        2   -1    0    0  501    0  0.00000000000E+00  0.00000000000E+00  0.87961691580E+03  0.87961691581E+03  0.25500000920E-02 0. -1.
       -2   -1    0    0    0  501  0.00000000000E+00  0.00000000000E+00 -0.17805022186E+04  0.17805022186E+04  0.25500000920E-02 0.  1.
    10030    2    1    2    0    0  0.00000000000E+00  0.00000000000E+00 -0.90088530277E+03  0.26601191344E+04  0.25029261836E+04 0.  0.
        5    1    3    3  502    0  0.18770429369E+03 -0.66693568263E+03  0.65717096726E+03  0.95495124317E+03  0.46999998093E+01 0. -1.
       -5    1    3    3    0  502 -0.18770429369E+03  0.66693568263E+03 -0.15580562700E+04  0.17051678912E+04  0.46999998093E+01 0.  1.
</event>
<event>
 5   0  0.4995256E-05  0.2094927E+04  0.7818609E-02  0.8563481E-01
       -2   -1    0    0    0  501  0.00000000000E+00  0.00000000000E+00  0.46409922571E+03  0.46409922572E+03  0.25500000920E-02 0. -1.
        2   -1    0    0  501    0  0.00000000000E+00  0.00000000000E+00 -0.23641070465E+04  0.23641070465E+04  0.25500000920E-02 0.  1.
    10030    2    1    2    0    0  0.00000000000E+00  0.00000000000E+00 -0.19000078208E+04  0.28282062722E+04  0.20949274448E+04 0.  0.
        2    1    3    3  502    0  0.39231891354E+01  0.17258189736E+03  0.44476319359E+03  0.47708930096E+03  0.25500000920E-02 0. -1.
       -2    1    3    3    0  502 -0.39231891354E+01 -0.17258189736E+03 -0.23447710143E+04  0.23511169712E+04  0.25500000920E-02 0.  1.
</event>
<event>
 5   0  0.2036578E-05  0.2526934E+04  0.7818609E-02  0.8393453E-01
        1   -1    0    0  501    0  0.00000000000E+00  0.00000000000E+00  0.10362880529E+04  0.10362880529E+04  0.50400001928E-02 0.  1.
       -1   -1    0    0    0  501  0.00000000000E+00  0.00000000000E+00 -0.15404487405E+04  0.15404487405E+04  0.50400001928E-02 0. -1.
    10030    2    1    2    0    0  0.00000000000E+00  0.00000000000E+00 -0.50416068758E+03  0.25767367935E+04  0.25269338147E+04 0.  0.
        2    1    3    3  502    0 -0.10837949867E+04  0.80936780231E+02 -0.90912924606E+03  0.14169256585E+04  0.25500000920E-02 0. -1.
       -2    1    3    3    0  502  0.10837949867E+04 -0.80936780231E+02  0.40496855848E+03  0.11598111350E+04  0.25500000920E-02 0.  1.
</event>
<event>
 5   0  0.2081874E-05  0.2450641E+04  0.7818609E-02  0.8420784E-01
       -1   -1    0    0    0  501  0.00000000000E+00  0.00000000000E+00  0.12904937165E+04  0.12904937165E+04  0.50400001928E-02 0.  1.
        1   -1    0    0  501    0  0.00000000000E+00  0.00000000000E+00 -0.11634390698E+04  0.11634390698E+04  0.50400001928E-02 0. -1.
    10030    2    1    2    0    0  0.00000000000E+00  0.00000000000E+00  0.12705464667E+03  0.24539327864E+04  0.24506413929E+04 0.  0.
        1    1    3    3  502    0 -0.10781681329E+04 -0.57636744115E+03  0.14588655321E+03  0.12312306187E+04  0.50400001928E-02 0. -1.
       -1    1    3    3    0  502  0.10781681329E+04  0.57636744115E+03 -0.18831906532E+02  0.12227021677E+04  0.50400001928E-02 0.  1.
</event>
<event>
 5   0  0.2063930E-05  0.2412697E+04  0.7818609E-02  0.8434765E-01
        1   -1    0    0  501    0  0.00000000000E+00  0.00000000000E+00  0.20551661346E+04  0.20551661346E+04  0.50400001928E-02 0.  1.
       -1   -1    0    0    0  501  0.00000000000E+00  0.00000000000E+00 -0.70810659987E+03  0.70810659989E+03  0.50400001928E-02 0. -1.
    10030    2    1    2    0    0  0.00000000000E+00  0.00000000000E+00  0.13470595347E+04  0.27632727345E+04  0.24126970002E+04 0.  0.
        3    1    3    3  502    0  0.40032264855E+03 -0.10922278714E+04  0.10394124288E+04  0.15599994081E+04  0.10100000352E+00 0.  1.
       -3    1    3    3    0  502 -0.40032264855E+03  0.10922278714E+04  0.30764710588E+03  0.12032733263E+04  0.10100000352E+00 0. -1.
</event>
<event>
 5   0  0.2081874E-05  0.2490549E+04  0.7818609E-02  0.8406360E-01
        1   -1    0    0  501    0  0.00000000000E+00  0.00000000000E+00  0.21117866860E+04  0.21117866860E+04  0.50400001928E-02 0.  1.
       -1   -1    0    0    0  501  0.00000000000E+00  0.00000000000E+00 -0.73431144535E+03  0.73431144537E+03  0.50400001928E-02 0. -1.
    10030    2    1    2    0    0  0.00000000000E+00  0.00000000000E+00  0.13774752406E+04  0.28460981314E+04  0.24905494444E+04 0.  0.
        1    1    3    3  502    0 -0.72972657411E+03  0.94298998462E+03  0.27833249759E+03  0.12244182142E+04  0.50400001928E-02 0. -1.
       -1    1    3    3    0  502  0.72972657411E+03 -0.94298998462E+03  0.10991427431E+04  0.16216799172E+04  0.50400001928E-02 0.  1.
</event>
<event>
 5   0  0.2041718E-05  0.2606959E+04  0.7818609E-02  0.8365841E-01
        1   -1    0    0  501    0  0.00000000000E+00  0.00000000000E+00  0.15272061634E+04  0.15272061634E+04  0.50400001928E-02 0.  1.
       -1   -1    0    0    0  501  0.00000000000E+00  0.00000000000E+00 -0.11125274533E+04  0.11125274533E+04  0.50400001928E-02 0. -1.
    10030    2    1    2    0    0  0.00000000000E+00  0.00000000000E+00  0.41467871013E+03  0.26397336168E+04  0.26069589822E+04 0.  0.
        4    1    3    3  502    0  0.19460663872E+03 -0.28243674451E+02 -0.10974207280E+04  0.11149005857E+04  0.12699999809E+01 0. -1.
       -4    1    3    3    0  502 -0.19460663872E+03  0.28243674451E+02  0.15120994381E+04  0.15248330310E+04  0.12699999809E+01 0.  1.
</event>
<event>
 5   0  0.2041718E-05  0.2048532E+04  0.7818609E-02  0.8584260E-01
       -1   -1    0    0    0  501  0.00000000000E+00  0.00000000000E+00  0.10872342333E+04  0.10872342333E+04  0.50400001928E-02 0.  1.
        1   -1    0    0  501    0  0.00000000000E+00  0.00000000000E+00 -0.96494485183E+03  0.96494485184E+03  0.50400001928E-02 0. -1.
    10030    2    1    2    0    0  0.00000000000E+00  0.00000000000E+00  0.12228938149E+03  0.20521790852E+04  0.20485322318E+04 0.  0.
        4    1    3    3  502    0 -0.98224131091E+03 -0.28284712510E+03  0.12698058876E+03  0.10300127047E+04  0.12699999809E+01 0. -1.
       -4    1    3    3    0  502  0.98224131091E+03  0.28284712510E+03 -0.46912072744E+01  0.10221663805E+04  0.12699999809E+01 0.  1.
</event>
<event>
 5   0  0.2063930E-05  0.2403894E+04  0.7818609E-02  0.8438047E-01
        1   -1    0    0  501    0  0.00000000000E+00  0.00000000000E+00  0.15686718450E+04  0.15686718450E+04  0.50400001928E-02 0. -1.
       -1   -1    0    0    0  501  0.00000000000E+00  0.00000000000E+00 -0.92095496581E+03  0.92095496583E+03  0.50400001928E-02 0.  1.
    10030    2    1    2    0    0  0.00000000000E+00  0.00000000000E+00  0.64771687915E+03  0.24896268108E+04  0.24038936128E+04 0.  0.
        3    1    3    3  502    0  0.10501684789E+04 -0.47869269157E+02  0.92733249847E+03  0.14018169902E+04  0.10100000352E+00 0. -1.
       -3    1    3    3    0  502 -0.10501684789E+04  0.47869269157E+02 -0.27961561932E+03  0.10878098206E+04  0.10100000352E+00 0.  1.
</event>
<event>
 5   0  0.4995256E-05  0.2623881E+04  0.7818609E-02  0.8360135E-01
        2   -1    0    0  501    0  0.00000000000E+00  0.00000000000E+00  0.18539427407E+04  0.18539427407E+04  0.25500000920E-02 0. -1.
       -2   -1    0    0    0  501  0.00000000000E+00  0.00000000000E+00 -0.92839287682E+03  0.92839287683E+03  0.25500000920E-02 0.  1.
    10030    2    1    2    0    0  0.00000000000E+00  0.00000000000E+00  0.92554986388E+03  0.27823356175E+04  0.26238805114E+04 0.  0.
        2    1    3    3  502    0 -0.42590632213E+03  0.10367589430E+04  0.11858035361E+04  0.16316848125E+04  0.25500000920E-02 0. -1.
       -2    1    3    3    0  502  0.42590632213E+03 -0.10367589430E+04 -0.26025367222E+03  0.11506508050E+04  0.25500000920E-02 0.  1.
</event>
<event>
 5   0  0.1692125E-05  0.2361640E+04  0.7818609E-02  0.8454006E-01
        3   -1    0    0  501    0  0.00000000000E+00  0.00000000000E+00  0.19411513023E+04  0.19411513049E+04  0.10100000352E+00 0. -1.
       -3   -1    0    0    0  501  0.00000000000E+00  0.00000000000E+00 -0.71830355235E+03  0.71830355945E+03  0.10100000352E+00 0.  1.
    10030    2    1    2    0    0  0.00000000000E+00  0.00000000000E+00  0.12228477499E+04  0.26594548643E+04  0.23616400141E+04 0.  0.
        2    1    3    3  502    0  0.65026123408E+03  0.96764410770E+03  0.40026461305E+03  0.12326339895E+04  0.25500000920E-02 0.  1.
       -2    1    3    3    0  502 -0.65026123408E+03 -0.96764410770E+03  0.82258313686E+03  0.14268208748E+04  0.25500000920E-02 0. -1.
</event>
<event>
 5   0  0.5219468E-05  0.2491838E+04  0.7818609E-02  0.8405899E-01
       -2   -1    0    0    0  501  0.00000000000E+00  0.00000000000E+00  0.16566582664E+04  0.16566582664E+04  0.25500000920E-02 0.  1.
        2   -1    0    0  501    0  0.00000000000E+00  0.00000000000E+00 -0.93701542319E+03  0.93701542319E+03  0.25500000920E-02 0. -1.
    10030    2    1    2    0    0  0.00000000000E+00  0.00000000000E+00  0.71964284323E+03  0.25936736896E+04  0.24918381541E+04 0.  0.
        1    1    3    3  502    0  0.77639203344E+03 -0.70067487291E+03 -0.34504233690E+03  0.11012647644E+04  0.50400001928E-02 0. -1.
       -1    1    3    3    0  502 -0.77639203344E+03  0.70067487291E+03  0.10646851801E+04  0.14924089252E+04  0.50400001928E-02 0.  1.
</event>
<event>
 5   0  0.2063930E-05  0.2523617E+04  0.7818609E-02  0.8394620E-01
        1   -1    0    0  501    0  0.00000000000E+00  0.00000000000E+00  0.19675793679E+04  0.19675793679E+04  0.50400001928E-02 0.  1.
       -1   -1    0    0    0  501  0.00000000000E+00  0.00000000000E+00 -0.80919754313E+03  0.80919754315E+03  0.50400001928E-02 0. -1.
    10030    2    1    2    0    0  0.00000000000E+00  0.00000000000E+00  0.11583818248E+04  0.27767769111E+04  0.25236167621E+04 0.  0.
        3    1    3    3  502    0  0.71596936062E+03 -0.49702301264E+03  0.15831452945E+04  0.18072058638E+04  0.10100000352E+00 0.  1.
       -3    1    3    3    0  502 -0.71596936062E+03  0.49702301264E+03 -0.42476346967E+03  0.96957104732E+03  0.10100000352E+00 0. -1.
</event>
<event>
 5   0  0.5219468E-05  0.2454638E+04  0.7818609E-02  0.8419327E-01
        2   -1    0    0  501    0  0.00000000000E+00  0.00000000000E+00  0.10859512074E+04  0.10859512074E+04  0.25500000920E-02 0.  1.
       -2   -1    0    0    0  501  0.00000000000E+00  0.00000000000E+00 -0.13870894948E+04  0.13870894948E+04  0.25500000920E-02 0. -1.
    10030    2    1    2    0    0  0.00000000000E+00  0.00000000000E+00 -0.30113828737E+03  0.24730407021E+04  0.24546376609E+04 0.  0.
        1    1    3    3  502    0 -0.18337219622E+02 -0.11897821809E+04 -0.45347855044E+03  0.12734051544E+04  0.50400001928E-02 0. -1.
       -1    1    3    3    0  502  0.18337219622E+02  0.11897821809E+04  0.15234026307E+03  0.11996355477E+04  0.50400001928E-02 0.  1.
</event>
<event>
 5   0  0.2081874E-05  0.1634107E+04  0.7818609E-02  0.8799864E-01
       -1   -1    0    0    0  501  0.00000000000E+00  0.00000000000E+00  0.10697807321E+04  0.10697807321E+04  0.50400001928E-02 0.  1.
        1   -1    0    0  501    0  0.00000000000E+00  0.00000000000E+00 -0.62403107432E+03  0.62403107434E+03  0.50400001928E-02 0. -1.
    10030    2    1    2    0    0  0.00000000000E+00  0.00000000000E+00  0.44574965779E+03  0.16938118065E+04  0.16341069972E+04 0.  0.
        1    1    3    3  502    0  0.49504041447E+03 -0.21597322392E+03 -0.41260497078E+03  0.67967073451E+03  0.50400001928E-02 0. -1.
       -1    1    3    3    0  502 -0.49504041447E+03  0.21597322392E+03  0.85835462856E+03  0.10141410719E+04  0.50400001928E-02 0.  1.
</event>
<event>
 5   0  0.5024070E-05  0.2514531E+04  0.7818609E-02  0.8397827E-01
        2   -1    0    0  501    0  0.00000000000E+00  0.00000000000E+00  0.19619605188E+04  0.19619605188E+04  0.25500000920E-02 0.  1.
       -2   -1    0    0    0  501  0.00000000000E+00  0.00000000000E+00 -0.80568210050E+03  0.80568210051E+03  0.25500000920E-02 0. -1.
    10030    2    1    2    0    0  0.00000000000E+00  0.00000000000E+00  0.11562784183E+04  0.27676426193E+04  0.25145309478E+04 0.  0.
        5    1    3    3  502    0  0.93206713993E+03 -0.55604184526E+02 -0.34854388272E+03  0.99666740031E+03  0.46999998093E+01 0. -1.
       -5    1    3    3    0  502 -0.93206713993E+03  0.55604184526E+02  0.15048223010E+04  0.17709752190E+04  0.46999998093E+01 0.  1.
</event>
<event>
 5   0  0.2036578E-05  0.2503500E+04  0.7818609E-02  0.8401740E-01
        1   -1    0    0  501    0  0.00000000000E+00  0.00000000000E+00  0.16014959796E+04  0.16014959796E+04  0.50400001928E-02 0. -1.
       -1   -1    0    0    0  501  0.00000000000E+00  0.00000000000E+00 -0.97838402487E+03  0.97838402489E+03  0.50400001928E-02 0.  1.
    10030    2    1    2    0    0  0.00000000000E+00  0.00000000000E+00  0.62311195477E+03  0.25798800045E+04  0.25035000159E+04 0.  0.
        2    1    3    3  502    0  0.42731340437E+03 -0.49184383370E+03  0.14129823957E+04  0.15559647660E+04  0.25500000920E-02 0. -1.
       -2    1    3    3    0  502 -0.42731340437E+03  0.49184383370E+03 -0.78987044095E+03  0.10239152386E+04  0.25500000920E-02 0.  1.
</event>
<event>
 5   0  0.4959347E-05  0.2586731E+04  0.7818609E-02  0.8372722E-01
       -2   -1    0    0    0  501  0.00000000000E+00  0.00000000000E+00  0.92492152438E+03  0.92492152438E+03  0.25500000920E-02 0.  1.
        2   -1    0    0  501    0  0.00000000000E+00  0.00000000000E+00 -0.18085801360E+04  0.18085801360E+04  0.25500000920E-02 0. -1.
    10030    2    1    2    0    0  0.00000000000E+00  0.00000000000E+00 -0.88365861162E+03  0.27335016604E+04  0.25867312936E+04 0.  0.
        3    1    3    3  502    0 -0.67702934907E+03  0.32174550528E+03  0.67196921667E+03  0.10066933734E+04  0.10100000352E+00 0.  1.
       -3    1    3    3    0  502  0.67702934907E+03 -0.32174550528E+03 -0.15556278283E+04  0.17268082870E+04  0.10100000352E+00 0. -1.
</event>
<event>
 5   0  0.4995256E-05  0.2412834E+04  0.7818609E-02  0.8434714E-01
        2   -1    0    0  501    0  0.00000000000E+00  0.00000000000E+00  0.22998170099E+04  0.22998170099E+04  0.25500000920E-02 0. -1.
       -2   -1    0    0    0  501  0.00000000000E+00  0.00000000000E+00 -0.63285120950E+03  0.63285120950E+03  0.25500000920E-02 0.  1.
    10030    2    1    2    0    0  0.00000000000E+00  0.00000000000E+00  0.16669658004E+04  0.29326682194E+04  0.24128339987E+04 0.  0.
        2    1    3    3  502    0  0.26753620212E+03 -0.70364947467E+03  0.19793223614E+04  0.21176437880E+04  0.25500000920E-02 0. -1.
       -2    1    3    3    0  502 -0.26753620212E+03  0.70364947467E+03 -0.31235656095E+03  0.81502443142E+03  0.25500000920E-02 0.  1.
</event>
<event>
 5   0  0.2036578E-05  0.2505067E+04  0.7818609E-02  0.8401183E-01
        1   -1    0    0  501    0  0.00000000000E+00  0.00000000000E+00  0.21844520831E+04  0.21844520831E+04  0.50400001928E-02 0. -1.
       -1   -1    0    0    0  501  0.00000000000E+00  0.00000000000E+00 -0.71818475798E+03  0.71818475800E+03  0.50400001928E-02 0.  1.
    10030    2    1    2    0    0  0.00000000000E+00  0.00000000000E+00  0.14662673251E+04  0.29026368411E+04  0.25050670176E+04 0.  0.
        2    1    3    3  502    0  0.26676745590E+03  0.12231322701E+04  0.68645685386E+03  0.14277396254E+04  0.25500000920E-02 0.  1.
       -2    1    3    3    0  502 -0.26676745590E+03 -0.12231322701E+04  0.77981047126E+03  0.14748972157E+04  0.25500000920E-02 0. -1.
</event>
<event>
 5   0  0.1692125E-05  0.1927901E+04  0.7818609E-02  0.8641091E-01
       -4   -1    0    0    0  501  0.00000000000E+00  0.00000000000E+00  0.54587990658E+03  0.54588138392E+03  0.12699999809E+01 0. -1.
        4   -1    0    0  501    0  0.00000000000E+00  0.00000000000E+00 -0.17022032282E+04  0.17022037020E+04  0.12699999809E+01 0.  1.
    10030    2    1    2    0    0  0.00000000000E+00  0.00000000000E+00 -0.11563233216E+04  0.22480850859E+04  0.19279011721E+04 0.  0.
        4    1    3    3  502    0  0.36673745155E+03 -0.59186777189E+03 -0.13555046866E+04  0.15238761058E+04  0.12699999809E+01 0.  1.
       -4    1    3    3    0  502 -0.36673745155E+03  0.59186777189E+03  0.19918136492E+03  0.72420898006E+03  0.12699999809E+01 0. -1.
</event>
<event>
 5   0  0.5024070E-05  0.1560294E+04  0.7818609E-02  0.8845319E-01
        2   -1    0    0  501    0  0.00000000000E+00  0.00000000000E+00  0.76230917389E+03  0.76230917389E+03  0.25500000920E-02 0.  1.
       -2   -1    0    0    0  501  0.00000000000E+00  0.00000000000E+00 -0.79840203822E+03  0.79840203822E+03  0.25500000920E-02 0. -1.
    10030    2    1    2    0    0  0.00000000000E+00  0.00000000000E+00 -0.36092864333E+02  0.15607112121E+04  0.15602938162E+04 0.  0.
        5    1    3    3  502    0  0.53166652028E+03  0.43731870659E+03  0.34905333648E+03  0.77186609048E+03  0.46999998093E+01 0.  1.
       -5    1    3    3    0  502 -0.53166652028E+03 -0.43731870659E+03 -0.38514620081E+03  0.78884512163E+03  0.46999998093E+01 0. -1.
</event>
<event>
 5   0  0.4959347E-05  0.2507958E+04  0.7818609E-02  0.8400156E-01
        2   -1    0    0  501    0  0.00000000000E+00  0.00000000000E+00  0.19496078640E+04  0.19496078640E+04  0.25500000920E-02 0. -1.
       -2   -1    0    0    0  501  0.00000000000E+00  0.00000000000E+00 -0.80655395102E+03  0.80655395102E+03  0.25500000920E-02 0.  1.
    10030    2    1    2    0    0  0.00000000000E+00  0.00000000000E+00  0.11430539130E+04  0.27561618150E+04  0.25079584731E+04 0.  0.
        3    1    3    3  502    0 -0.46424104145E+03  0.10864371397E+04  0.10970147589E+03  0.11865495468E+04  0.10100000352E+00 0.  1.
       -3    1    3    3    0  502  0.46424104145E+03 -0.10864371397E+04  0.10333524371E+04  0.15696122682E+04  0.10100000352E+00 0. -1.
</event>
<event>
 5   0  0.5219468E-05  0.1770404E+04  0.7818609E-02  0.8722198E-01
       -2   -1    0    0    0  501  0.00000000000E+00  0.00000000000E+00  0.83253778368E+03  0.83253778369E+03  0.25500000920E-02 0. -1.
        2   -1    0    0  501    0  0.00000000000E+00  0.00000000000E+00 -0.94119798501E+03  0.94119798502E+03  0.25500000920E-02 0.  1.
    10030    2    1    2    0    0  0.00000000000E+00  0.00000000000E+00 -0.10866020133E+03  0.17737357687E+04  0.17704043430E+04 0.  0.
        1    1    3    3  502    0 -0.34227927798E+03 -0.81469931819E+03 -0.10631995579E+03  0.89005281653E+03  0.50400001928E-02 0. -1.
       -1    1    3    3    0  502  0.34227927798E+03  0.81469931819E+03 -0.23402455398E+01  0.88368295217E+03  0.50400001928E-02 0.  1.
</event>
<event>
 5   0  0.2066170E-05  0.2496459E+04  0.7818609E-02  0.8404248E-01
        1   -1    0    0  501    0  0.00000000000E+00  0.00000000000E+00  0.85580051812E+03  0.85580051813E+03  0.50400001928E-02 0. -1.
       -1   -1    0    0    0  501  0.00000000000E+00  0.00000000000E+00 -0.18206073323E+04  0.18206073324E+04  0.50400001928E-02 0.  1.
    10030    2    1    2    0    0  0.00000000000E+00  0.00000000000E+00 -0.96480681423E+03  0.26764078505E+04  0.24964588507E+04 0.  0.
        5    1    3    3  502    0 -0.39202891677E+03  0.50702055672E+03 -0.16307315771E+04  0.17521598338E+04  0.46999998093E+01 0.  1.
       -5    1    3    3    0  502  0.39202891677E+03 -0.50702055672E+03  0.66592476290E+03  0.92424801669E+03  0.46999998093E+01 0. -1.
</event>
<event>
 5   0  0.2081874E-05  0.2426480E+04  0.7818609E-02  0.8429656E-01
       -1   -1    0    0    0  501  0.00000000000E+00  0.00000000000E+00  0.96248060502E+03  0.96248060504E+03  0.50400001928E-02 0.  1.
        1   -1    0    0  501    0  0.00000000000E+00  0.00000000000E+00 -0.15293310575E+04  0.15293310575E+04  0.50400001928E-02 0. -1.
    10030    2    1    2    0    0  0.00000000000E+00  0.00000000000E+00 -0.56685045250E+03  0.24918116626E+04  0.24264801516E+04 0.  0.
        1    1    3    3  502    0 -0.37487422480E+03 -0.10342229318E+04  0.24201870600E+03  0.11263750757E+04  0.50400001928E-02 0.  1.
       -1    1    3    3    0  502  0.37487422480E+03  0.10342229318E+04 -0.80886915850E+03  0.13654365868E+04  0.50400001928E-02 0. -1.
</event>
<event>
 5   0  0.4995256E-05  0.2504474E+04  0.7818609E-02  0.8401393E-01
       -2   -1    0    0    0  501  0.00000000000E+00  0.00000000000E+00  0.85930484921E+03  0.85930484921E+03  0.25500000920E-02 0.  1.
        2   -1    0    0  501    0  0.00000000000E+00  0.00000000000E+00 -0.18248445996E+04  0.18248445996E+04  0.25500000920E-02 0. -1.
    10030    2    1    2    0    0  0.00000000000E+00  0.00000000000E+00 -0.96553975044E+03  0.26841494489E+04  0.25044742470E+04 0.  0.
        2    1    3    3  502    0  0.11166660317E+04  0.35999295142E+03 -0.13694774565E+02  0.11733394642E+04  0.25500000920E-02 0.  1.
       -2    1    3    3    0  502 -0.11166660317E+04 -0.35999295142E+03 -0.95184497587E+03  0.15108099846E+04  0.25500000920E-02 0. -1.
</event>
<event>
 5   0  0.2036578E-05  0.2475949E+04  0.7818609E-02  0.8411604E-01
       -1   -1    0    0    0  501  0.00000000000E+00  0.00000000000E+00  0.10236500842E+04  0.10236500842E+04  0.50400001928E-02 0. -1.
        1   -1    0    0  501    0  0.00000000000E+00  0.00000000000E+00 -0.14971721118E+04  0.14971721118E+04  0.50400001928E-02 0.  1.
    10030    2    1    2    0    0  0.00000000000E+00  0.00000000000E+00 -0.47352202759E+03  0.25208221960E+04  0.24759485926E+04 0.  0.
        2    1    3    3  502    0 -0.86155384552E+03 -0.60904395299E+03 -0.89608622293E+03  0.13842615664E+04  0.25500000920E-02 0.  1.
       -2    1    3    3    0  502  0.86155384552E+03  0.60904395299E+03  0.42256419535E+03  0.11365606295E+04  0.25500000920E-02 0. -1.
</event>
<event>
 5   0  0.4959347E-05  0.2483278E+04  0.7818609E-02  0.8408967E-01
        2   -1    0    0  501    0  0.00000000000E+00  0.00000000000E+00  0.14720107842E+04  0.14720107842E+04  0.25500000920E-02 0.  1.
       -2   -1    0    0    0  501  0.00000000000E+00  0.00000000000E+00 -0.10473209969E+04  0.10473209969E+04  0.25500000920E-02 0. -1.
    10030    2    1    2    0    0  0.00000000000E+00  0.00000000000E+00  0.42468978732E+03  0.25193317811E+04  0.24832783186E+04 0.  0.
        3    1    3    3  502    0  0.80080288436E+02  0.32778868122E+03  0.14246030229E+04  0.14640191444E+04  0.10100000352E+00 0.  1.
       -3    1    3    3    0  502 -0.80080288436E+02 -0.32778868122E+03 -0.99991323561E+03  0.10553126367E+04  0.10100000352E+00 0. -1.
</event>
<event>
 5   0  0.5024070E-05  0.2551100E+04  0.7818609E-02  0.8385004E-01
       -2   -1    0    0    0  501  0.00000000000E+00  0.00000000000E+00  0.91319203603E+03  0.91319203603E+03  0.25500000920E-02 0.  1.
        2   -1    0    0  501    0  0.00000000000E+00  0.00000000000E+00 -0.17816926417E+04  0.17816926417E+04  0.25500000920E-02 0. -1.
    10030    2    1    2    0    0  0.00000000000E+00  0.00000000000E+00 -0.86850060566E+03  0.26948846777E+04  0.25510997872E+04 0.  0.
        5    1    3    3  502    0  0.34691319464E+03  0.35560031281E+03 -0.16752867940E+04  0.17474004347E+04  0.46999998093E+01 0. -1.
       -5    1    3    3    0  502 -0.34691319464E+03 -0.35560031281E+03  0.80678618833E+03  0.94748424302E+03  0.46999998093E+01 0.  1.
</event>
<event>
 5   0  0.2066170E-05  0.2508342E+04  0.7818609E-02  0.8400020E-01
       -1   -1    0    0    0  501  0.00000000000E+00  0.00000000000E+00  0.16696284147E+04  0.16696284147E+04  0.50400001928E-02 0.  1.
        1   -1    0    0  501    0  0.00000000000E+00  0.00000000000E+00 -0.94209252056E+03  0.94209252057E+03  0.50400001928E-02 0. -1.
    10030    2    1    2    0    0  0.00000000000E+00  0.00000000000E+00  0.72753589413E+03  0.26117209353E+04  0.25083416367E+04 0.  0.
        5    1    3    3  502    0  0.83419635746E+03  0.31850662991E+03  0.12807415460E+04  0.15612978684E+04  0.46999998093E+01 0.  1.
       -5    1    3    3    0  502 -0.83419635746E+03 -0.31850662991E+03 -0.55320565192E+03  0.10504230669E+04  0.46999998093E+01 0. -1.
</event>
<event>
 5   0  0.2066170E-05  0.2626229E+04  0.7818609E-02  0.8359346E-01
       -1   -1    0    0    0  501  0.00000000000E+00  0.00000000000E+00  0.13678483926E+04  0.13678483926E+04  0.50400001928E-02 0. -1.
        1   -1    0    0  501    0  0.00000000000E+00  0.00000000000E+00 -0.12605709577E+04  0.12605709577E+04  0.50400001928E-02 0.  1.
    10030    2    1    2    0    0  0.00000000000E+00  0.00000000000E+00  0.10727743497E+03  0.26284193503E+04  0.26262292042E+04 0.  0.
        5    1    3    3  502    0 -0.10855996231E+04 -0.53073359077E+03 -0.46064113237E+03  0.12932196367E+04  0.46999998093E+01 0.  1.
       -5    1    3    3    0  502  0.10855996231E+04  0.53073359077E+03  0.56791856734E+03  0.13351997136E+04  0.46999998093E+01 0. -1.
</event>
<event>
 5   0  0.5219468E-05  0.2349711E+04  0.7818609E-02  0.8458574E-01
        2   -1    0    0  501    0  0.00000000000E+00  0.00000000000E+00  0.90359536771E+03  0.90359536772E+03  0.25500000920E-02 0. -1.
       -2   -1    0    0    0  501  0.00000000000E+00  0.00000000000E+00 -0.15275487385E+04  0.15275487385E+04  0.25500000920E-02 0.  1.
    10030    2    1    2    0    0  0.00000000000E+00  0.00000000000E+00 -0.62395337082E+03  0.24311441063E+04  0.23497114411E+04 0.  0.
        1    1    3    3  502    0  0.49400019322E+03 -0.32761964280E+03  0.73753179058E+03  0.94621560091E+03  0.50400001928E-02 0. -1.
       -1    1    3    3    0  502 -0.49400019322E+03  0.32761964280E+03 -0.13614851614E+04  0.14849285053E+04  0.50400001928E-02 0.  1.
</event>
<event>
 5   0  0.4959042E-05  0.2502002E+04  0.7818609E-02  0.8402273E-01
       -2   -1    0    0    0  501  0.00000000000E+00  0.00000000000E+00  0.99124352874E+03  0.99124352874E+03  0.25500000920E-02 0. -1.
        2   -1    0    0  501    0  0.00000000000E+00  0.00000000000E+00 -0.15788279691E+04  0.15788279691E+04  0.25500000920E-02 0.  1.
    10030    2    1    2    0    0  0.00000000000E+00  0.00000000000E+00 -0.58758444039E+03  0.25700714979E+04  0.25020016046E+04 0.  0.
        4    1    3    3  502    0 -0.53157283205E+03 -0.47569025506E+03 -0.13494436151E+04  0.15263848066E+04  0.12699999809E+01 0.  1.
       -4    1    3    3    0  502  0.53157283205E+03  0.47569025506E+03  0.76185917472E+03  0.10436866913E+04  0.12699999809E+01 0. -1.
</event>
<event>
 5   0  0.2036578E-05  0.2519485E+04  0.7818609E-02  0.8396076E-01
       -1   -1    0    0    0  501  0.00000000000E+00  0.00000000000E+00  0.17324382563E+04  0.17324382563E+04  0.50400001928E-02 0.  1.
        1   -1    0    0  501    0  0.00000000000E+00  0.00000000000E+00 -0.91602205505E+03  0.91602205507E+03  0.50400001928E-02 0. -1.
    10030    2    1    2    0    0  0.00000000000E+00  0.00000000000E+00  0.81641620125E+03  0.26484603114E+04  0.25194853854E+04 0.  0.
        2    1    3    3  502    0  0.30370741221E+03  0.12124204767E+04  0.57358301860E+03  0.13752087419E+04  0.25500000920E-02 0. -1.
       -2    1    3    3    0  502 -0.30370741221E+03 -0.12124204767E+04  0.24283318265E+03  0.12732515695E+04  0.25500000920E-02 0.  1.
</event>
<event>
 5   0  0.2041718E-05  0.2474618E+04  0.7818609E-02  0.8412084E-01
        1   -1    0    0  501    0  0.00000000000E+00  0.00000000000E+00  0.11167556330E+04  0.11167556331E+04  0.50400001928E-02 0.  1.
       -1   -1    0    0    0  501  0.00000000000E+00  0.00000000000E+00 -0.13708765122E+04  0.13708765122E+04  0.50400001928E-02 0. -1.
    10030    2    1    2    0    0  0.00000000000E+00  0.00000000000E+00 -0.25412087919E+03  0.24876321453E+04  0.24746184088E+04 0.  0.
        4    1    3    3  502    0 -0.12272960022E+04  0.11139602971E+03 -0.15717401567E+02  0.12324419670E+04  0.12699999809E+01 0.  1.
       -4    1    3    3    0  502  0.12272960022E+04 -0.11139602971E+03 -0.23840347762E+03  0.12551901782E+04  0.12699999809E+01 0. -1.
</event>
<event>
 5   0  0.5024070E-05  0.2506135E+04  0.7818609E-02  0.8400803E-01
       -2   -1    0    0    0  501  0.00000000000E+00  0.00000000000E+00  0.10538651060E+04  0.10538651060E+04  0.25500000920E-02 0. -1.
        2   -1    0    0  501    0  0.00000000000E+00  0.00000000000E+00 -0.14899238094E+04  0.14899238094E+04  0.25500000920E-02 0.  1.
    10030    2    1    2    0    0  0.00000000000E+00  0.00000000000E+00 -0.43605870344E+03  0.25437889154E+04  0.25061354420E+04 0.  0.
        5    1    3    3  502    0  0.43489213322E+03 -0.42236764090E+03 -0.13311512717E+04  0.14627068708E+04  0.46999998093E+01 0.  1.
       -5    1    3    3    0  502 -0.43489213322E+03  0.42236764090E+03  0.89509256826E+03  0.10810820447E+04  0.46999998093E+01 0. -1.
</event>
<event>
 5   0  0.2081874E-05  0.2514365E+04  0.7818609E-02  0.8397886E-01
       -1   -1    0    0    0  501  0.00000000000E+00  0.00000000000E+00  0.13146299492E+04  0.13146299492E+04  0.50400001928E-02 0. -1.
        1   -1    0    0  501    0  0.00000000000E+00  0.00000000000E+00 -0.12022451082E+04  0.12022451082E+04  0.50400001928E-02 0.  1.
    10030    2    1    2    0    0  0.00000000000E+00  0.00000000000E+00  0.11238484107E+03  0.25168750574E+04  0.25143646716E+04 0.  0.
        1    1    3    3  502    0 -0.29629684978E+03 -0.45144905084E+03 -0.10802425230E+04  0.12076928324E+04  0.50400001928E-02 0.  1.
       -1    1    3    3    0  502  0.29629684978E+03  0.45144905084E+03  0.11926273641E+04  0.13091822250E+04  0.50400001928E-02 0. -1.
</event>
<event>
 5   0  0.5024070E-05  0.2499999E+04  0.7818609E-02  0.8402986E-01
       -2   -1    0    0    0  501  0.00000000000E+00  0.00000000000E+00  0.10439597385E+04  0.10439597385E+04  0.25500000920E-02 0. -1.
        2   -1    0    0  501    0  0.00000000000E+00  0.00000000000E+00 -0.14967042153E+04  0.14967042153E+04  0.25500000920E-02 0.  1.
    10030    2    1    2    0    0  0.00000000000E+00  0.00000000000E+00 -0.45274447679E+03  0.25406639538E+04  0.24999991530E+04 0.  0.
        5    1    3    3  502    0 -0.60103964777E+01 -0.10940802026E+04 -0.84071254454E+03  0.13798069746E+04  0.46999998093E+01 0.  1.
       -5    1    3    3    0  502  0.60103964777E+01  0.10940802026E+04  0.38796806775E+03  0.11608569792E+04  0.46999998093E+01 0. -1.
</event>
<event>
 5   0  0.2036578E-05  0.2532708E+04  0.7818609E-02  0.8391425E-01
       -1   -1    0    0    0  501  0.00000000000E+00  0.00000000000E+00  0.11266586814E+04  0.11266586814E+04  0.50400001928E-02 0. -1.
        1   -1    0    0  501    0  0.00000000000E+00  0.00000000000E+00 -0.14233701887E+04  0.14233701888E+04  0.50400001928E-02 0.  1.
    10030    2    1    2    0    0  0.00000000000E+00  0.00000000000E+00 -0.29671150732E+03  0.25500288702E+04  0.25327079422E+04 0.  0.
        2    1    3    3  502    0  0.51894985313E+03 -0.87472099235E+03  0.61126173437E+03  0.11866282790E+04  0.25500000920E-02 0. -1.
       -2    1    3    3    0  502 -0.51894985313E+03  0.87472099235E+03 -0.90797324169E+03  0.13634005912E+04  0.25500000920E-02 0.  1.
</event>
<event>
 5   0  0.5219468E-05  0.2303806E+04  0.7818609E-02  0.8476422E-01
       -2   -1    0    0    0  501  0.00000000000E+00  0.00000000000E+00  0.61930795510E+03  0.61930795511E+03  0.25500000920E-02 0. -1.
        2   -1    0    0  501    0  0.00000000000E+00  0.00000000000E+00 -0.21425208319E+04  0.21425208319E+04  0.25500000920E-02 0.  1.
    10030    2    1    2    0    0  0.00000000000E+00  0.00000000000E+00 -0.15232128768E+04  0.27618287870E+04  0.23038057168E+04 0.  0.
        1    1    3    3  502    0  0.75566817875E+03  0.69050160747E+03 -0.12832828780E+03  0.10316467495E+04  0.50400001928E-02 0. -1.
       -1    1    3    3    0  502 -0.75566817875E+03 -0.69050160747E+03 -0.13948845890E+04  0.17301820375E+04  0.50400001928E-02 0.  1.
</event>
<event>
 5   0  0.4995256E-05  0.2497073E+04  0.7818609E-02  0.8404029E-01
       -2   -1    0    0    0  501  0.00000000000E+00  0.00000000000E+00  0.69333153264E+03  0.69333153264E+03  0.25500000920E-02 0.  1.
        2   -1    0    0  501    0  0.00000000000E+00  0.00000000000E+00 -0.22483376577E+04  0.22483376577E+04  0.25500000920E-02 0. -1.
    10030    2    1    2    0    0  0.00000000000E+00  0.00000000000E+00 -0.15550061251E+04  0.29416691904E+04  0.24970730018E+04 0.  0.
        2    1    3    3  502    0  0.83328764268E+03 -0.58075262097E+03 -0.16328669446E+04  0.19229915135E+04  0.25500000920E-02 0. -1.
       -2    1    3    3    0  502 -0.83328764268E+03  0.58075262097E+03  0.77860819481E+02  0.10186776769E+04  0.25500000920E-02 0.  1.
</event>
<event>
 5   0  0.1692125E-05  0.2496537E+04  0.7818609E-02  0.8404220E-01
        3   -1    0    0  501    0  0.00000000000E+00  0.00000000000E+00  0.16554507795E+04  0.16554507826E+04  0.10100000352E+00 0.  1.
       -3   -1    0    0    0  501  0.00000000000E+00  0.00000000000E+00 -0.94123840118E+03  0.94123840660E+03  0.10100000352E+00 0. -1.
    10030    2    1    2    0    0  0.00000000000E+00  0.00000000000E+00  0.71421237833E+03  0.25966891892E+04  0.24965366859E+04 0.  0.
        5    1    3    3  502    0  0.82746875725E+03 -0.91089386745E+03  0.13962583679E+03  0.12385272085E+04  0.46999998093E+01 0. -1.
       -5    1    3    3    0  502 -0.82746875725E+03  0.91089386745E+03  0.57458654154E+03  0.13581619807E+04  0.46999998093E+01 0.  1.
</event>
<event>
 5   0  0.2041718E-05  0.2560129E+04  0.7818609E-02  0.8381872E-01
       -1   -1    0    0    0  501  0.00000000000E+00  0.00000000000E+00  0.10470374329E+04  0.10470374329E+04  0.50400001928E-02 0. -1.
        1   -1    0    0  501    0  0.00000000000E+00  0.00000000000E+00 -0.15649536542E+04  0.15649536542E+04  0.50400001928E-02 0.  1.
    10030    2    1    2    0    0  0.00000000000E+00  0.00000000000E+00 -0.51791622132E+03  0.26119910871E+04  0.25601289473E+04 0.  0.
        4    1    3    3  502    0  0.10035103117E+04 -0.74329440021E+03 -0.54580102103E+03  0.13628719230E+04  0.12699999809E+01 0.  1.
       -4    1    3    3    0  502 -0.10035103117E+04  0.74329440021E+03  0.27884799716E+02  0.12491191641E+04  0.12699999809E+01 0. -1.
</event>
<event>
 5   0  0.4959042E-05  0.2487182E+04  0.7818609E-02  0.8407566E-01
        2   -1    0    0  501    0  0.00000000000E+00  0.00000000000E+00  0.15305372784E+04  0.15305372784E+04  0.25500000920E-02 0. -1.
       -2   -1    0    0    0  501  0.00000000000E+00  0.00000000000E+00 -0.10104417361E+04  0.10104417361E+04  0.25500000920E-02 0.  1.
    10030    2    1    2    0    0  0.00000000000E+00  0.00000000000E+00  0.52009554230E+03  0.25409790144E+04  0.24871821362E+04 0.  0.
        4    1    3    3  502    0 -0.75630426477E+03 -0.31811259308E+03  0.12147798752E+04  0.14659070642E+04  0.12699999809E+01 0. -1.
       -4    1    3    3    0  502  0.75630426477E+03  0.31811259308E+03 -0.69468433295E+03  0.10750719502E+04  0.12699999809E+01 0.  1.
</event>
<event>
 5   0  0.5024070E-05  0.2434254E+04  0.7818609E-02  0.8426790E-01
        2   -1    0    0  501    0  0.00000000000E+00  0.00000000000E+00  0.94289625513E+03  0.94289625513E+03  0.25500000920E-02 0. -1.
       -2   -1    0    0    0  501  0.00000000000E+00  0.00000000000E+00 -0.15711148365E+04  0.15711148365E+04  0.25500000920E-02 0.  1.
    10030    2    1    2    0    0  0.00000000000E+00  0.00000000000E+00 -0.62821858137E+03  0.25140110916E+04  0.24342541328E+04 0.  0.
        5    1    3    3  502    0 -0.81776696524E+03  0.48634758976E+03 -0.10979900267E+04  0.14528871175E+04  0.46999998093E+01 0.  1.
       -5    1    3    3    0  502  0.81776696524E+03 -0.48634758976E+03  0.46977144537E+03  0.10611239741E+04  0.46999998093E+01 0. -1.
</event>
<event>
 5   0  0.2081874E-05  0.2577773E+04  0.7818609E-02  0.8375791E-01
       -1   -1    0    0    0  501  0.00000000000E+00  0.00000000000E+00  0.70225493924E+03  0.70225493926E+03  0.50400001928E-02 0. -1.
        1   -1    0    0  501    0  0.00000000000E+00  0.00000000000E+00 -0.23655636320E+04  0.23655636320E+04  0.50400001928E-02 0.  1.
    10030    2    1    2    0    0  0.00000000000E+00  0.00000000000E+00 -0.16633086928E+04  0.30678185713E+04  0.25777732598E+04 0.  0.
        1    1    3    3  502    0  0.99532197904E+03 -0.72998589545E+03 -0.39005756533E+03  0.12944845128E+04  0.50400001928E-02 0. -1.
       -1    1    3    3    0  502 -0.99532197904E+03  0.72998589545E+03 -0.12732511275E+04  0.17733340585E+04  0.50400001928E-02 0.  1.
</event>
<event>
 5   0  0.4959042E-05  0.2491573E+04  0.7818609E-02  0.8405994E-01
        2   -1    0    0  501    0  0.00000000000E+00  0.00000000000E+00  0.62967061128E+03  0.62967061129E+03  0.25500000920E-02 0.  1.
       -2   -1    0    0    0  501  0.00000000000E+00  0.00000000000E+00 -0.24647549595E+04  0.24647549595E+04  0.25500000920E-02 0. -1.
    10030    2    1    2    0    0  0.00000000000E+00  0.00000000000E+00 -0.18350843482E+04  0.30944255708E+04  0.24915728061E+04 0.  0.
        4    1    3    3  502    0  0.12354555545E+04  0.64292572697E+01 -0.11162179341E+04  0.16650332885E+04  0.12699999809E+01 0.  1.
       -4    1    3    3    0  502 -0.12354555545E+04 -0.64292572697E+01 -0.71886641412E+03  0.14293922823E+04  0.12699999809E+01 0. -1.
</event>
<event>
 5   0  0.2063930E-05  0.2544183E+04  0.7818609E-02  0.8387412E-01
       -1   -1    0    0    0  501  0.00000000000E+00  0.00000000000E+00  0.58936501903E+03  0.58936501905E+03  0.50400001928E-02 0.  1.
        1   -1    0    0  501    0  0.00000000000E+00  0.00000000000E+00 -0.27456952850E+04  0.27456952850E+04  0.50400001928E-02 0. -1.
    10030    2    1    2    0    0  0.00000000000E+00  0.00000000000E+00 -0.21563302659E+04  0.33350603040E+04  0.25441829761E+04 0.  0.
        3    1    3    3  502    0  0.70010167791E+03 -0.37880666367E+03 -0.23788761859E+04  0.25085232241E+04  0.10100000352E+00 0. -1.
       -3    1    3    3    0  502 -0.70010167791E+03  0.37880666367E+03  0.22254591992E+03  0.82653707995E+03  0.10100000352E+00 0.  1.
</event>
<event>
 5   0  0.2036578E-05  0.2491227E+04  0.7818609E-02  0.8406118E-01
        1   -1    0    0  501    0  0.00000000000E+00  0.00000000000E+00  0.11743742378E+04  0.11743742378E+04  0.50400001928E-02 0.  1.
       -1   -1    0    0    0  501  0.00000000000E+00  0.00000000000E+00 -0.13211738901E+04  0.13211738901E+04  0.50400001928E-02 0. -1.
    10030    2    1    2    0    0  0.00000000000E+00  0.00000000000E+00 -0.14679965234E+03  0.24955481279E+04  0.24912266699E+04 0.  0.
        2    1    3    3  502    0  0.80529357869E+03 -0.23682502534E+03 -0.99530530509E+03  0.13020047968E+04  0.25500000920E-02 0. -1.
       -2    1    3    3    0  502 -0.80529357869E+03  0.23682502534E+03  0.84850565274E+03  0.11935433311E+04  0.25500000920E-02 0.  1.
</event>
<event>
 5   0  0.2036578E-05  0.2537936E+04  0.7818609E-02  0.8389594E-01
       -1   -1    0    0    0  501  0.00000000000E+00  0.00000000000E+00  0.14073648879E+04  0.14073648879E+04  0.50400001928E-02 0. -1.
        1   -1    0    0  501    0  0.00000000000E+00  0.00000000000E+00 -0.11441806067E+04  0.11441806067E+04  0.50400001928E-02 0.  1.
    10030    2    1    2    0    0  0.00000000000E+00  0.00000000000E+00  0.26318428122E+03  0.25515454946E+04  0.25379358631E+04 0.  0.
        2    1    3    3  502    0  0.75042230849E+02  0.87206215343E+03  0.10552986356E+04  0.13710503077E+04  0.25500000920E-02 0. -1.
       -2    1    3    3    0  502 -0.75042230849E+02 -0.87206215343E+03 -0.79211435438E+03  0.11804951869E+04  0.25500000920E-02 0.  1.
</event>
<event>
 5   0  0.2081874E-05  0.2327675E+04  0.7818609E-02  0.8467088E-01
       -1   -1    0    0    0  501  0.00000000000E+00  0.00000000000E+00  0.10136580378E+04  0.10136580378E+04  0.50400001928E-02 0. -1.
        1   -1    0    0  501    0  0.00000000000E+00  0.00000000000E+00 -0.13362671163E+04  0.13362671163E+04  0.50400001928E-02 0.  1.
    10030    2    1    2    0    0  0.00000000000E+00  0.00000000000E+00 -0.32260907843E+03  0.23499251541E+04  0.23276751518E+04 0.  0.
        1    1    3    3  502    0  0.10433972366E+04  0.13651443946E+03  0.34064416107E+03  0.11060526344E+04  0.50400001928E-02 0. -1.
       -1    1    3    3    0  502 -0.10433972366E+04 -0.13651443946E+03 -0.66325323950E+03  0.12438725197E+04  0.50400001928E-02 0.  1.
</event>
<event>
 5   0  0.2066170E-05  0.2487532E+04  0.7818609E-02  0.8407441E-01
        1   -1    0    0  501    0  0.00000000000E+00  0.00000000000E+00  0.15917089509E+04  0.15917089509E+04  0.50400001928E-02 0. -1.
       -1   -1    0    0    0  501  0.00000000000E+00  0.00000000000E+00 -0.97188231348E+03  0.97188231350E+03  0.50400001928E-02 0.  1.
    10030    2    1    2    0    0  0.00000000000E+00  0.00000000000E+00  0.61982663739E+03  0.25635912644E+04  0.24875319315E+04 0.  0.
        5    1    3    3  502    0 -0.20597569959E+03 -0.10578100859E+04 -0.32999362580E+03  0.11270785464E+04  0.46999998093E+01 0.  1.
       -5    1    3    3    0  502  0.20597569959E+03  0.10578100859E+04  0.94982026319E+03  0.14365127180E+04  0.46999998093E+01 0. -1.
</event>
<event>
 5   0  0.2036578E-05  0.1723829E+04  0.7818609E-02  0.8747889E-01
        1   -1    0    0  501    0  0.00000000000E+00  0.00000000000E+00  0.74276441846E+03  0.74276441848E+03  0.50400001928E-02 0.  1.
       -1   -1    0    0    0  501  0.00000000000E+00  0.00000000000E+00 -0.10001780689E+04  0.10001780690E+04  0.50400001928E-02 0. -1.
    10030    2    1    2    0    0  0.00000000000E+00  0.00000000000E+00 -0.25741365048E+03  0.17429424874E+04  0.17238290887E+04 0.  0.
        2    1    3    3  502    0 -0.36772579959E+03  0.65940722076E+03  0.29166321252E+03  0.80938716077E+03  0.25500000920E-02 0.  1.
       -2    1    3    3    0  502  0.36772579959E+03 -0.65940722076E+03 -0.54907686300E+03  0.93355532667E+03  0.25500000920E-02 0. -1.
</event>
<event>
 5   0  0.4959042E-05  0.2451057E+04  0.7818609E-02  0.8420632E-01
       -2   -1    0    0    0  501  0.00000000000E+00  0.00000000000E+00  0.10541259873E+04  0.10541259873E+04  0.25500000920E-02 0.  1.
        2   -1    0    0  501    0  0.00000000000E+00  0.00000000000E+00 -0.14248011751E+04  0.14248011751E+04  0.25500000920E-02 0. -1.
    10030    2    1    2    0    0  0.00000000000E+00  0.00000000000E+00 -0.37067518778E+03  0.24789271624E+04  0.24510568704E+04 0.  0.
        4    1    3    3  502    0 -0.54643495194E+03 -0.16728539891E+03 -0.12817972295E+04  0.14034177254E+04  0.12699999809E+01 0. -1.
       -4    1    3    3    0  502  0.54643495194E+03  0.16728539891E+03  0.91112204174E+03  0.10755094371E+04  0.12699999809E+01 0.  1.
</event>
<event>
 5   0  0.4959042E-05  0.2487334E+04  0.7818609E-02  0.8407512E-01
        2   -1    0    0  501    0  0.00000000000E+00  0.00000000000E+00  0.77258929136E+03  0.77258929136E+03  0.25500000920E-02 0. -1.
       -2   -1    0    0    0  501  0.00000000000E+00  0.00000000000E+00 -0.20019786442E+04  0.20019786442E+04  0.25500000920E-02 0.  1.
    10030    2    1    2    0    0  0.00000000000E+00  0.00000000000E+00 -0.12293893528E+04  0.27745679355E+04  0.24873337227E+04 0.  0.
        4    1    3    3  502    0  0.93921708385E+03 -0.72350680962E+02  0.29107290693E+03  0.98594543545E+03  0.12699999809E+01 0. -1.
       -4    1    3    3    0  502 -0.93921708385E+03  0.72350680962E+02 -0.15204622597E+04  0.17886225001E+04  0.12699999809E+01 0.  1.
</event>
<event>
 5   0  0.5219468E-05  0.2476594E+04  0.7818609E-02  0.8411372E-01
       -2   -1    0    0    0  501  0.00000000000E+00  0.00000000000E+00  0.61021315224E+03  0.61021315225E+03  0.25500000920E-02 0. -1.
        2   -1    0    0  501    0  0.00000000000E+00  0.00000000000E+00 -0.25128587262E+04  0.25128587263E+04  0.25500000920E-02 0.  1.
    10030    2    1    2    0    0  0.00000000000E+00  0.00000000000E+00 -0.19026455740E+04  0.31230718785E+04  0.24765939873E+04 0.  0.
        1    1    3    3  502    0  0.71541299355E+03  0.20202665514E+03  0.29751515715E+03  0.80071579820E+03  0.50400001928E-02 0. -1.
       -1    1    3    3    0  502 -0.71541299355E+03 -0.20202665514E+03 -0.22001607312E+04  0.23223560803E+04  0.50400001928E-02 0.  1.
</event>
<event>
 5   0  0.2041718E-05  0.2500558E+04  0.7818609E-02  0.8402787E-01
        1   -1    0    0  501    0  0.00000000000E+00  0.00000000000E+00  0.17726256725E+04  0.17726256725E+04  0.50400001928E-02 0.  1.
       -1   -1    0    0    0  501  0.00000000000E+00  0.00000000000E+00 -0.88185420113E+03  0.88185420115E+03  0.50400001928E-02 0. -1.
    10030    2    1    2    0    0  0.00000000000E+00  0.00000000000E+00  0.89077147140E+03  0.26544798737E+04  0.25005578549E+04 0.  0.
        4    1    3    3  502    0  0.78464765316E+03 -0.13697242890E+03  0.14684309819E+04  0.16705461824E+04  0.12699999809E+01 0.  1.
       -4    1    3    3    0  502 -0.78464765316E+03  0.13697242890E+03 -0.57765951053E+03  0.98393369131E+03  0.12699999809E+01 0. -1.
</event>
<event>
 5   0  0.2041718E-05  0.2473312E+04  0.7818609E-02  0.8412555E-01
        1   -1    0    0  501    0  0.00000000000E+00  0.00000000000E+00  0.26397894744E+04  0.26397894744E+04  0.50400001928E-02 0. -1.
       -1   -1    0    0    0  501  0.00000000000E+00  0.00000000000E+00 -0.57933334059E+03  0.57933334061E+03  0.50400001928E-02 0.  1.
    10030    2    1    2    0    0  0.00000000000E+00  0.00000000000E+00  0.20604561338E+04  0.32191228150E+04  0.24733119938E+04 0.  0.
        4    1    3    3  502    0  0.11101295640E+04  0.17227946867E+03  0.17030751032E+04  0.20402289784E+04  0.12699999809E+01 0. -1.
       -4    1    3    3    0  502 -0.11101295640E+04 -0.17227946867E+03  0.35738103067E+03  0.11788938367E+04  0.12699999809E+01 0.  1.
</event>
<event>
 5   0  0.5024070E-05  0.2479018E+04  0.7818609E-02  0.8410499E-01
        2   -1    0    0  501    0  0.00000000000E+00  0.00000000000E+00  0.10375376701E+04  0.10375376701E+04  0.25500000920E-02 0.  1.
       -2   -1    0    0    0  501  0.00000000000E+00  0.00000000000E+00 -0.14807964399E+04  0.14807964399E+04  0.25500000920E-02 0. -1.
    10030    2    1    2    0    0  0.00000000000E+00  0.00000000000E+00 -0.44325876988E+03  0.25183341100E+04  0.24790176184E+04 0.  0.
        5    1    3    3  502    0 -0.14396537060E+02 -0.87228505793E+03 -0.11160888178E+04  0.14166032690E+04  0.46999998093E+01 0. -1.
       -5    1    3    3    0  502  0.14396537060E+02  0.87228505793E+03  0.67283004793E+03  0.11017308410E+04  0.46999998093E+01 0.  1.
</event>
<event>
 5   0  0.2066170E-05  0.2466830E+04  0.7818609E-02  0.8414899E-01
        1   -1    0    0  501    0  0.00000000000E+00  0.00000000000E+00  0.12228491960E+04  0.12228491960E+04  0.50400001928E-02 0.  1.
       -1   -1    0    0    0  501  0.00000000000E+00  0.00000000000E+00 -0.12440717041E+04  0.12440717041E+04  0.50400001928E-02 0. -1.
    10030    2    1    2    0    0  0.00000000000E+00  0.00000000000E+00 -0.21222508101E+02  0.24669209001E+04  0.24668296115E+04 0.  0.
        5    1    3    3  502    0  0.31264589359E+03 -0.64921142195E+02 -0.12020107815E+04  0.12437098610E+04  0.46999998093E+01 0. -1.
       -5    1    3    3    0  502 -0.31264589359E+03  0.64921142195E+02  0.11807882734E+04  0.12232110391E+04  0.46999998093E+01 0.  1.
</event>
<event>
 5   0  0.1692125E-05  0.2533708E+04  0.7818609E-02  0.8391074E-01
       -3   -1    0    0    0  501  0.00000000000E+00  0.00000000000E+00  0.20415755712E+04  0.20415755737E+04  0.10100000352E+00 0. -1.
        3   -1    0    0  501    0  0.00000000000E+00  0.00000000000E+00 -0.78611812870E+03  0.78611813519E+03  0.10100000352E+00 0.  1.
    10030    2    1    2    0    0  0.00000000000E+00  0.00000000000E+00  0.12554574425E+04  0.28276937089E+04  0.25337084129E+04 0.  0.
        2    1    3    3  502    0  0.11346939288E+04 -0.33300345244E+03  0.12058199734E+03  0.11886806255E+04  0.25500000920E-02 0.  1.
       -2    1    3    3    0  502 -0.11346939288E+04  0.33300345244E+03  0.11348754452E+04  0.16390130834E+04  0.25500000920E-02 0. -1.
</event>
<event>
 5   0  0.4995256E-05  0.2224807E+04  0.7818609E-02  0.8508173E-01
       -2   -1    0    0    0  501  0.00000000000E+00  0.00000000000E+00  0.68006756008E+03  0.68006756009E+03  0.25500000920E-02 0. -1.
        2   -1    0    0  501    0  0.00000000000E+00  0.00000000000E+00 -0.18195865489E+04  0.18195865489E+04  0.25500000920E-02 0.  1.
    10030    2    1    2    0    0  0.00000000000E+00  0.00000000000E+00 -0.11395189888E+04  0.24996541090E+04  0.22248072138E+04 0.  0.
        2    1    3    3  502    0 -0.84367669274E+03 -0.32812227013E+03 -0.12961481010E+04  0.15809663139E+04  0.25500000920E-02 0.  1.
       -2    1    3    3    0  502  0.84367669274E+03  0.32812227013E+03  0.15662911216E+03  0.91868779508E+03  0.25500000920E-02 0. -1.
</event>
<event>
 5   0  0.2063930E-05  0.2341699E+04  0.7818609E-02  0.8461659E-01
       -1   -1    0    0    0  501  0.00000000000E+00  0.00000000000E+00  0.22127085758E+04  0.22127085759E+04  0.50400001928E-02 0. -1.
        1   -1    0    0  501    0  0.00000000000E+00  0.00000000000E+00 -0.61955225143E+03  0.61955225145E+03  0.50400001928E-02 0.  1.
    10030    2    1    2    0    0  0.00000000000E+00  0.00000000000E+00  0.15931563244E+04  0.28322608273E+04  0.23416990242E+04 0.  0.
        3    1    3    3  502    0 -0.55387691173E+03 -0.24228595998E+03  0.20093329680E+04  0.20983091064E+04  0.10100000352E+00 0. -1.
       -3    1    3    3    0  502  0.55387691173E+03  0.24228595998E+03 -0.41617664355E+03  0.73395172088E+03  0.10100000352E+00 0.  1.
</event>
<event>
 5   0  0.4959347E-05  0.2551159E+04  0.7818609E-02  0.8384983E-01
       -2   -1    0    0    0  501  0.00000000000E+00  0.00000000000E+00  0.14180807737E+04  0.14180807737E+04  0.25500000920E-02 0. -1.
        2   -1    0    0  501    0  0.00000000000E+00  0.00000000000E+00 -0.11473978759E+04  0.11473978759E+04  0.25500000920E-02 0.  1.
    10030    2    1    2    0    0  0.00000000000E+00  0.00000000000E+00  0.27068289781E+03  0.25654786496E+04  0.25511588485E+04 0.  0.
        3    1    3    3  502    0 -0.17404982987E+03  0.84638925176E+03 -0.80824021130E+03  0.11831823013E+04  0.10100000352E+00 0.  1.
       -3    1    3    3    0  502  0.17404982987E+03 -0.84638925176E+03  0.10789231091E+04  0.13822963482E+04  0.10100000352E+00 0. -1.
</event>
<event>
 5   0  0.4959042E-05  0.1707680E+04  0.7818609E-02  0.8756996E-01
       -2   -1    0    0    0  501  0.00000000000E+00  0.00000000000E+00  0.53940227286E+03  0.53940227286E+03  0.25500000920E-02 0.  1.
        2   -1    0    0  501    0  0.00000000000E+00  0.00000000000E+00 -0.13515746525E+04  0.13515746525E+04  0.25500000920E-02 0. -1.
    10030    2    1    2    0    0  0.00000000000E+00  0.00000000000E+00 -0.81217237964E+03  0.18909769254E+04  0.17076796415E+04 0.  0.
        4    1    3    3  502    0 -0.23905332794E+03 -0.28356805297E+03  0.44554418467E+03  0.57971421205E+03  0.12699999809E+01 0.  1.
       -4    1    3    3    0  502  0.23905332794E+03  0.28356805297E+03 -0.12577165643E+04  0.13112627133E+04  0.12699999809E+01 0. -1.
</event>
<event>
 5   0  0.4959042E-05  0.2489171E+04  0.7818609E-02  0.8406853E-01
       -2   -1    0    0    0  501  0.00000000000E+00  0.00000000000E+00  0.11374516332E+04  0.11374516332E+04  0.25500000920E-02 0.  1.
        2   -1    0    0  501    0  0.00000000000E+00  0.00000000000E+00 -0.13618105889E+04  0.13618105889E+04  0.25500000920E-02 0. -1.
    10030    2    1    2    0    0  0.00000000000E+00  0.00000000000E+00 -0.22435895569E+03  0.24992622220E+04  0.24891714914E+04 0.  0.
        4    1    3    3  502    0 -0.59225769920E+03  0.31202808555E+03 -0.11656522608E+04  0.13442014412E+04  0.12699999809E+01 0. -1.
       -4    1    3    3    0  502  0.59225769920E+03 -0.31202808555E+03  0.94129330509E+03  0.11550607809E+04  0.12699999809E+01 0.  1.
</event>
<event>
 5   0  0.2036578E-05  0.2494020E+04  0.7818609E-02  0.8405119E-01
       -1   -1    0    0    0  501  0.00000000000E+00  0.00000000000E+00  0.14022687006E+04  0.14022687006E+04  0.50400001928E-02 0. -1.
        1   -1    0    0  501    0  0.00000000000E+00  0.00000000000E+00 -0.11089418331E+04  0.11089418331E+04  0.50400001928E-02 0.  1.
    10030    2    1    2    0    0  0.00000000000E+00  0.00000000000E+00  0.29332686746E+03  0.25112105337E+04  0.24940203875E+04 0.  0.
        2    1    3    3  502    0 -0.43930460282E+03  0.49070808886E+02  0.13207355215E+04  0.13927450578E+04  0.25500000920E-02 0. -1.
       -2    1    3    3    0  502  0.43930460282E+03 -0.49070808886E+02 -0.10274086540E+04  0.11184654759E+04  0.25500000920E-02 0.  1.
</event>
<event>
 5   0  0.5219468E-05  0.2956953E+04  0.7818609E-02  0.8256131E-01
       -2   -1    0    0    0  501  0.00000000000E+00  0.00000000000E+00  0.16994386806E+04  0.16994386806E+04  0.25500000920E-02 0. -1.
        2   -1    0    0  501    0  0.00000000000E+00  0.00000000000E+00 -0.12862437754E+04  0.12862437754E+04  0.25500000920E-02 0.  1.
    10030    2    1    2    0    0  0.00000000000E+00  0.00000000000E+00  0.41319490521E+03  0.29856824561E+04  0.29569527725E+04 0.  0.
        1    1    3    3  502    0  0.27141431227E+03  0.11887254267E+04  0.10508785506E+04  0.16096830735E+04  0.50400001928E-02 0. -1.
       -1    1    3    3    0  502 -0.27141431227E+03 -0.11887254267E+04 -0.63768364541E+03  0.13759993825E+04  0.50400001928E-02 0.  1.
</event>
<event>
 5   0  0.2081874E-05  0.2428917E+04  0.7818609E-02  0.8428756E-01
       -1   -1    0    0    0  501  0.00000000000E+00  0.00000000000E+00  0.80025273826E+03  0.80025273827E+03  0.50400001928E-02 0. -1.
        1   -1    0    0  501    0  0.00000000000E+00  0.00000000000E+00 -0.18430541419E+04  0.18430541420E+04  0.50400001928E-02 0.  1.
    10030    2    1    2    0    0  0.00000000000E+00  0.00000000000E+00 -0.10428014037E+04  0.26433068802E+04  0.24289167329E+04 0.  0.
        1    1    3    3  502    0  0.50266232129E+03 -0.34740969060E+03 -0.16635853594E+04  0.17722525639E+04  0.50400001928E-02 0.  1.
       -1    1    3    3    0  502 -0.50266232129E+03  0.34740969060E+03  0.62078395566E+03  0.87105431633E+03  0.50400001928E-02 0. -1.
</event>
<event>
 5   0  0.2066170E-05  0.2546870E+04  0.7818609E-02  0.8386476E-01
        1   -1    0    0  501    0  0.00000000000E+00  0.00000000000E+00  0.21866603809E+04  0.21866603809E+04  0.50400001928E-02 0.  1.
       -1   -1    0    0    0  501  0.00000000000E+00  0.00000000000E+00 -0.74160414068E+03  0.74160414070E+03  0.50400001928E-02 0. -1.
    10030    2    1    2    0    0  0.00000000000E+00  0.00000000000E+00  0.14450562402E+04  0.29282645216E+04  0.25468697593E+04 0.  0.
        5    1    3    3  502    0  0.15396240109E+03 -0.45927964955E+03  0.20765866242E+04  0.21323405721E+04  0.46999998093E+01 0.  1.
       -5    1    3    3    0  502 -0.15396240109E+03  0.45927964955E+03 -0.63153038403E+03  0.79592394950E+03  0.46999998093E+01 0. -1.
</event>
<event>
 5   0  0.5219468E-05  0.2508059E+04  0.7818609E-02  0.8400120E-01
        2   -1    0    0  501    0  0.00000000000E+00  0.00000000000E+00  0.23372421300E+04  0.23372421300E+04  0.25500000920E-02 0.  1.
       -2   -1    0    0    0  501  0.00000000000E+00  0.00000000000E+00 -0.67284006144E+03  0.67284006145E+03  0.25500000920E-02 0. -1.
    10030    2    1    2    0    0  0.00000000000E+00  0.00000000000E+00  0.16644020686E+04  0.30100821915E+04  0.25080591208E+04 0.  0.
        1    1    3    3  502    0 -0.82247596968E+03  0.92656843692E+03  0.59949809372E+03  0.13763697735E+04  0.50400001928E-02 0. -1.
       -1    1    3    3    0  502  0.82247596968E+03 -0.92656843692E+03  0.10649039749E+04  0.16337124180E+04  0.50400001928E-02 0.  1.
</event>
<event>
 5   0  0.2066170E-05  0.2675802E+04  0.7818609E-02  0.8342899E-01
        1   -1    0    0  501    0  0.00000000000E+00  0.00000000000E+00  0.80911863107E+03  0.80911863109E+03  0.50400001928E-02 0.  1.
       -1   -1    0    0    0  501  0.00000000000E+00  0.00000000000E+00 -0.22122575174E+04  0.22122575174E+04  0.50400001928E-02 0. -1.
    10030    2    1    2    0    0  0.00000000000E+00  0.00000000000E+00 -0.14031388863E+04  0.30213761485E+04  0.26758017670E+04 0.  0.
        5    1    3    3  502    0 -0.88908145157E+03 -0.25923200241E+02 -0.18300503719E+04  0.20347590260E+04  0.46999998093E+01 0. -1.
       -5    1    3    3    0  502  0.88908145157E+03  0.25923200241E+02  0.42691148566E+03  0.98661712250E+03  0.46999998093E+01 0.  1.
</event>
<event>
 5   0  0.2063930E-05  0.2492299E+04  0.7818609E-02  0.8405734E-01
       -1   -1    0    0    0  501  0.00000000000E+00  0.00000000000E+00  0.85882496023E+03  0.85882496024E+03  0.50400001928E-02 0.  1.
        1   -1    0    0  501    0  0.00000000000E+00  0.00000000000E+00 -0.18081551149E+04  0.18081551150E+04  0.50400001928E-02 0. -1.
    10030    2    1    2    0    0  0.00000000000E+00  0.00000000000E+00 -0.94933015472E+03  0.26669800752E+04  0.24922991351E+04 0.  0.
        3    1    3    3  502    0 -0.12315297392E+04  0.13330154196E+03 -0.62003149746E+03  0.13852342285E+04  0.10100000352E+00 0.  1.
       -3    1    3    3    0  502  0.12315297392E+04 -0.13330154196E+03 -0.32929865726E+03  0.12817458467E+04  0.10100000352E+00 0. -1.
</event>
<event>
 5   0  0.2041718E-05  0.2506516E+04  0.7818609E-02  0.8400668E-01
       -1   -1    0    0    0  501  0.00000000000E+00  0.00000000000E+00  0.15645826260E+04  0.15645826261E+04  0.50400001928E-02 0. -1.
        1   -1    0    0  501    0  0.00000000000E+00  0.00000000000E+00 -0.10038813698E+04  0.10038813699E+04  0.50400001928E-02 0.  1.
    10030    2    1    2    0    0  0.00000000000E+00  0.00000000000E+00  0.56070125620E+03  0.25684639959E+04  0.25065157888E+04 0.  0.
        4    1    3    3  502    0 -0.86207379422E+03 -0.89681750248E+03  0.43643349870E+03  0.13183052268E+04  0.12699999809E+01 0. -1.
       -4    1    3    3    0  502  0.86207379422E+03  0.89681750248E+03  0.12426775750E+03  0.12501587691E+04  0.12699999809E+01 0.  1.
</event>
<event>
 5   0  0.5024070E-05  0.1986671E+04  0.7818609E-02  0.8612878E-01
       -2   -1    0    0    0  501  0.00000000000E+00  0.00000000000E+00  0.61682550626E+03  0.61682550626E+03  0.25500000920E-02 0.  1.
        2   -1    0    0  501    0  0.00000000000E+00  0.00000000000E+00 -0.15996667849E+04  0.15996667849E+04  0.25500000920E-02 0. -1.
    10030    2    1    2    0    0  0.00000000000E+00  0.00000000000E+00 -0.98284127866E+03  0.22164922912E+04  0.19866708580E+04 0.  0.
        5    1    3    3  502    0  0.37739319954E+03  0.32421702304E+03 -0.14506155215E+04  0.15335741868E+04  0.46999998093E+01 0. -1.
       -5    1    3    3    0  502 -0.37739319954E+03 -0.32421702304E+03  0.46777424284E+03  0.68291810442E+03  0.46999998093E+01 0.  1.
</event>
<event>
 5   0  0.5219468E-05  0.2562998E+04  0.7818609E-02  0.8380880E-01
       -2   -1    0    0    0  501  0.00000000000E+00  0.00000000000E+00  0.13830072516E+04  0.13830072516E+04  0.25500000920E-02 0.  1.
        2   -1    0    0  501    0  0.00000000000E+00  0.00000000000E+00 -0.11874406990E+04  0.11874406990E+04  0.25500000920E-02 0. -1.
    10030    2    1    2    0    0  0.00000000000E+00  0.00000000000E+00  0.19556655261E+03  0.25704479506E+04  0.25629975400E+04 0.  0.
        1    1    3    3  502    0  0.99199377746E+03  0.80662321034E+03  0.18490604567E+03  0.12918525085E+04  0.50400001928E-02 0.  1.
       -1    1    3    3    0  502 -0.99199377746E+03 -0.80662321034E+03  0.10660506934E+02  0.12785954420E+04  0.50400001928E-02 0. -1.
</event>
<event>
 5   0  0.2036578E-05  0.2161561E+04  0.7818609E-02  0.8534600E-01
        1   -1    0    0  501    0  0.00000000000E+00  0.00000000000E+00  0.16857723288E+04  0.16857723288E+04  0.50400001928E-02 0.  1.
       -1   -1    0    0    0  501  0.00000000000E+00  0.00000000000E+00 -0.69290904195E+03  0.69290904197E+03  0.50400001928E-02 0. -1.
    10030    2    1    2    0    0  0.00000000000E+00  0.00000000000E+00  0.99286328685E+03  0.23786813708E+04  0.21615613702E+04 0.  0.
        2    1    3    3  502    0  0.77771740341E+01 -0.66726890758E+03  0.14319910003E+04  0.15798438227E+04  0.25500000920E-02 0.  1.
       -2    1    3    3    0  502 -0.77771740341E+01  0.66726890758E+03 -0.43912771341E+03  0.79883754803E+03  0.25500000920E-02 0. -1.
</event>
<event>
 5   0  0.2066170E-05  0.2469874E+04  0.7818609E-02  0.8413797E-01
        1   -1    0    0  501    0  0.00000000000E+00  0.00000000000E+00  0.13004904068E+04  0.13004904068E+04  0.50400001928E-02 0.  1.
       -1   -1    0    0    0  501  0.00000000000E+00  0.00000000000E+00 -0.11726883831E+04  0.11726883831E+04  0.50400001928E-02 0. -1.
    10030    2    1    2    0    0  0.00000000000E+00  0.00000000000E+00  0.12780202368E+03  0.24731787899E+04  0.24698744846E+04 0.  0.
        5    1    3    3  502    0  0.91524762347E+03  0.30284285860E+03 -0.70891898527E+03  0.11966537624E+04  0.46999998093E+01 0. -1.
       -5    1    3    3    0  502 -0.91524762347E+03 -0.30284285860E+03  0.83672100894E+03  0.12765250276E+04  0.46999998093E+01 0.  1.
</event>
<event>
 5   0  0.4959347E-05  0.2497025E+04  0.7818609E-02  0.8404046E-01
        2   -1    0    0  501    0  0.00000000000E+00  0.00000000000E+00  0.78298122513E+03  0.78298122514E+03  0.25500000920E-02 0.  1.
       -2   -1    0    0    0  501  0.00000000000E+00  0.00000000000E+00 -0.19908304258E+04  0.19908304258E+04  0.25500000920E-02 0. -1.
    10030    2    1    2    0    0  0.00000000000E+00  0.00000000000E+00 -0.12078492007E+04  0.27738116510E+04  0.24970245060E+04 0.  0.
        3    1    3    3  502    0  0.11379322752E+04 -0.50911701430E+03 -0.52782682484E+03  0.13537692434E+04  0.10100000352E+00 0.  1.
       -3    1    3    3    0  502 -0.11379322752E+04  0.50911701430E+03 -0.68002237585E+03  0.14200424075E+04  0.10100000352E+00 0. -1.
</event>
<event>
 5   0  0.5219468E-05  0.2561723E+04  0.7818609E-02  0.8381320E-01
        2   -1    0    0  501    0  0.00000000000E+00  0.00000000000E+00  0.20475737868E+04  0.20475737868E+04  0.25500000920E-02 0.  1.
       -2   -1    0    0    0  501  0.00000000000E+00  0.00000000000E+00 -0.80124407985E+03  0.80124407985E+03  0.25500000920E-02 0. -1.
    10030    2    1    2    0    0  0.00000000000E+00  0.00000000000E+00  0.12463297069E+04  0.28488178666E+04  0.25617231503E+04 0.  0.
        1    1    3    3  502    0 -0.86281389522E+02 -0.98885889743E+03  0.15234066970E+04  0.18182558570E+04  0.50400001928E-02 0.  1.
       -1    1    3    3    0  502  0.86281389522E+02  0.98885889743E+03 -0.27707699004E+03  0.10305620096E+04  0.50400001928E-02 0. -1.
</event>
<event>
 5   0  0.1692125E-05  0.2447417E+04  0.7818609E-02  0.8421962E-01
        3   -1    0    0  501    0  0.00000000000E+00  0.00000000000E+00  0.11390534180E+04  0.11390534224E+04  0.10100000352E+00 0. -1.
       -3   -1    0    0    0  501  0.00000000000E+00  0.00000000000E+00 -0.13146548071E+04  0.13146548109E+04  0.10100000352E+00 0.  1.
    10030    2    1    2    0    0  0.00000000000E+00  0.00000000000E+00 -0.17560138911E+03  0.24537082334E+04  0.24474166475E+04 0.  0.
        1    1    3    3  502    0 -0.34478798411E+03  0.33225086609E+03  0.10412348889E+04  0.11460538756E+04  0.50400001928E-02 0. -1.
       -1    1    3    3    0  502  0.34478798411E+03 -0.33225086609E+03 -0.12168362780E+04  0.13076543578E+04  0.50400001928E-02 0.  1.
</event>
<event>
 5   0  0.2036578E-05  0.2511174E+04  0.7818609E-02  0.8399016E-01
       -1   -1    0    0    0  501  0.00000000000E+00  0.00000000000E+00  0.13433711669E+04  0.13433711669E+04  0.50400001928E-02 0. -1.
        1   -1    0    0  501    0  0.00000000000E+00  0.00000000000E+00 -0.11735392620E+04  0.11735392620E+04  0.50400001928E-02 0.  1.
    10030    2    1    2    0    0  0.00000000000E+00  0.00000000000E+00  0.16983190496E+03  0.25169104289E+04  0.25111740742E+04 0.  0.
        2    1    3    3  502    0  0.68675083243E+03  0.80701160089E+03 -0.59012412832E+03  0.12129059801E+04  0.25500000920E-02 0.  1.
       -2    1    3    3    0  502 -0.68675083243E+03 -0.80701160089E+03  0.75995603329E+03  0.13040044487E+04  0.25500000920E-02 0. -1.
</event>
<event>
 5   0  0.2066170E-05  0.2414793E+04  0.7818609E-02  0.8433986E-01
        1   -1    0    0  501    0  0.00000000000E+00  0.00000000000E+00  0.12335821468E+04  0.12335821468E+04  0.50400001928E-02 0.  1.
       -1   -1    0    0    0  501  0.00000000000E+00  0.00000000000E+00 -0.11817667911E+04  0.11817667911E+04  0.50400001928E-02 0. -1.
    10030    2    1    2    0    0  0.00000000000E+00  0.00000000000E+00  0.51815355654E+02  0.24153489379E+04  0.24147930886E+04 0.  0.
        5    1    3    3  502    0  0.52469147806E+03 -0.93171185523E+02  0.11095786398E+04  0.12309219573E+04  0.46999998093E+01 0.  1.
       -5    1    3    3    0  502 -0.52469147806E+03  0.93171185523E+02 -0.10577632842E+04  0.11844269806E+04  0.46999998093E+01 0. -1.
</event>
<event>
 5   0  0.2036578E-05  0.2442591E+04  0.7818609E-02  0.8423728E-01
        1   -1    0    0  501    0  0.00000000000E+00  0.00000000000E+00  0.20685702878E+04  0.20685702878E+04  0.50400001928E-02 0. -1.
       -1   -1    0    0    0  501  0.00000000000E+00  0.00000000000E+00 -0.72105950035E+03  0.72105950037E+03  0.50400001928E-02 0.  1.
    10030    2    1    2    0    0  0.00000000000E+00  0.00000000000E+00  0.13475107874E+04  0.27896297882E+04  0.24425906396E+04 0.  0.
        2    1    3    3  502    0  0.62764686587E+03  0.36964517013E+02  0.18695366326E+04  0.19724284991E+04  0.25500000920E-02 0. -1.
       -2    1    3    3    0  502 -0.62764686587E+03 -0.36964517013E+02 -0.52202584514E+03  0.81720128900E+03  0.25500000920E-02 0.  1.
</event>
<event>
 5   0  0.2066170E-05  0.2492193E+04  0.7818609E-02  0.8405772E-01
       -1   -1    0    0    0  501  0.00000000000E+00  0.00000000000E+00  0.80250759527E+03  0.80250759528E+03  0.50400001928E-02 0. -1.
        1   -1    0    0  501    0  0.00000000000E+00  0.00000000000E+00 -0.19348812653E+04  0.19348812653E+04  0.50400001928E-02 0.  1.
    10030    2    1    2    0    0  0.00000000000E+00  0.00000000000E+00 -0.11323736700E+04  0.27373888605E+04  0.24921933403E+04 0.  0.
        5    1    3    3  502    0 -0.99422348777E+02  0.32770032538E+03  0.74979741758E+03  0.82431217636E+03  0.46999998093E+01 0. -1.
       -5    1    3    3    0  502  0.99422348777E+02 -0.32770032538E+03 -0.18821710876E+04  0.19130766842E+04  0.46999998093E+01 0.  1.
</event>
<event>
 5   0  0.2036578E-05  0.2543748E+04  0.7818609E-02  0.8387564E-01
        1   -1    0    0  501    0  0.00000000000E+00  0.00000000000E+00  0.14630551931E+04  0.14630551931E+04  0.50400001928E-02 0. -1.
       -1   -1    0    0    0  501  0.00000000000E+00  0.00000000000E+00 -0.11056745499E+04  0.11056745499E+04  0.50400001928E-02 0.  1.
    10030    2    1    2    0    0  0.00000000000E+00  0.00000000000E+00  0.35738064323E+03  0.25687297430E+04  0.25437475442E+04 0.  0.
        2    1    3    3  502    0  0.80827643435E+03 -0.55477002651E+03  0.99694594325E+03  0.13982066337E+04  0.25500000920E-02 0. -1.
       -2    1    3    3    0  502 -0.80827643435E+03  0.55477002651E+03 -0.63956530002E+03  0.11705231094E+04  0.25500000920E-02 0.  1.
</event>
<event>
 5   0  0.4959347E-05  0.2487223E+04  0.7818609E-02  0.8407551E-01
       -2   -1    0    0    0  501  0.00000000000E+00  0.00000000000E+00  0.79129131098E+03  0.79129131098E+03  0.25500000920E-02 0. -1.
        2   -1    0    0  501    0  0.00000000000E+00  0.00000000000E+00 -0.19544886036E+04  0.19544886036E+04  0.25500000920E-02 0.  1.
    10030    2    1    2    0    0  0.00000000000E+00  0.00000000000E+00 -0.11631972927E+04  0.27457799146E+04  0.24872232304E+04 0.  0.
        3    1    3    3  502    0  0.10119077517E+04  0.42403844152E+03 -0.12279577378E+04  0.16467076589E+04  0.10100000352E+00 0.  1.
       -3    1    3    3    0  502 -0.10119077517E+04 -0.42403844152E+03  0.64760445134E+02  0.10990722557E+04  0.10100000352E+00 0. -1.
</event>
<event>
 5   0  0.4995256E-05  0.2523657E+04  0.7818609E-02  0.8394606E-01
        2   -1    0    0  501    0  0.00000000000E+00  0.00000000000E+00  0.87688909242E+03  0.87688909242E+03  0.25500000920E-02 0. -1.
       -2   -1    0    0    0  501  0.00000000000E+00  0.00000000000E+00 -0.18157504385E+04  0.18157504385E+04  0.25500000920E-02 0.  1.
    10030    2    1    2    0    0  0.00000000000E+00  0.00000000000E+00 -0.93886134612E+03  0.26926395310E+04  0.25236574681E+04 0.  0.
        2    1    3    3  502    0  0.47015210715E+03 -0.11670936365E+04 -0.57099484305E+03  0.13817328508E+04  0.25500000920E-02 0.  1.
       -2    1    3    3    0  502 -0.47015210715E+03  0.11670936365E+04 -0.36786650308E+03  0.13109066802E+04  0.25500000920E-02 0. -1.
</event>
<event>
 5   0  0.5219468E-05  0.2498778E+04  0.7818609E-02  0.8403421E-01
        2   -1    0    0  501    0  0.00000000000E+00  0.00000000000E+00  0.14948481005E+04  0.14948481005E+04  0.25500000920E-02 0. -1.
       -2   -1    0    0    0  501  0.00000000000E+00  0.00000000000E+00 -0.10442349973E+04  0.10442349973E+04  0.25500000920E-02 0.  1.
    10030    2    1    2    0    0  0.00000000000E+00  0.00000000000E+00  0.45061310312E+03  0.25390830978E+04  0.24987778630E+04 0.  0.
        1    1    3    3  502    0 -0.18905827404E+03  0.11614764435E+04  0.65184173159E+03  0.13452390876E+04  0.50400001928E-02 0. -1.
       -1    1    3    3    0  502  0.18905827404E+03 -0.11614764435E+04 -0.20122862846E+03  0.11938440102E+04  0.50400001928E-02 0.  1.
</event>
<event>
 5   0  0.2036578E-05  0.2327802E+04  0.7818609E-02  0.8467039E-01
        1   -1    0    0  501    0  0.00000000000E+00  0.00000000000E+00  0.10059844179E+04  0.10059844179E+04  0.50400001928E-02 0.  1.
       -1   -1    0    0    0  501  0.00000000000E+00  0.00000000000E+00 -0.13466071013E+04  0.13466071013E+04  0.50400001928E-02 0. -1.
    10030    2    1    2    0    0  0.00000000000E+00  0.00000000000E+00 -0.34062268343E+03  0.23525915192E+04  0.23278021918E+04 0.  0.
        2    1    3    3  502    0  0.17213166784E+03  0.11702914740E+03 -0.13276440116E+04  0.13438615085E+04  0.25500000920E-02 0. -1.
       -2    1    3    3    0  502 -0.17213166784E+03 -0.11702914740E+03  0.98702132815E+03  0.10087300108E+04  0.25500000920E-02 0.  1.
</event>
<event>
 5   0  0.4959042E-05  0.2567158E+04  0.7818609E-02  0.8379443E-01
       -2   -1    0    0    0  501  0.00000000000E+00  0.00000000000E+00  0.84354627491E+03  0.84354627492E+03  0.25500000920E-02 0. -1.
        2   -1    0    0  501    0  0.00000000000E+00  0.00000000000E+00 -0.19531527213E+04  0.19531527213E+04  0.25500000920E-02 0.  1.
    10030    2    1    2    0    0  0.00000000000E+00  0.00000000000E+00 -0.11096064464E+04  0.27966989963E+04  0.25671577298E+04 0.  0.
        4    1    3    3  502    0 -0.98722109048E+03  0.73125574571E+03 -0.14976269722E+03  0.12376473349E+04  0.12699999809E+01 0. -1.
       -4    1    3    3    0  502  0.98722109048E+03 -0.73125574571E+03 -0.95984374919E+03  0.15590516614E+04  0.12699999809E+01 0.  1.
</event>
<event>
 5   0  0.2081874E-05  0.2409711E+04  0.7818609E-02  0.8435877E-01
        1   -1    0    0  501    0  0.00000000000E+00  0.00000000000E+00  0.20369982426E+04  0.20369982426E+04  0.50400001928E-02 0.  1.
       -1   -1    0    0    0  501  0.00000000000E+00  0.00000000000E+00 -0.71265494157E+03  0.71265494158E+03  0.50400001928E-02 0. -1.
    10030    2    1    2    0    0  0.00000000000E+00  0.00000000000E+00  0.13243433010E+04  0.27496531842E+04  0.24097110728E+04 0.  0.
        1    1    3    3  502    0  0.46945657052E+02  0.16245500505E+03 -0.69904674078E+03  0.71920919710E+03  0.50400001928E-02 0. -1.
       -1    1    3    3    0  502 -0.46945657052E+02 -0.16245500505E+03  0.20233900418E+04  0.20304439871E+04  0.50400001928E-02 0.  1.
</event>
<event>
 5   0  0.2041718E-05  0.2539470E+04  0.7818609E-02  0.8389058E-01
        1   -1    0    0  501    0  0.00000000000E+00  0.00000000000E+00  0.12544159189E+04  0.12544159189E+04  0.50400001928E-02 0. -1.
       -1   -1    0    0    0  501  0.00000000000E+00  0.00000000000E+00 -0.12852409836E+04  0.12852409837E+04  0.50400001928E-02 0.  1.
    10030    2    1    2    0    0  0.00000000000E+00  0.00000000000E+00 -0.30825064742E+02  0.25396569026E+04  0.25394698262E+04 0.  0.
        4    1    3    3  502    0 -0.79978178095E+03 -0.90878284904E+03  0.36761434115E+03  0.12651794658E+04  0.12699999809E+01 0.  1.
       -4    1    3    3    0  502  0.79978178095E+03  0.90878284904E+03 -0.39843940590E+03  0.12744774368E+04  0.12699999809E+01 0. -1.
</event>
<event>
 5   0  0.4959347E-05  0.2634455E+04  0.7818609E-02  0.8356591E-01
        2   -1    0    0  501    0  0.00000000000E+00  0.00000000000E+00  0.18032861996E+04  0.18032861996E+04  0.25500000920E-02 0. -1.
       -2   -1    0    0    0  501  0.00000000000E+00  0.00000000000E+00 -0.96218139227E+03  0.96218139227E+03  0.25500000920E-02 0.  1.
    10030    2    1    2    0    0  0.00000000000E+00  0.00000000000E+00  0.84110480733E+03  0.27654675919E+04  0.26344551059E+04 0.  0.
        3    1    3    3  502    0  0.72506146430E+03 -0.31532251511E+03 -0.68538028926E+03  0.10463692306E+04  0.10100000352E+00 0.  1.
       -3    1    3    3    0  502 -0.72506146430E+03  0.31532251511E+03  0.15264850966E+04  0.17190983613E+04  0.10100000352E+00 0. -1.
</event>
<event>
 5   0  0.2066170E-05  0.2352691E+04  0.7818609E-02  0.8457431E-01
       -1   -1    0    0    0  501  0.00000000000E+00  0.00000000000E+00  0.21337391242E+04  0.21337391242E+04  0.50400001928E-02 0. -1.
        1   -1    0    0  501    0  0.00000000000E+00  0.00000000000E+00 -0.64852750087E+03  0.64852750089E+03  0.50400001928E-02 0.  1.
    10030    2    1    2    0    0  0.00000000000E+00  0.00000000000E+00  0.14852116234E+04  0.27822666251E+04  0.23526908014E+04 0.  0.
        5    1    3    3  502    0 -0.97677445691E+03  0.13871271744E+03  0.15002356436E+04  0.17955663825E+04  0.46999998093E+01 0. -1.
       -5    1    3    3    0  502  0.97677445691E+03 -0.13871271744E+03 -0.15024020209E+02  0.98670024265E+03  0.46999998093E+01 0.  1.
</event>
<event>
 5   0  0.4959347E-05  0.2502105E+04  0.7818609E-02  0.8402236E-01
       -2   -1    0    0    0  501  0.00000000000E+00  0.00000000000E+00  0.67690543686E+03  0.67690543686E+03  0.25500000920E-02 0. -1.
        2   -1    0    0  501    0  0.00000000000E+00  0.00000000000E+00 -0.23121879883E+04  0.23121879883E+04  0.25500000920E-02 0.  1.
    10030    2    1    2    0    0  0.00000000000E+00  0.00000000000E+00 -0.16352825514E+04  0.29890934252E+04  0.25021052099E+04 0.  0.
        3    1    3    3  502    0  0.11348113451E+04 -0.19293756214E+03 -0.14030239662E+04  0.18147997002E+04  0.10100000352E+00 0.  1.
       -3    1    3    3    0  502 -0.11348113451E+04  0.19293756214E+03 -0.23225858519E+03  0.11742937249E+04  0.10100000352E+00 0. -1.
</event>
<event>
 5   0  0.2041718E-05  0.2471301E+04  0.7818609E-02  0.8413281E-01
        1   -1    0    0  501    0  0.00000000000E+00  0.00000000000E+00  0.20254057081E+04  0.20254057081E+04  0.50400001928E-02 0. -1.
       -1   -1    0    0    0  501  0.00000000000E+00  0.00000000000E+00 -0.75384044422E+03  0.75384044424E+03  0.50400001928E-02 0.  1.
    10030    2    1    2    0    0  0.00000000000E+00  0.00000000000E+00  0.12715652638E+04  0.27792461523E+04  0.24713014698E+04 0.  0.
        4    1    3    3  502    0 -0.53933558238E+03  0.10046045272E+03  0.18809307192E+04  0.19593052739E+04  0.12699999809E+01 0. -1.
       -4    1    3    3    0  502  0.53933558238E+03 -0.10046045272E+03 -0.60936545537E+03  0.81994087840E+03  0.12699999809E+01 0.  1.
</event>
<event>
 5   0  0.2066170E-05  0.2590407E+04  0.7818609E-02  0.8371467E-01
       -1   -1    0    0    0  501  0.00000000000E+00  0.00000000000E+00  0.12106304034E+04  0.12106304034E+04  0.50400001928E-02 0.  1.
        1   -1    0    0  501    0  0.00000000000E+00  0.00000000000E+00 -0.13856848591E+04  0.13856848591E+04  0.50400001928E-02 0. -1.
    10030    2    1    2    0    0  0.00000000000E+00  0.00000000000E+00 -0.17505445569E+03  0.25963152626E+04  0.25904070877E+04 0.  0.
        5    1    3    3  502    0  0.96238556306E+03 -0.77597026820E+03  0.29963647158E+03  0.12720534321E+04  0.46999998093E+01 0.  1.
       -5    1    3    3    0  502 -0.96238556306E+03  0.77597026820E+03 -0.47469092727E+03  0.13242618304E+04  0.46999998093E+01 0. -1.
</event>
<event>
 5   0  0.5024070E-05  0.2637705E+04  0.7818609E-02  0.8355505E-01
       -2   -1    0    0    0  501  0.00000000000E+00  0.00000000000E+00  0.11862700724E+04  0.11862700724E+04  0.25500000920E-02 0.  1.
        2   -1    0    0  501    0  0.00000000000E+00  0.00000000000E+00 -0.14662533763E+04  0.14662533763E+04  0.25500000920E-02 0. -1.
    10030    2    1    2    0    0  0.00000000000E+00  0.00000000000E+00 -0.27998330389E+03  0.26525234488E+04  0.26377054415E+04 0.  0.
        5    1    3    3  502    0 -0.13705456025E+03  0.78469384055E+03 -0.11970016613E+04  0.14378328982E+04  0.46999998093E+01 0. -1.
       -5    1    3    3    0  502  0.13705456025E+03 -0.78469384055E+03  0.91701835743E+03  0.12146905506E+04  0.46999998093E+01 0.  1.
</event>
<event>
 5   0  0.2081874E-05  0.2347973E+04  0.7818609E-02  0.8459243E-01
       -1   -1    0    0    0  501  0.00000000000E+00  0.00000000000E+00  0.82968277245E+03  0.82968277246E+03  0.50400001928E-02 0.  1.
        1   -1    0    0  501    0  0.00000000000E+00  0.00000000000E+00 -0.16611700676E+04  0.16611700676E+04  0.50400001928E-02 0. -1.
    10030    2    1    2    0    0  0.00000000000E+00  0.00000000000E+00 -0.83148729514E+03  0.24908528401E+04  0.23479729021E+04 0.  0.
        1    1    3    3  502    0  0.57502789657E+03  0.20503768679E+03 -0.14795341337E+04  0.16005370310E+04  0.50400001928E-02 0. -1.
       -1    1    3    3    0  502 -0.57502789657E+03 -0.20503768679E+03  0.64804683856E+03  0.89031580904E+03  0.50400001928E-02 0.  1.
</event>
<event>
 5   0  0.5024070E-05  0.2405843E+04  0.7818609E-02  0.8437319E-01
       -2   -1    0    0    0  501  0.00000000000E+00  0.00000000000E+00  0.63571775569E+03  0.63571775570E+03  0.25500000920E-02 0.  1.
        2   -1    0    0  501    0  0.00000000000E+00  0.00000000000E+00 -0.22761996881E+04  0.22761996881E+04  0.25500000920E-02 0. -1.
    10030    2    1    2    0    0  0.00000000000E+00  0.00000000000E+00 -0.16404819324E+04  0.29119174438E+04  0.24058433509E+04 0.  0.
        5    1    3    3  502    0 -0.41549434421E+03  0.23530030862E+03 -0.21565686751E+04  0.22088033696E+04  0.46999998093E+01 0. -1.
       -5    1    3    3    0  502  0.41549434421E+03 -0.23530030862E+03  0.51608674269E+03  0.70311407416E+03  0.46999998093E+01 0.  1.
</event>
<event>
 5   0  0.2036578E-05  0.2533111E+04  0.7818609E-02  0.8391284E-01
        1   -1    0    0  501    0  0.00000000000E+00  0.00000000000E+00  0.13687238818E+04  0.13687238818E+04  0.50400001928E-02 0.  1.
       -1   -1    0    0    0  501  0.00000000000E+00  0.00000000000E+00 -0.11720134998E+04  0.11720134998E+04  0.50400001928E-02 0. -1.
    10030    2    1    2    0    0  0.00000000000E+00  0.00000000000E+00  0.19671038199E+03  0.25407373816E+04  0.25331110256E+04 0.  0.
        2    1    3    3  502    0 -0.60945092130E+03 -0.44206275121E+03  0.11199071365E+04  0.13494598534E+04  0.25500000920E-02 0.  1.
       -2    1    3    3    0  502  0.60945092130E+03  0.44206275121E+03 -0.92319675456E+03  0.11912775282E+04  0.25500000920E-02 0. -1.
</event>
<event>
 5   0  0.2063930E-05  0.2416305E+04  0.7818609E-02  0.8433424E-01
        1   -1    0    0  501    0  0.00000000000E+00  0.00000000000E+00  0.91986876579E+03  0.91986876580E+03  0.50400001928E-02 0.  1.
       -1   -1    0    0    0  501  0.00000000000E+00  0.00000000000E+00 -0.15867835276E+04  0.15867835276E+04  0.50400001928E-02 0. -1.
    10030    2    1    2    0    0  0.00000000000E+00  0.00000000000E+00 -0.66691476182E+03  0.25066522934E+04  0.24163051174E+04 0.  0.
        3    1    3    3  502    0 -0.12010428325E+03  0.11846296108E+04 -0.12120958692E+03  0.11968559345E+04  0.10100000352E+00 0.  1.
       -3    1    3    3    0  502  0.12010428325E+03 -0.11846296108E+04 -0.54570517489E+03  0.13097963589E+04  0.10100000352E+00 0. -1.
</event>
<event>
 5   0  0.2066170E-05  0.2535014E+04  0.7818609E-02  0.8390617E-01
        1   -1    0    0  501    0  0.00000000000E+00  0.00000000000E+00  0.79188843366E+03  0.79188843367E+03  0.50400001928E-02 0.  1.
       -1   -1    0    0    0  501  0.00000000000E+00  0.00000000000E+00 -0.20287881804E+04  0.20287881804E+04  0.50400001928E-02 0. -1.
    10030    2    1    2    0    0  0.00000000000E+00  0.00000000000E+00 -0.12368997467E+04  0.28206766141E+04  0.25350139206E+04 0.  0.
        5    1    3    3  502    0  0.36654199901E+03 -0.11449234416E+04 -0.10653970483E+04  0.16063298804E+04  0.46999998093E+01 0.  1.
       -5    1    3    3    0  502 -0.36654199901E+03  0.11449234416E+04 -0.17150269842E+03  0.12143467337E+04  0.46999998093E+01 0. -1.
</event>
<event>
 5   0  0.4995256E-05  0.2296321E+04  0.7818609E-02  0.8479373E-01
       -2   -1    0    0    0  501  0.00000000000E+00  0.00000000000E+00  0.83784435702E+03  0.83784435702E+03  0.25500000920E-02 0.  1.
        2   -1    0    0  501    0  0.00000000000E+00  0.00000000000E+00 -0.15734095685E+04  0.15734095685E+04  0.25500000920E-02 0. -1.
    10030    2    1    2    0    0  0.00000000000E+00  0.00000000000E+00 -0.73556521145E+03  0.24112539255E+04  0.22963208210E+04 0.  0.
        2    1    3    3  502    0 -0.42624243110E+03 -0.16219357284E+03  0.73865574833E+03  0.86810234402E+03  0.25500000920E-02 0.  1.
       -2    1    3    3    0  502  0.42624243110E+03  0.16219357284E+03 -0.14742209598E+04  0.15431515815E+04  0.25500000920E-02 0. -1.
</event>
<event>
 5   0  0.5219468E-05  0.2325891E+04  0.7818609E-02  0.8467782E-01
        2   -1    0    0  501    0  0.00000000000E+00  0.00000000000E+00  0.10190930152E+04  0.10190930152E+04  0.25500000920E-02 0.  1.
       -2   -1    0    0    0  501  0.00000000000E+00  0.00000000000E+00 -0.13271034277E+04  0.13271034277E+04  0.25500000920E-02 0. -1.
    10030    2    1    2    0    0  0.00000000000E+00  0.00000000000E+00 -0.30801041250E+03  0.23461964430E+04  0.23258906541E+04 0.  0.
        1    1    3    3  502    0 -0.10344890181E+04 -0.42146074296E+02  0.38023918749E+03  0.11029622205E+04  0.50400001928E-02 0.  1.
       -1    1    3    3    0  502  0.10344890181E+04  0.42146074296E+02 -0.68824960000E+03  0.12432342225E+04  0.50400001928E-02 0. -1.
</event>
<event>
 5   0  0.2081874E-05  0.2367679E+04  0.7818609E-02  0.8451704E-01
       -1   -1    0    0    0  501  0.00000000000E+00  0.00000000000E+00  0.90167646099E+03  0.90167646100E+03  0.50400001928E-02 0.  1.
        1   -1    0    0  501    0  0.00000000000E+00  0.00000000000E+00 -0.15542998842E+04  0.15542998842E+04  0.50400001928E-02 0. -1.
    10030    2    1    2    0    0  0.00000000000E+00  0.00000000000E+00 -0.65262342321E+03  0.24559763452E+04  0.23676787104E+04 0.  0.
        1    1    3    3  502    0 -0.70529510052E+03 -0.94147881516E+03 -0.18849579992E+03  0.11913665283E+04  0.50400001928E-02 0. -1.
       -1    1    3    3    0  502  0.70529510052E+03  0.94147881516E+03 -0.46412762329E+03  0.12646098169E+04  0.50400001928E-02 0.  1.
</event>
<event>
 5   0  0.2063930E-05  0.2600831E+04  0.7818609E-02  0.8367919E-01
        1   -1    0    0  501    0  0.00000000000E+00  0.00000000000E+00  0.12595398926E+04  0.12595398926E+04  0.50400001928E-02 0. -1.
       -1   -1    0    0    0  501  0.00000000000E+00  0.00000000000E+00 -0.13426173339E+04  0.13426173339E+04  0.50400001928E-02 0.  1.
    10030    2    1    2    0    0  0.00000000000E+00  0.00000000000E+00 -0.83077441324E+02  0.26021572265E+04  0.26008307077E+04 0.  0.
        3    1    3    3  502    0 -0.97097223009E+03  0.25974789507E+03  0.78400274358E+03  0.12747220688E+04  0.10100000352E+00 0. -1.
       -3    1    3    3    0  502  0.97097223009E+03 -0.25974789507E+03 -0.86708018490E+03  0.13274351577E+04  0.10100000352E+00 0.  1.
</event>
<event>
 5   0  0.2063930E-05  0.1922815E+04  0.7818609E-02  0.8643582E-01
       -1   -1    0    0    0  501  0.00000000000E+00  0.00000000000E+00  0.84255738783E+03  0.84255738784E+03  0.50400001928E-02 0. -1.
        1   -1    0    0  501    0  0.00000000000E+00  0.00000000000E+00 -0.10970227376E+04  0.10970227376E+04  0.50400001928E-02 0.  1.
    10030    2    1    2    0    0  0.00000000000E+00  0.00000000000E+00 -0.25446534975E+03  0.19395801254E+04  0.19228152404E+04 0.  0.
        3    1    3    3  502    0  0.61557106785E+03  0.80516720448E+02 -0.86772713116E+03  0.10669400481E+04  0.10100000352E+00 0.  1.
       -3    1    3    3    0  502 -0.61557106785E+03 -0.80516720448E+02  0.61326178141E+03  0.87264007735E+03  0.10100000352E+00 0. -1.
</event>
<event>
 5   0  0.2041718E-05  0.2318798E+04  0.7818609E-02  0.8470546E-01
       -1   -1    0    0    0  501  0.00000000000E+00  0.00000000000E+00  0.86658856503E+03  0.86658856505E+03  0.50400001928E-02 0.  1.
        1   -1    0    0  501    0  0.00000000000E+00  0.00000000000E+00 -0.15511471201E+04  0.15511471201E+04  0.50400001928E-02 0. -1.
    10030    2    1    2    0    0  0.00000000000E+00  0.00000000000E+00 -0.68455855502E+03  0.24177356851E+04  0.23187982723E+04 0.  0.
        4    1    3    3  502    0  0.40924420616E+03 -0.82494852254E+03 -0.10767376208E+04  0.14168226431E+04  0.12699999809E+01 0. -1.
       -4    1    3    3    0  502 -0.40924420616E+03  0.82494852254E+03  0.39217906577E+03  0.10009130420E+04  0.12699999809E+01 0.  1.
</event>
<event>
 5   0  0.5219468E-05  0.2019561E+04  0.7818609E-02  0.8597530E-01
        2   -1    0    0  501    0  0.00000000000E+00  0.00000000000E+00  0.90819517572E+03  0.90819517573E+03  0.25500000920E-02 0.  1.
       -2   -1    0    0    0  501  0.00000000000E+00  0.00000000000E+00 -0.11227284179E+04  0.11227284179E+04  0.25500000920E-02 0. -1.
    10030    2    1    2    0    0  0.00000000000E+00  0.00000000000E+00 -0.21453324216E+03  0.20309235936E+04  0.20195608758E+04 0.  0.
        1    1    3    3  502    0 -0.11154918499E+03 -0.58892615569E+03  0.70994279199E+03  0.92913723715E+03  0.50400001928E-02 0.  1.
       -1    1    3    3    0  502  0.11154918499E+03  0.58892615569E+03 -0.92447603415E+03  0.11017863565E+04  0.50400001928E-02 0. -1.
</event>
<event>
 5   0  0.4959347E-05  0.2471530E+04  0.7818609E-02  0.8413199E-01
        2   -1    0    0  501    0  0.00000000000E+00  0.00000000000E+00  0.18928956537E+04  0.18928956537E+04  0.25500000920E-02 0. -1.
       -2   -1    0    0    0  501  0.00000000000E+00  0.00000000000E+00 -0.80676110192E+03  0.80676110193E+03  0.25500000920E-02 0.  1.
    10030    2    1    2    0    0  0.00000000000E+00  0.00000000000E+00  0.10861345518E+04  0.26996567557E+04  0.24715295535E+04 0.  0.
        3    1    3    3  502    0 -0.11468000425E+04 -0.41039588251E+03  0.77098822165E+03  0.14415262627E+04  0.10100000352E+00 0. -1.
       -3    1    3    3    0  502  0.11468000425E+04  0.41039588251E+03  0.31514633016E+03  0.12581304930E+04  0.10100000352E+00 0.  1.
</event>
<event>
 5   0  0.2063930E-05  0.1863392E+04  0.7818609E-02  0.8673296E-01
        1   -1    0    0  501    0  0.00000000000E+00  0.00000000000E+00  0.13785217669E+04  0.13785217669E+04  0.50400001928E-02 0.  1.
       -1   -1    0    0    0  501  0.00000000000E+00  0.00000000000E+00 -0.62970192543E+03  0.62970192545E+03  0.50400001928E-02 0. -1.
    10030    2    1    2    0    0  0.00000000000E+00  0.00000000000E+00  0.74881984144E+03  0.20082236923E+04  0.18633924019E+04 0.  0.
        3    1    3    3  502    0 -0.28202057167E+03  0.37052569034E+03 -0.49530302792E+03  0.67981614405E+03  0.10100000352E+00 0. -1.
       -3    1    3    3    0  502  0.28202057167E+03 -0.37052569034E+03  0.12441228694E+04  0.13284075483E+04  0.10100000352E+00 0.  1.
</event>
<event>
 5   0  0.4959042E-05  0.2483788E+04  0.7818609E-02  0.8408784E-01
        2   -1    0    0  501    0  0.00000000000E+00  0.00000000000E+00  0.21348296654E+04  0.21348296654E+04  0.25500000920E-02 0. -1.
       -2   -1    0    0    0  501  0.00000000000E+00  0.00000000000E+00 -0.72244667046E+03  0.72244667047E+03  0.25500000920E-02 0.  1.
    10030    2    1    2    0    0  0.00000000000E+00  0.00000000000E+00  0.14123829950E+04  0.28572763359E+04  0.24837879006E+04 0.  0.
        4    1    3    3  502    0 -0.26545287886E+02  0.12009419638E+04  0.34362815053E+03  0.12494191336E+04  0.12699999809E+01 0.  1.
       -4    1    3    3    0  502  0.26545287886E+02 -0.12009419638E+04  0.10687548444E+04  0.16078572023E+04  0.12699999809E+01 0. -1.
</event>
<event>
 5   0  0.2063930E-05  0.2569141E+04  0.7818609E-02  0.8378759E-01
        1   -1    0    0  501    0  0.00000000000E+00  0.00000000000E+00  0.17619318089E+04  0.17619318089E+04  0.50400001928E-02 0. -1.
       -1   -1    0    0    0  501  0.00000000000E+00  0.00000000000E+00 -0.93654099839E+03  0.93654099840E+03  0.50400001928E-02 0.  1.
    10030    2    1    2    0    0  0.00000000000E+00  0.00000000000E+00  0.82539081049E+03  0.26984728073E+04  0.25691410046E+04 0.  0.
        3    1    3    3  502    0 -0.28125250538E+03 -0.62955661938E+03 -0.72568997967E+03  0.10010346975E+04  0.10100000352E+00 0.  1.
       -3    1    3    3    0  502  0.28125250538E+03  0.62955661938E+03  0.15510807902E+04  0.16974381098E+04  0.10100000352E+00 0. -1.
</event>
<event>
 5   0  0.2063930E-05  0.2547414E+04  0.7818609E-02  0.8386286E-01
        1   -1    0    0  501    0  0.00000000000E+00  0.00000000000E+00  0.25105096153E+04  0.25105096153E+04  0.50400001928E-02 0.  1.
       -1   -1    0    0    0  501  0.00000000000E+00  0.00000000000E+00 -0.64621523476E+03  0.64621523477E+03  0.50400001928E-02 0. -1.
    10030    2    1    2    0    0  0.00000000000E+00  0.00000000000E+00  0.18642943805E+04  0.31567248500E+04  0.25474140303E+04 0.  0.
        3    1    3    3  502    0 -0.41579677147E+02  0.61315899784E+03 -0.45033166694E+03  0.76189989279E+03  0.10100000352E+00 0. -1.
       -3    1    3    3    0  502  0.41579677147E+02 -0.61315899784E+03  0.23146260474E+04  0.23948249572E+04  0.10100000352E+00 0.  1.
</event>
<event>
 5   0  0.5024070E-05  0.2481612E+04  0.7818609E-02  0.8409566E-01
       -2   -1    0    0    0  501  0.00000000000E+00  0.00000000000E+00  0.97165623347E+03  0.97165623347E+03  0.25500000920E-02 0. -1.
        2   -1    0    0  501    0  0.00000000000E+00  0.00000000000E+00 -0.15845110259E+04  0.15845110259E+04  0.25500000920E-02 0.  1.
    10030    2    1    2    0    0  0.00000000000E+00  0.00000000000E+00 -0.61285479242E+03  0.25561672594E+04  0.24816123914E+04 0.  0.
        5    1    3    3  502    0 -0.33016061136E+03 -0.87949268780E+03  0.52852040121E+03  0.10779004229E+04  0.46999998093E+01 0.  1.
       -5    1    3    3    0  502  0.33016061136E+03  0.87949268780E+03 -0.11413751936E+04  0.14782668365E+04  0.46999998093E+01 0. -1.
</event>
<event>
 5   0  0.2041718E-05  0.2502788E+04  0.7818609E-02  0.8401993E-01
       -1   -1    0    0    0  501  0.00000000000E+00  0.00000000000E+00  0.10442500664E+04  0.10442500664E+04  0.50400001928E-02 0.  1.
        1   -1    0    0  501    0  0.00000000000E+00  0.00000000000E+00 -0.14996286390E+04  0.14996286390E+04  0.50400001928E-02 0. -1.
    10030    2    1    2    0    0  0.00000000000E+00  0.00000000000E+00 -0.45537857259E+03  0.25438787055E+04  0.25027882898E+04 0.  0.
        4    1    3    3  502    0  0.12373199167E+04  0.18645050043E+03 -0.21125825173E+03  0.12689980407E+04  0.12699999809E+01 0. -1.
       -4    1    3    3    0  502 -0.12373199167E+04 -0.18645050043E+03 -0.24412032086E+03  0.12748806648E+04  0.12699999809E+01 0.  1.
</event>
<event>
 5   0  0.2063930E-05  0.2485419E+04  0.7818609E-02  0.8408199E-01
        1   -1    0    0  501    0  0.00000000000E+00  0.00000000000E+00  0.22514592005E+04  0.22514592005E+04  0.50400001928E-02 0.  1.
       -1   -1    0    0    0  501  0.00000000000E+00  0.00000000000E+00 -0.68592270738E+03  0.68592270740E+03  0.50400001928E-02 0. -1.
    10030    2    1    2    0    0  0.00000000000E+00  0.00000000000E+00  0.15655364931E+04  0.29373819079E+04  0.24854190716E+04 0.  0.
        3    1    3    3  502    0 -0.10354767085E+04  0.62474290489E+03  0.44472882183E+03  0.12885260751E+04  0.10100000352E+00 0. -1.
       -3    1    3    3    0  502  0.10354767085E+04 -0.62474290489E+03  0.11208076713E+04  0.16488558328E+04  0.10100000352E+00 0.  1.
</event>
<event>
 5   0  0.4995256E-05  0.2498883E+04  0.7818609E-02  0.8403384E-01
       -2   -1    0    0    0  501  0.00000000000E+00  0.00000000000E+00  0.85653645082E+03  0.85653645083E+03  0.25500000920E-02 0. -1.
        2   -1    0    0  501    0  0.00000000000E+00  0.00000000000E+00 -0.18225777443E+04  0.18225777443E+04  0.25500000920E-02 0.  1.
    10030    2    1    2    0    0  0.00000000000E+00  0.00000000000E+00 -0.96604129349E+03  0.26791141951E+04  0.24988831685E+04 0.  0.
        2    1    3    3  502    0  0.57027481437E+03 -0.11041254595E+04 -0.62197510609E+03  0.13896616231E+04  0.25500000920E-02 0. -1.
       -2    1    3    3    0  502 -0.57027481437E+03  0.11041254595E+04 -0.34406618739E+03  0.12894525720E+04  0.25500000920E-02 0.  1.
</event>
<event>
 5   0  0.2041718E-05  0.2373834E+04  0.7818609E-02  0.8449365E-01
        1   -1    0    0  501    0  0.00000000000E+00  0.00000000000E+00  0.16275639848E+04  0.16275639849E+04  0.50400001928E-02 0. -1.
       -1   -1    0    0    0  501  0.00000000000E+00  0.00000000000E+00 -0.86557118909E+03  0.86557118911E+03  0.50400001928E-02 0.  1.
    10030    2    1    2    0    0  0.00000000000E+00  0.00000000000E+00  0.76199279576E+03  0.24931351740E+04  0.23738344455E+04 0.  0.
        4    1    3    3  502    0 -0.66619573046E+03  0.79374981423E+03  0.98879952850E+03  0.14323343322E+04  0.12699999809E+01 0. -1.
       -4    1    3    3    0  502  0.66619573046E+03 -0.79374981423E+03 -0.22680673274E+03  0.10608008417E+04  0.12699999809E+01 0.  1.
</event>
<event>
 5   0  0.5219468E-05  0.2114682E+04  0.7818609E-02  0.8554803E-01
        2   -1    0    0  501    0  0.00000000000E+00  0.00000000000E+00  0.11811054884E+04  0.11811054884E+04  0.25500000920E-02 0. -1.
       -2   -1    0    0    0  501  0.00000000000E+00  0.00000000000E+00 -0.94654567403E+03  0.94654567403E+03  0.25500000920E-02 0.  1.
    10030    2    1    2    0    0  0.00000000000E+00  0.00000000000E+00  0.23455981442E+03  0.21276511625E+04  0.21146822841E+04 0.  0.
        1    1    3    3  502    0 -0.53819336058E+03  0.15377706267E+03 -0.78525586088E+03  0.96432683539E+03  0.50400001928E-02 0.  1.
       -1    1    3    3    0  502  0.53819336058E+03 -0.15377706267E+03  0.10198156753E+04  0.11633243271E+04  0.50400001928E-02 0. -1.
</event>
<event>
 5   0  0.2036578E-05  0.2425349E+04  0.7818609E-02  0.8430074E-01
       -1   -1    0    0    0  501  0.00000000000E+00  0.00000000000E+00  0.15197754021E+04  0.15197754021E+04  0.50400001928E-02 0. -1.
        1   -1    0    0  501    0  0.00000000000E+00  0.00000000000E+00 -0.96762925310E+03  0.96762925312E+03  0.50400001928E-02 0.  1.
    10030    2    1    2    0    0  0.00000000000E+00  0.00000000000E+00  0.55214614901E+03  0.24874046552E+04  0.24253487479E+04 0.  0.
        2    1    3    3  502    0  0.87049408595E+02 -0.83168002928E+03 -0.62464046344E+03  0.10437648103E+04  0.25500000920E-02 0.  1.
       -2    1    3    3    0  502 -0.87049408595E+02  0.83168002928E+03  0.11767866125E+04  0.14436398449E+04  0.25500000920E-02 0. -1.
</event>
<event>
 5   0  0.2041718E-05  0.2560535E+04  0.7818609E-02  0.8381731E-01
        1   -1    0    0  501    0  0.00000000000E+00  0.00000000000E+00  0.13627916040E+04  0.13627916040E+04  0.50400001928E-02 0.  1.
       -1   -1    0    0    0  501  0.00000000000E+00  0.00000000000E+00 -0.12027407147E+04  0.12027407147E+04  0.50400001928E-02 0. -1.
    10030    2    1    2    0    0  0.00000000000E+00  0.00000000000E+00  0.16005088933E+03  0.25655323187E+04  0.25605350595E+04 0.  0.
        4    1    3    3  502    0  0.61002167822E+03 -0.81682247016E+03 -0.69592639309E+03  0.12343583569E+04  0.12699999809E+01 0. -1.
       -4    1    3    3    0  502 -0.61002167822E+03  0.81682247016E+03  0.85597728242E+03  0.13311739618E+04  0.12699999809E+01 0.  1.
</event>
<event>
 5   0  0.4959347E-05  0.2300739E+04  0.7818609E-02  0.8477630E-01
        2   -1    0    0  501    0  0.00000000000E+00  0.00000000000E+00  0.11503955346E+04  0.11503955346E+04  0.25500000920E-02 0.  1.
       -2   -1    0    0    0  501  0.00000000000E+00  0.00000000000E+00 -0.11503437141E+04  0.11503437141E+04  0.25500000920E-02 0. -1.
    10030    2    1    2    0    0  0.00000000000E+00  0.00000000000E+00  0.51820499287E-01  0.23007392487E+04  0.23007392481E+04 0.  0.
        3    1    3    3  502    0 -0.69100503175E+03  0.91758944032E+03 -0.62359399476E+02  0.11503682192E+04  0.10100000352E+00 0. -1.
       -3    1    3    3    0  502  0.69100503175E+03 -0.91758944032E+03  0.62411219975E+02  0.11503710295E+04  0.10100000352E+00 0.  1.
</event>
<event>
 5   0  0.2063930E-05  0.2241361E+04  0.7818609E-02  0.8501407E-01
        1   -1    0    0  501    0  0.00000000000E+00  0.00000000000E+00  0.10227750240E+04  0.10227750240E+04  0.50400001928E-02 0.  1.
       -1   -1    0    0    0  501  0.00000000000E+00  0.00000000000E+00 -0.12279583056E+04  0.12279583056E+04  0.50400001928E-02 0. -1.
    10030    2    1    2    0    0  0.00000000000E+00  0.00000000000E+00 -0.20518328166E+03  0.22507333296E+04  0.22413612698E+04 0.  0.
        3    1    3    3  502    0  0.25688780480E+03  0.18333163085E+03 -0.11824127345E+04  0.12238062412E+04  0.10100000352E+00 0. -1.
       -3    1    3    3    0  502 -0.25688780480E+03 -0.18333163085E+03  0.97722945285E+03  0.10269270884E+04  0.10100000352E+00 0.  1.
</event>
<event>
 5   0  0.4995256E-05  0.2518892E+04  0.7818609E-02  0.8396286E-01
       -2   -1    0    0    0  501  0.00000000000E+00  0.00000000000E+00  0.12535416758E+04  0.12535416758E+04  0.25500000920E-02 0.  1.
        2   -1    0    0  501    0  0.00000000000E+00  0.00000000000E+00 -0.12653776785E+04  0.12653776785E+04  0.25500000920E-02 0. -1.
    10030    2    1    2    0    0  0.00000000000E+00  0.00000000000E+00 -0.11836002675E+02  0.25189193543E+04  0.25188915464E+04 0.  0.
        2    1    3    3  502    0 -0.20532772452E+03 -0.26261948362E+03  0.12086221409E+04  0.12537527456E+04  0.25500000920E-02 0.  1.
       -2    1    3    3    0  502  0.20532772452E+03  0.26261948362E+03 -0.12204581435E+04  0.12651666087E+04  0.25500000920E-02 0. -1.
</event>
<event>
 5   0  0.4959347E-05  0.2490345E+04  0.7818609E-02  0.8406433E-01
        2   -1    0    0  501    0  0.00000000000E+00  0.00000000000E+00  0.17760967552E+04  0.17760967552E+04  0.25500000920E-02 0. -1.
       -2   -1    0    0    0  501  0.00000000000E+00  0.00000000000E+00 -0.87295592408E+03  0.87295592408E+03  0.25500000920E-02 0.  1.
    10030    2    1    2    0    0  0.00000000000E+00  0.00000000000E+00  0.90314083112E+03  0.26490526793E+04  0.24903447024E+04 0.  0.
        3    1    3    3  502    0  0.13044045334E+03 -0.10335045637E+04 -0.27403628902E+03  0.10771454373E+04  0.10100000352E+00 0.  1.
       -3    1    3    3    0  502 -0.13044045334E+03  0.10335045637E+04  0.11771771201E+04  0.15719072420E+04  0.10100000352E+00 0. -1.
</event>
<event>
 5   0  0.4995256E-05  0.2495718E+04  0.7818609E-02  0.8404512E-01
       -2   -1    0    0    0  501  0.00000000000E+00  0.00000000000E+00  0.93907601289E+03  0.93907601289E+03  0.25500000920E-02 0. -1.
        2   -1    0    0  501    0  0.00000000000E+00  0.00000000000E+00 -0.16581751137E+04  0.16581751137E+04  0.25500000920E-02 0.  1.
    10030    2    1    2    0    0  0.00000000000E+00  0.00000000000E+00 -0.71909910079E+03  0.25972511266E+04  0.24957183130E+04 0.  0.
        2    1    3    3  502    0  0.35718826211E+03  0.85595765272E+03 -0.12283205768E+04  0.15391615890E+04  0.25500000920E-02 0.  1.
       -2    1    3    3    0  502 -0.35718826211E+03 -0.85595765272E+03  0.50922147598E+03  0.10580895375E+04  0.25500000920E-02 0. -1.
</event>
<event>
 5   0  0.4995256E-05  0.2480162E+04  0.7818609E-02  0.8410087E-01
        2   -1    0    0  501    0  0.00000000000E+00  0.00000000000E+00  0.14685541176E+04  0.14685541176E+04  0.25500000920E-02 0.  1.
       -2   -1    0    0    0  501  0.00000000000E+00  0.00000000000E+00 -0.10471528071E+04  0.10471528071E+04  0.25500000920E-02 0. -1.
    10030    2    1    2    0    0  0.00000000000E+00  0.00000000000E+00  0.42140131049E+03  0.25157069247E+04  0.24801617420E+04 0.  0.
        2    1    3    3  502    0  0.14445364595E+03  0.39542950400E+03 -0.97245085333E+03  0.10596659901E+04  0.25500000920E-02 0. -1.
       -2    1    3    3    0  502 -0.14445364595E+03 -0.39542950400E+03  0.13938521638E+04  0.14560409345E+04  0.25500000920E-02 0.  1.
</event>
<event>
 5   0  0.2066170E-05  0.1747038E+04  0.7818609E-02  0.8734983E-01
        1   -1    0    0  501    0  0.00000000000E+00  0.00000000000E+00  0.15101025843E+04  0.15101025843E+04  0.50400001928E-02 0.  1.
       -1   -1    0    0    0  501  0.00000000000E+00  0.00000000000E+00 -0.50528703453E+03  0.50528703455E+03  0.50400001928E-02 0. -1.
    10030    2    1    2    0    0  0.00000000000E+00  0.00000000000E+00  0.10048155498E+04  0.20153896189E+04  0.17470377863E+04 0.  0.
        5    1    3    3  502    0  0.74886005404E+02  0.63567678969E+03  0.11881185862E+04  0.13495705835E+04  0.46999998093E+01 0.  1.
       -5    1    3    3    0  502 -0.74886005404E+02 -0.63567678969E+03 -0.18330303646E+03  0.66581903542E+03  0.46999998093E+01 0. -1.
</event>
<event>
 5   0  0.2081874E-05  0.2524063E+04  0.7818609E-02  0.8394463E-01
       -1   -1    0    0    0  501  0.00000000000E+00  0.00000000000E+00  0.89084951738E+03  0.89084951739E+03  0.50400001928E-02 0. -1.
        1   -1    0    0  501    0  0.00000000000E+00  0.00000000000E+00 -0.17878707935E+04  0.17878707935E+04  0.50400001928E-02 0.  1.
    10030    2    1    2    0    0  0.00000000000E+00  0.00000000000E+00 -0.89702127613E+03  0.26787203109E+04  0.25240632588E+04 0.  0.
        1    1    3    3  502    0 -0.61496714061E+03 -0.91521259854E+03 -0.11000710559E+04  0.15575477561E+04  0.50400001928E-02 0.  1.
       -1    1    3    3    0  502  0.61496714061E+03  0.91521259854E+03  0.20304977973E+03  0.11211725548E+04  0.50400001928E-02 0. -1.
</event>
<event>
 5   0  0.4995256E-05  0.2465046E+04  0.7818609E-02  0.8415545E-01
        2   -1    0    0  501    0  0.00000000000E+00  0.00000000000E+00  0.96223845938E+03  0.96223845938E+03  0.25500000920E-02 0. -1.
       -2   -1    0    0    0  501  0.00000000000E+00  0.00000000000E+00 -0.15787279707E+04  0.15787279707E+04  0.25500000920E-02 0.  1.
    10030    2    1    2    0    0  0.00000000000E+00  0.00000000000E+00 -0.61648951134E+03  0.25409664301E+04  0.24650458579E+04 0.  0.
        2    1    3    3  502    0 -0.18696036531E+03 -0.63620855345E+03  0.76269386810E+03  0.10106519867E+04  0.25500000920E-02 0. -1.
       -2    1    3    3    0  502  0.18696036531E+03  0.63620855345E+03 -0.13791833794E+04  0.15303144434E+04  0.25500000920E-02 0.  1.
</event>
<event>
 5   0  0.4995256E-05  0.2561630E+04  0.7818609E-02  0.8381353E-01
        2   -1    0    0  501    0  0.00000000000E+00  0.00000000000E+00  0.22418492825E+04  0.22418492825E+04  0.25500000920E-02 0.  1.
       -2   -1    0    0    0  501  0.00000000000E+00  0.00000000000E+00 -0.73175606932E+03  0.73175606932E+03  0.25500000920E-02 0. -1.
    10030    2    1    2    0    0  0.00000000000E+00  0.00000000000E+00  0.15100932132E+04  0.29736053518E+04  0.25616298085E+04 0.  0.
        2    1    3    3  502    0  0.12605465874E+04  0.12297542558E+03  0.53361729905E+03  0.13743536940E+04  0.25500000920E-02 0. -1.
       -2    1    3    3    0  502 -0.12605465874E+04 -0.12297542558E+03  0.97647591412E+03  0.15992516578E+04  0.25500000920E-02 0.  1.
</event>
<event>
 5   0  0.4959347E-05  0.1534104E+04  0.7818609E-02  0.8862086E-01
       -2   -1    0    0    0  501  0.00000000000E+00  0.00000000000E+00  0.28019184220E+03  0.28019184221E+03  0.25500000920E-02 0. -1.
        2   -1    0    0  501    0  0.00000000000E+00  0.00000000000E+00 -0.20998779077E+04  0.20998779077E+04  0.25500000920E-02 0.  1.
    10030    2    1    2    0    0  0.00000000000E+00  0.00000000000E+00 -0.18196860655E+04  0.23800697499E+04  0.15341038548E+04 0.  0.
        3    1    3    3  502    0 -0.43297643235E+03  0.48515267845E+03 -0.27863973027E+03  0.70744739865E+03  0.10100000352E+00 0. -1.
       -3    1    3    3    0  502  0.43297643235E+03 -0.48515267845E+03 -0.15410463352E+04  0.16726223512E+04  0.10100000352E+00 0.  1.
</event>
<event>
 5   0  0.2036578E-05  0.2484202E+04  0.7818609E-02  0.8408635E-01
        1   -1    0    0  501    0  0.00000000000E+00  0.00000000000E+00  0.13620781014E+04  0.13620781014E+04  0.50400001928E-02 0. -1.
       -1   -1    0    0    0  501  0.00000000000E+00  0.00000000000E+00 -0.11326916790E+04  0.11326916790E+04  0.50400001928E-02 0.  1.
    10030    2    1    2    0    0  0.00000000000E+00  0.00000000000E+00  0.22938642239E+03  0.24947697805E+04  0.24842017081E+04 0.  0.
        2    1    3    3  502    0 -0.11553426051E+03 -0.10715714216E+04  0.73473457876E+03  0.13043957905E+04  0.25500000920E-02 0. -1.
       -2    1    3    3    0  502  0.11553426051E+03  0.10715714216E+04 -0.50534815637E+03  0.11903739900E+04  0.25500000920E-02 0.  1.
</event>
<event>
 5   0  0.2081874E-05  0.2492433E+04  0.7818609E-02  0.8405686E-01
       -1   -1    0    0    0  501  0.00000000000E+00  0.00000000000E+00  0.14222509973E+04  0.14222509973E+04  0.50400001928E-02 0.  1.
        1   -1    0    0  501    0  0.00000000000E+00  0.00000000000E+00 -0.10919699865E+04  0.10919699865E+04  0.50400001928E-02 0. -1.
    10030    2    1    2    0    0  0.00000000000E+00  0.00000000000E+00  0.33028101083E+03  0.25142209838E+04  0.24924328696E+04 0.  0.
        1    1    3    3  502    0 -0.97305979885E+03 -0.61070629176E+03 -0.32203877138E+03  0.11931121143E+04  0.50400001928E-02 0. -1.
       -1    1    3    3    0  502  0.97305979885E+03  0.61070629176E+03  0.65231978221E+03  0.13211088696E+04  0.50400001928E-02 0.  1.
</event>
<event>
 5   0  0.4995256E-05  0.2580479E+04  0.7818609E-02  0.8374862E-01
       -2   -1    0    0    0  501  0.00000000000E+00  0.00000000000E+00  0.10722961410E+04  0.10722961410E+04  0.25500000920E-02 0. -1.
        2   -1    0    0  501    0  0.00000000000E+00  0.00000000000E+00 -0.15524801541E+04  0.15524801541E+04  0.25500000920E-02 0.  1.
    10030    2    1    2    0    0  0.00000000000E+00  0.00000000000E+00 -0.48018401312E+03  0.26247762951E+04  0.25804793959E+04 0.  0.
        2    1    3    3  502    0  0.42753020075E+03  0.70437721217E+03 -0.12500048982E+04  0.14971444737E+04  0.25500000920E-02 0.  1.
       -2    1    3    3    0  502 -0.42753020075E+03 -0.70437721217E+03  0.76982088505E+03  0.11276318214E+04  0.25500000920E-02 0. -1.
</event>
<event>
 5   0  0.5024070E-05  0.2211420E+04  0.7818609E-02  0.8513690E-01
        2   -1    0    0  501    0  0.00000000000E+00  0.00000000000E+00  0.15905907007E+04  0.15905907007E+04  0.25500000920E-02 0. -1.
       -2   -1    0    0    0  501  0.00000000000E+00  0.00000000000E+00 -0.76864205957E+03  0.76864205958E+03  0.25500000920E-02 0.  1.
    10030    2    1    2    0    0  0.00000000000E+00  0.00000000000E+00  0.82194864114E+03  0.23592327603E+04  0.22114202786E+04 0.  0.
        5    1    3    3  502    0  0.33981956570E+03 -0.10512981910E+04  0.45707860249E+03  0.11956789546E+04  0.46999998093E+01 0. -1.
       -5    1    3    3    0  502 -0.33981956570E+03  0.10512981910E+04  0.36487003866E+03  0.11635538057E+04  0.46999998093E+01 0.  1.
</event>
<event>
 5   0  0.2036578E-05  0.2324868E+04  0.7818609E-02  0.8468180E-01
       -1   -1    0    0    0  501  0.00000000000E+00  0.00000000000E+00  0.93875552279E+03  0.93875552280E+03  0.50400001928E-02 0. -1.
        1   -1    0    0  501    0  0.00000000000E+00  0.00000000000E+00 -0.14394083248E+04  0.14394083248E+04  0.50400001928E-02 0.  1.
    10030    2    1    2    0    0  0.00000000000E+00  0.00000000000E+00 -0.50065280200E+03  0.23781638476E+04  0.23248677506E+04 0.  0.
        2    1    3    3  502    0 -0.76735385158E+03 -0.59959697491E+03  0.39897200285E+03  0.10523911464E+04  0.25500000920E-02 0. -1.
       -2    1    3    3    0  502  0.76735385158E+03  0.59959697491E+03 -0.89962480485E+03  0.13257727012E+04  0.25500000920E-02 0.  1.
</event>
<event>
 5   0  0.2066170E-05  0.2491648E+04  0.7818609E-02  0.8405967E-01
       -1   -1    0    0    0  501  0.00000000000E+00  0.00000000000E+00  0.93007618775E+03  0.93007618777E+03  0.50400001928E-02 0.  1.
        1   -1    0    0  501    0  0.00000000000E+00  0.00000000000E+00 -0.16687639955E+04  0.16687639955E+04  0.50400001928E-02 0. -1.
    10030    2    1    2    0    0  0.00000000000E+00  0.00000000000E+00 -0.73868780771E+03  0.25988401832E+04  0.24916481736E+04 0.  0.
        5    1    3    3  502    0 -0.11191719132E+03  0.91449648682E+02  0.92129319434E+03  0.93257264376E+03  0.46999998093E+01 0.  1.
       -5    1    3    3    0  502  0.11191719132E+03 -0.91449648682E+02 -0.16599810021E+04  0.16662675395E+04  0.46999998093E+01 0. -1.
</event>
<event>
 5   0  0.4959042E-05  0.2592640E+04  0.7818609E-02  0.8370706E-01
       -2   -1    0    0    0  501  0.00000000000E+00  0.00000000000E+00  0.12498639128E+04  0.12498639128E+04  0.25500000920E-02 0.  1.
        2   -1    0    0  501    0  0.00000000000E+00  0.00000000000E+00 -0.13445027842E+04  0.13445027842E+04  0.25500000920E-02 0. -1.
    10030    2    1    2    0    0  0.00000000000E+00  0.00000000000E+00 -0.94638871441E+02  0.25943666971E+04  0.25926399755E+04 0.  0.
        4    1    3    3  502    0 -0.61791383644E+03 -0.98293687248E+03 -0.62429819219E+03  0.13182307272E+04  0.12699999809E+01 0. -1.
       -4    1    3    3    0  502  0.61791383644E+03  0.98293687248E+03  0.52965932075E+03  0.12761359698E+04  0.12699999809E+01 0.  1.
</event>
<event>
 5   0  0.2063930E-05  0.2503666E+04  0.7818609E-02  0.8401681E-01
        1   -1    0    0  501    0  0.00000000000E+00  0.00000000000E+00  0.17446905069E+04  0.17446905069E+04  0.50400001928E-02 0.  1.
       -1   -1    0    0    0  501  0.00000000000E+00  0.00000000000E+00 -0.89820273282E+03  0.89820273284E+03  0.50400001928E-02 0. -1.
    10030    2    1    2    0    0  0.00000000000E+00  0.00000000000E+00  0.84648777406E+03  0.26428932397E+04  0.25036659372E+04 0.  0.
        3    1    3    3  502    0  0.28716427816E+03 -0.48872350734E+03  0.16014532890E+04  0.16988133023E+04  0.10100000352E+00 0.  1.
       -3    1    3    3    0  502 -0.28716427816E+03  0.48872350734E+03 -0.75496551490E+03  0.94407993738E+03  0.10100000352E+00 0. -1.
</event>
<event>
 5   0  0.2036578E-05  0.2535225E+04  0.7818609E-02  0.8390543E-01
        1   -1    0    0  501    0  0.00000000000E+00  0.00000000000E+00  0.14934862008E+04  0.14934862008E+04  0.50400001928E-02 0.  1.
       -1   -1    0    0    0  501  0.00000000000E+00  0.00000000000E+00 -0.10758998551E+04  0.10758998552E+04  0.50400001928E-02 0. -1.
    10030    2    1    2    0    0  0.00000000000E+00  0.00000000000E+00  0.41758634568E+03  0.25693860560E+04  0.25352251081E+04 0.  0.
        2    1    3    3  502    0 -0.10749594739E+04 -0.54296920099E+03 -0.19212300590E+03  0.12195346134E+04  0.25500000920E-02 0. -1.
       -2    1    3    3    0  502  0.10749594739E+04  0.54296920099E+03  0.60970935158E+03  0.13498514426E+04  0.25500000920E-02 0.  1.
</event>
<event>
 5   0  0.4995256E-05  0.2494319E+04  0.7818609E-02  0.8405012E-01
        2   -1    0    0  501    0  0.00000000000E+00  0.00000000000E+00  0.13245918884E+04  0.13245918884E+04  0.25500000920E-02 0. -1.
       -2   -1    0    0    0  501  0.00000000000E+00  0.00000000000E+00 -0.11742535491E+04  0.11742535491E+04  0.25500000920E-02 0.  1.
    10030    2    1    2    0    0  0.00000000000E+00  0.00000000000E+00  0.15033833929E+03  0.24988454375E+04  0.24943189259E+04 0.  0.
        2    1    3    3  502    0  0.10506240394E+03  0.18922628052E+03  0.13056334158E+04  0.13234512875E+04  0.25500000920E-02 0. -1.
       -2    1    3    3    0  502 -0.10506240394E+03 -0.18922628052E+03 -0.11552950765E+04  0.11753941500E+04  0.25500000920E-02 0.  1.
</event>
<event>
 5   0  0.5024070E-05  0.2490544E+04  0.7818609E-02  0.8406362E-01
       -2   -1    0    0    0  501  0.00000000000E+00  0.00000000000E+00  0.92680808376E+03  0.92680808376E+03  0.25500000920E-02 0.  1.
        2   -1    0    0  501    0  0.00000000000E+00  0.00000000000E+00 -0.16731644637E+04  0.16731644637E+04  0.25500000920E-02 0. -1.
    10030    2    1    2    0    0  0.00000000000E+00  0.00000000000E+00 -0.74635637991E+03  0.25999725474E+04  0.24905439971E+04 0.  0.
        5    1    3    3  502    0  0.10158340826E+04  0.12502219785E+03  0.36730466596E+03  0.10874209125E+04  0.46999998093E+01 0.  1.
       -5    1    3    3    0  502 -0.10158340826E+04 -0.12502219785E+03 -0.11136610459E+04  0.15125516349E+04  0.46999998093E+01 0. -1.
</event>
<event>
 5   0  0.2041718E-05  0.2801724E+04  0.7818609E-02  0.8302733E-01
       -1   -1    0    0    0  501  0.00000000000E+00  0.00000000000E+00  0.12278113072E+04  0.12278113073E+04  0.50400001928E-02 0. -1.
        1   -1    0    0  501    0  0.00000000000E+00  0.00000000000E+00 -0.15983031830E+04  0.15983031830E+04  0.50400001928E-02 0.  1.
    10030    2    1    2    0    0  0.00000000000E+00  0.00000000000E+00 -0.37049187578E+03  0.28261144903E+04  0.28017242695E+04 0.  0.
        4    1    3    3  502    0  0.59146219714E+03 -0.40917555136E+03  0.10273677547E+04  0.12540886248E+04  0.12699999809E+01 0. -1.
       -4    1    3    3    0  502 -0.59146219714E+03  0.40917555136E+03 -0.13978596305E+04  0.15720258655E+04  0.12699999809E+01 0.  1.
</event>
<event>
 5   0  0.5024070E-05  0.2518480E+04  0.7818609E-02  0.8396432E-01
        2   -1    0    0  501    0  0.00000000000E+00  0.00000000000E+00  0.16368482773E+04  0.16368482773E+04  0.25500000920E-02 0. -1.
       -2   -1    0    0    0  501  0.00000000000E+00  0.00000000000E+00 -0.96874273706E+03  0.96874273706E+03  0.25500000920E-02 0.  1.
    10030    2    1    2    0    0  0.00000000000E+00  0.00000000000E+00  0.66810554029E+03  0.26055910144E+04  0.25184796051E+04 0.  0.
        5    1    3    3  502    0 -0.48364381560E+03  0.34983408266E+03  0.14811723295E+04  0.15969310522E+04  0.46999998093E+01 0. -1.
       -5    1    3    3    0  502  0.48364381560E+03 -0.34983408266E+03 -0.81306678919E+03  0.10086599622E+04  0.46999998093E+01 0.  1.
</event>
<event>
 5   0  0.2063930E-05  0.2363636E+04  0.7818609E-02  0.8453245E-01
        1   -1    0    0  501    0  0.00000000000E+00  0.00000000000E+00  0.18040601782E+04  0.18040601782E+04  0.50400001928E-02 0. -1.
       -1   -1    0    0    0  501  0.00000000000E+00  0.00000000000E+00 -0.77419453870E+03  0.77419453871E+03  0.50400001928E-02 0.  1.
    10030    2    1    2    0    0  0.00000000000E+00  0.00000000000E+00  0.10298656395E+04  0.25782547169E+04  0.23636357905E+04 0.  0.
        3    1    3    3  502    0 -0.39893666998E+03  0.19910746409E+03  0.17087983551E+04  0.17660085157E+04  0.10100000352E+00 0. -1.
       -3    1    3    3    0  502  0.39893666998E+03 -0.19910746409E+03 -0.67893271559E+03  0.81224620123E+03  0.10100000352E+00 0.  1.
</event>
<event>
 5   0  0.4995256E-05  0.2527673E+04  0.7818609E-02  0.8393193E-01
       -2   -1    0    0    0  501  0.00000000000E+00  0.00000000000E+00  0.15341683859E+04  0.15341683859E+04  0.25500000920E-02 0.  1.
        2   -1    0    0  501    0  0.00000000000E+00  0.00000000000E+00 -0.10411388828E+04  0.10411388828E+04  0.25500000920E-02 0. -1.
    10030    2    1    2    0    0  0.00000000000E+00  0.00000000000E+00  0.49302950303E+03  0.25753072687E+04  0.25276727314E+04 0.  0.
        2    1    3    3  502    0 -0.49386056739E+03  0.57195465830E+03 -0.78561717435E+03  0.10900572168E+04  0.25500000920E-02 0. -1.
       -2    1    3    3    0  502  0.49386056739E+03 -0.57195465830E+03  0.12786466774E+04  0.14852500519E+04  0.25500000920E-02 0.  1.
</event>
<event>
 5   0  0.4959347E-05  0.2472711E+04  0.7818609E-02  0.8412772E-01
        2   -1    0    0  501    0  0.00000000000E+00  0.00000000000E+00  0.10754661582E+04  0.10754661582E+04  0.25500000920E-02 0. -1.
       -2   -1    0    0    0  501  0.00000000000E+00  0.00000000000E+00 -0.14213137579E+04  0.14213137579E+04  0.25500000920E-02 0.  1.
    10030    2    1    2    0    0  0.00000000000E+00  0.00000000000E+00 -0.34584759966E+03  0.24967799161E+04  0.24727109389E+04 0.  0.
        3    1    3    3  502    0 -0.49617800539E+02 -0.26939110075E+03 -0.13902882268E+04  0.14170161803E+04  0.10100000352E+00 0.  1.
       -3    1    3    3    0  502  0.49617800539E+02  0.26939110075E+03  0.10444406272E+04  0.10797637358E+04  0.10100000352E+00 0. -1.
</event>
<event>
 5   0  0.5219468E-05  0.2505308E+04  0.7818609E-02  0.8401097E-01
        2   -1    0    0  501    0  0.00000000000E+00  0.00000000000E+00  0.18006789622E+04  0.18006789622E+04  0.25500000920E-02 0.  1.
       -2   -1    0    0    0  501  0.00000000000E+00  0.00000000000E+00 -0.87141719294E+03  0.87141719295E+03  0.25500000920E-02 0. -1.
    10030    2    1    2    0    0  0.00000000000E+00  0.00000000000E+00  0.92926176922E+03  0.26720961551E+04  0.25053084494E+04 0.  0.
        1    1    3    3  502    0 -0.66752087764E+03 -0.36003459170E+02  0.15945257980E+04  0.17289860877E+04  0.50400001928E-02 0.  1.
       -1    1    3    3    0  502  0.66752087764E+03  0.36003459170E+02 -0.66526402876E+03  0.94311006736E+03  0.50400001928E-02 0. -1.
</event>
<event>
 5   0  0.2081874E-05  0.2502604E+04  0.7818609E-02  0.8402058E-01
        1   -1    0    0  501    0  0.00000000000E+00  0.00000000000E+00  0.15411346821E+04  0.15411346821E+04  0.50400001928E-02 0. -1.
       -1   -1    0    0    0  501  0.00000000000E+00  0.00000000000E+00 -0.10159766105E+04  0.10159766105E+04  0.50400001928E-02 0.  1.
    10030    2    1    2    0    0  0.00000000000E+00  0.00000000000E+00  0.52515807164E+03  0.25571112926E+04  0.25026040763E+04 0.  0.
        1    1    3    3  502    0  0.58471681717E+03  0.21837062385E+03  0.13707171182E+04  0.15061357521E+04  0.50400001928E-02 0. -1.
       -1    1    3    3    0  502 -0.58471681717E+03 -0.21837062385E+03 -0.84555904653E+03  0.10509755405E+04  0.50400001928E-02 0.  1.
</event>
<event>
 5   0  0.4959347E-05  0.2470298E+04  0.7818609E-02  0.8413644E-01
        2   -1    0    0  501    0  0.00000000000E+00  0.00000000000E+00  0.10044225366E+04  0.10044225366E+04  0.25500000920E-02 0. -1.
       -2   -1    0    0    0  501  0.00000000000E+00  0.00000000000E+00 -0.15188756612E+04  0.15188756612E+04  0.25500000920E-02 0.  1.
    10030    2    1    2    0    0  0.00000000000E+00  0.00000000000E+00 -0.51445312460E+03  0.25232981979E+04  0.24702979128E+04 0.  0.
        3    1    3    3  502    0  0.10852807133E+04  0.51496538587E+03 -0.55074048232E+03  0.13214910761E+04  0.10100000352E+00 0.  1.
       -3    1    3    3    0  502 -0.10852807133E+04 -0.51496538587E+03  0.36287357716E+02  0.12018071217E+04  0.10100000352E+00 0. -1.
</event>
<event>
 5   0  0.2041718E-05  0.2605004E+04  0.7818609E-02  0.8366504E-01
        1   -1    0    0  501    0  0.00000000000E+00  0.00000000000E+00  0.15105033059E+04  0.15105033059E+04  0.50400001928E-02 0. -1.
       -1   -1    0    0    0  501  0.00000000000E+00  0.00000000000E+00 -0.11231428459E+04  0.11231428459E+04  0.50400001928E-02 0.  1.
    10030    2    1    2    0    0  0.00000000000E+00  0.00000000000E+00  0.38736045997E+03  0.26336461518E+04  0.26050036328E+04 0.  0.
        4    1    3    3  502    0 -0.40919541241E+03 -0.33245006669E+03 -0.10104423940E+04  0.11397189903E+04  0.12699999809E+01 0.  1.
       -4    1    3    3    0  502  0.40919541241E+03  0.33245006669E+03  0.13978028540E+04  0.14939271615E+04  0.12699999809E+01 0. -1.
</event>
<event>
 5   0  0.5024070E-05  0.2463465E+04  0.7818609E-02  0.8416118E-01
        2   -1    0    0  501    0  0.00000000000E+00  0.00000000000E+00  0.15333778649E+04  0.15333778649E+04  0.25500000920E-02 0.  1.
       -2   -1    0    0    0  501  0.00000000000E+00  0.00000000000E+00 -0.98942691136E+03  0.98942691136E+03  0.25500000920E-02 0. -1.
    10030    2    1    2    0    0  0.00000000000E+00  0.00000000000E+00  0.54395095354E+03  0.25228047763E+04  0.24634653030E+04 0.  0.
        5    1    3    3  502    0 -0.73245483281E+03  0.78270864825E+03  0.89323505404E+03  0.13953543858E+04  0.46999998093E+01 0.  1.
       -5    1    3    3    0  502  0.73245483281E+03 -0.78270864825E+03 -0.34928410050E+03  0.11274503905E+04  0.46999998093E+01 0. -1.
</event>
<event>
 5   0  0.2041718E-05  0.2476482E+04  0.7818609E-02  0.8411412E-01
       -1   -1    0    0    0  501  0.00000000000E+00  0.00000000000E+00  0.15080276157E+04  0.15080276157E+04  0.50400001928E-02 0.  1.
        1   -1    0    0  501    0  0.00000000000E+00  0.00000000000E+00 -0.10167196272E+04  0.10167196273E+04  0.50400001928E-02 0. -1.
    10030    2    1    2    0    0  0.00000000000E+00  0.00000000000E+00  0.49130798847E+03  0.25247472430E+04  0.24764824048E+04 0.  0.
        4    1    3    3  502    0  0.94916081042E+03 -0.72540198945E+03 -0.86463897908E+02  0.11977445090E+04  0.12699999809E+01 0.  1.
       -4    1    3    3    0  502 -0.94916081042E+03  0.72540198945E+03  0.57777188637E+03  0.13270027340E+04  0.12699999809E+01 0. -1.
</event>
<event>
 5   0  0.2066170E-05  0.2202953E+04  0.7818609E-02  0.8517200E-01
       -1   -1    0    0    0  501  0.00000000000E+00  0.00000000000E+00  0.92254859022E+03  0.92254859023E+03  0.50400001928E-02 0. -1.
        1   -1    0    0  501    0  0.00000000000E+00  0.00000000000E+00 -0.13151078940E+04  0.13151078940E+04  0.50400001928E-02 0.  1.
    10030    2    1    2    0    0  0.00000000000E+00  0.00000000000E+00 -0.39255930375E+03  0.22376564842E+04  0.22029534118E+04 0.  0.
        5    1    3    3  502    0  0.35487422363E+03 -0.10416649663E+04 -0.24421659488E+03  0.11272379748E+04  0.46999998093E+01 0.  1.
       -5    1    3    3    0  502 -0.35487422363E+03  0.10416649663E+04 -0.14834270887E+03  0.11104185094E+04  0.46999998093E+01 0. -1.
</event>
<event>
 5   0  0.5219468E-05  0.2306068E+04  0.7818609E-02  0.8475532E-01
        2   -1    0    0  501    0  0.00000000000E+00  0.00000000000E+00  0.99550446427E+03  0.99550446427E+03  0.25500000920E-02 0.  1.
       -2   -1    0    0    0  501  0.00000000000E+00  0.00000000000E+00 -0.13354912298E+04  0.13354912298E+04  0.25500000920E-02 0. -1.
    10030    2    1    2    0    0  0.00000000000E+00  0.00000000000E+00 -0.33998676553E+03  0.23309956941E+04  0.23060680660E+04 0.  0.
        1    1    3    3  502    0 -0.94936666640E+03  0.38164787149E+03  0.36729285935E+03  0.10871321031E+04  0.50400001928E-02 0.  1.
       -1    1    3    3    0  502  0.94936666640E+03 -0.38164787149E+03 -0.70727962488E+03  0.12438635909E+04  0.50400001928E-02 0. -1.
</event>
<event>
 5   0  0.4959042E-05  0.2472381E+04  0.7818609E-02  0.8412892E-01
        2   -1    0    0  501    0  0.00000000000E+00  0.00000000000E+00  0.16369793732E+04  0.16369793732E+04  0.25500000920E-02 0. -1.
       -2   -1    0    0    0  501  0.00000000000E+00  0.00000000000E+00 -0.93352846126E+03  0.93352846126E+03  0.25500000920E-02 0.  1.
    10030    2    1    2    0    0  0.00000000000E+00  0.00000000000E+00  0.70345091198E+03  0.25705078345E+04  0.24723809055E+04 0.  0.
        4    1    3    3  502    0  0.91149780020E+02 -0.12186273914E+04  0.15776218043E+03  0.12321734943E+04  0.12699999809E+01 0.  1.
       -4    1    3    3    0  502 -0.91149780020E+02  0.12186273914E+04  0.54568873155E+03  0.13383343402E+04  0.12699999809E+01 0. -1.
</event>
<event>
 5   0  0.4959347E-05  0.2483584E+04  0.7818609E-02  0.8408857E-01
       -2   -1    0    0    0  501  0.00000000000E+00  0.00000000000E+00  0.87109496421E+03  0.87109496422E+03  0.25500000920E-02 0.  1.
        2   -1    0    0  501    0  0.00000000000E+00  0.00000000000E+00 -0.17702405008E+04  0.17702405008E+04  0.25500000920E-02 0. -1.
    10030    2    1    2    0    0  0.00000000000E+00  0.00000000000E+00 -0.89914553657E+03  0.26413354650E+04  0.24835841727E+04 0.  0.
        3    1    3    3  502    0 -0.97188362284E+03  0.44900211442E+03  0.21958765139E+03  0.10928766728E+04  0.10100000352E+00 0.  1.
       -3    1    3    3    0  502  0.97188362284E+03 -0.44900211442E+03 -0.11187331880E+04  0.15484587922E+04  0.10100000352E+00 0. -1.
</event>
<event>
 5   0  0.2041718E-05  0.2410859E+04  0.7818609E-02  0.8435449E-01
       -1   -1    0    0    0  501  0.00000000000E+00  0.00000000000E+00  0.10695305358E+04  0.10695305358E+04  0.50400001928E-02 0.  1.
        1   -1    0    0  501    0  0.00000000000E+00  0.00000000000E+00 -0.13585962636E+04  0.13585962636E+04  0.50400001928E-02 0. -1.
    10030    2    1    2    0    0  0.00000000000E+00  0.00000000000E+00 -0.28906572774E+03  0.24281267994E+04  0.24108589256E+04 0.  0.
        4    1    3    3  502    0 -0.37729570202E+03 -0.12827460317E+00  0.10085281629E+04  0.10767927988E+04  0.12699999809E+01 0.  1.
       -4    1    3    3    0  502  0.37729570202E+03  0.12827460317E+00 -0.12975938907E+04  0.13513340006E+04  0.12699999809E+01 0. -1.
</event>
<event>
 5   0  0.2036578E-05  0.2435559E+04  0.7818609E-02  0.8426310E-01
       -1   -1    0    0    0  501  0.00000000000E+00  0.00000000000E+00  0.13093480820E+04  0.13093480820E+04  0.50400001928E-02 0. -1.
        1   -1    0    0  501    0  0.00000000000E+00  0.00000000000E+00 -0.11326144839E+04  0.11326144839E+04  0.50400001928E-02 0.  1.
    10030    2    1    2    0    0  0.00000000000E+00  0.00000000000E+00  0.17673359815E+03  0.24419625659E+04  0.24355587467E+04 0.  0.
        2    1    3    3  502    0 -0.68663484975E+03  0.18307241189E+03 -0.90317410895E+03  0.11492199076E+04  0.25500000920E-02 0.  1.
       -2    1    3    3    0  502  0.68663484975E+03 -0.18307241189E+03  0.10799077071E+04  0.12927426584E+04  0.25500000920E-02 0. -1.
</event>
<event>
 5   0  0.5024070E-05  0.2510716E+04  0.7818609E-02  0.8399178E-01
       -2   -1    0    0    0  501  0.00000000000E+00  0.00000000000E+00  0.15860409971E+04  0.15860409971E+04  0.25500000920E-02 0. -1.
        2   -1    0    0  501    0  0.00000000000E+00  0.00000000000E+00 -0.99362140437E+03  0.99362140438E+03  0.25500000920E-02 0.  1.
    10030    2    1    2    0    0  0.00000000000E+00  0.00000000000E+00  0.59241959272E+03  0.25796624015E+04  0.25107164579E+04 0.  0.
        5    1    3    3  502    0  0.10044971408E+04  0.15489153997E+03 -0.46083860118E+03  0.11159750004E+04  0.46999998093E+01 0.  1.
       -5    1    3    3    0  502 -0.10044971408E+04 -0.15489153997E+03  0.10532581939E+04  0.14636874011E+04  0.46999998093E+01 0. -1.
</event>
<event>
 5   0  0.2081874E-05  0.2488579E+04  0.7818609E-02  0.8407066E-01
       -1   -1    0    0    0  501  0.00000000000E+00  0.00000000000E+00  0.59888496633E+03  0.59888496635E+03  0.50400001928E-02 0. -1.
        1   -1    0    0  501    0  0.00000000000E+00  0.00000000000E+00 -0.25852319412E+04  0.25852319412E+04  0.50400001928E-02 0.  1.
    10030    2    1    2    0    0  0.00000000000E+00  0.00000000000E+00 -0.19863469749E+04  0.31841169076E+04  0.24885791481E+04 0.  0.
        1    1    3    3  502    0 -0.12178354179E+04 -0.14039584307E+03 -0.72048123023E+03  0.14219449008E+04  0.50400001928E-02 0. -1.
       -1    1    3    3    0  502  0.12178354179E+04  0.14039584307E+03 -0.12658657447E+04  0.17621720067E+04  0.50400001928E-02 0.  1.
</event>
<event>
 5   0  0.4959347E-05  0.2499414E+04  0.7818609E-02  0.8403194E-01
        2   -1    0    0  501    0  0.00000000000E+00  0.00000000000E+00  0.17211321559E+04  0.17211321559E+04  0.25500000920E-02 0. -1.
       -2   -1    0    0    0  501  0.00000000000E+00  0.00000000000E+00 -0.90740688643E+03  0.90740688643E+03  0.25500000920E-02 0.  1.
    10030    2    1    2    0    0  0.00000000000E+00  0.00000000000E+00  0.81372526943E+03  0.26285390423E+04  0.24994136678E+04 0.  0.
        3    1    3    3  502    0  0.98890126131E+03 -0.35161629333E+03  0.11202954946E+04  0.15351292218E+04  0.10100000352E+00 0.  1.
       -3    1    3    3    0  502 -0.98890126131E+03  0.35161629333E+03 -0.30657022514E+03  0.10934098205E+04  0.10100000352E+00 0. -1.
</event>
<event>
 5   0  0.2036578E-05  0.2559965E+04  0.7818609E-02  0.8381929E-01
        1   -1    0    0  501    0  0.00000000000E+00  0.00000000000E+00  0.11427045060E+04  0.11427045060E+04  0.50400001928E-02 0.  1.
       -1   -1    0    0    0  501  0.00000000000E+00  0.00000000000E+00 -0.14337523018E+04  0.14337523018E+04  0.50400001928E-02 0. -1.
    10030    2    1    2    0    0  0.00000000000E+00  0.00000000000E+00 -0.29104779586E+03  0.25764568078E+04  0.25599650121E+04 0.  0.
        2    1    3    3  502    0  0.37353235857E+03 -0.12212174400E+04 -0.58615082179E+02  0.12784108051E+04  0.25500000920E-02 0.  1.
       -2    1    3    3    0  502 -0.37353235857E+03  0.12212174400E+04 -0.23243271368E+03  0.12980460027E+04  0.25500000920E-02 0. -1.
</event>
<event>
 5   0  0.2041718E-05  0.2459563E+04  0.7818609E-02  0.8417535E-01
        1   -1    0    0  501    0  0.00000000000E+00  0.00000000000E+00  0.20190746825E+04  0.20190746825E+04  0.50400001928E-02 0. -1.
       -1   -1    0    0    0  501  0.00000000000E+00  0.00000000000E+00 -0.74903719325E+03  0.74903719326E+03  0.50400001928E-02 0.  1.
    10030    2    1    2    0    0  0.00000000000E+00  0.00000000000E+00  0.12700374892E+04  0.27681118758E+04  0.24595625897E+04 0.  0.
        4    1    3    3  502    0  0.10810337184E+04 -0.27195804809E+03  0.50472553820E+02  0.11158602833E+04  0.12699999809E+01 0.  1.
       -4    1    3    3    0  502 -0.10810337184E+04  0.27195804809E+03  0.12195649354E+04  0.16522515925E+04  0.12699999809E+01 0. -1.
</event>
<event>
 5   0  0.1692125E-05  0.2635626E+04  0.7818609E-02  0.8356200E-01
       -3   -1    0    0    0  501  0.00000000000E+00  0.00000000000E+00  0.29817428639E+04  0.29817428656E+04  0.10100000352E+00 0. -1.
        3   -1    0    0  501    0  0.00000000000E+00  0.00000000000E+00 -0.58242126373E+03  0.58242127249E+03  0.10100000352E+00 0.  1.
    10030    2    1    2    0    0  0.00000000000E+00  0.00000000000E+00  0.23993216001E+04  0.35641641381E+04  0.26356255163E+04 0.  0.
        1    1    3    3  502    0  0.22211466033E+03 -0.54538956789E+03  0.27939139961E+04  0.28553003556E+04  0.50400001928E-02 0. -1.
       -1    1    3    3    0  502 -0.22211466033E+03  0.54538956789E+03 -0.39459239597E+03  0.70886378246E+03  0.50400001928E-02 0.  1.
</event>
<event>
 5   0  0.4959042E-05  0.2472261E+04  0.7818609E-02  0.8412935E-01
       -2   -1    0    0    0  501  0.00000000000E+00  0.00000000000E+00  0.91019199630E+03  0.91019199630E+03  0.25500000920E-02 0. -1.
        2   -1    0    0  501    0  0.00000000000E+00  0.00000000000E+00 -0.16787864888E+04  0.16787864888E+04  0.25500000920E-02 0.  1.
    10030    2    1    2    0    0  0.00000000000E+00  0.00000000000E+00 -0.76859449250E+03  0.25889784851E+04  0.24722605248E+04 0.  0.
        4    1    3    3  502    0 -0.11300430451E+04  0.16665841046E+03  0.11049650353E+03  0.11475989717E+04  0.12699999809E+01 0. -1.
       -4    1    3    3    0  502  0.11300430451E+04 -0.16665841046E+03 -0.87909099603E+03  0.14413795134E+04  0.12699999809E+01 0.  1.
</event>
<event>
 5   0  0.2066170E-05  0.2147717E+04  0.7818609E-02  0.8540510E-01
        1   -1    0    0  501    0  0.00000000000E+00  0.00000000000E+00  0.23237860886E+04  0.23237860886E+04  0.50400001928E-02 0.  1.
       -1   -1    0    0    0  501  0.00000000000E+00  0.00000000000E+00 -0.49624690510E+03  0.49624690512E+03  0.50400001928E-02 0. -1.
    10030    2    1    2    0    0  0.00000000000E+00  0.00000000000E+00  0.18275391835E+04  0.28200329937E+04  0.21477166057E+04 0.  0.
        5    1    3    3  502    0 -0.27159659051E+03  0.69358226434E+03  0.19294265756E+04  0.20682190566E+04  0.46999998093E+01 0.  1.
       -5    1    3    3    0  502  0.27159659051E+03 -0.69358226434E+03 -0.10188739212E+03  0.75181393712E+03  0.46999998093E+01 0. -1.
</event>
<event>
 5   0  0.4995256E-05  0.2435706E+04  0.7818609E-02  0.8426255E-01
       -2   -1    0    0    0  501  0.00000000000E+00  0.00000000000E+00  0.24630854856E+04  0.24630854856E+04  0.25500000920E-02 0.  1.
        2   -1    0    0  501    0  0.00000000000E+00  0.00000000000E+00 -0.60215794999E+03  0.60215794999E+03  0.25500000920E-02 0. -1.
    10030    2    1    2    0    0  0.00000000000E+00  0.00000000000E+00  0.18609275356E+04  0.30652434356E+04  0.24357064738E+04 0.  0.
        2    1    3    3  502    0  0.20974091069E+03 -0.11254584750E+04  0.40775735319E+03  0.12152835421E+04  0.25500000920E-02 0. -1.
       -2    1    3    3    0  502 -0.20974091069E+03  0.11254584750E+04  0.14531701824E+04  0.18499598935E+04  0.25500000920E-02 0.  1.
</event>
<event>
 5   0  0.2041718E-05  0.2583613E+04  0.7818609E-02  0.8373789E-01
        1   -1    0    0  501    0  0.00000000000E+00  0.00000000000E+00  0.14300458957E+04  0.14300458957E+04  0.50400001928E-02 0.  1.
       -1   -1    0    0    0  501  0.00000000000E+00  0.00000000000E+00 -0.11669299946E+04  0.11669299946E+04  0.50400001928E-02 0. -1.
    10030    2    1    2    0    0  0.00000000000E+00  0.00000000000E+00  0.26311590113E+03  0.25969758903E+04  0.25836125479E+04 0.  0.
        4    1    3    3  502    0  0.40099487847E+03  0.26398506992E+03  0.13370428493E+04  0.14206231743E+04  0.12699999809E+01 0.  1.
       -4    1    3    3    0  502 -0.40099487847E+03 -0.26398506992E+03 -0.10739269481E+04  0.11763527160E+04  0.12699999809E+01 0. -1.
</event>
<event>
 5   0  0.2081874E-05  0.2520207E+04  0.7818609E-02  0.8395822E-01
       -1   -1    0    0    0  501  0.00000000000E+00  0.00000000000E+00  0.10246068910E+04  0.10246068911E+04  0.50400001928E-02 0.  1.
        1   -1    0    0  501    0  0.00000000000E+00  0.00000000000E+00 -0.15497271248E+04  0.15497271248E+04  0.50400001928E-02 0. -1.
    10030    2    1    2    0    0  0.00000000000E+00  0.00000000000E+00 -0.52512023377E+03  0.25743340159E+04  0.25202072068E+04 0.  0.
        1    1    3    3  502    0  0.66475826734E+02 -0.40218027431E+03  0.95539580482E+03  0.10387247722E+04  0.50400001928E-02 0.  1.
       -1    1    3    3    0  502 -0.66475826734E+02  0.40218027431E+03 -0.14805160386E+04  0.15356092436E+04  0.50400001928E-02 0. -1.
</event>
<event>
 5   0  0.4995256E-05  0.2497196E+04  0.7818609E-02  0.8403985E-01
        2   -1    0    0  501    0  0.00000000000E+00  0.00000000000E+00  0.24263753666E+04  0.24263753666E+04  0.25500000920E-02 0. -1.
       -2   -1    0    0    0  501  0.00000000000E+00  0.00000000000E+00 -0.64252118096E+03  0.64252118096E+03  0.25500000920E-02 0.  1.
    10030    2    1    2    0    0  0.00000000000E+00  0.00000000000E+00  0.17838541856E+04  0.30688965476E+04  0.24971964809E+04 0.  0.
        2    1    3    3  502    0  0.89518597084E+03 -0.66816814078E+03  0.15774832473E+04  0.19329407602E+04  0.25500000920E-02 0. -1.
       -2    1    3    3    0  502 -0.89518597084E+03  0.66816814078E+03  0.20637093834E+03  0.11359557874E+04  0.25500000920E-02 0.  1.
</event>
<event>
 5   0  0.5219468E-05  0.2496769E+04  0.7818609E-02  0.8404138E-01
       -2   -1    0    0    0  501  0.00000000000E+00  0.00000000000E+00  0.10238102510E+04  0.10238102510E+04  0.25500000920E-02 0.  1.
        2   -1    0    0  501    0  0.00000000000E+00  0.00000000000E+00 -0.15222193736E+04  0.15222193736E+04  0.25500000920E-02 0. -1.
    10030    2    1    2    0    0  0.00000000000E+00  0.00000000000E+00 -0.49840912267E+03  0.25460296246E+04  0.24967689512E+04 0.  0.
        1    1    3    3  502    0  0.14343545061E+03 -0.75323678504E+03 -0.12537933579E+04  0.14696724693E+04  0.50400001928E-02 0. -1.
       -1    1    3    3    0  502 -0.14343545061E+03  0.75323678504E+03  0.75538423522E+03  0.10763571553E+04  0.50400001928E-02 0.  1.
</event>
<event>
 5   0  0.2036578E-05  0.2483068E+04  0.7818609E-02  0.8409043E-01
       -1   -1    0    0    0  501  0.00000000000E+00  0.00000000000E+00  0.14846868248E+04  0.14846868248E+04  0.50400001928E-02 0. -1.
        1   -1    0    0  501    0  0.00000000000E+00  0.00000000000E+00 -0.10382030050E+04  0.10382030051E+04  0.50400001928E-02 0.  1.
    10030    2    1    2    0    0  0.00000000000E+00  0.00000000000E+00  0.44648381971E+03  0.25228898298E+04  0.24830677180E+04 0.  0.
        2    1    3    3  502    0  0.41374637994E+03  0.10594210918E+04  0.72906859414E+03  0.13509626685E+04  0.25500000920E-02 0. -1.
       -2    1    3    3    0  502 -0.41374637994E+03 -0.10594210918E+04 -0.28258477443E+03  0.11719271613E+04  0.25500000920E-02 0.  1.
</event>
<event>
 5   0  0.2081874E-05  0.2680448E+04  0.7818609E-02  0.8341377E-01
       -1   -1    0    0    0  501  0.00000000000E+00  0.00000000000E+00  0.78491097568E+03  0.78491097569E+03  0.50400001928E-02 0.  1.
        1   -1    0    0  501    0  0.00000000000E+00  0.00000000000E+00 -0.22884130115E+04  0.22884130115E+04  0.50400001928E-02 0. -1.
    10030    2    1    2    0    0  0.00000000000E+00  0.00000000000E+00 -0.15035020358E+04  0.30733239872E+04  0.26804480892E+04 0.  0.
        1    1    3    3  502    0  0.69168491122E+03  0.90527597665E+03  0.57575320591E+02  0.11407311374E+04  0.50400001928E-02 0.  1.
       -1    1    3    3    0  502 -0.69168491122E+03 -0.90527597665E+03 -0.15610773564E+04  0.19325928498E+04  0.50400001928E-02 0. -1.
</event>
<event>
 5   0  0.2081874E-05  0.2484201E+04  0.7818609E-02  0.8408636E-01
       -1   -1    0    0    0  501  0.00000000000E+00  0.00000000000E+00  0.58443388728E+03  0.58443388730E+03  0.50400001928E-02 0.  1.
        1   -1    0    0  501    0  0.00000000000E+00  0.00000000000E+00 -0.26398431883E+04  0.26398431883E+04  0.50400001928E-02 0. -1.
    10030    2    1    2    0    0  0.00000000000E+00  0.00000000000E+00 -0.20554093011E+04  0.32242770756E+04  0.24842011323E+04 0.  0.
        1    1    3    3  502    0  0.32112240702E+03 -0.11314920799E+04 -0.50948145074E+03  0.12817820703E+04  0.50400001928E-02 0.  1.
       -1    1    3    3    0  502 -0.32112240702E+03  0.11314920799E+04 -0.15459278503E+04  0.19424950053E+04  0.50400001928E-02 0. -1.
</event>
<event>
 5   0  0.4959042E-05  0.2603545E+04  0.7818609E-02  0.8366998E-01
       -2   -1    0    0    0  501  0.00000000000E+00  0.00000000000E+00  0.76826931978E+03  0.76826931978E+03  0.25500000920E-02 0.  1.
        2   -1    0    0  501    0  0.00000000000E+00  0.00000000000E+00 -0.22057523333E+04  0.22057523333E+04  0.25500000920E-02 0. -1.
    10030    2    1    2    0    0  0.00000000000E+00  0.00000000000E+00 -0.14374830136E+04  0.29740216531E+04  0.26035451559E+04 0.  0.
        4    1    3    3  502    0 -0.55765491305E+02 -0.92254728941E+03  0.32844449200E+03  0.98085711928E+03  0.12699999809E+01 0.  1.
       -4    1    3    3    0  502  0.55765491305E+02  0.92254728941E+03 -0.17659275056E+04  0.19931645338E+04  0.12699999809E+01 0. -1.
</event>
<event>
 5   0  0.2063930E-05  0.2421247E+04  0.7818609E-02  0.8431592E-01
        1   -1    0    0  501    0  0.00000000000E+00  0.00000000000E+00  0.16020866006E+04  0.16020866006E+04  0.50400001928E-02 0. -1.
       -1   -1    0    0    0  501  0.00000000000E+00  0.00000000000E+00 -0.91481248706E+03  0.91481248707E+03  0.50400001928E-02 0.  1.
    10030    2    1    2    0    0  0.00000000000E+00  0.00000000000E+00  0.68727411350E+03  0.25168990876E+04  0.24212466438E+04 0.  0.
        3    1    3    3  502    0  0.11723589286E+04  0.40908630356E+02  0.32635780554E+02  0.11735263431E+04  0.10100000352E+00 0.  1.
       -3    1    3    3    0  502 -0.11723589286E+04 -0.40908630356E+02  0.65463833294E+03  0.13433727445E+04  0.10100000352E+00 0. -1.
</event>
<event>
 5   0  0.2081874E-05  0.2509055E+04  0.7818609E-02  0.8399767E-01
       -1   -1    0    0    0  501  0.00000000000E+00  0.00000000000E+00  0.11239741904E+04  0.11239741904E+04  0.50400001928E-02 0. -1.
        1   -1    0    0  501    0  0.00000000000E+00  0.00000000000E+00 -0.14002450907E+04  0.14002450907E+04  0.50400001928E-02 0.  1.
    10030    2    1    2    0    0  0.00000000000E+00  0.00000000000E+00 -0.27627090030E+03  0.25242192811E+04  0.25090550749E+04 0.  0.
        1    1    3    3  502    0  0.48173138662E+03 -0.59980038542E+03  0.85881979157E+03  0.11529948246E+04  0.50400001928E-02 0. -1.
       -1    1    3    3    0  502 -0.48173138662E+03  0.59980038542E+03 -0.11350906919E+04  0.13712244565E+04  0.50400001928E-02 0.  1.
</event>
<event>
 5   0  0.2081874E-05  0.2496752E+04  0.7818609E-02  0.8404144E-01
        1   -1    0    0  501    0  0.00000000000E+00  0.00000000000E+00  0.16358750456E+04  0.16358750456E+04  0.50400001928E-02 0. -1.
       -1   -1    0    0    0  501  0.00000000000E+00  0.00000000000E+00 -0.95266578518E+03  0.95266578520E+03  0.50400001928E-02 0.  1.
    10030    2    1    2    0    0  0.00000000000E+00  0.00000000000E+00  0.68320926038E+03  0.25885408308E+04  0.24967516375E+04 0.  0.
        1    1    3    3  502    0  0.24451144973E+03  0.99367407998E+03  0.10829217835E+04  0.14899307419E+04  0.50400001928E-02 0. -1.
       -1    1    3    3    0  502 -0.24451144973E+03 -0.99367407998E+03 -0.39971252314E+03  0.10986100889E+04  0.50400001928E-02 0.  1.
</event>
<event>
 5   0  0.4959042E-05  0.2519080E+04  0.7818609E-02  0.8396220E-01
        2   -1    0    0  501    0  0.00000000000E+00  0.00000000000E+00  0.13574418332E+04  0.13574418332E+04  0.25500000920E-02 0. -1.
       -2   -1    0    0    0  501  0.00000000000E+00  0.00000000000E+00 -0.11686988307E+04  0.11686988307E+04  0.25500000920E-02 0.  1.
    10030    2    1    2    0    0  0.00000000000E+00  0.00000000000E+00  0.18874300256E+03  0.25261406639E+04  0.25190797392E+04 0.  0.
        4    1    3    3  502    0  0.11385118578E+04  0.20453086794E+03 -0.40541985300E+03  0.12257279455E+04  0.12699999809E+01 0.  1.
       -4    1    3    3    0  502 -0.11385118578E+04 -0.20453086794E+03  0.59416285555E+03  0.13004127184E+04  0.12699999809E+01 0. -1.
</event>
<event>
 5   0  0.4959347E-05  0.2602348E+04  0.7818609E-02  0.8367404E-01
       -2   -1    0    0    0  501  0.00000000000E+00  0.00000000000E+00  0.11752463415E+04  0.11752463415E+04  0.25500000920E-02 0. -1.
        2   -1    0    0  501    0  0.00000000000E+00  0.00000000000E+00 -0.14405953456E+04  0.14405953456E+04  0.25500000920E-02 0.  1.
    10030    2    1    2    0    0  0.00000000000E+00  0.00000000000E+00 -0.26534900406E+03  0.26158416871E+04  0.26023484851E+04 0.  0.
        3    1    3    3  502    0  0.69254899233E+03 -0.60753845121E+03  0.79096271710E+03  0.12142277820E+04  0.10100000352E+00 0. -1.
       -3    1    3    3    0  502 -0.69254899233E+03  0.60753845121E+03 -0.10563117212E+04  0.14016139051E+04  0.10100000352E+00 0.  1.
</event>
<event>
 5   0  0.5024070E-05  0.2424983E+04  0.7818609E-02  0.8430209E-01
        2   -1    0    0  501    0  0.00000000000E+00  0.00000000000E+00  0.25451356090E+04  0.25451356090E+04  0.25500000920E-02 0.  1.
       -2   -1    0    0    0  501  0.00000000000E+00  0.00000000000E+00 -0.57762583688E+03  0.57762583688E+03  0.25500000920E-02 0. -1.
    10030    2    1    2    0    0  0.00000000000E+00  0.00000000000E+00  0.19675097721E+04  0.31227614458E+04  0.24249833699E+04 0.  0.
        5    1    3    3  502    0  0.83061591420E+03  0.78331957764E+03  0.45813755299E+03  0.12302131787E+04  0.46999998093E+01 0.  1.
       -5    1    3    3    0  502 -0.83061591420E+03 -0.78331957764E+03  0.15093722191E+04  0.18925482671E+04  0.46999998093E+01 0. -1.
</event>
<event>
 5   0  0.4959347E-05  0.2112942E+04  0.7818609E-02  0.8555564E-01
       -2   -1    0    0    0  501  0.00000000000E+00  0.00000000000E+00  0.13197574311E+04  0.13197574311E+04  0.25500000920E-02 0.  1.
        2   -1    0    0  501    0  0.00000000000E+00  0.00000000000E+00 -0.84570926495E+03  0.84570926496E+03  0.25500000920E-02 0. -1.
    10030    2    1    2    0    0  0.00000000000E+00  0.00000000000E+00  0.47404816618E+03  0.21654666961E+04  0.21129421071E+04 0.  0.
        3    1    3    3  502    0  0.53494258159E+03 -0.86452651795E+03  0.53150181817E+03  0.11471982648E+04  0.10100000352E+00 0.  1.
       -3    1    3    3    0  502 -0.53494258159E+03  0.86452651795E+03 -0.57453651994E+02  0.10182684313E+04  0.10100000352E+00 0. -1.
</event>
<event>
 5   0  0.2066170E-05  0.2509558E+04  0.7818609E-02  0.8399588E-01
        1   -1    0    0  501    0  0.00000000000E+00  0.00000000000E+00  0.97772364520E+03  0.97772364521E+03  0.50400001928E-02 0. -1.
       -1   -1    0    0    0  501  0.00000000000E+00  0.00000000000E+00 -0.16103435275E+04  0.16103435275E+04  0.50400001928E-02 0.  1.
    10030    2    1    2    0    0  0.00000000000E+00  0.00000000000E+00 -0.63261988228E+03  0.25880671727E+04  0.25095584821E+04 0.  0.
        5    1    3    3  502    0 -0.41379384552E+03  0.97731666389E+03  0.37401552203E+03  0.11252923659E+04  0.46999998093E+01 0. -1.
       -5    1    3    3    0  502  0.41379384552E+03 -0.97731666389E+03 -0.10066354043E+04  0.14627748068E+04  0.46999998093E+01 0.  1.
</event>
<event>
 5   0  0.5024070E-05  0.2442984E+04  0.7818609E-02  0.8423584E-01
       -2   -1    0    0    0  501  0.00000000000E+00  0.00000000000E+00  0.65715949294E+03  0.65715949295E+03  0.25500000920E-02 0.  1.
        2   -1    0    0  501    0  0.00000000000E+00  0.00000000000E+00 -0.22704426783E+04  0.22704426783E+04  0.25500000920E-02 0. -1.
    10030    2    1    2    0    0  0.00000000000E+00  0.00000000000E+00 -0.16132831854E+04  0.29276021713E+04  0.24429842073E+04 0.  0.
        5    1    3    3  502    0  0.94984322591E+03 -0.75799402293E+03 -0.65858682322E+03  0.13822140885E+04  0.46999998093E+01 0. -1.
       -5    1    3    3    0  502 -0.94984322591E+03  0.75799402293E+03 -0.95469636218E+03  0.15453880828E+04  0.46999998093E+01 0.  1.
</event>
<event>
 5   0  0.4995256E-05  0.2461448E+04  0.7818609E-02  0.8416850E-01
       -2   -1    0    0    0  501  0.00000000000E+00  0.00000000000E+00  0.88290191663E+03  0.88290191663E+03  0.25500000920E-02 0. -1.
        2   -1    0    0  501    0  0.00000000000E+00  0.00000000000E+00 -0.17155718981E+04  0.17155718981E+04  0.25500000920E-02 0.  1.
    10030    2    1    2    0    0  0.00000000000E+00  0.00000000000E+00 -0.83266998144E+03  0.25984738147E+04  0.24614481241E+04 0.  0.
        2    1    3    3  502    0 -0.97874380161E+03 -0.26739723873E+03  0.31903584818E+03  0.10635904216E+04  0.25500000920E-02 0. -1.
       -2    1    3    3    0  502  0.97874380161E+03  0.26739723873E+03 -0.11517058296E+04  0.15348833931E+04  0.25500000920E-02 0.  1.
</event>
<event>
 5   0  0.5024070E-05  0.2495719E+04  0.7818609E-02  0.8404512E-01
        2   -1    0    0  501    0  0.00000000000E+00  0.00000000000E+00  0.87065332011E+03  0.87065332011E+03  0.25500000920E-02 0. -1.
       -2   -1    0    0    0  501  0.00000000000E+00  0.00000000000E+00 -0.17884882020E+04  0.17884882020E+04  0.25500000920E-02 0.  1.
    10030    2    1    2    0    0  0.00000000000E+00  0.00000000000E+00 -0.91783488186E+03  0.26591415221E+04  0.24957188872E+04 0.  0.
        5    1    3    3  502    0 -0.12597585823E+03 -0.95653915531E+03 -0.13021258350E+04  0.16206143442E+04  0.46999998093E+01 0.  1.
       -5    1    3    3    0  502  0.12597585823E+03  0.95653915531E+03  0.38429095315E+03  0.10385271779E+04  0.46999998093E+01 0. -1.
</event>
<event>
 5   0  0.2081874E-05  0.2457238E+04  0.7818609E-02  0.8418380E-01
       -1   -1    0    0    0  501  0.00000000000E+00  0.00000000000E+00  0.63915472271E+03  0.63915472273E+03  0.50400001928E-02 0. -1.
        1   -1    0    0  501    0  0.00000000000E+00  0.00000000000E+00 -0.23617200143E+04  0.23617200143E+04  0.50400001928E-02 0.  1.
    10030    2    1    2    0    0  0.00000000000E+00  0.00000000000E+00 -0.17225652916E+04  0.30008747370E+04  0.24572378809E+04 0.  0.
        1    1    3    3  502    0 -0.31652567096E+02  0.10941990222E+04 -0.15425885781E+04  0.18915213206E+04  0.50400001928E-02 0.  1.
       -1    1    3    3    0  502  0.31652567096E+02 -0.10941990222E+04 -0.17997671351E+03  0.11093534164E+04  0.50400001928E-02 0. -1.
</event>
<event>
 5   0  0.4995256E-05  0.2509815E+04  0.7818609E-02  0.8399497E-01
        2   -1    0    0  501    0  0.00000000000E+00  0.00000000000E+00  0.89070982756E+03  0.89070982757E+03  0.25500000920E-02 0. -1.
       -2   -1    0    0    0  501  0.00000000000E+00  0.00000000000E+00 -0.17680204247E+04  0.17680204247E+04  0.25500000920E-02 0.  1.
    10030    2    1    2    0    0  0.00000000000E+00  0.00000000000E+00 -0.87731059711E+03  0.26587302522E+04  0.25098152662E+04 0.  0.
        2    1    3    3  502    0  0.80473539083E+03 -0.47117619723E+03 -0.13282346692E+04  0.16229027681E+04  0.25500000920E-02 0.  1.
       -2    1    3    3    0  502 -0.80473539083E+03  0.47117619723E+03  0.45092407213E+03  0.10358274842E+04  0.25500000920E-02 0. -1.
</event>
<event>
 5   0  0.2066170E-05  0.2547088E+04  0.7818609E-02  0.8386400E-01
       -1   -1    0    0    0  501  0.00000000000E+00  0.00000000000E+00  0.13694831377E+04  0.13694831377E+04  0.50400001928E-02 0. -1.
        1   -1    0    0  501    0  0.00000000000E+00  0.00000000000E+00 -0.11843257124E+04  0.11843257124E+04  0.50400001928E-02 0.  1.
    10030    2    1    2    0    0  0.00000000000E+00  0.00000000000E+00  0.18515742528E+03  0.25538088501E+04  0.25470878216E+04 0.  0.
        5    1    3    3  502    0  0.54919530611E+03 -0.94063410738E+03  0.75423214114E+03  0.13248759266E+04  0.46999998093E+01 0. -1.
       -5    1    3    3    0  502 -0.54919530611E+03  0.94063410738E+03 -0.56907471587E+03  0.12289329235E+04  0.46999998093E+01 0.  1.
</event>
<event>
 5   0  0.2063930E-05  0.2329431E+04  0.7818609E-02  0.8466407E-01
       -1   -1    0    0    0  501  0.00000000000E+00  0.00000000000E+00  0.16073675589E+04  0.16073675589E+04  0.50400001928E-02 0. -1.
        1   -1    0    0  501    0  0.00000000000E+00  0.00000000000E+00 -0.84396505371E+03  0.84396505373E+03  0.50400001928E-02 0.  1.
    10030    2    1    2    0    0  0.00000000000E+00  0.00000000000E+00  0.76340250523E+03  0.24513326127E+04  0.23294308732E+04 0.  0.
        3    1    3    3  502    0  0.11345126118E+04  0.12086107090E+03  0.13527645883E+03  0.11489238423E+04  0.10100000352E+00 0.  1.
       -3    1    3    3    0  502 -0.11345126118E+04 -0.12086107090E+03  0.62812604639E+03  0.13024087704E+04  0.10100000352E+00 0. -1.
</event>
<event>
 5   0  0.4959042E-05  0.1944653E+04  0.7818609E-02  0.8632944E-01
        2   -1    0    0  501    0  0.00000000000E+00  0.00000000000E+00  0.18320997959E+04  0.18320997959E+04  0.25500000920E-02 0.  1.
       -2   -1    0    0    0  501  0.00000000000E+00  0.00000000000E+00 -0.51603006691E+03  0.51603006692E+03  0.25500000920E-02 0. -1.
    10030    2    1    2    0    0  0.00000000000E+00  0.00000000000E+00  0.13160697290E+04  0.23481298628E+04  0.19446527508E+04 0.  0.
        4    1    3    3  502    0 -0.52345167900E+03 -0.14552729162E+03  0.16317141414E+04  0.17197885059E+04  0.12699999809E+01 0.  1.
       -4    1    3    3    0  502  0.52345167900E+03  0.14552729162E+03 -0.31564441240E+03  0.62834135693E+03  0.12699999809E+01 0. -1.
</event>
<event>
 5   0  0.2066170E-05  0.2514491E+04  0.7818609E-02  0.8397841E-01
        1   -1    0    0  501    0  0.00000000000E+00  0.00000000000E+00  0.16688225313E+04  0.16688225313E+04  0.50400001928E-02 0. -1.
       -1   -1    0    0    0  501  0.00000000000E+00  0.00000000000E+00 -0.94717454244E+03  0.94717454245E+03  0.50400001928E-02 0.  1.
    10030    2    1    2    0    0  0.00000000000E+00  0.00000000000E+00  0.72164798885E+03  0.26159970737E+04  0.25144909763E+04 0.  0.
        5    1    3    3  502    0 -0.29239192691E+03  0.78718660992E+03 -0.61262309983E+03  0.10394637801E+04  0.46999998093E+01 0.  1.
       -5    1    3    3    0  502  0.29239192691E+03 -0.78718660992E+03  0.13342710887E+04  0.15765332936E+04  0.46999998093E+01 0. -1.
</event>
<event>
 5   0  0.2081874E-05  0.2497326E+04  0.7818609E-02  0.8403939E-01
       -1   -1    0    0    0  501  0.00000000000E+00  0.00000000000E+00  0.99996742101E+03  0.99996742102E+03  0.50400001928E-02 0.  1.
        1   -1    0    0  501    0  0.00000000000E+00  0.00000000000E+00 -0.15592098632E+04  0.15592098632E+04  0.50400001928E-02 0. -1.
    10030    2    1    2    0    0  0.00000000000E+00  0.00000000000E+00 -0.55924244223E+03  0.25591772843E+04  0.24973258224E+04 0.  0.
        1    1    3    3  502    0  0.12348936145E+04  0.99962963155E+02 -0.43905150665E+03  0.13144280348E+04  0.50400001928E-02 0.  1.
       -1    1    3    3    0  502 -0.12348936145E+04 -0.99962963155E+02 -0.12019093558E+03  0.12447492495E+04  0.50400001928E-02 0. -1.
</event>
<event>
 5   0  0.2066170E-05  0.2413879E+04  0.7818609E-02  0.8434326E-01
        1   -1    0    0  501    0  0.00000000000E+00  0.00000000000E+00  0.15378741223E+04  0.15378741223E+04  0.50400001928E-02 0.  1.
       -1   -1    0    0    0  501  0.00000000000E+00  0.00000000000E+00 -0.94721822295E+03  0.94721822296E+03  0.50400001928E-02 0. -1.
    10030    2    1    2    0    0  0.00000000000E+00  0.00000000000E+00  0.59065589935E+03  0.24850923453E+04  0.24138785332E+04 0.  0.
        5    1    3    3  502    0  0.18200892183E+03  0.45838679121E+03 -0.83873015634E+03  0.97300362956E+03  0.46999998093E+01 0. -1.
       -5    1    3    3    0  502 -0.18200892183E+03 -0.45838679121E+03  0.14293860557E+04  0.15120887157E+04  0.46999998093E+01 0.  1.
</event>
<event>
 5   0  0.5024070E-05  0.2516514E+04  0.7818609E-02  0.8397126E-01
        2   -1    0    0  501    0  0.00000000000E+00  0.00000000000E+00  0.61145354566E+03  0.61145354567E+03  0.25500000920E-02 0. -1.
       -2   -1    0    0    0  501  0.00000000000E+00  0.00000000000E+00 -0.25892566049E+04  0.25892566049E+04  0.25500000920E-02 0.  1.
    10030    2    1    2    0    0  0.00000000000E+00  0.00000000000E+00 -0.19778030592E+04  0.32007101505E+04  0.25165135658E+04 0.  0.
        5    1    3    3  502    0 -0.70549910015E+03  0.76036296884E+03 -0.18948063938E+04  0.21601375384E+04  0.46999998093E+01 0.  1.
       -5    1    3    3    0  502  0.70549910015E+03 -0.76036296884E+03 -0.82996665382E+02  0.10405726121E+04  0.46999998093E+01 0. -1.
</event>
<event>
 5   0  0.2081874E-05  0.2517221E+04  0.7818609E-02  0.8396876E-01
       -1   -1    0    0    0  501  0.00000000000E+00  0.00000000000E+00  0.15410294431E+04  0.15410294431E+04  0.50400001928E-02 0.  1.
        1   -1    0    0  501    0  0.00000000000E+00  0.00000000000E+00 -0.10279492102E+04  0.10279492102E+04  0.50400001928E-02 0. -1.
    10030    2    1    2    0    0  0.00000000000E+00  0.00000000000E+00  0.51308023286E+03  0.25689786533E+04  0.25172206888E+04 0.  0.
        1    1    3    3  502    0 -0.95161697192E+03  0.50273618498E+03  0.92247624887E+03  0.14174910803E+04  0.50400001928E-02 0. -1.
       -1    1    3    3    0  502  0.95161697192E+03 -0.50273618498E+03 -0.40939601601E+03  0.11514875731E+04  0.50400001928E-02 0.  1.
</event>
<event>
 5   0  0.1692125E-05  0.2534872E+04  0.7818609E-02  0.8390667E-01
       -3   -1    0    0    0  501  0.00000000000E+00  0.00000000000E+00  0.62915595603E+03  0.62915596413E+03  0.10100000352E+00 0.  1.
        3   -1    0    0  501    0  0.00000000000E+00  0.00000000000E+00 -0.25532523369E+04  0.25532523389E+04  0.10100000352E+00 0. -1.
    10030    2    1    2    0    0  0.00000000000E+00  0.00000000000E+00 -0.19240963808E+04  0.31824083030E+04  0.25348719345E+04 0.  0.
        4    1    3    3  502    0 -0.78124124827E+03  0.48360896756E+03 -0.20580915556E+04  0.22538762135E+04  0.12699999809E+01 0. -1.
       -4    1    3    3    0  502  0.78124124827E+03 -0.48360896756E+03  0.13399517477E+03  0.92853208952E+03  0.12699999809E+01 0.  1.
</event>
<event>
 5   0  0.5024070E-05  0.2801302E+04  0.7818609E-02  0.8302864E-01
        2   -1    0    0  501    0  0.00000000000E+00  0.00000000000E+00  0.12575168821E+04  0.12575168821E+04  0.25500000920E-02 0. -1.
       -2   -1    0    0    0  501  0.00000000000E+00  0.00000000000E+00 -0.15600773000E+04  0.15600773000E+04  0.25500000920E-02 0.  1.
    10030    2    1    2    0    0  0.00000000000E+00  0.00000000000E+00 -0.30256041788E+03  0.28175941821E+04  0.28013022273E+04 0.  0.
        5    1    3    3  502    0  0.11752064130E+04  0.61347439178E+03  0.30338917526E+03  0.13599735381E+04  0.46999998093E+01 0.  1.
       -5    1    3    3    0  502 -0.11752064130E+04 -0.61347439178E+03 -0.60594959314E+03  0.14576206441E+04  0.46999998093E+01 0. -1.
</event>
<event>
 5   0  0.2066170E-05  0.2530493E+04  0.7818609E-02  0.8392202E-01
       -1   -1    0    0    0  501  0.00000000000E+00  0.00000000000E+00  0.16838611588E+04  0.16838611588E+04  0.50400001928E-02 0.  1.
        1   -1    0    0  501    0  0.00000000000E+00  0.00000000000E+00 -0.95070111268E+03  0.95070111270E+03  0.50400001928E-02 0. -1.
    10030    2    1    2    0    0  0.00000000000E+00  0.00000000000E+00  0.73316004607E+03  0.26345622715E+04  0.25304929775E+04 0.  0.
        5    1    3    3  502    0  0.70319968326E+03  0.94254278931E+03 -0.11947076537E+03  0.11820203289E+04  0.46999998093E+01 0. -1.
       -5    1    3    3    0  502 -0.70319968326E+03 -0.94254278931E+03  0.85263081144E+03  0.14525419425E+04  0.46999998093E+01 0.  1.
</event>
<event>
 5   0  0.4959042E-05  0.1917721E+04  0.7818609E-02  0.8646085E-01
        2   -1    0    0  501    0  0.00000000000E+00  0.00000000000E+00  0.16368753045E+04  0.16368753045E+04  0.25500000920E-02 0. -1.
       -2   -1    0    0    0  501  0.00000000000E+00  0.00000000000E+00 -0.56168811907E+03  0.56168811908E+03  0.25500000920E-02 0.  1.
    10030    2    1    2    0    0  0.00000000000E+00  0.00000000000E+00  0.10751871854E+04  0.21985634236E+04  0.19177209504E+04 0.  0.
        4    1    3    3  502    0 -0.93850637274E+03 -0.13497848337E+02  0.76235371361E+03  0.12091985780E+04  0.12699999809E+01 0. -1.
       -4    1    3    3    0  502  0.93850637274E+03  0.13497848337E+02  0.31283347181E+03  0.98936484553E+03  0.12699999809E+01 0.  1.
</event>
<event>
 5   0  0.2041718E-05  0.2536715E+04  0.7818609E-02  0.8390021E-01
       -1   -1    0    0    0  501  0.00000000000E+00  0.00000000000E+00  0.69319201590E+03  0.69319201592E+03  0.50400001928E-02 0.  1.
        1   -1    0    0  501    0  0.00000000000E+00  0.00000000000E+00 -0.23207571882E+04  0.23207571882E+04  0.50400001928E-02 0. -1.
    10030    2    1    2    0    0  0.00000000000E+00  0.00000000000E+00 -0.16275651723E+04  0.30139492041E+04  0.25367146893E+04 0.  0.
        4    1    3    3  502    0 -0.76857459653E+03 -0.98630271648E+03 -0.10664630995E+04  0.16434248125E+04  0.12699999809E+01 0. -1.
       -4    1    3    3    0  502  0.76857459653E+03  0.98630271648E+03 -0.56110207284E+03  0.13705243916E+04  0.12699999809E+01 0.  1.
</event>
<event>
 5   0  0.2036578E-05  0.2494354E+04  0.7818609E-02  0.8405000E-01
        1   -1    0    0  501    0  0.00000000000E+00  0.00000000000E+00  0.14974939342E+04  0.14974939342E+04  0.50400001928E-02 0.  1.
       -1   -1    0    0    0  501  0.00000000000E+00  0.00000000000E+00 -0.10387027056E+04  0.10387027056E+04  0.50400001928E-02 0. -1.
    10030    2    1    2    0    0  0.00000000000E+00  0.00000000000E+00  0.45879122859E+03  0.25361966399E+04  0.24943544264E+04 0.  0.
        2    1    3    3  502    0 -0.73702234011E+03 -0.10055022993E+04  0.26482547308E+03  0.12745074872E+04  0.25500000920E-02 0.  1.
       -2    1    3    3    0  502  0.73702234011E+03  0.10055022993E+04  0.19396575551E+03  0.12616891527E+04  0.25500000920E-02 0. -1.
</event>
<event>
 5   0  0.2063930E-05  0.2509452E+04  0.7818609E-02  0.8399626E-01
       -1   -1    0    0    0  501  0.00000000000E+00  0.00000000000E+00  0.94360221301E+03  0.94360221302E+03  0.50400001928E-02 0.  1.
        1   -1    0    0  501    0  0.00000000000E+00  0.00000000000E+00 -0.16684336405E+04  0.16684336406E+04  0.50400001928E-02 0. -1.
    10030    2    1    2    0    0  0.00000000000E+00  0.00000000000E+00 -0.72483142754E+03  0.26120358536E+04  0.25094522713E+04 0.  0.
        3    1    3    3  502    0  0.31645814700E+03 -0.25546264413E+03  0.87309073577E+03  0.96316891791E+03  0.10100000352E+00 0.  1.
       -3    1    3    3    0  502 -0.31645814700E+03  0.25546264413E+03 -0.15979221633E+04  0.16488669357E+04  0.10100000352E+00 0. -1.
</event>
<event>
 5   0  0.4959347E-05  0.2590753E+04  0.7818609E-02  0.8371349E-01
        2   -1    0    0  501    0  0.00000000000E+00  0.00000000000E+00  0.16537624115E+04  0.16537624115E+04  0.25500000920E-02 0. -1.
       -2   -1    0    0    0  501  0.00000000000E+00  0.00000000000E+00 -0.10146558432E+04  0.10146558432E+04  0.25500000920E-02 0.  1.
    10030    2    1    2    0    0  0.00000000000E+00  0.00000000000E+00  0.63910656832E+03  0.26684182548E+04  0.25907525502E+04 0.  0.
        3    1    3    3  502    0 -0.75641414727E+03 -0.60363892433E+03 -0.56733937881E+03  0.11217915555E+04  0.10100000352E+00 0.  1.
       -3    1    3    3    0  502  0.75641414727E+03  0.60363892433E+03  0.12064459471E+04  0.15466266992E+04  0.10100000352E+00 0. -1.
</event>
<event>
 5   0  0.2036578E-05  0.2501487E+04  0.7818609E-02  0.8402456E-01
        1   -1    0    0  501    0  0.00000000000E+00  0.00000000000E+00  0.32270183139E+04  0.32270183139E+04  0.50400001928E-02 0.  1.
       -1   -1    0    0    0  501  0.00000000000E+00  0.00000000000E+00 -0.48476912513E+03  0.48476912516E+03  0.50400001928E-02 0. -1.
    10030    2    1    2    0    0  0.00000000000E+00  0.00000000000E+00  0.27422491888E+04  0.37117874391E+04  0.25014866339E+04 0.  0.
        2    1    3    3  502    0 -0.27779113660E+03  0.11183639740E+04  0.20926593914E+04  0.23889598620E+04  0.25500000920E-02 0.  1.
       -2    1    3    3    0  502  0.27779113660E+03 -0.11183639740E+04  0.64958979738E+03  0.13228275771E+04  0.25500000920E-02 0. -1.
</event>
<event>
 5   0  0.2036578E-05  0.2408066E+04  0.7818609E-02  0.8436490E-01
        1   -1    0    0  501    0  0.00000000000E+00  0.00000000000E+00  0.80114517785E+03  0.80114517787E+03  0.50400001928E-02 0.  1.
       -1   -1    0    0    0  501  0.00000000000E+00  0.00000000000E+00 -0.18095293732E+04  0.18095293732E+04  0.50400001928E-02 0. -1.
    10030    2    1    2    0    0  0.00000000000E+00  0.00000000000E+00 -0.10083841954E+04  0.26106745511E+04  0.24080662213E+04 0.  0.
        2    1    3    3  502    0 -0.90390143921E+03 -0.24467551731E+03  0.31631569508E+03  0.98841263626E+03  0.25500000920E-02 0.  1.
       -2    1    3    3    0  502  0.90390143921E+03  0.24467551731E+03 -0.13246998905E+04  0.16222619148E+04  0.25500000920E-02 0. -1.
</event>
<event>
 5   0  0.5024070E-05  0.2369506E+04  0.7818609E-02  0.8451009E-01
       -2   -1    0    0    0  501  0.00000000000E+00  0.00000000000E+00  0.68623385848E+03  0.68623385849E+03  0.25500000920E-02 0.  1.
        2   -1    0    0  501    0  0.00000000000E+00  0.00000000000E+00 -0.20454253896E+04  0.20454253896E+04  0.25500000920E-02 0. -1.
    10030    2    1    2    0    0  0.00000000000E+00  0.00000000000E+00 -0.13591915311E+04  0.27316592481E+04  0.23695064105E+04 0.  0.
        5    1    3    3  502    0  0.13157846964E+03  0.98821602602E+03 -0.14175335960E+04  0.17330053069E+04  0.46999998093E+01 0. -1.
       -5    1    3    3    0  502 -0.13157846964E+03 -0.98821602602E+03  0.58342064918E+02  0.99865394121E+03  0.46999998093E+01 0.  1.
</event>
<event>
 5   0  0.4959042E-05  0.2477695E+04  0.7818609E-02  0.8410975E-01
        2   -1    0    0  501    0  0.00000000000E+00  0.00000000000E+00  0.13860725605E+04  0.13860725605E+04  0.25500000920E-02 0.  1.
       -2   -1    0    0    0  501  0.00000000000E+00  0.00000000000E+00 -0.11072598928E+04  0.11072598928E+04  0.25500000920E-02 0. -1.
    10030    2    1    2    0    0  0.00000000000E+00  0.00000000000E+00  0.27881266774E+03  0.24933324533E+04  0.24776945371E+04 0.  0.
        4    1    3    3  502    0 -0.29462634359E+03 -0.10174259271E+04 -0.50712881530E+03  0.11743685315E+04  0.12699999809E+01 0. -1.
       -4    1    3    3    0  502  0.29462634359E+03  0.10174259271E+04  0.78594148304E+03  0.13189639218E+04  0.12699999809E+01 0.  1.
</event>
<event>
 5   0  0.2036578E-05  0.2516960E+04  0.7818609E-02  0.8396968E-01
        1   -1    0    0  501    0  0.00000000000E+00  0.00000000000E+00  0.17520316772E+04  0.17520316772E+04  0.50400001928E-02 0. -1.
       -1   -1    0    0    0  501  0.00000000000E+00  0.00000000000E+00 -0.90396339648E+03  0.90396339649E+03  0.50400001928E-02 0.  1.
    10030    2    1    2    0    0  0.00000000000E+00  0.00000000000E+00  0.84806828072E+03  0.26559950737E+04  0.25169604730E+04 0.  0.
        2    1    3    3  502    0 -0.74193103451E+03  0.71879865237E+03 -0.33444668746E+03  0.10858120230E+04  0.25500000920E-02 0.  1.
       -2    1    3    3    0  502  0.74193103451E+03 -0.71879865237E+03  0.11825149682E+04  0.15701830507E+04  0.25500000920E-02 0. -1.
</event>
<event>
 5   0  0.2063930E-05  0.2541170E+04  0.7818609E-02  0.8388464E-01
       -1   -1    0    0    0  501  0.00000000000E+00  0.00000000000E+00  0.10967013383E+04  0.10967013384E+04  0.50400001928E-02 0. -1.
        1   -1    0    0  501    0  0.00000000000E+00  0.00000000000E+00 -0.14720378752E+04  0.14720378752E+04  0.50400001928E-02 0.  1.
    10030    2    1    2    0    0  0.00000000000E+00  0.00000000000E+00 -0.37533653683E+03  0.25687392135E+04  0.25411697368E+04 0.  0.
        3    1    3    3  502    0 -0.60813500089E+03  0.82203398991E+03  0.57471427673E+03  0.11729725359E+04  0.10100000352E+00 0. -1.
       -3    1    3    3    0  502  0.60813500089E+03 -0.82203398991E+03 -0.95005081356E+03  0.13957666776E+04  0.10100000352E+00 0.  1.
</event>
<event>
 5   0  0.2063930E-05  0.2513516E+04  0.7818609E-02  0.8398186E-01
        1   -1    0    0  501    0  0.00000000000E+00  0.00000000000E+00  0.16073604827E+04  0.16073604827E+04  0.50400001928E-02 0. -1.
       -1   -1    0    0    0  501  0.00000000000E+00  0.00000000000E+00 -0.98262975405E+03  0.98262975406E+03  0.50400001928E-02 0.  1.
    10030    2    1    2    0    0  0.00000000000E+00  0.00000000000E+00  0.62473072861E+03  0.25899902367E+04  0.25135156540E+04 0.  0.
        3    1    3    3  502    0  0.79921014736E+03  0.49098593946E+03  0.11742569888E+04  0.15028917254E+04  0.10100000352E+00 0. -1.
       -3    1    3    3    0  502 -0.79921014736E+03 -0.49098593946E+03 -0.54952626021E+03  0.10870985113E+04  0.10100000352E+00 0.  1.
</event>
<event>
 5   0  0.4995256E-05  0.2454712E+04  0.7818609E-02  0.8419300E-01
        2   -1    0    0  501    0  0.00000000000E+00  0.00000000000E+00  0.20093197454E+04  0.20093197454E+04  0.25500000920E-02 0. -1.
       -2   -1    0    0    0  501  0.00000000000E+00  0.00000000000E+00 -0.74970792532E+03  0.74970792533E+03  0.25500000920E-02 0.  1.
    10030    2    1    2    0    0  0.00000000000E+00  0.00000000000E+00  0.12596118201E+04  0.27590276707E+04  0.24547121523E+04 0.  0.
        2    1    3    3  502    0 -0.11614912715E+04 -0.20992511759E+03  0.25152227660E+03  0.12068114949E+04  0.25500000920E-02 0.  1.
       -2    1    3    3    0  502  0.11614912715E+04  0.20992511759E+03  0.10080895435E+04  0.15522161758E+04  0.25500000920E-02 0. -1.
</event>
<event>
 5   0  0.2081874E-05  0.2486562E+04  0.7818609E-02  0.8407788E-01
        1   -1    0    0  501    0  0.00000000000E+00  0.00000000000E+00  0.24357522350E+04  0.24357522350E+04  0.50400001928E-02 0.  1.
       -1   -1    0    0    0  501  0.00000000000E+00  0.00000000000E+00 -0.63460811331E+03  0.63460811333E+03  0.50400001928E-02 0. -1.
    10030    2    1    2    0    0  0.00000000000E+00  0.00000000000E+00  0.18011441217E+04  0.30703603483E+04  0.24865623904E+04 0.  0.
        1    1    3    3  502    0  0.18893297948E+03 -0.15021969579E+03 -0.60539857903E+03  0.65174309912E+03  0.50400001928E-02 0. -1.
       -1    1    3    3    0  502 -0.18893297948E+03  0.15021969579E+03  0.24065427007E+04  0.24186172492E+04  0.50400001928E-02 0.  1.
</event>
<event>
 5   0  0.5024070E-05  0.2484729E+04  0.7818609E-02  0.8408446E-01
        2   -1    0    0  501    0  0.00000000000E+00  0.00000000000E+00  0.21289589214E+04  0.21289589214E+04  0.25500000920E-02 0.  1.
       -2   -1    0    0    0  501  0.00000000000E+00  0.00000000000E+00 -0.72498812717E+03  0.72498812718E+03  0.25500000920E-02 0. -1.
    10030    2    1    2    0    0  0.00000000000E+00  0.00000000000E+00  0.14039707943E+04  0.28539470486E+04  0.24847293143E+04 0.  0.
        5    1    3    3  502    0 -0.16061357328E+03 -0.64188404830E+03 -0.50575310846E+03  0.83283860867E+03  0.46999998093E+01 0. -1.
       -5    1    3    3    0  502  0.16061357328E+03  0.64188404830E+03  0.19097239027E+04  0.20211084399E+04  0.46999998093E+01 0.  1.
</event>
<event>
 5   0  0.2063930E-05  0.2515139E+04  0.7818609E-02  0.8397612E-01
       -1   -1    0    0    0  501  0.00000000000E+00  0.00000000000E+00  0.52462011867E+03  0.52462011870E+03  0.50400001928E-02 0. -1.
        1   -1    0    0  501    0  0.00000000000E+00  0.00000000000E+00 -0.30145259753E+04  0.30145259753E+04  0.50400001928E-02 0.  1.
    10030    2    1    2    0    0  0.00000000000E+00  0.00000000000E+00 -0.24899058567E+04  0.35391460940E+04  0.25151389425E+04 0.  0.
        3    1    3    3  502    0  0.12366896228E+04 -0.13022709540E+03 -0.98124829968E+03  0.15840481543E+04  0.10100000352E+00 0. -1.
       -3    1    3    3    0  502 -0.12366896228E+04  0.13022709540E+03 -0.15086575570E+04  0.19550979397E+04  0.10100000352E+00 0.  1.
</event>
<event>
 5   0  0.4995256E-05  0.2467807E+04  0.7818609E-02  0.8414545E-01
        2   -1    0    0  501    0  0.00000000000E+00  0.00000000000E+00  0.23320318928E+04  0.23320318928E+04  0.25500000920E-02 0.  1.
       -2   -1    0    0    0  501  0.00000000000E+00  0.00000000000E+00 -0.65287200998E+03  0.65287200998E+03  0.25500000920E-02 0. -1.
    10030    2    1    2    0    0  0.00000000000E+00  0.00000000000E+00  0.16791598828E+04  0.29849039028E+04  0.24678074067E+04 0.  0.
        2    1    3    3  502    0  0.12015720288E+04 -0.26190320241E+03  0.71772415721E+03  0.14239018905E+04  0.25500000920E-02 0. -1.
       -2    1    3    3    0  502 -0.12015720288E+04  0.26190320241E+03  0.96143572560E+03  0.15610020123E+04  0.25500000920E-02 0.  1.
</event>
<event>
 5   0  0.5024070E-05  0.2484886E+04  0.7818609E-02  0.8408390E-01
        2   -1    0    0  501    0  0.00000000000E+00  0.00000000000E+00  0.26340024011E+04  0.26340024011E+04  0.25500000920E-02 0. -1.
       -2   -1    0    0    0  501  0.00000000000E+00  0.00000000000E+00 -0.58605263956E+03  0.58605263957E+03  0.25500000920E-02 0.  1.
    10030    2    1    2    0    0  0.00000000000E+00  0.00000000000E+00  0.20479497616E+04  0.32200550407E+04  0.24848855586E+04 0.  0.
        5    1    3    3  502    0  0.40171713938E+03 -0.80202736173E+03  0.21379724448E+04  0.23185281567E+04  0.46999998093E+01 0. -1.
       -5    1    3    3    0  502 -0.40171713938E+03  0.80202736173E+03 -0.90022683187E+02  0.90152688397E+03  0.46999998093E+01 0.  1.
</event>
<event>
 5   0  0.2081874E-05  0.2503933E+04  0.7818609E-02  0.8401586E-01
        1   -1    0    0  501    0  0.00000000000E+00  0.00000000000E+00  0.23818150166E+04  0.23818150166E+04  0.50400001928E-02 0.  1.
       -1   -1    0    0    0  501  0.00000000000E+00  0.00000000000E+00 -0.65807804366E+03  0.65807804368E+03  0.50400001928E-02 0. -1.
    10030    2    1    2    0    0  0.00000000000E+00  0.00000000000E+00  0.17237369730E+04  0.30398930603E+04  0.25039330395E+04 0.  0.
        1    1    3    3  502    0 -0.37279952825E+03  0.18300741391E+03  0.22957549164E+04  0.23330156103E+04  0.50400001928E-02 0.  1.
       -1    1    3    3    0  502  0.37279952825E+03 -0.18300741391E+03 -0.57201794338E+03  0.70687745005E+03  0.50400001928E-02 0. -1.
</event>
<event>
 5   0  0.2041718E-05  0.1758052E+04  0.7818609E-02  0.8728931E-01
       -1   -1    0    0    0  501  0.00000000000E+00  0.00000000000E+00  0.78873328340E+03  0.78873328342E+03  0.50400001928E-02 0. -1.
        1   -1    0    0  501    0  0.00000000000E+00  0.00000000000E+00 -0.97965479854E+03  0.97965479855E+03  0.50400001928E-02 0.  1.
    10030    2    1    2    0    0  0.00000000000E+00  0.00000000000E+00 -0.19092151514E+03  0.17683880820E+04  0.17580515873E+04 0.  0.
        4    1    3    3  502    0 -0.71189156149E+03 -0.51319651956E+03 -0.44921242610E+02  0.87873761382E+03  0.12699999809E+01 0. -1.
       -4    1    3    3    0  502  0.71189156149E+03  0.51319651956E+03 -0.14600027253E+03  0.88965046815E+03  0.12699999809E+01 0.  1.
</event>
<event>
 5   0  0.4959347E-05  0.2523127E+04  0.7818609E-02  0.8394792E-01
        2   -1    0    0  501    0  0.00000000000E+00  0.00000000000E+00  0.13040177707E+04  0.13040177707E+04  0.25500000920E-02 0.  1.
       -2   -1    0    0    0  501  0.00000000000E+00  0.00000000000E+00 -0.12204914089E+04  0.12204914089E+04  0.25500000920E-02 0. -1.
    10030    2    1    2    0    0  0.00000000000E+00  0.00000000000E+00  0.83526361775E+02  0.25245091796E+04  0.25231270172E+04 0.  0.
        3    1    3    3  502    0 -0.12026413599E+04 -0.30883323026E+03  0.26508551956E+03  0.12696434726E+04  0.10100000352E+00 0.  1.
       -3    1    3    3    0  502  0.12026413599E+04  0.30883323026E+03 -0.18155915778E+03  0.12548657070E+04  0.10100000352E+00 0. -1.
</event>
<event>
 5   0  0.2066170E-05  0.2511417E+04  0.7818609E-02  0.8398929E-01
        1   -1    0    0  501    0  0.00000000000E+00  0.00000000000E+00  0.13631135260E+04  0.13631135260E+04  0.50400001928E-02 0.  1.
       -1   -1    0    0    0  501  0.00000000000E+00  0.00000000000E+00 -0.11567662514E+04  0.11567662514E+04  0.50400001928E-02 0. -1.
    10030    2    1    2    0    0  0.00000000000E+00  0.00000000000E+00  0.20634727461E+03  0.25198797774E+04  0.25114169098E+04 0.  0.
        5    1    3    3  502    0 -0.33327519055E+02 -0.68272399771E+03 -0.95373191309E+03  0.11733922757E+04  0.46999998093E+01 0. -1.
       -5    1    3    3    0  502  0.33327519055E+02  0.68272399771E+03  0.11600791877E+04  0.13464875017E+04  0.46999998093E+01 0.  1.
</event>
<event>
 5   0  0.5219468E-05  0.2449535E+04  0.7818609E-02  0.8421188E-01
        2   -1    0    0  501    0  0.00000000000E+00  0.00000000000E+00  0.18067806885E+04  0.18067806885E+04  0.25500000920E-02 0. -1.
       -2   -1    0    0    0  501  0.00000000000E+00  0.00000000000E+00 -0.83023660121E+03  0.83023660121E+03  0.25500000920E-02 0.  1.
    10030    2    1    2    0    0  0.00000000000E+00  0.00000000000E+00  0.97654408728E+03  0.26370172897E+04  0.24495350236E+04 0.  0.
        1    1    3    3  502    0 -0.70431729383E+03  0.54091326263E+03 -0.41973228269E+03  0.98225515893E+03  0.50400001928E-02 0.  1.
       -1    1    3    3    0  502  0.70431729383E+03 -0.54091326263E+03  0.13962763700E+04  0.16547621308E+04  0.50400001928E-02 0. -1.
</event>
<event>
 5   0  0.2081874E-05  0.2518050E+04  0.7818609E-02  0.8396583E-01
        1   -1    0    0  501    0  0.00000000000E+00  0.00000000000E+00  0.14575110848E+04  0.14575110849E+04  0.50400001928E-02 0. -1.
       -1   -1    0    0    0  501  0.00000000000E+00  0.00000000000E+00 -0.10875694078E+04  0.10875694078E+04  0.50400001928E-02 0.  1.
    10030    2    1    2    0    0  0.00000000000E+00  0.00000000000E+00  0.36994167706E+03  0.25450804926E+04  0.25180504105E+04 0.  0.
        1    1    3    3  502    0 -0.76653327309E+02  0.85301558138E+03 -0.74777513226E+03  0.11369604053E+04  0.50400001928E-02 0.  1.
       -1    1    3    3    0  502  0.76653327309E+02 -0.85301558138E+03  0.11177168093E+04  0.14081200874E+04  0.50400001928E-02 0. -1.
</event>
<event>
 5   0  0.4995256E-05  0.2239999E+04  0.7818609E-02  0.8501962E-01
       -2   -1    0    0    0  501  0.00000000000E+00  0.00000000000E+00  0.68117789323E+03  0.68117789324E+03  0.25500000920E-02 0. -1.
        2   -1    0    0  501    0  0.00000000000E+00  0.00000000000E+00 -0.18415139838E+04  0.18415139838E+04  0.25500000920E-02 0.  1.
    10030    2    1    2    0    0  0.00000000000E+00  0.00000000000E+00 -0.11603360906E+04  0.25226918771E+04  0.22399987642E+04 0.  0.
        2    1    3    3  502    0 -0.97181025286E+03 -0.39335279752E+03 -0.10239218198E+04  0.14654547021E+04  0.25500000920E-02 0.  1.
       -2    1    3    3    0  502  0.97181025286E+03  0.39335279752E+03 -0.13641427083E+03  0.10572371750E+04  0.25500000920E-02 0. -1.
</event>
<event>
 5   0  0.2063930E-05  0.2531962E+04  0.7818609E-02  0.8391687E-01
        1   -1    0    0  501    0  0.00000000000E+00  0.00000000000E+00  0.13274241352E+04  0.13274241352E+04  0.50400001928E-02 0.  1.
       -1   -1    0    0    0  501  0.00000000000E+00  0.00000000000E+00 -0.12073819013E+04  0.12073819013E+04  0.50400001928E-02 0. -1.
    10030    2    1    2    0    0  0.00000000000E+00  0.00000000000E+00  0.12004223390E+03  0.25348060365E+04  0.25319619872E+04 0.  0.
        3    1    3    3  502    0 -0.74591708732E+03  0.82858516618E+02 -0.96065830670E+03  0.12190661292E+04  0.10100000352E+00 0. -1.
       -3    1    3    3    0  502  0.74591708732E+03 -0.82858516618E+02  0.10807005406E+04  0.13157399073E+04  0.10100000352E+00 0.  1.
</event>
<event>
 5   0  0.4959042E-05  0.2441972E+04  0.7818609E-02  0.8423955E-01
       -2   -1    0    0    0  501  0.00000000000E+00  0.00000000000E+00  0.65993766057E+03  0.65993766058E+03  0.25500000920E-02 0.  1.
        2   -1    0    0  501    0  0.00000000000E+00  0.00000000000E+00 -0.22590113397E+04  0.22590113397E+04  0.25500000920E-02 0. -1.
    10030    2    1    2    0    0  0.00000000000E+00  0.00000000000E+00 -0.15990736791E+04  0.29189490002E+04  0.24419718743E+04 0.  0.
        4    1    3    3  502    0 -0.43922112541E+02 -0.12201442576E+04 -0.81284121538E+03  0.14667629718E+04  0.12699999809E+01 0. -1.
       -4    1    3    3    0  502  0.43922112541E+02  0.12201442576E+04 -0.78623246372E+03  0.14521860284E+04  0.12699999809E+01 0.  1.
</event>
<event>
 5   0  0.5219468E-05  0.2257878E+04  0.7818609E-02  0.8494717E-01
       -2   -1    0    0    0  501  0.00000000000E+00  0.00000000000E+00  0.61558311541E+03  0.61558311542E+03  0.25500000920E-02 0. -1.
        2   -1    0    0  501    0  0.00000000000E+00  0.00000000000E+00 -0.20704001040E+04  0.20704001040E+04  0.25500000920E-02 0.  1.
    10030    2    1    2    0    0  0.00000000000E+00  0.00000000000E+00 -0.14548169886E+04  0.26859832194E+04  0.22578780713E+04 0.  0.
        1    1    3    3  502    0  0.29772377547E+03 -0.11965653219E+03  0.56019611258E+03  0.64558254061E+03  0.50400001928E-02 0. -1.
       -1    1    3    3    0  502 -0.29772377547E+03  0.11965653219E+03 -0.20150131011E+04  0.20404006788E+04  0.50400001928E-02 0.  1.
</event>
<event>
 5   0  0.2063930E-05  0.2519482E+04  0.7818609E-02  0.8396078E-01
       -1   -1    0    0    0  501  0.00000000000E+00  0.00000000000E+00  0.16347048261E+04  0.16347048261E+04  0.50400001928E-02 0. -1.
        1   -1    0    0  501    0  0.00000000000E+00  0.00000000000E+00 -0.97078543634E+03  0.97078543635E+03  0.50400001928E-02 0.  1.
    10030    2    1    2    0    0  0.00000000000E+00  0.00000000000E+00  0.66391938979E+03  0.26054902625E+04  0.25194821991E+04 0.  0.
        3    1    3    3  502    0 -0.10364675363E+04  0.16256624325E+03 -0.38916463972E+03  0.11189914496E+04  0.10100000352E+00 0.  1.
       -3    1    3    3    0  502  0.10364675363E+04 -0.16256624325E+03  0.10530840295E+04  0.14864988129E+04  0.10100000352E+00 0. -1.
</event>
<event>
 5   0  0.2066170E-05  0.2419243E+04  0.7818609E-02  0.8432334E-01
        1   -1    0    0  501    0  0.00000000000E+00  0.00000000000E+00  0.24650404986E+04  0.24650404986E+04  0.50400001928E-02 0.  1.
       -1   -1    0    0    0  501  0.00000000000E+00  0.00000000000E+00 -0.59357428725E+03  0.59357428727E+03  0.50400001928E-02 0. -1.
    10030    2    1    2    0    0  0.00000000000E+00  0.00000000000E+00  0.18714662113E+04  0.30586147858E+04  0.24192433999E+04 0.  0.
        5    1    3    3  502    0 -0.78562816601E+03  0.91490294177E+03  0.81643678839E+03  0.14563138836E+04  0.46999998093E+01 0.  1.
       -5    1    3    3    0  502  0.78562816601E+03 -0.91490294177E+03  0.10550294229E+04  0.16023009022E+04  0.46999998093E+01 0. -1.
</event>
<event>
 5   0  0.2063930E-05  0.2550410E+04  0.7818609E-02  0.8385244E-01
       -1   -1    0    0    0  501  0.00000000000E+00  0.00000000000E+00  0.64375431405E+03  0.64375431407E+03  0.50400001928E-02 0.  1.
        1   -1    0    0  501    0  0.00000000000E+00  0.00000000000E+00 -0.25260377681E+04  0.25260377681E+04  0.50400001928E-02 0. -1.
    10030    2    1    2    0    0  0.00000000000E+00  0.00000000000E+00 -0.18822834541E+04  0.31697920822E+04  0.25504099362E+04 0.  0.
        3    1    3    3  502    0 -0.55481021121E+03 -0.83752340726E+03 -0.19173082298E+04  0.21645624700E+04  0.10100000352E+00 0. -1.
       -3    1    3    3    0  502  0.55481021121E+03  0.83752340726E+03  0.35024775736E+02  0.10052296122E+04  0.10100000352E+00 0.  1.
</event>
<event>
 5   0  0.1692125E-05  0.2504439E+04  0.7818609E-02  0.8401406E-01
        3   -1    0    0  501    0  0.00000000000E+00  0.00000000000E+00  0.10314733526E+04  0.10314733576E+04  0.10100000352E+00 0. -1.
       -3   -1    0    0    0  501  0.00000000000E+00  0.00000000000E+00 -0.15202076833E+04  0.15202076867E+04  0.10100000352E+00 0.  1.
    10030    2    1    2    0    0  0.00000000000E+00  0.00000000000E+00 -0.48873433067E+03  0.25516810443E+04  0.25044390401E+04 0.  0.
        2    1    3    3  502    0  0.35391716649E+03 -0.60832039333E+03 -0.12996374258E+04  0.14779609265E+04  0.25500000920E-02 0.  1.
       -2    1    3    3    0  502 -0.35391716649E+03  0.60832039333E+03  0.81090309510E+03  0.10737201178E+04  0.25500000920E-02 0. -1.
</event>
<event>
 5   0  0.4995256E-05  0.2475558E+04  0.7818609E-02  0.8411745E-01
        2   -1    0    0  501    0  0.00000000000E+00  0.00000000000E+00  0.16668244441E+04  0.16668244441E+04  0.25500000920E-02 0. -1.
       -2   -1    0    0    0  501  0.00000000000E+00  0.00000000000E+00 -0.91917078112E+03  0.91917078112E+03  0.25500000920E-02 0.  1.
    10030    2    1    2    0    0  0.00000000000E+00  0.00000000000E+00  0.74765366301E+03  0.25859952253E+04  0.24755575746E+04 0.  0.
        2    1    3    3  502    0 -0.33080450760E+03  0.76338722793E+03  0.13311744885E+04  0.15697825330E+04  0.25500000920E-02 0. -1.
       -2    1    3    3    0  502  0.33080450760E+03 -0.76338722793E+03 -0.58352082553E+03  0.10162126922E+04  0.25500000920E-02 0.  1.
</event>
<event>
 5   0  0.2063930E-05  0.2561031E+04  0.7818609E-02  0.8381560E-01
        1   -1    0    0  501    0  0.00000000000E+00  0.00000000000E+00  0.24005452821E+04  0.24005452821E+04  0.50400001928E-02 0.  1.
       -1   -1    0    0    0  501  0.00000000000E+00  0.00000000000E+00 -0.68306167901E+03  0.68306167902E+03  0.50400001928E-02 0. -1.
    10030    2    1    2    0    0  0.00000000000E+00  0.00000000000E+00  0.17174836030E+04  0.30836069611E+04  0.25610314258E+04 0.  0.
        3    1    3    3  502    0  0.45099735826E+03  0.39421357524E+03 -0.50397212034E+03  0.78280959903E+03  0.10100000352E+00 0. -1.
       -3    1    3    3    0  502 -0.45099735826E+03 -0.39421357524E+03  0.22214557234E+04  0.23007973620E+04  0.10100000352E+00 0.  1.
</event>
<event>
 5   0  0.5219468E-05  0.2489456E+04  0.7818609E-02  0.8406751E-01
        2   -1    0    0  501    0  0.00000000000E+00  0.00000000000E+00  0.15119493581E+04  0.15119493581E+04  0.25500000920E-02 0.  1.
       -2   -1    0    0    0  501  0.00000000000E+00  0.00000000000E+00 -0.10247355642E+04  0.10247355642E+04  0.25500000920E-02 0. -1.
    10030    2    1    2    0    0  0.00000000000E+00  0.00000000000E+00  0.48721379385E+03  0.25366849223E+04  0.24894563892E+04 0.  0.
        1    1    3    3  502    0 -0.35201682454E+03 -0.29364284010E+03 -0.93558842980E+03  0.10418577985E+04  0.50400001928E-02 0. -1.
       -1    1    3    3    0  502  0.35201682454E+03  0.29364284010E+03  0.14228022236E+04  0.14948271238E+04  0.50400001928E-02 0.  1.
</event>
<event>
 5   0  0.4959042E-05  0.2477109E+04  0.7818609E-02  0.8411186E-01
       -2   -1    0    0    0  501  0.00000000000E+00  0.00000000000E+00  0.77287890394E+03  0.77287890395E+03  0.25500000920E-02 0. -1.
        2   -1    0    0  501    0  0.00000000000E+00  0.00000000000E+00 -0.19848093976E+04  0.19848093976E+04  0.25500000920E-02 0.  1.
    10030    2    1    2    0    0  0.00000000000E+00  0.00000000000E+00 -0.12119304937E+04  0.27576883016E+04  0.24771090503E+04 0.  0.
        4    1    3    3  502    0  0.93276283896E+03  0.29573191321E+03 -0.14512521867E+04  0.17503252271E+04  0.12699999809E+01 0.  1.
       -4    1    3    3    0  502 -0.93276283896E+03 -0.29573191321E+03  0.23932169301E+03  0.10073630745E+04  0.12699999809E+01 0. -1.
</event>
<event>
 5   0  0.2066170E-05  0.1585063E+04  0.7818609E-02  0.8829777E-01
        1   -1    0    0  501    0  0.00000000000E+00  0.00000000000E+00  0.85703935820E+03  0.85703935822E+03  0.50400001928E-02 0. -1.
       -1   -1    0    0    0  501  0.00000000000E+00  0.00000000000E+00 -0.73287873231E+03  0.73287873233E+03  0.50400001928E-02 0.  1.
    10030    2    1    2    0    0  0.00000000000E+00  0.00000000000E+00  0.12416062589E+03  0.15899180905E+04  0.15850626718E+04 0.  0.
        5    1    3    3  502    0  0.12757138741E+03 -0.66467315853E+02  0.84382089004E+03  0.85600709543E+03  0.46999998093E+01 0. -1.
       -5    1    3    3    0  502 -0.12757138741E+03  0.66467315853E+02 -0.71966026415E+03  0.73391099512E+03  0.46999998093E+01 0.  1.
</event>
<event>
 5   0  0.4959347E-05  0.2485672E+04  0.7818609E-02  0.8408108E-01
       -2   -1    0    0    0  501  0.00000000000E+00  0.00000000000E+00  0.59051743357E+03  0.59051743358E+03  0.25500000920E-02 0. -1.
        2   -1    0    0  501    0  0.00000000000E+00  0.00000000000E+00 -0.26157421207E+04  0.26157421207E+04  0.25500000920E-02 0.  1.
    10030    2    1    2    0    0  0.00000000000E+00  0.00000000000E+00 -0.20252246871E+04  0.32062595542E+04  0.24856720009E+04 0.  0.
        3    1    3    3  502    0  0.64776906418E+03  0.56914346733E+03 -0.21671325734E+04  0.23323791818E+04  0.10100000352E+00 0.  1.
       -3    1    3    3    0  502 -0.64776906418E+03 -0.56914346733E+03  0.14190788630E+03  0.87388037243E+03  0.10100000352E+00 0. -1.
</event>
<event>
 5   0  0.4959347E-05  0.2490018E+04  0.7818609E-02  0.8406550E-01
       -2   -1    0    0    0  501  0.00000000000E+00  0.00000000000E+00  0.12198721604E+04  0.12198721604E+04  0.25500000920E-02 0.  1.
        2   -1    0    0  501    0  0.00000000000E+00  0.00000000000E+00 -0.12706640588E+04  0.12706640588E+04  0.25500000920E-02 0. -1.
    10030    2    1    2    0    0  0.00000000000E+00  0.00000000000E+00 -0.50791898372E+02  0.24905362192E+04  0.24900182414E+04 0.  0.
        3    1    3    3  502    0 -0.50538352686E+03 -0.31405449148E+03  0.10684516678E+04  0.12229602240E+04  0.10100000352E+00 0.  1.
       -3    1    3    3    0  502  0.50538352686E+03  0.31405449148E+03 -0.11192435662E+04  0.12675759952E+04  0.10100000352E+00 0. -1.
</event>
<event>
 5   0  0.2036578E-05  0.2477777E+04  0.7818609E-02  0.8410946E-01
       -1   -1    0    0    0  501  0.00000000000E+00  0.00000000000E+00  0.83044048382E+03  0.83044048384E+03  0.50400001928E-02 0. -1.
        1   -1    0    0  501    0  0.00000000000E+00  0.00000000000E+00 -0.18482298890E+04  0.18482298890E+04  0.50400001928E-02 0.  1.
    10030    2    1    2    0    0  0.00000000000E+00  0.00000000000E+00 -0.10177894051E+04  0.26786703728E+04  0.24777771677E+04 0.  0.
        2    1    3    3  502    0 -0.24213881878E+03  0.99941962361E+03  0.23804658891E+03  0.10555268685E+04  0.25500000920E-02 0. -1.
       -2    1    3    3    0  502  0.24213881878E+03 -0.99941962361E+03 -0.12558359941E+04  0.16231435043E+04  0.25500000920E-02 0.  1.
</event>
<event>
 5   0  0.2066170E-05  0.1929085E+04  0.7818609E-02  0.8640513E-01
        1   -1    0    0  501    0  0.00000000000E+00  0.00000000000E+00  0.53923699197E+03  0.53923699199E+03  0.50400001928E-02 0. -1.
       -1   -1    0    0    0  501  0.00000000000E+00  0.00000000000E+00 -0.17252932301E+04  0.17252932301E+04  0.50400001928E-02 0.  1.
    10030    2    1    2    0    0  0.00000000000E+00  0.00000000000E+00 -0.11860562381E+04  0.22645302221E+04  0.19290846863E+04 0.  0.
        5    1    3    3  502    0  0.13182737841E+03 -0.32277926301E+03 -0.16487154228E+04  0.16851853149E+04  0.46999998093E+01 0.  1.
       -5    1    3    3    0  502 -0.13182737841E+03  0.32277926301E+03  0.46265918465E+03  0.57934490717E+03  0.46999998093E+01 0. -1.
</event>
<event>
 5   0  0.2081874E-05  0.2620529E+04  0.7818609E-02  0.8361261E-01
        1   -1    0    0  501    0  0.00000000000E+00  0.00000000000E+00  0.20461307279E+04  0.20461307279E+04  0.50400001928E-02 0. -1.
       -1   -1    0    0    0  501  0.00000000000E+00  0.00000000000E+00 -0.83904345777E+03  0.83904345779E+03  0.50400001928E-02 0.  1.
    10030    2    1    2    0    0  0.00000000000E+00  0.00000000000E+00  0.12070872701E+04  0.28851741856E+04  0.26205286497E+04 0.  0.
        1    1    3    3  502    0 -0.99373625225E+03  0.65872336580E+03  0.51841326973E+01  0.11922479134E+04  0.50400001928E-02 0.  1.
       -1    1    3    3    0  502  0.99373625225E+03 -0.65872336580E+03  0.12019031374E+04  0.16929262723E+04  0.50400001928E-02 0. -1.
</event>
<event>
 5   0  0.5024070E-05  0.2408077E+04  0.7818609E-02  0.8436486E-01
       -2   -1    0    0    0  501  0.00000000000E+00  0.00000000000E+00  0.10218973331E+04  0.10218973332E+04  0.25500000920E-02 0. -1.
        2   -1    0    0  501    0  0.00000000000E+00  0.00000000000E+00 -0.14186444751E+04  0.14186444751E+04  0.25500000920E-02 0.  1.
    10030    2    1    2    0    0  0.00000000000E+00  0.00000000000E+00 -0.39674714192E+03  0.24405418082E+04  0.24080772461E+04 0.  0.
        5    1    3    3  502    0 -0.76005807238E+03 -0.58077954444E+03  0.54271206718E+03  0.10997961768E+04  0.46999998093E+01 0. -1.
       -5    1    3    3    0  502  0.76005807238E+03  0.58077954444E+03 -0.93945920910E+03  0.13407456314E+04  0.46999998093E+01 0.  1.
</event>
<event>
 5   0  0.4959347E-05  0.2498632E+04  0.7818609E-02  0.8403473E-01
        2   -1    0    0  501    0  0.00000000000E+00  0.00000000000E+00  0.10766922748E+04  0.10766922748E+04  0.25500000920E-02 0. -1.
       -2   -1    0    0    0  501  0.00000000000E+00  0.00000000000E+00 -0.14496163392E+04  0.14496163392E+04  0.25500000920E-02 0.  1.
    10030    2    1    2    0    0  0.00000000000E+00  0.00000000000E+00 -0.37292406432E+03  0.25263086140E+04  0.24986321969E+04 0.  0.
        3    1    3    3  502    0 -0.11467114808E+03 -0.18600301385E+03 -0.14301455124E+04  0.14467421298E+04  0.10100000352E+00 0.  1.
       -3    1    3    3    0  502  0.11467114808E+03  0.18600301385E+03  0.10572214481E+04  0.10795664842E+04  0.10100000352E+00 0. -1.
</event>
<event>
 5   0  0.4959042E-05  0.1590451E+04  0.7818609E-02  0.8826436E-01
       -2   -1    0    0    0  501  0.00000000000E+00  0.00000000000E+00  0.41795365257E+03  0.41795365258E+03  0.25500000920E-02 0.  1.
        2   -1    0    0  501    0  0.00000000000E+00  0.00000000000E+00 -0.15130464080E+04  0.15130464080E+04  0.25500000920E-02 0. -1.
    10030    2    1    2    0    0  0.00000000000E+00  0.00000000000E+00 -0.10950927554E+04  0.19310000606E+04  0.15904505937E+04 0.  0.
        4    1    3    3  502    0  0.27250580169E+03  0.56754755925E+03  0.42286751577E+02  0.63099875295E+03  0.12699999809E+01 0.  1.
       -4    1    3    3    0  502 -0.27250580169E+03 -0.56754755925E+03 -0.11373795070E+04  0.13000013076E+04  0.12699999809E+01 0. -1.
</event>
<event>
 5   0  0.4959347E-05  0.2444919E+04  0.7818609E-02  0.8422876E-01
        2   -1    0    0  501    0  0.00000000000E+00  0.00000000000E+00  0.12846391594E+04  0.12846391594E+04  0.25500000920E-02 0.  1.
       -2   -1    0    0    0  501  0.00000000000E+00  0.00000000000E+00 -0.11632892207E+04  0.11632892207E+04  0.25500000920E-02 0. -1.
    10030    2    1    2    0    0  0.00000000000E+00  0.00000000000E+00  0.12134993861E+03  0.24479283801E+04  0.24449187198E+04 0.  0.
        3    1    3    3  502    0 -0.83400168088E+03  0.79750194584E+03 -0.34335457190E+03  0.12039354341E+04  0.10100000352E+00 0. -1.
       -3    1    3    3    0  502  0.83400168088E+03 -0.79750194584E+03  0.46470451051E+03  0.12439929460E+04  0.10100000352E+00 0.  1.
</event>
<event>
 5   0  0.2066170E-05  0.2477443E+04  0.7818609E-02  0.8411066E-01
       -1   -1    0    0    0  501  0.00000000000E+00  0.00000000000E+00  0.58512517766E+03  0.58512517768E+03  0.50400001928E-02 0.  1.
        1   -1    0    0  501    0  0.00000000000E+00  0.00000000000E+00 -0.26223982555E+04  0.26223982555E+04  0.50400001928E-02 0. -1.
    10030    2    1    2    0    0  0.00000000000E+00  0.00000000000E+00 -0.20372730778E+04  0.32075234332E+04  0.24774432346E+04 0.  0.
        5    1    3    3  502    0  0.42478363620E+03  0.15478106333E+03  0.47448003366E+03  0.65540194346E+03  0.46999998093E+01 0.  1.
       -5    1    3    3    0  502 -0.42478363620E+03 -0.15478106333E+03 -0.25117531115E+04  0.25521214897E+04  0.46999998093E+01 0. -1.
</event>
<event>
 5   0  0.2041718E-05  0.2493487E+04  0.7818609E-02  0.8405309E-01
       -1   -1    0    0    0  501  0.00000000000E+00  0.00000000000E+00  0.11978939018E+04  0.11978939018E+04  0.50400001928E-02 0.  1.
        1   -1    0    0  501    0  0.00000000000E+00  0.00000000000E+00 -0.12975855132E+04  0.12975855132E+04  0.50400001928E-02 0. -1.
    10030    2    1    2    0    0  0.00000000000E+00  0.00000000000E+00 -0.99691611421E+02  0.24954794150E+04  0.24934873357E+04 0.  0.
        4    1    3    3  502    0 -0.37729680339E+03  0.36010879976E+03  0.10834620538E+04  0.12024653261E+04  0.12699999809E+01 0.  1.
       -4    1    3    3    0  502  0.37729680339E+03 -0.36010879976E+03 -0.11831536652E+04  0.12930140889E+04  0.12699999809E+01 0. -1.
</event>
<event>
 5   0  0.2066170E-05  0.2399966E+04  0.7818609E-02  0.8439516E-01
       -1   -1    0    0    0  501  0.00000000000E+00  0.00000000000E+00  0.10660775032E+04  0.10660775032E+04  0.50400001928E-02 0.  1.
        1   -1    0    0  501    0  0.00000000000E+00  0.00000000000E+00 -0.13507074612E+04  0.13507074612E+04  0.50400001928E-02 0. -1.
    10030    2    1    2    0    0  0.00000000000E+00  0.00000000000E+00 -0.28462995804E+03  0.24167849644E+04  0.23999656979E+04 0.  0.
        5    1    3    3  502    0 -0.49843316935E+03  0.69418643250E+03 -0.99059983423E+03  0.13082968123E+04  0.46999998093E+01 0. -1.
       -5    1    3    3    0  502  0.49843316935E+03 -0.69418643250E+03  0.70596987619E+03  0.11084881522E+04  0.46999998093E+01 0.  1.
</event>
<event>
 5   0  0.2041718E-05  0.2462996E+04  0.7818609E-02  0.8416288E-01
        1   -1    0    0  501    0  0.00000000000E+00  0.00000000000E+00  0.18489131947E+04  0.18489131947E+04  0.50400001928E-02 0. -1.
       -1   -1    0    0    0  501  0.00000000000E+00  0.00000000000E+00 -0.82025906377E+03  0.82025906378E+03  0.50400001928E-02 0.  1.
    10030    2    1    2    0    0  0.00000000000E+00  0.00000000000E+00  0.10286541309E+04  0.26691722585E+04  0.24629963914E+04 0.  0.
        4    1    3    3  502    0  0.47715910862E+03  0.23439338808E+03  0.17181545887E+04  0.17985210254E+04  0.12699999809E+01 0. -1.
       -4    1    3    3    0  502 -0.47715910862E+03 -0.23439338808E+03 -0.68950045782E+03  0.87065123302E+03  0.12699999809E+01 0.  1.
</event>
<event>
 5   0  0.4959347E-05  0.1709041E+04  0.7818609E-02  0.8756225E-01
        2   -1    0    0  501    0  0.00000000000E+00  0.00000000000E+00  0.69595093034E+03  0.69595093034E+03  0.25500000920E-02 0. -1.
       -2   -1    0    0    0  501  0.00000000000E+00  0.00000000000E+00 -0.10492191466E+04  0.10492191466E+04  0.25500000920E-02 0.  1.
    10030    2    1    2    0    0  0.00000000000E+00  0.00000000000E+00 -0.35326821630E+03  0.17451700770E+04  0.17090407148E+04 0.  0.
        3    1    3    3  502    0 -0.78479823774E+03 -0.20068934310E+03  0.10118459960E+03  0.81634724217E+03  0.10100000352E+00 0. -1.
       -3    1    3    3    0  502  0.78479823774E+03  0.20068934310E+03 -0.45445281590E+03  0.92882283482E+03  0.10100000352E+00 0.  1.
</event>
<event>
 5   0  0.2063930E-05  0.2500698E+04  0.7818609E-02  0.8402737E-01
       -1   -1    0    0    0  501  0.00000000000E+00  0.00000000000E+00  0.98387774562E+03  0.98387774563E+03  0.50400001928E-02 0.  1.
        1   -1    0    0  501    0  0.00000000000E+00  0.00000000000E+00 -0.15889901372E+04  0.15889901372E+04  0.50400001928E-02 0. -1.
    10030    2    1    2    0    0  0.00000000000E+00  0.00000000000E+00 -0.60511239157E+03  0.25728678828E+04  0.25006975299E+04 0.  0.
        3    1    3    3  502    0  0.49501447876E+03  0.23909659280E+03 -0.14579827997E+04  0.15581785421E+04  0.10100000352E+00 0. -1.
       -3    1    3    3    0  502 -0.49501447876E+03 -0.23909659280E+03  0.85287040810E+03  0.10146893407E+04  0.10100000352E+00 0.  1.
</event>
<event>
 5   0  0.1692125E-05  0.2459561E+04  0.7818609E-02  0.8417535E-01
        4   -1    0    0  501    0  0.00000000000E+00  0.00000000000E+00  0.11253473884E+04  0.11253481050E+04  0.12699999809E+01 0. -1.
       -4   -1    0    0    0  501  0.00000000000E+00  0.00000000000E+00 -0.13439035824E+04  0.13439041825E+04  0.12699999809E+01 0.  1.
    10030    2    1    2    0    0  0.00000000000E+00  0.00000000000E+00 -0.21855619403E+03  0.24692522874E+04  0.24595609464E+04 0.  0.
        5    1    3    3  502    0 -0.11551662858E+03 -0.54936103004E+03  0.98919786392E+03  0.11373988468E+04  0.46999998093E+01 0. -1.
       -5    1    3    3    0  502  0.11551662858E+03  0.54936103004E+03 -0.12077540579E+04  0.13318534406E+04  0.46999998093E+01 0.  1.
</event>
<event>
 5   0  0.4959347E-05  0.1998101E+04  0.7818609E-02  0.8607509E-01
        2   -1    0    0  501    0  0.00000000000E+00  0.00000000000E+00  0.91199860190E+03  0.91199860191E+03  0.25500000920E-02 0. -1.
       -2   -1    0    0    0  501  0.00000000000E+00  0.00000000000E+00 -0.10944113495E+04  0.10944113495E+04  0.25500000920E-02 0.  1.
    10030    2    1    2    0    0  0.00000000000E+00  0.00000000000E+00 -0.18241274764E+03  0.20064099515E+04  0.19981007189E+04 0.  0.
        3    1    3    3  502    0 -0.66838731423E+03 -0.73879367807E+03 -0.16439300758E+02  0.99640752777E+03  0.10100000352E+00 0. -1.
       -3    1    3    3    0  502  0.66838731423E+03  0.73879367807E+03 -0.16597344688E+03  0.10100024237E+04  0.10100000352E+00 0.  1.
</event>
<event>
 5   0  0.2063930E-05  0.2507063E+04  0.7818609E-02  0.8400474E-01
        1   -1    0    0  501    0  0.00000000000E+00  0.00000000000E+00  0.12889603557E+04  0.12889603557E+04  0.50400001928E-02 0. -1.
       -1   -1    0    0    0  501  0.00000000000E+00  0.00000000000E+00 -0.12190760675E+04  0.12190760675E+04  0.50400001928E-02 0.  1.
    10030    2    1    2    0    0  0.00000000000E+00  0.00000000000E+00  0.69884288251E+02  0.25080364232E+04  0.25070626012E+04 0.  0.
        3    1    3    3  502    0  0.52919897105E+03 -0.35536005010E+03 -0.10448326578E+04  0.12239312110E+04  0.10100000352E+00 0.  1.
       -3    1    3    3    0  502 -0.52919897105E+03  0.35536005010E+03  0.11147169460E+04  0.12841052123E+04  0.10100000352E+00 0. -1.
</event>
<event>
 5   0  0.4959042E-05  0.2403225E+04  0.7818609E-02  0.8438297E-01
        2   -1    0    0  501    0  0.00000000000E+00  0.00000000000E+00  0.18758059171E+04  0.18758059171E+04  0.25500000920E-02 0. -1.
       -2   -1    0    0    0  501  0.00000000000E+00  0.00000000000E+00 -0.76973451500E+03  0.76973451501E+03  0.25500000920E-02 0.  1.
    10030    2    1    2    0    0  0.00000000000E+00  0.00000000000E+00  0.11060714021E+04  0.26455404321E+04  0.24032249648E+04 0.  0.
        4    1    3    3  502    0 -0.14988120804E+03  0.47692457669E+02  0.18644242065E+04  0.18710473489E+04  0.12699999809E+01 0. -1.
       -4    1    3    3    0  502  0.14988120804E+03 -0.47692457669E+02 -0.75835280443E+03  0.77449308320E+03  0.12699999809E+01 0.  1.
</event>
<event>
 5   0  0.2036578E-05  0.2487404E+04  0.7818609E-02  0.8407487E-01
       -1   -1    0    0    0  501  0.00000000000E+00  0.00000000000E+00  0.16334770117E+04  0.16334770117E+04  0.50400001928E-02 0.  1.
        1   -1    0    0  501    0  0.00000000000E+00  0.00000000000E+00 -0.94693363232E+03  0.94693363233E+03  0.50400001928E-02 0. -1.
    10030    2    1    2    0    0  0.00000000000E+00  0.00000000000E+00  0.68654337940E+03  0.25804106440E+04  0.24874037228E+04 0.  0.
        2    1    3    3  502    0 -0.41307284069E+03  0.82059720678E+03 -0.52639713396E+03  0.10588214628E+04  0.25500000920E-02 0. -1.
       -2    1    3    3    0  502  0.41307284069E+03 -0.82059720678E+03  0.12129405134E+04  0.15215891812E+04  0.25500000920E-02 0.  1.
</event>
<event>
 5   0  0.2036578E-05  0.2421117E+04  0.7818609E-02  0.8431640E-01
        1   -1    0    0  501    0  0.00000000000E+00  0.00000000000E+00  0.11891257351E+04  0.11891257351E+04  0.50400001928E-02 0. -1.
       -1   -1    0    0    0  501  0.00000000000E+00  0.00000000000E+00 -0.12323778708E+04  0.12323778708E+04  0.50400001928E-02 0.  1.
    10030    2    1    2    0    0  0.00000000000E+00  0.00000000000E+00 -0.43252135688E+02  0.24215036060E+04  0.24211172971E+04 0.  0.
        2    1    3    3  502    0 -0.11162271029E+04 -0.13548639474E+03 -0.47017586775E+03  0.12187636584E+04  0.25500000920E-02 0.  1.
       -2    1    3    3    0  502  0.11162271029E+04  0.13548639474E+03  0.42692373206E+03  0.12027399476E+04  0.25500000920E-02 0. -1.
</event>
<event>
 5   0  0.2041718E-05  0.2522390E+04  0.7818609E-02  0.8395052E-01
        1   -1    0    0  501    0  0.00000000000E+00  0.00000000000E+00  0.16956179604E+04  0.16956179604E+04  0.50400001928E-02 0. -1.
       -1   -1    0    0    0  501  0.00000000000E+00  0.00000000000E+00 -0.93807242669E+03  0.93807242670E+03  0.50400001928E-02 0.  1.
    10030    2    1    2    0    0  0.00000000000E+00  0.00000000000E+00  0.75754553371E+03  0.26336903871E+04  0.25223897041E+04 0.  0.
        4    1    3    3  502    0 -0.86888516796E+03 -0.89974180256E+03  0.54750188176E+03  0.13653778487E+04  0.12699999809E+01 0. -1.
       -4    1    3    3    0  502  0.86888516796E+03  0.89974180256E+03  0.21004365195E+03  0.12683125384E+04  0.12699999809E+01 0.  1.
</event>
<event>
 5   0  0.2063930E-05  0.2479708E+04  0.7818609E-02  0.8410250E-01
       -1   -1    0    0    0  501  0.00000000000E+00  0.00000000000E+00  0.14167706479E+04  0.14167706479E+04  0.50400001928E-02 0.  1.
        1   -1    0    0  501    0  0.00000000000E+00  0.00000000000E+00 -0.10850297624E+04  0.10850297624E+04  0.50400001928E-02 0. -1.
    10030    2    1    2    0    0  0.00000000000E+00  0.00000000000E+00  0.33174088549E+03  0.25018004103E+04  0.24797083050E+04 0.  0.
        3    1    3    3  502    0 -0.89526732960E+02 -0.79487885742E+03 -0.78987643408E+03  0.11241673475E+04  0.10100000352E+00 0. -1.
       -3    1    3    3    0  502  0.89526732960E+02  0.79487885742E+03  0.11216173196E+04  0.13776330628E+04  0.10100000352E+00 0.  1.
</event>
<event>
 5   0  0.2066170E-05  0.2139895E+04  0.7818609E-02  0.8543870E-01
        1   -1    0    0  501    0  0.00000000000E+00  0.00000000000E+00  0.18237303798E+04  0.18237303798E+04  0.50400001928E-02 0.  1.
       -1   -1    0    0    0  501  0.00000000000E+00  0.00000000000E+00 -0.62771769984E+03  0.62771769986E+03  0.50400001928E-02 0. -1.
    10030    2    1    2    0    0  0.00000000000E+00  0.00000000000E+00  0.11960126799E+04  0.24514480796E+04  0.21398951742E+04 0.  0.
        5    1    3    3  502    0  0.19770477650E+03  0.31194989891E+00  0.18026112453E+04  0.18134267748E+04  0.46999998093E+01 0.  1.
       -5    1    3    3    0  502 -0.19770477650E+03 -0.31194989891E+00 -0.60659856534E+03  0.63802130484E+03  0.46999998093E+01 0. -1.
</event>
<event>
 5   0  0.4959347E-05  0.2332470E+04  0.7818609E-02  0.8465228E-01
        2   -1    0    0  501    0  0.00000000000E+00  0.00000000000E+00  0.16148793044E+04  0.16148793044E+04  0.25500000920E-02 0. -1.
       -2   -1    0    0    0  501  0.00000000000E+00  0.00000000000E+00 -0.84223265579E+03  0.84223265579E+03  0.25500000920E-02 0.  1.
    10030    2    1    2    0    0  0.00000000000E+00  0.00000000000E+00  0.77264664864E+03  0.24571119602E+04  0.23324700087E+04 0.  0.
        3    1    3    3  502    0 -0.29567146196E+03  0.35740488299E+03  0.15135234812E+04  0.15830076444E+04  0.10100000352E+00 0. -1.
       -3    1    3    3    0  502  0.29567146196E+03 -0.35740488299E+03 -0.74087683255E+03  0.87410431586E+03  0.10100000352E+00 0.  1.
</event>
<event>
 5   0  0.2081874E-05  0.2077723E+04  0.7818609E-02  0.8571121E-01
       -1   -1    0    0    0  501  0.00000000000E+00  0.00000000000E+00  0.53604508570E+03  0.53604508573E+03  0.50400001928E-02 0. -1.
        1   -1    0    0  501    0  0.00000000000E+00  0.00000000000E+00 -0.20133249521E+04  0.20133249521E+04  0.50400001928E-02 0.  1.
    10030    2    1    2    0    0  0.00000000000E+00  0.00000000000E+00 -0.14772798664E+04  0.25493700378E+04  0.20777227404E+04 0.  0.
        1    1    3    3  502    0  0.81996922237E+03  0.62683938835E+03 -0.88359142357E+03  0.13586798550E+04  0.50400001928E-02 0.  1.
       -1    1    3    3    0  502 -0.81996922237E+03 -0.62683938835E+03 -0.59368844282E+03  0.11906901829E+04  0.50400001928E-02 0. -1.
</event>
<event>
 5   0  0.5219468E-05  0.2047417E+04  0.7818609E-02  0.8584767E-01
       -2   -1    0    0    0  501  0.00000000000E+00  0.00000000000E+00  0.10904859310E+04  0.10904859310E+04  0.25500000920E-02 0. -1.
        2   -1    0    0  501    0  0.00000000000E+00  0.00000000000E+00 -0.96102070160E+03  0.96102070160E+03  0.25500000920E-02 0.  1.
    10030    2    1    2    0    0  0.00000000000E+00  0.00000000000E+00  0.12946522942E+03  0.20515066326E+04  0.20474174508E+04 0.  0.
        1    1    3    3  502    0  0.10126107257E+04  0.93734329980E+02 -0.53030616809E+02  0.10183215861E+04  0.50400001928E-02 0. -1.
       -1    1    3    3    0  502 -0.10126107257E+04 -0.93734329980E+02  0.18249584623E+03  0.10331850465E+04  0.50400001928E-02 0.  1.
</event>
<event>
 5   0  0.2063930E-05  0.2490133E+04  0.7818609E-02  0.8406509E-01
        1   -1    0    0  501    0  0.00000000000E+00  0.00000000000E+00  0.19077530462E+04  0.19077530462E+04  0.50400001928E-02 0. -1.
       -1   -1    0    0    0  501  0.00000000000E+00  0.00000000000E+00 -0.81257391707E+03  0.81257391708E+03  0.50400001928E-02 0.  1.
    10030    2    1    2    0    0  0.00000000000E+00  0.00000000000E+00  0.10951791291E+04  0.27203269633E+04  0.24901328202E+04 0.  0.
        3    1    3    3  502    0 -0.45988359567E+03 -0.67033190577E+02  0.18094453131E+04  0.18681752385E+04  0.10100000352E+00 0. -1.
       -3    1    3    3    0  502  0.45988359567E+03  0.67033190577E+02 -0.71426618403E+03  0.85215172479E+03  0.10100000352E+00 0.  1.
</event>
<event>
 5   0  0.2036578E-05  0.2525754E+04  0.7818609E-02  0.8393868E-01
       -1   -1    0    0    0  501  0.00000000000E+00  0.00000000000E+00  0.92909876189E+03  0.92909876191E+03  0.50400001928E-02 0.  1.
        1   -1    0    0  501    0  0.00000000000E+00  0.00000000000E+00 -0.17165649570E+04  0.17165649571E+04  0.50400001928E-02 0. -1.
    10030    2    1    2    0    0  0.00000000000E+00  0.00000000000E+00 -0.78746619515E+03  0.26456637190E+04  0.25257540469E+04 0.  0.
        2    1    3    3  502    0 -0.96225802698E+02  0.29375918983E+03 -0.16763250418E+04  0.17045877837E+04  0.25500000920E-02 0. -1.
       -2    1    3    3    0  502  0.96225802698E+02 -0.29375918983E+03  0.88885884661E+03  0.94107593526E+03  0.25500000920E-02 0.  1.
</event>
<event>
 5   0  0.2066170E-05  0.2521544E+04  0.7818609E-02  0.8395350E-01
       -1   -1    0    0    0  501  0.00000000000E+00  0.00000000000E+00  0.10015441573E+04  0.10015441574E+04  0.50400001928E-02 0. -1.
        1   -1    0    0  501    0  0.00000000000E+00  0.00000000000E+00 -0.15870955892E+04  0.15870955893E+04  0.50400001928E-02 0.  1.
    10030    2    1    2    0    0  0.00000000000E+00  0.00000000000E+00 -0.58555143190E+03  0.25886397466E+04  0.25215442210E+04 0.  0.
        5    1    3    3  502    0 -0.62631953813E+03  0.99603646571E+03  0.17222193321E+03  0.11891372037E+04  0.46999998093E+01 0. -1.
       -5    1    3    3    0  502  0.62631953813E+03 -0.99603646571E+03 -0.75777336510E+03  0.13995025429E+04  0.46999998093E+01 0.  1.
</event>
<event>
 5   0  0.5024070E-05  0.1724673E+04  0.7818609E-02  0.8747416E-01
        2   -1    0    0  501    0  0.00000000000E+00  0.00000000000E+00  0.16554820859E+04  0.16554820859E+04  0.25500000920E-02 0.  1.
       -2   -1    0    0    0  501  0.00000000000E+00  0.00000000000E+00 -0.44918913536E+03  0.44918913537E+03  0.25500000920E-02 0. -1.
    10030    2    1    2    0    0  0.00000000000E+00  0.00000000000E+00  0.12062929505E+04  0.21046712213E+04  0.17246733798E+04 0.  0.
        5    1    3    3  502    0 -0.50480751886E+03  0.56703356540E+03  0.10408540902E+03  0.76629860874E+03  0.46999998093E+01 0. -1.
       -5    1    3    3    0  502  0.50480751886E+03 -0.56703356540E+03  0.11022075415E+04  0.13383726125E+04  0.46999998093E+01 0.  1.
</event>
<event>
 5   0  0.5024070E-05  0.2375865E+04  0.7818609E-02  0.8448595E-01
       -2   -1    0    0    0  501  0.00000000000E+00  0.00000000000E+00  0.80591567326E+03  0.80591567327E+03  0.25500000920E-02 0.  1.
        2   -1    0    0  501    0  0.00000000000E+00  0.00000000000E+00 -0.17510317650E+04  0.17510317650E+04  0.25500000920E-02 0. -1.
    10030    2    1    2    0    0  0.00000000000E+00  0.00000000000E+00 -0.94511609169E+03  0.25569474382E+04  0.23758652687E+04 0.  0.
        5    1    3    3  502    0 -0.28868893052E+03 -0.10213473205E+04 -0.10467683737E+04  0.14907171985E+04  0.46999998093E+01 0. -1.
       -5    1    3    3    0  502  0.28868893052E+03  0.10213473205E+04  0.10165228201E+03  0.10662302397E+04  0.46999998093E+01 0.  1.
</event>
<event>
 5   0  0.5024070E-05  0.2470178E+04  0.7818609E-02  0.8413688E-01
       -2   -1    0    0    0  501  0.00000000000E+00  0.00000000000E+00  0.72588550200E+03  0.72588550200E+03  0.25500000920E-02 0. -1.
        2   -1    0    0  501    0  0.00000000000E+00  0.00000000000E+00 -0.21014944901E+04  0.21014944901E+04  0.25500000920E-02 0.  1.
    10030    2    1    2    0    0  0.00000000000E+00  0.00000000000E+00 -0.13756089881E+04  0.28273799922E+04  0.24701776316E+04 0.  0.
        5    1    3    3  502    0  0.68062207506E+02  0.12308548248E+04 -0.60073744802E+03  0.13713291491E+04  0.46999998093E+01 0. -1.
       -5    1    3    3    0  502 -0.68062207506E+02 -0.12308548248E+04 -0.77487154012E+03  0.14560508430E+04  0.46999998093E+01 0.  1.
</event>
<event>
 5   0  0.2041718E-05  0.2415112E+04  0.7818609E-02  0.8433867E-01
        1   -1    0    0  501    0  0.00000000000E+00  0.00000000000E+00  0.13510326206E+04  0.13510326206E+04  0.50400001928E-02 0. -1.
       -1   -1    0    0    0  501  0.00000000000E+00  0.00000000000E+00 -0.10793163658E+04  0.10793163658E+04  0.50400001928E-02 0.  1.
    10030    2    1    2    0    0  0.00000000000E+00  0.00000000000E+00  0.27171625481E+03  0.24303489863E+04  0.24151121035E+04 0.  0.
        4    1    3    3  502    0 -0.11416167481E+02 -0.57342080266E+03 -0.93350710770E+03  0.10956180351E+04  0.12699999809E+01 0.  1.
       -4    1    3    3    0  502  0.11416167481E+02  0.57342080266E+03  0.12052233625E+04  0.13347309513E+04  0.12699999809E+01 0. -1.
</event>
<event>
 5   0  0.4995256E-05  0.2517285E+04  0.7818609E-02  0.8396854E-01
       -2   -1    0    0    0  501  0.00000000000E+00  0.00000000000E+00  0.91188329938E+03  0.91188329939E+03  0.25500000920E-02 0. -1.
        2   -1    0    0  501    0  0.00000000000E+00  0.00000000000E+00 -0.17372624806E+04  0.17372624806E+04  0.25500000920E-02 0.  1.
    10030    2    1    2    0    0  0.00000000000E+00  0.00000000000E+00 -0.82537918124E+03  0.26491457800E+04  0.25172847616E+04 0.  0.
        2    1    3    3  502    0 -0.84526715648E+03  0.88738842242E+03 -0.11088173036E+03  0.12305403432E+04  0.25500000920E-02 0. -1.
       -2    1    3    3    0  502  0.84526715648E+03 -0.88738842242E+03 -0.71449745088E+03  0.14186054368E+04  0.25500000920E-02 0.  1.
</event>
<event>
 5   0  0.4959347E-05  0.2483986E+04  0.7818609E-02  0.8408713E-01
       -2   -1    0    0    0  501  0.00000000000E+00  0.00000000000E+00  0.12590075257E+04  0.12590075257E+04  0.25500000920E-02 0. -1.
        2   -1    0    0  501    0  0.00000000000E+00  0.00000000000E+00 -0.12252080122E+04  0.12252080122E+04  0.25500000920E-02 0.  1.
    10030    2    1    2    0    0  0.00000000000E+00  0.00000000000E+00  0.33799513475E+02  0.24842155379E+04  0.24839855940E+04 0.  0.
        3    1    3    3  502    0  0.42651487635E+02 -0.99592044469E+03 -0.72402604187E+03  0.12320269482E+04  0.10100000352E+00 0.  1.
       -3    1    3    3    0  502 -0.42651487635E+02  0.99592044469E+03  0.75782555535E+03  0.12521885897E+04  0.10100000352E+00 0. -1.
</event>
<event>
 5   0  0.2063930E-05  0.2531715E+04  0.7818609E-02  0.8391773E-01
        1   -1    0    0  501    0  0.00000000000E+00  0.00000000000E+00  0.16199820897E+04  0.16199820897E+04  0.50400001928E-02 0. -1.
       -1   -1    0    0    0  501  0.00000000000E+00  0.00000000000E+00 -0.98914349908E+03  0.98914349909E+03  0.50400001928E-02 0.  1.
    10030    2    1    2    0    0  0.00000000000E+00  0.00000000000E+00  0.63083859063E+03  0.26091255888E+04  0.25317146385E+04 0.  0.
        3    1    3    3  502    0 -0.55908552403E+03  0.11132985307E+03  0.14802095548E+04  0.15861876609E+04  0.10100000352E+00 0. -1.
       -3    1    3    3    0  502  0.55908552403E+03 -0.11132985307E+03 -0.84937096415E+03  0.10229379279E+04  0.10100000352E+00 0.  1.
</event>
<event>
 5   0  0.4959347E-05  0.2507279E+04  0.7818609E-02  0.8400397E-01
        2   -1    0    0  501    0  0.00000000000E+00  0.00000000000E+00  0.12076513486E+04  0.12076513486E+04  0.25500000920E-02 0.  1.
       -2   -1    0    0    0  501  0.00000000000E+00  0.00000000000E+00 -0.13013787781E+04  0.13013787781E+04  0.25500000920E-02 0. -1.
    10030    2    1    2    0    0  0.00000000000E+00  0.00000000000E+00 -0.93727429420E+02  0.25090301267E+04  0.25072788727E+04 0.  0.
        3    1    3    3  502    0  0.92275202382E+03  0.73452837694E+03  0.37841381699E+03  0.12386283789E+04  0.10100000352E+00 0.  1.
       -3    1    3    3    0  502 -0.92275202382E+03 -0.73452837694E+03 -0.47214124641E+03  0.12704017478E+04  0.10100000352E+00 0. -1.
</event>
<event>
 5   0  0.2041718E-05  0.2492118E+04  0.7818609E-02  0.8405799E-01
       -1   -1    0    0    0  501  0.00000000000E+00  0.00000000000E+00  0.14794940789E+04  0.14794940789E+04  0.50400001928E-02 0. -1.
        1   -1    0    0  501    0  0.00000000000E+00  0.00000000000E+00 -0.10494553474E+04  0.10494553474E+04  0.50400001928E-02 0.  1.
    10030    2    1    2    0    0  0.00000000000E+00  0.00000000000E+00  0.43003873149E+03  0.25289494264E+04  0.24921179528E+04 0.  0.
        4    1    3    3  502    0 -0.56414440532E+03 -0.68758031187E+03 -0.67059614717E+03  0.11138789884E+04  0.12699999809E+01 0.  1.
       -4    1    3    3    0  502  0.56414440532E+03  0.68758031187E+03  0.11006348787E+04  0.14150704379E+04  0.12699999809E+01 0. -1.
</event>
<event>
 5   0  0.5024070E-05  0.2486450E+04  0.7818609E-02  0.8407829E-01
        2   -1    0    0  501    0  0.00000000000E+00  0.00000000000E+00  0.19138011758E+04  0.19138011758E+04  0.25500000920E-02 0.  1.
       -2   -1    0    0    0  501  0.00000000000E+00  0.00000000000E+00 -0.80761195747E+03  0.80761195747E+03  0.25500000920E-02 0. -1.
    10030    2    1    2    0    0  0.00000000000E+00  0.00000000000E+00  0.11061892184E+04  0.27214131333E+04  0.24864502519E+04 0.  0.
        5    1    3    3  502    0 -0.11940240016E+04  0.34497786205E+03  0.52056055688E+03  0.13474822541E+04  0.46999998093E+01 0.  1.
       -5    1    3    3    0  502  0.11940240016E+04 -0.34497786205E+03  0.58562866147E+03  0.13739308792E+04  0.46999998093E+01 0. -1.
</event>
<event>
 5   0  0.2063930E-05  0.1984154E+04  0.7818609E-02  0.8614065E-01
       -1   -1    0    0    0  501  0.00000000000E+00  0.00000000000E+00  0.84670614197E+03  0.84670614199E+03  0.50400001928E-02 0. -1.
        1   -1    0    0  501    0  0.00000000000E+00  0.00000000000E+00 -0.11624069989E+04  0.11624069989E+04  0.50400001928E-02 0.  1.
    10030    2    1    2    0    0  0.00000000000E+00  0.00000000000E+00 -0.31570085689E+03  0.20091131409E+04  0.19841543745E+04 0.  0.
        3    1    3    3  502    0 -0.80430396727E+02  0.34631823134E+02  0.84278504208E+03  0.84732228180E+03  0.10100000352E+00 0. -1.
       -3    1    3    3    0  502  0.80430396727E+02 -0.34631823134E+02 -0.11584858990E+04  0.11617908591E+04  0.10100000352E+00 0.  1.
</event>
<event>
 5   0  0.4995256E-05  0.2121835E+04  0.7818609E-02  0.8551685E-01
       -2   -1    0    0    0  501  0.00000000000E+00  0.00000000000E+00  0.12277894731E+04  0.12277894731E+04  0.25500000920E-02 0. -1.
        2   -1    0    0  501    0  0.00000000000E+00  0.00000000000E+00 -0.91672554265E+03  0.91672554266E+03  0.25500000920E-02 0.  1.
    10030    2    1    2    0    0  0.00000000000E+00  0.00000000000E+00  0.31106393044E+03  0.21445150157E+04  0.21218350275E+04 0.  0.
        2    1    3    3  502    0 -0.62948066152E+03  0.29311058756E+03 -0.65515532630E+03  0.95466654982E+03  0.25500000920E-02 0.  1.
       -2    1    3    3    0  502  0.62948066152E+03 -0.29311058756E+03  0.96621925673E+03  0.11898484659E+04  0.25500000920E-02 0. -1.
</event>
<event>
 5   0  0.2066170E-05  0.2524324E+04  0.7818609E-02  0.8394371E-01
        1   -1    0    0  501    0  0.00000000000E+00  0.00000000000E+00  0.99969755639E+03  0.99969755640E+03  0.50400001928E-02 0. -1.
       -1   -1    0    0    0  501  0.00000000000E+00  0.00000000000E+00 -0.15935353388E+04  0.15935353388E+04  0.50400001928E-02 0.  1.
    10030    2    1    2    0    0  0.00000000000E+00  0.00000000000E+00 -0.59383778243E+03  0.25932328952E+04  0.25243243724E+04 0.  0.
        5    1    3    3  502    0 -0.66414731386E+03  0.70893693634E+02  0.80325601852E+03  0.10446817178E+04  0.46999998093E+01 0. -1.
       -5    1    3    3    0  502  0.66414731386E+03 -0.70893693634E+02 -0.13970938010E+04  0.15485511774E+04  0.46999998093E+01 0.  1.
</event>
<event>
 5   0  0.2036578E-05  0.2513993E+04  0.7818609E-02  0.8398017E-01
        1   -1    0    0  501    0  0.00000000000E+00  0.00000000000E+00  0.14787001192E+04  0.14787001192E+04  0.50400001928E-02 0. -1.
       -1   -1    0    0    0  501  0.00000000000E+00  0.00000000000E+00 -0.10685331954E+04  0.10685331954E+04  0.50400001928E-02 0.  1.
    10030    2    1    2    0    0  0.00000000000E+00  0.00000000000E+00  0.41016692380E+03  0.25472333146E+04  0.25139929701E+04 0.  0.
        2    1    3    3  502    0  0.39204401591E+03 -0.73174182381E+03  0.11614361073E+04  0.14276128462E+04  0.25500000920E-02 0. -1.
       -2    1    3    3    0  502 -0.39204401591E+03  0.73174182381E+03 -0.75126918354E+03  0.11196204684E+04  0.25500000920E-02 0.  1.
</event>
<event>
 5   0  0.2066170E-05  0.2536638E+04  0.7818609E-02  0.8390048E-01
        1   -1    0    0  501    0  0.00000000000E+00  0.00000000000E+00  0.22988202852E+04  0.22988202853E+04  0.50400001928E-02 0.  1.
       -1   -1    0    0    0  501  0.00000000000E+00  0.00000000000E+00 -0.69976482951E+03  0.69976482953E+03  0.50400001928E-02 0. -1.
    10030    2    1    2    0    0  0.00000000000E+00  0.00000000000E+00  0.15990554557E+04  0.29985851148E+04  0.25366383936E+04 0.  0.
        5    1    3    3  502    0 -0.20865215898E+03  0.63934748094E+03  0.20706726507E+04  0.21771559983E+04  0.46999998093E+01 0.  1.
       -5    1    3    3    0  502  0.20865215898E+03 -0.63934748094E+03 -0.47161719492E+03  0.82142911647E+03  0.46999998093E+01 0. -1.
</event>
<event>
 5   0  0.5024070E-05  0.2512003E+04  0.7818609E-02  0.8398722E-01
        2   -1    0    0  501    0  0.00000000000E+00  0.00000000000E+00  0.20365945138E+04  0.20365945138E+04  0.25500000920E-02 0.  1.
       -2   -1    0    0    0  501  0.00000000000E+00  0.00000000000E+00 -0.77459702165E+03  0.77459702165E+03  0.25500000920E-02 0. -1.
    10030    2    1    2    0    0  0.00000000000E+00  0.00000000000E+00  0.12619974922E+04  0.28111915355E+04  0.25120032203E+04 0.  0.
        5    1    3    3  502    0 -0.77593981750E+02  0.12483527463E+04  0.50285016058E+03  0.13480674238E+04  0.46999998093E+01 0. -1.
       -5    1    3    3    0  502  0.77593981750E+02 -0.12483527463E+04  0.75914733158E+03  0.14631241117E+04  0.46999998093E+01 0.  1.
</event>
<event>
 5   0  0.2066170E-05  0.2469470E+04  0.7818609E-02  0.8413944E-01
       -1   -1    0    0    0  501  0.00000000000E+00  0.00000000000E+00  0.91044753252E+03  0.91044753253E+03  0.50400001928E-02 0. -1.
        1   -1    0    0  501    0  0.00000000000E+00  0.00000000000E+00 -0.16745281737E+04  0.16745281737E+04  0.50400001928E-02 0.  1.
    10030    2    1    2    0    0  0.00000000000E+00  0.00000000000E+00 -0.76408064118E+03  0.25849757062E+04  0.24694696142E+04 0.  0.
        5    1    3    3  502    0  0.10079655358E+04  0.43156607102E+03 -0.97631295771E+03  0.14681460678E+04  0.46999998093E+01 0.  1.
       -5    1    3    3    0  502 -0.10079655358E+04 -0.43156607102E+03  0.21223231654E+03  0.11168296384E+04  0.46999998093E+01 0. -1.
</event>
<event>
 5   0  0.5219468E-05  0.2147870E+04  0.7818609E-02  0.8540444E-01
        2   -1    0    0  501    0  0.00000000000E+00  0.00000000000E+00  0.12190180620E+04  0.12190180621E+04  0.25500000920E-02 0.  1.
       -2   -1    0    0    0  501  0.00000000000E+00  0.00000000000E+00 -0.94611931853E+03  0.94611931853E+03  0.25500000920E-02 0. -1.
    10030    2    1    2    0    0  0.00000000000E+00  0.00000000000E+00  0.27289874352E+03  0.21651373806E+04  0.21478701433E+04 0.  0.
        1    1    3    3  502    0  0.37936673234E+03 -0.10045883332E+04  0.15139085641E+03  0.10844519483E+04  0.50400001928E-02 0. -1.
       -1    1    3    3    0  502 -0.37936673234E+03  0.10045883332E+04  0.12150788711E+03  0.10806854322E+04  0.50400001928E-02 0.  1.
</event>
<event>
 5   0  0.5024070E-05  0.2541753E+04  0.7818609E-02  0.8388260E-01
       -2   -1    0    0    0  501  0.00000000000E+00  0.00000000000E+00  0.86427850548E+03  0.86427850548E+03  0.25500000920E-02 0. -1.
        2   -1    0    0  501    0  0.00000000000E+00  0.00000000000E+00 -0.18687572532E+04  0.18687572532E+04  0.25500000920E-02 0.  1.
    10030    2    1    2    0    0  0.00000000000E+00  0.00000000000E+00 -0.10044787477E+04  0.27330357587E+04  0.25417527228E+04 0.  0.
        5    1    3    3  502    0 -0.35753799400E+03  0.12168371834E+04 -0.58945113442E+03  0.13985710128E+04  0.46999998093E+01 0.  1.
       -5    1    3    3    0  502  0.35753799400E+03 -0.12168371834E+04 -0.41502761331E+03  0.13344647459E+04  0.46999998093E+01 0. -1.
</event>
<event>
 5   0  0.5024070E-05  0.2544883E+04  0.7818609E-02  0.8387168E-01
        2   -1    0    0  501    0  0.00000000000E+00  0.00000000000E+00  0.11762567362E+04  0.11762567362E+04  0.25500000920E-02 0.  1.
       -2   -1    0    0    0  501  0.00000000000E+00  0.00000000000E+00 -0.13764909594E+04  0.13764909594E+04  0.25500000920E-02 0. -1.
    10030    2    1    2    0    0  0.00000000000E+00  0.00000000000E+00 -0.20023422319E+03  0.25527476957E+04  0.25448825226E+04 0.  0.
        5    1    3    3  502    0  0.11632271543E+04 -0.30178482416E+03  0.31940168334E+03  0.12434673369E+04  0.46999998093E+01 0. -1.
       -5    1    3    3    0  502 -0.11632271543E+04  0.30178482416E+03 -0.51963590653E+03  0.13092803588E+04  0.46999998093E+01 0.  1.
</event>
<event>
 5   0  0.2066170E-05  0.2567805E+04  0.7818609E-02  0.8379220E-01
        1   -1    0    0  501    0  0.00000000000E+00  0.00000000000E+00  0.25827208050E+04  0.25827208050E+04  0.50400001928E-02 0.  1.
       -1   -1    0    0    0  501  0.00000000000E+00  0.00000000000E+00 -0.63824390896E+03  0.63824390898E+03  0.50400001928E-02 0. -1.
    10030    2    1    2    0    0  0.00000000000E+00  0.00000000000E+00  0.19444768960E+04  0.32209647140E+04  0.25678051502E+04 0.  0.
        5    1    3    3  502    0  0.40373485196E+03  0.59106022631E+03  0.23091994712E+04  0.24175976318E+04  0.46999998093E+01 0.  1.
       -5    1    3    3    0  502 -0.40373485196E+03 -0.59106022631E+03 -0.36472257516E+03  0.80336708212E+03  0.46999998093E+01 0. -1.
</event>
<event>
 5   0  0.2066170E-05  0.2516340E+04  0.7818609E-02  0.8397187E-01
        1   -1    0    0  501    0  0.00000000000E+00  0.00000000000E+00  0.12062678408E+04  0.12062678408E+04  0.50400001928E-02 0.  1.
       -1   -1    0    0    0  501  0.00000000000E+00  0.00000000000E+00 -0.13123054704E+04  0.13123054705E+04  0.50400001928E-02 0. -1.
    10030    2    1    2    0    0  0.00000000000E+00  0.00000000000E+00 -0.10603762961E+03  0.25185733113E+04  0.25163401093E+04 0.  0.
        5    1    3    3  502    0 -0.44733960622E+03 -0.56227226998E+03  0.98071285748E+03  0.12157642155E+04  0.46999998093E+01 0.  1.
       -5    1    3    3    0  502  0.44733960622E+03  0.56227226998E+03 -0.10867504871E+04  0.13028090958E+04  0.46999998093E+01 0. -1.
</event>
<event>
 5   0  0.5024070E-05  0.2411478E+04  0.7818609E-02  0.8435219E-01
       -2   -1    0    0    0  501  0.00000000000E+00  0.00000000000E+00  0.12698136136E+04  0.12698136136E+04  0.25500000920E-02 0.  1.
        2   -1    0    0  501    0  0.00000000000E+00  0.00000000000E+00 -0.11448978254E+04  0.11448978254E+04  0.25500000920E-02 0. -1.
    10030    2    1    2    0    0  0.00000000000E+00  0.00000000000E+00  0.12491578819E+03  0.24147114390E+04  0.24114782561E+04 0.  0.
        5    1    3    3  502    0 -0.91300048650E+03  0.56460196226E+03  0.61222906554E+03  0.12357960118E+04  0.46999998093E+01 0.  1.
       -5    1    3    3    0  502  0.91300048650E+03 -0.56460196226E+03 -0.48731327736E+03  0.11789154272E+04  0.46999998093E+01 0. -1.
</event>
<event>
 5   0  0.2041718E-05  0.2493845E+04  0.7818609E-02  0.8405182E-01
       -1   -1    0    0    0  501  0.00000000000E+00  0.00000000000E+00  0.98497290050E+03  0.98497290052E+03  0.50400001928E-02 0.  1.
        1   -1    0    0  501    0  0.00000000000E+00  0.00000000000E+00 -0.15785359268E+04  0.15785359268E+04  0.50400001928E-02 0. -1.
    10030    2    1    2    0    0  0.00000000000E+00  0.00000000000E+00 -0.59356302631E+03  0.25635088273E+04  0.24938445103E+04 0.  0.
        4    1    3    3  502    0 -0.66328154280E+03 -0.62621341153E+03 -0.11706636102E+04  0.14840958672E+04  0.12699999809E+01 0. -1.
       -4    1    3    3    0  502  0.66328154280E+03  0.62621341153E+03  0.57710058388E+03  0.10794129602E+04  0.12699999809E+01 0.  1.
</event>
<event>
 5   0  0.5219468E-05  0.2452961E+04  0.7818609E-02  0.8419938E-01
        2   -1    0    0  501    0  0.00000000000E+00  0.00000000000E+00  0.13486819770E+04  0.13486819770E+04  0.25500000920E-02 0. -1.
       -2   -1    0    0    0  501  0.00000000000E+00  0.00000000000E+00 -0.11153518520E+04  0.11153518520E+04  0.25500000920E-02 0.  1.
    10030    2    1    2    0    0  0.00000000000E+00  0.00000000000E+00  0.23333012499E+03  0.24640338291E+04  0.24529614272E+04 0.  0.
        1    1    3    3  502    0  0.10980004330E+04  0.16407391486E+03 -0.40696495389E+03  0.11824321013E+04  0.50400001928E-02 0.  1.
       -1    1    3    3    0  502 -0.10980004330E+04 -0.16407391486E+03  0.64029507888E+03  0.12816017277E+04  0.50400001928E-02 0. -1.
</event>
<event>
 5   0  0.2066170E-05  0.2554404E+04  0.7818609E-02  0.8383856E-01
        1   -1    0    0  501    0  0.00000000000E+00  0.00000000000E+00  0.16744527889E+04  0.16744527889E+04  0.50400001928E-02 0. -1.
       -1   -1    0    0    0  501  0.00000000000E+00  0.00000000000E+00 -0.97419584992E+03  0.97419584993E+03  0.50400001928E-02 0.  1.
    10030    2    1    2    0    0  0.00000000000E+00  0.00000000000E+00  0.70025693894E+03  0.26486486388E+04  0.25544040071E+04 0.  0.
        5    1    3    3  502    0  0.17473791490E+02  0.88949755115E+02  0.16711039477E+04  0.16735674131E+04  0.46999998093E+01 0. -1.
       -5    1    3    3    0  502 -0.17473791490E+02 -0.88949755115E+02 -0.97084700873E+03  0.97508122568E+03  0.46999998093E+01 0.  1.
</event>
<event>
 5   0  0.2081874E-05  0.2469660E+04  0.7818609E-02  0.8413875E-01
       -1   -1    0    0    0  501  0.00000000000E+00  0.00000000000E+00  0.12536572077E+04  0.12536572077E+04  0.50400001928E-02 0.  1.
        1   -1    0    0  501    0  0.00000000000E+00  0.00000000000E+00 -0.12162851242E+04  0.12162851242E+04  0.50400001928E-02 0. -1.
    10030    2    1    2    0    0  0.00000000000E+00  0.00000000000E+00  0.37372083469E+02  0.24699423319E+04  0.24696595819E+04 0.  0.
        1    1    3    3  502    0 -0.94022908448E+03  0.72513434497E+03 -0.32040153784E+03  0.12298405161E+04  0.50400001928E-02 0. -1.
       -1    1    3    3    0  502  0.94022908448E+03 -0.72513434497E+03  0.35777362131E+03  0.12401018159E+04  0.50400001928E-02 0.  1.
</event>
<event>
 5   0  0.2081874E-05  0.2434756E+04  0.7818609E-02  0.8426605E-01
       -1   -1    0    0    0  501  0.00000000000E+00  0.00000000000E+00  0.98234154183E+03  0.98234154184E+03  0.50400001928E-02 0. -1.
        1   -1    0    0  501    0  0.00000000000E+00  0.00000000000E+00 -0.15086498947E+04  0.15086498947E+04  0.50400001928E-02 0.  1.
    10030    2    1    2    0    0  0.00000000000E+00  0.00000000000E+00 -0.52630835289E+03  0.24909914366E+04  0.24347562208E+04 0.  0.
        1    1    3    3  502    0  0.37750320334E+03 -0.70398649274E+03  0.67670594995E+03  0.10469176631E+04  0.50400001928E-02 0. -1.
       -1    1    3    3    0  502 -0.37750320334E+03  0.70398649274E+03 -0.12030143028E+04  0.14440737735E+04  0.50400001928E-02 0.  1.
</event>
<event>
 5   0  0.2041718E-05  0.2567660E+04  0.7818609E-02  0.8379270E-01
       -1   -1    0    0    0  501  0.00000000000E+00  0.00000000000E+00  0.14753689147E+04  0.14753689147E+04  0.50400001928E-02 0.  1.
        1   -1    0    0  501    0  0.00000000000E+00  0.00000000000E+00 -0.11171577966E+04  0.11171577967E+04  0.50400001928E-02 0. -1.
    10030    2    1    2    0    0  0.00000000000E+00  0.00000000000E+00  0.35821111803E+03  0.25925267113E+04  0.25676603249E+04 0.  0.
        4    1    3    3  502    0 -0.62443759110E+03  0.79246957781E+03 -0.62248974920E+03  0.11855064056E+04  0.12699999809E+01 0. -1.
       -4    1    3    3    0  502  0.62443759110E+03 -0.79246957781E+03  0.98070086723E+03  0.14070203058E+04  0.12699999809E+01 0.  1.
</event>
<event>
 5   0  0.4959042E-05  0.2211456E+04  0.7818609E-02  0.8513675E-01
       -2   -1    0    0    0  501  0.00000000000E+00  0.00000000000E+00  0.52093197470E+03  0.52093197471E+03  0.25500000920E-02 0.  1.
        2   -1    0    0  501    0  0.00000000000E+00  0.00000000000E+00 -0.23470136821E+04  0.23470136822E+04  0.25500000920E-02 0. -1.
    10030    2    1    2    0    0  0.00000000000E+00  0.00000000000E+00 -0.18260817074E+04  0.28679456569E+04  0.22114560562E+04 0.  0.
        4    1    3    3  502    0  0.36405207998E+03  0.46545558573E+02 -0.22657161852E+04  0.22952498450E+04  0.12699999809E+01 0. -1.
       -4    1    3    3    0  502 -0.36405207998E+03 -0.46545558573E+02  0.43963447780E+03  0.57269581187E+03  0.12699999809E+01 0.  1.
</event>
<event>
 5   0  0.4959347E-05  0.2454631E+04  0.7818609E-02  0.8419329E-01
        2   -1    0    0  501    0  0.00000000000E+00  0.00000000000E+00  0.29271667157E+04  0.29271667157E+04  0.25500000920E-02 0.  1.
       -2   -1    0    0    0  501  0.00000000000E+00  0.00000000000E+00 -0.51459450532E+03  0.51459450533E+03  0.25500000920E-02 0. -1.
    10030    2    1    2    0    0  0.00000000000E+00  0.00000000000E+00  0.24125722104E+04  0.34417612210E+04  0.24546314657E+04 0.  0.
        3    1    3    3  502    0 -0.12238205565E+04  0.89254187913E+01  0.13354626982E+04  0.18114295587E+04  0.10100000352E+00 0. -1.
       -3    1    3    3    0  502  0.12238205565E+04 -0.89254187913E+01  0.10771095121E+04  0.16303316623E+04  0.10100000352E+00 0.  1.
</event>
<event>
 5   0  0.2041718E-05  0.2498204E+04  0.7818609E-02  0.8403626E-01
        1   -1    0    0  501    0  0.00000000000E+00  0.00000000000E+00  0.15274923590E+04  0.15274923590E+04  0.50400001928E-02 0.  1.
       -1   -1    0    0    0  501  0.00000000000E+00  0.00000000000E+00 -0.10214491943E+04  0.10214491943E+04  0.50400001928E-02 0. -1.
    10030    2    1    2    0    0  0.00000000000E+00  0.00000000000E+00  0.50604316472E+03  0.25489415533E+04  0.24982040264E+04 0.  0.
        4    1    3    3  502    0 -0.91923487463E+03  0.75164441314E+03  0.64857042582E+03  0.13529993676E+04  0.12699999809E+01 0. -1.
       -4    1    3    3    0  502  0.91923487463E+03 -0.75164441314E+03 -0.14252726110E+03  0.11959421857E+04  0.12699999809E+01 0.  1.
</event>
<event>
 5   0  0.5024070E-05  0.2449734E+04  0.7818609E-02  0.8421115E-01
       -2   -1    0    0    0  501  0.00000000000E+00  0.00000000000E+00  0.17775326538E+04  0.17775326539E+04  0.25500000920E-02 0. -1.
        2   -1    0    0  501    0  0.00000000000E+00  0.00000000000E+00 -0.84403475013E+03  0.84403475013E+03  0.25500000920E-02 0.  1.
    10030    2    1    2    0    0  0.00000000000E+00  0.00000000000E+00  0.93349790372E+03  0.26215674040E+04  0.24497341320E+04 0.  0.
        5    1    3    3  502    0  0.74843295040E+03 -0.43823717529E+03  0.13923295043E+04  0.16403680202E+04  0.46999998093E+01 0. -1.
       -5    1    3    3    0  502 -0.74843295040E+03  0.43823717529E+03 -0.45883160060E+03  0.98119938380E+03  0.46999998093E+01 0.  1.
</event>
<event>
 5   0  0.4959347E-05  0.1607692E+04  0.7818609E-02  0.8815836E-01
        2   -1    0    0  501    0  0.00000000000E+00  0.00000000000E+00  0.14836189411E+04  0.14836189411E+04  0.25500000920E-02 0. -1.
       -2   -1    0    0    0  501  0.00000000000E+00  0.00000000000E+00 -0.43553553067E+03  0.43553553068E+03  0.25500000920E-02 0.  1.
    10030    2    1    2    0    0  0.00000000000E+00  0.00000000000E+00  0.10480834104E+04  0.19191544718E+04  0.16076924617E+04 0.  0.
        3    1    3    3  502    0 -0.58775537363E+03 -0.46242334510E+03  0.17219019214E+03  0.76742504637E+03  0.10100000352E+00 0.  1.
       -3    1    3    3    0  502  0.58775537363E+03  0.46242334510E+03  0.87589321828E+03  0.11517294254E+04  0.10100000352E+00 0. -1.
</event>
<event>
 5   0  0.4959042E-05  0.2466583E+04  0.7818609E-02  0.8414988E-01
       -2   -1    0    0    0  501  0.00000000000E+00  0.00000000000E+00  0.96598157984E+03  0.96598157984E+03  0.25500000920E-02 0. -1.
        2   -1    0    0  501    0  0.00000000000E+00  0.00000000000E+00 -0.15745727182E+04  0.15745727182E+04  0.25500000920E-02 0.  1.
    10030    2    1    2    0    0  0.00000000000E+00  0.00000000000E+00 -0.60859113832E+03  0.25405542980E+04  0.24665832578E+04 0.  0.
        4    1    3    3  502    0  0.35619735373E+03 -0.11796389585E+04 -0.35663282775E+03  0.12828145672E+04  0.12699999809E+01 0.  1.
       -4    1    3    3    0  502 -0.35619735373E+03  0.11796389585E+04 -0.25195831057E+03  0.12577397308E+04  0.12699999809E+01 0. -1.
</event>
<event>
 5   0  0.4995256E-05  0.2549963E+04  0.7818609E-02  0.8385399E-01
       -2   -1    0    0    0  501  0.00000000000E+00  0.00000000000E+00  0.18459164568E+04  0.18459164568E+04  0.25500000920E-02 0. -1.
        2   -1    0    0  501    0  0.00000000000E+00  0.00000000000E+00 -0.88063485285E+03  0.88063485285E+03  0.25500000920E-02 0.  1.
    10030    2    1    2    0    0  0.00000000000E+00  0.00000000000E+00  0.96528160399E+03  0.27265513097E+04  0.25499634251E+04 0.  0.
        2    1    3    3  502    0  0.11132321232E+04  0.20645084938E+02  0.11468397729E+04  0.15984221733E+04  0.25500000920E-02 0.  1.
       -2    1    3    3    0  502 -0.11132321232E+04 -0.20645084938E+02 -0.18155816889E+03  0.11281291363E+04  0.25500000920E-02 0. -1.
</event>
<event>
 5   0  0.4995256E-05  0.2500022E+04  0.7818609E-02  0.8402978E-01
       -2   -1    0    0    0  501  0.00000000000E+00  0.00000000000E+00  0.95033985580E+03  0.95033985580E+03  0.25500000920E-02 0. -1.
        2   -1    0    0  501    0  0.00000000000E+00  0.00000000000E+00 -0.16441778190E+04  0.16441778190E+04  0.25500000920E-02 0.  1.
    10030    2    1    2    0    0  0.00000000000E+00  0.00000000000E+00 -0.69383796316E+03  0.25945176748E+04  0.25000221690E+04 0.  0.
        2    1    3    3  502    0 -0.80040122657E+03  0.10216113399E+03 -0.13377027577E+04  0.15622188351E+04  0.25500000920E-02 0.  1.
       -2    1    3    3    0  502  0.80040122657E+03 -0.10216113399E+03  0.64386479451E+03  0.10322988397E+04  0.25500000920E-02 0. -1.
</event>
<event>
 5   0  0.4995256E-05  0.2576346E+04  0.7818609E-02  0.8376280E-01
        2   -1    0    0  501    0  0.00000000000E+00  0.00000000000E+00  0.88197097335E+03  0.88197097336E+03  0.25500000920E-02 0. -1.
       -2   -1    0    0    0  501  0.00000000000E+00  0.00000000000E+00 -0.18814564806E+04  0.18814564806E+04  0.25500000920E-02 0.  1.
    10030    2    1    2    0    0  0.00000000000E+00  0.00000000000E+00 -0.99948550720E+03  0.27634274539E+04  0.25763462527E+04 0.  0.
        2    1    3    3  502    0 -0.60913249189E+03  0.27972992227E+03  0.68018182882E+03  0.95495473314E+03  0.25500000920E-02 0. -1.
       -2    1    3    3    0  502  0.60913249189E+03 -0.27972992227E+03 -0.16796673360E+04  0.18084727208E+04  0.25500000920E-02 0.  1.
</event>
<event>
 5   0  0.4959347E-05  0.2532890E+04  0.7818609E-02  0.8391361E-01
       -2   -1    0    0    0  501  0.00000000000E+00  0.00000000000E+00  0.16398988982E+04  0.16398988982E+04  0.25500000920E-02 0.  1.
        2   -1    0    0  501    0  0.00000000000E+00  0.00000000000E+00 -0.97803737829E+03  0.97803737829E+03  0.25500000920E-02 0. -1.
    10030    2    1    2    0    0  0.00000000000E+00  0.00000000000E+00  0.66186151992E+03  0.26179362765E+04  0.25328895902E+04 0.  0.
        3    1    3    3  502    0  0.22889831870E+03  0.10796340855E+04 -0.31111789376E+03  0.11466466556E+04  0.10100000352E+00 0. -1.
       -3    1    3    3    0  502 -0.22889831870E+03 -0.10796340855E+04  0.97297941367E+03  0.14712896209E+04  0.10100000352E+00 0.  1.
</event>
<event>
 5   0  0.4959042E-05  0.2463482E+04  0.7818609E-02  0.8416112E-01
        2   -1    0    0  501    0  0.00000000000E+00  0.00000000000E+00  0.15033728353E+04  0.15033728353E+04  0.25500000920E-02 0. -1.
       -2   -1    0    0    0  501  0.00000000000E+00  0.00000000000E+00 -0.10091879073E+04  0.10091879073E+04  0.25500000920E-02 0.  1.
    10030    2    1    2    0    0  0.00000000000E+00  0.00000000000E+00  0.49418492803E+03  0.25125607427E+04  0.24634818332E+04 0.  0.
        4    1    3    3  502    0 -0.99877423267E+03  0.67413884154E+03  0.50746439013E+03  0.13074918224E+04  0.12699999809E+01 0. -1.
       -4    1    3    3    0  502  0.99877423267E+03 -0.67413884154E+03 -0.13279462101E+02  0.12050689202E+04  0.12699999809E+01 0.  1.
</event>
<event>
 5   0  0.5219468E-05  0.2512430E+04  0.7818609E-02  0.8398571E-01
        2   -1    0    0  501    0  0.00000000000E+00  0.00000000000E+00  0.10687056483E+04  0.10687056483E+04  0.25500000920E-02 0. -1.
       -2   -1    0    0    0  501  0.00000000000E+00  0.00000000000E+00 -0.14766240794E+04  0.14766240794E+04  0.25500000920E-02 0.  1.
    10030    2    1    2    0    0  0.00000000000E+00  0.00000000000E+00 -0.40791843114E+03  0.25453297278E+04  0.25124302929E+04 0.  0.
        1    1    3    3  502    0  0.97177321315E+03  0.72902716623E+03 -0.52791626603E+03  0.13245827158E+04  0.50400001928E-02 0.  1.
       -1    1    3    3    0  502 -0.97177321315E+03 -0.72902716623E+03  0.11999783489E+03  0.12207470120E+04  0.50400001928E-02 0. -1.
</event>
<event>
 5   0  0.2081874E-05  0.2484770E+04  0.7818609E-02  0.8408431E-01
        1   -1    0    0  501    0  0.00000000000E+00  0.00000000000E+00  0.10553985818E+04  0.10553985818E+04  0.50400001928E-02 0.  1.
       -1   -1    0    0    0  501  0.00000000000E+00  0.00000000000E+00 -0.14625005820E+04  0.14625005820E+04  0.50400001928E-02 0. -1.
    10030    2    1    2    0    0  0.00000000000E+00  0.00000000000E+00 -0.40710200024E+03  0.25178991638E+04  0.24847704443E+04 0.  0.
        1    1    3    3  502    0  0.21032701708E+02 -0.32427283617E+03 -0.14186741589E+04  0.14554145856E+04  0.50400001928E-02 0. -1.
       -1    1    3    3    0  502 -0.21032701708E+02  0.32427283617E+03  0.10115721587E+04  0.10624845782E+04  0.50400001928E-02 0.  1.
</event>
<event>
 5   0  0.2063930E-05  0.2510773E+04  0.7818609E-02  0.8399158E-01
       -1   -1    0    0    0  501  0.00000000000E+00  0.00000000000E+00  0.98388083037E+03  0.98388083038E+03  0.50400001928E-02 0.  1.
        1   -1    0    0  501    0  0.00000000000E+00  0.00000000000E+00 -0.16018154512E+04  0.16018154512E+04  0.50400001928E-02 0. -1.
    10030    2    1    2    0    0  0.00000000000E+00  0.00000000000E+00 -0.61793462083E+03  0.25856962816E+04  0.25107732006E+04 0.  0.
        3    1    3    3  502    0  0.59502185391E+03 -0.35980069200E+03  0.76744425768E+03  0.10356052546E+04  0.10100000352E+00 0.  1.
       -3    1    3    3    0  502 -0.59502185391E+03  0.35980069200E+03 -0.13853788785E+04  0.15500910269E+04  0.10100000352E+00 0. -1.
</event>
<event>
 5   0  0.2081874E-05  0.2475200E+04  0.7818609E-02  0.8411874E-01
        1   -1    0    0  501    0  0.00000000000E+00  0.00000000000E+00  0.14854787748E+04  0.14854787748E+04  0.50400001928E-02 0. -1.
       -1   -1    0    0    0  501  0.00000000000E+00  0.00000000000E+00 -0.10310846211E+04  0.10310846211E+04  0.50400001928E-02 0.  1.
    10030    2    1    2    0    0  0.00000000000E+00  0.00000000000E+00  0.45439415377E+03  0.25165633959E+04  0.24752004522E+04 0.  0.
        1    1    3    3  502    0 -0.28344092784E+02  0.15327298428E+03 -0.10210649281E+04  0.10328937906E+04  0.50400001928E-02 0.  1.
       -1    1    3    3    0  502  0.28344092784E+02 -0.15327298428E+03  0.14754590819E+04  0.14836696053E+04  0.50400001928E-02 0. -1.
</event>
<event>
 5   0  0.4959042E-05  0.2514634E+04  0.7818609E-02  0.8397791E-01
        2   -1    0    0  501    0  0.00000000000E+00  0.00000000000E+00  0.11742693113E+04  0.11742693113E+04  0.25500000920E-02 0. -1.
       -2   -1    0    0    0  501  0.00000000000E+00  0.00000000000E+00 -0.13462378940E+04  0.13462378940E+04  0.25500000920E-02 0.  1.
    10030    2    1    2    0    0  0.00000000000E+00  0.00000000000E+00 -0.17196858274E+03  0.25205072053E+04  0.25146338458E+04 0.  0.
        4    1    3    3  502    0 -0.91111687681E+03  0.42041534800E+03 -0.84535607445E+03  0.13120638451E+04  0.12699999809E+01 0.  1.
       -4    1    3    3    0  502  0.91111687681E+03 -0.42041534800E+03  0.67338749171E+03  0.12084433603E+04  0.12699999809E+01 0. -1.
</event>
<event>
 5   0  0.4995256E-05  0.2409069E+04  0.7818609E-02  0.8436116E-01
        2   -1    0    0  501    0  0.00000000000E+00  0.00000000000E+00  0.19867837039E+04  0.19867837039E+04  0.25500000920E-02 0.  1.
       -2   -1    0    0    0  501  0.00000000000E+00  0.00000000000E+00 -0.73027735108E+03  0.73027735109E+03  0.25500000920E-02 0. -1.
    10030    2    1    2    0    0  0.00000000000E+00  0.00000000000E+00  0.12565063528E+04  0.27170610550E+04  0.24090688163E+04 0.  0.
        2    1    3    3  502    0 -0.41663155488E+03 -0.28805967798E+03  0.18608320208E+04  0.19285372800E+04  0.25500000920E-02 0.  1.
       -2    1    3    3    0  502  0.41663155488E+03  0.28805967798E+03 -0.60432566805E+03  0.78852377495E+03  0.25500000920E-02 0. -1.
</event>
<event>
 5   0  0.4995256E-05  0.2559352E+04  0.7818609E-02  0.8382141E-01
       -2   -1    0    0    0  501  0.00000000000E+00  0.00000000000E+00  0.10735729607E+04  0.10735729607E+04  0.25500000920E-02 0. -1.
        2   -1    0    0  501    0  0.00000000000E+00  0.00000000000E+00 -0.15253466319E+04  0.15253466319E+04  0.25500000920E-02 0.  1.
    10030    2    1    2    0    0  0.00000000000E+00  0.00000000000E+00 -0.45177367122E+03  0.25989195926E+04  0.25593521834E+04 0.  0.
        2    1    3    3  502    0 -0.94739859296E+03  0.43527459244E+02  0.64652987030E+03  0.11478064327E+04  0.25500000920E-02 0. -1.
       -2    1    3    3    0  502  0.94739859296E+03 -0.43527459244E+02 -0.10983035415E+04  0.14511131599E+04  0.25500000920E-02 0.  1.
</event>
<event>
 5   0  0.5219468E-05  0.2408371E+04  0.7818609E-02  0.8436376E-01
        2   -1    0    0  501    0  0.00000000000E+00  0.00000000000E+00  0.20648421110E+04  0.20648421110E+04  0.25500000920E-02 0. -1.
       -2   -1    0    0    0  501  0.00000000000E+00  0.00000000000E+00 -0.70226346872E+03  0.70226346872E+03  0.25500000920E-02 0.  1.
    10030    2    1    2    0    0  0.00000000000E+00  0.00000000000E+00  0.13625786422E+04  0.27671055797E+04  0.24083713860E+04 0.  0.
        1    1    3    3  502    0  0.89545694391E+03 -0.49353606747E+03  0.14121554833E+04  0.17434460408E+04  0.50400001928E-02 0. -1.
       -1    1    3    3    0  502 -0.89545694391E+03  0.49353606747E+03 -0.49576841046E+02  0.10236595389E+04  0.50400001928E-02 0.  1.
</event>
<event>
 5   0  0.5024070E-05  0.2522788E+04  0.7818609E-02  0.8394912E-01
       -2   -1    0    0    0  501  0.00000000000E+00  0.00000000000E+00  0.12495544672E+04  0.12495544672E+04  0.25500000920E-02 0.  1.
        2   -1    0    0  501    0  0.00000000000E+00  0.00000000000E+00 -0.12733453621E+04  0.12733453621E+04  0.25500000920E-02 0. -1.
    10030    2    1    2    0    0  0.00000000000E+00  0.00000000000E+00 -0.23790894840E+02  0.25228998293E+04  0.25227876530E+04 0.  0.
        5    1    3    3  502    0  0.83294463718E+02  0.57654556301E+03 -0.11307613298E+04  0.12720007975E+04  0.46999998093E+01 0. -1.
       -5    1    3    3    0  502 -0.83294463718E+02 -0.57654556301E+03  0.11069704350E+04  0.12508990318E+04  0.46999998093E+01 0.  1.
</event>
<event>
 5   0  0.2036578E-05  0.2546161E+04  0.7818609E-02  0.8386723E-01
       -1   -1    0    0    0  501  0.00000000000E+00  0.00000000000E+00  0.10019820359E+04  0.10019820359E+04  0.50400001928E-02 0. -1.
        1   -1    0    0  501    0  0.00000000000E+00  0.00000000000E+00 -0.16175280203E+04  0.16175280203E+04  0.50400001928E-02 0.  1.
    10030    2    1    2    0    0  0.00000000000E+00  0.00000000000E+00 -0.61554598448E+03  0.26195100562E+04  0.25461610467E+04 0.  0.
        2    1    3    3  502    0 -0.34258315068E+03  0.43055940513E+03  0.87333649910E+03  0.10322118276E+04  0.25500000920E-02 0. -1.
       -2    1    3    3    0  502  0.34258315068E+03 -0.43055940513E+03 -0.14888824836E+04  0.15872982286E+04  0.25500000920E-02 0.  1.
</event>
<event>
 5   0  0.2063930E-05  0.2464777E+04  0.7818609E-02  0.8415642E-01
        1   -1    0    0  501    0  0.00000000000E+00  0.00000000000E+00  0.12946463980E+04  0.12946463980E+04  0.50400001928E-02 0. -1.
       -1   -1    0    0    0  501  0.00000000000E+00  0.00000000000E+00 -0.11731247532E+04  0.11731247532E+04  0.50400001928E-02 0.  1.
    10030    2    1    2    0    0  0.00000000000E+00  0.00000000000E+00  0.12152164477E+03  0.24677711513E+04  0.24647772607E+04 0.  0.
        3    1    3    3  502    0 -0.10993973775E+04  0.45994669498E+03 -0.25355707718E+03  0.12184074677E+04  0.10100000352E+00 0. -1.
       -3    1    3    3    0  502  0.10993973775E+04 -0.45994669498E+03  0.37507872195E+03  0.12493636835E+04  0.10100000352E+00 0.  1.
</event>
<event>
 5   0  0.2081874E-05  0.2408927E+04  0.7818609E-02  0.8436169E-01
       -1   -1    0    0    0  501  0.00000000000E+00  0.00000000000E+00  0.12298744168E+04  0.12298744168E+04  0.50400001928E-02 0. -1.
        1   -1    0    0  501    0  0.00000000000E+00  0.00000000000E+00 -0.11795778362E+04  0.11795778362E+04  0.50400001928E-02 0.  1.
    10030    2    1    2    0    0  0.00000000000E+00  0.00000000000E+00  0.50296580605E+02  0.24094522530E+04  0.24089272329E+04 0.  0.
        1    1    3    3  502    0 -0.40550700724E+03  0.67823749342E+03  0.93435167152E+03  0.12237054697E+04  0.50400001928E-02 0. -1.
       -1    1    3    3    0  502  0.40550700724E+03 -0.67823749342E+03 -0.88405509091E+03  0.11857467833E+04  0.50400001928E-02 0.  1.
</event>
<event>
 5   0  0.2036578E-05  0.2556258E+04  0.7818609E-02  0.8383213E-01
        1   -1    0    0  501    0  0.00000000000E+00  0.00000000000E+00  0.12991963322E+04  0.12991963322E+04  0.50400001928E-02 0.  1.
       -1   -1    0    0    0  501  0.00000000000E+00  0.00000000000E+00 -0.12574028392E+04  0.12574028392E+04  0.50400001928E-02 0. -1.
    10030    2    1    2    0    0  0.00000000000E+00  0.00000000000E+00  0.41793492969E+02  0.25565991714E+04  0.25562575432E+04 0.  0.
        2    1    3    3  502    0  0.66537222188E+03 -0.44120052203E+03  0.10191458946E+04  0.12946182637E+04  0.25500000920E-02 0.  1.
       -2    1    3    3    0  502 -0.66537222188E+03  0.44120052203E+03 -0.97735240164E+03  0.12619809077E+04  0.25500000920E-02 0. -1.
</event>
<event>
 5   0  0.4959347E-05  0.2501388E+04  0.7818609E-02  0.8402491E-01
       -2   -1    0    0    0  501  0.00000000000E+00  0.00000000000E+00  0.24889917372E+04  0.24889917372E+04  0.25500000920E-02 0. -1.
        2   -1    0    0  501    0  0.00000000000E+00  0.00000000000E+00 -0.62846128561E+03  0.62846128561E+03  0.25500000920E-02 0.  1.
    10030    2    1    2    0    0  0.00000000000E+00  0.00000000000E+00  0.18605304516E+04  0.31174530228E+04  0.25013875726E+04 0.  0.
        3    1    3    3  502    0  0.84013901041E+03 -0.79604764927E+03  0.33947994558E+03  0.12061393205E+04  0.10100000352E+00 0.  1.
       -3    1    3    3    0  502 -0.84013901041E+03  0.79604764927E+03  0.15210505060E+04  0.19113137024E+04  0.10100000352E+00 0. -1.
</event>
<event>
 5   0  0.2036578E-05  0.2465866E+04  0.7818609E-02  0.8415248E-01
       -1   -1    0    0    0  501  0.00000000000E+00  0.00000000000E+00  0.12007470724E+04  0.12007470724E+04  0.50400001928E-02 0. -1.
        1   -1    0    0  501    0  0.00000000000E+00  0.00000000000E+00 -0.12659820010E+04  0.12659820010E+04  0.50400001928E-02 0.  1.
    10030    2    1    2    0    0  0.00000000000E+00  0.00000000000E+00 -0.65234928638E+02  0.24667290734E+04  0.24658663235E+04 0.  0.
        2    1    3    3  502    0 -0.11583730006E+04  0.11309325450E+03  0.37434926945E+03  0.12226019255E+04  0.25500000920E-02 0. -1.
       -2    1    3    3    0  502  0.11583730006E+04 -0.11309325450E+03 -0.43958419809E+03  0.12441271478E+04  0.25500000920E-02 0.  1.
</event>
<event>
 5   0  0.5024070E-05  0.2472561E+04  0.7818609E-02  0.8412827E-01
        2   -1    0    0  501    0  0.00000000000E+00  0.00000000000E+00  0.10791488523E+04  0.10791488523E+04  0.25500000920E-02 0. -1.
       -2   -1    0    0    0  501  0.00000000000E+00  0.00000000000E+00 -0.14162910626E+04  0.14162910626E+04  0.25500000920E-02 0.  1.
    10030    2    1    2    0    0  0.00000000000E+00  0.00000000000E+00 -0.33714221026E+03  0.24954399149E+04  0.24725605147E+04 0.  0.
        5    1    3    3  502    0  0.69515575682E+03 -0.71954860720E+03  0.56435464795E+03  0.11486992570E+04  0.46999998093E+01 0. -1.
       -5    1    3    3    0  502 -0.69515575682E+03  0.71954860720E+03 -0.90149685820E+03  0.13467406579E+04  0.46999998093E+01 0.  1.
</event>
<event>
 5   0  0.5219468E-05  0.2550077E+04  0.7818609E-02  0.8385359E-01
       -2   -1    0    0    0  501  0.00000000000E+00  0.00000000000E+00  0.86727414722E+03  0.86727414722E+03  0.25500000920E-02 0. -1.
        2   -1    0    0  501    0  0.00000000000E+00  0.00000000000E+00 -0.18745211785E+04  0.18745211785E+04  0.25500000920E-02 0.  1.
    10030    2    1    2    0    0  0.00000000000E+00  0.00000000000E+00 -0.10072470313E+04  0.27417953257E+04  0.25500774549E+04 0.  0.
        1    1    3    3  502    0  0.41129568296E+03  0.90964163885E+03  0.34917324757E+03  0.10576076809E+04  0.50400001928E-02 0. -1.
       -1    1    3    3    0  502 -0.41129568296E+03 -0.90964163885E+03 -0.13564202788E+04  0.16841876448E+04  0.50400001928E-02 0.  1.
</event>
<event>
 5   0  0.2066170E-05  0.2354640E+04  0.7818609E-02  0.8456684E-01
       -1   -1    0    0    0  501  0.00000000000E+00  0.00000000000E+00  0.16044203287E+04  0.16044203287E+04  0.50400001928E-02 0.  1.
        1   -1    0    0  501    0  0.00000000000E+00  0.00000000000E+00 -0.86391451419E+03  0.86391451421E+03  0.50400001928E-02 0. -1.
    10030    2    1    2    0    0  0.00000000000E+00  0.00000000000E+00  0.74050581452E+03  0.24683348429E+04  0.23546396827E+04 0.  0.
        5    1    3    3  502    0 -0.40773859577E+03  0.10098434510E+04  0.83909019645E+03  0.13748196266E+04  0.46999998093E+01 0.  1.
       -5    1    3    3    0  502  0.40773859577E+03 -0.10098434510E+04 -0.98584381937E+02  0.10935152163E+04  0.46999998093E+01 0. -1.
</event>
<event>
 5   0  0.2063930E-05  0.2353194E+04  0.7818609E-02  0.8457238E-01
        1   -1    0    0  501    0  0.00000000000E+00  0.00000000000E+00  0.77911658349E+03  0.77911658351E+03  0.50400001928E-02 0.  1.
       -1   -1    0    0    0  501  0.00000000000E+00  0.00000000000E+00 -0.17768594468E+04  0.17768594468E+04  0.50400001928E-02 0. -1.
    10030    2    1    2    0    0  0.00000000000E+00  0.00000000000E+00 -0.99774286326E+03  0.25559760303E+04  0.23531941369E+04 0.  0.
        3    1    3    3  502    0  0.14664506951E+03 -0.28817523579E+03 -0.17276547765E+04  0.17576520645E+04  0.10100000352E+00 0. -1.
       -3    1    3    3    0  502 -0.14664506951E+03  0.28817523579E+03  0.72991191326E+03  0.79832396573E+03  0.10100000352E+00 0.  1.
</event>
<event>
 5   0  0.2081874E-05  0.2462124E+04  0.7818609E-02  0.8416605E-01
       -1   -1    0    0    0  501  0.00000000000E+00  0.00000000000E+00  0.72450904901E+03  0.72450904902E+03  0.50400001928E-02 0. -1.
        1   -1    0    0  501    0  0.00000000000E+00  0.00000000000E+00 -0.20917803402E+04  0.20917803402E+04  0.50400001928E-02 0.  1.
    10030    2    1    2    0    0  0.00000000000E+00  0.00000000000E+00 -0.13672712912E+04  0.28162893892E+04  0.24621241115E+04 0.  0.
        1    1    3    3  502    0  0.77829057583E+03 -0.90890521503E+03 -0.10144994824E+04  0.15687747162E+04  0.50400001928E-02 0.  1.
       -1    1    3    3    0  502 -0.77829057583E+03  0.90890521503E+03 -0.35277180878E+03  0.12475146730E+04  0.50400001928E-02 0. -1.
</event>
<event>
 5   0  0.2066170E-05  0.2520788E+04  0.7818609E-02  0.8395617E-01
        1   -1    0    0  501    0  0.00000000000E+00  0.00000000000E+00  0.18695344429E+04  0.18695344429E+04  0.50400001928E-02 0. -1.
       -1   -1    0    0    0  501  0.00000000000E+00  0.00000000000E+00 -0.84972642377E+03  0.84972642379E+03  0.50400001928E-02 0.  1.
    10030    2    1    2    0    0  0.00000000000E+00  0.00000000000E+00  0.10198080191E+04  0.27192608667E+04  0.25207878263E+04 0.  0.
        5    1    3    3  502    0 -0.11468756435E+04 -0.52079692038E+03  0.55835771364E+03  0.13778020904E+04  0.46999998093E+01 0. -1.
       -5    1    3    3    0  502  0.11468756435E+04  0.52079692038E+03  0.46145030549E+03  0.13414587763E+04  0.46999998093E+01 0.  1.
</event>
<event>
 5   0  0.4995256E-05  0.2336319E+04  0.7818609E-02  0.8463737E-01
       -2   -1    0    0    0  501  0.00000000000E+00  0.00000000000E+00  0.94473853209E+03  0.94473853209E+03  0.25500000920E-02 0. -1.
        2   -1    0    0  501    0  0.00000000000E+00  0.00000000000E+00 -0.14444167075E+04  0.14444167075E+04  0.25500000920E-02 0.  1.
    10030    2    1    2    0    0  0.00000000000E+00  0.00000000000E+00 -0.49967817544E+03  0.23891552396E+04  0.23363185742E+04 0.  0.
        2    1    3    3  502    0  0.74767527932E+03  0.18900785340E+03  0.64741706445E+03  0.10069216192E+04  0.25500000920E-02 0. -1.
       -2    1    3    3    0  502 -0.74767527932E+03 -0.18900785340E+03 -0.11470952399E+04  0.13822336204E+04  0.25500000920E-02 0.  1.
</event>
<event>
 5   0  0.2036578E-05  0.2620393E+04  0.7818609E-02  0.8361307E-01
        1   -1    0    0  501    0  0.00000000000E+00  0.00000000000E+00  0.15045509123E+04  0.15045509124E+04  0.50400001928E-02 0.  1.
       -1   -1    0    0    0  501  0.00000000000E+00  0.00000000000E+00 -0.11409479875E+04  0.11409479875E+04  0.50400001928E-02 0. -1.
    10030    2    1    2    0    0  0.00000000000E+00  0.00000000000E+00  0.36360292488E+03  0.26454988998E+04  0.26203925931E+04 0.  0.
        2    1    3    3  502    0 -0.81246185929E+02 -0.94619628805E+03  0.10930713176E+04  0.14479962927E+04  0.25500000920E-02 0. -1.
       -2    1    3    3    0  502  0.81246185929E+02  0.94619628805E+03 -0.72946839270E+03  0.11975026072E+04  0.25500000920E-02 0.  1.
</event>
<event>
 5   0  0.5024070E-05  0.2080930E+04  0.7818609E-02  0.8569691E-01
        2   -1    0    0  501    0  0.00000000000E+00  0.00000000000E+00  0.16425966613E+04  0.16425966613E+04  0.25500000920E-02 0.  1.
       -2   -1    0    0    0  501  0.00000000000E+00  0.00000000000E+00 -0.65905841976E+03  0.65905841977E+03  0.25500000920E-02 0. -1.
    10030    2    1    2    0    0  0.00000000000E+00  0.00000000000E+00  0.98353824152E+03  0.23016550810E+04  0.20809297536E+04 0.  0.
        5    1    3    3  502    0 -0.69550863920E+03 -0.17462192299E+03 -0.34206427889E+03  0.79451566636E+03  0.46999998093E+01 0. -1.
       -5    1    3    3    0  502  0.69550863920E+03  0.17462192299E+03  0.13256025204E+04  0.15071394147E+04  0.46999998093E+01 0.  1.
</event>
<event>
 5   0  0.2081874E-05  0.2486671E+04  0.7818609E-02  0.8407750E-01
       -1   -1    0    0    0  501  0.00000000000E+00  0.00000000000E+00  0.10493263591E+04  0.10493263591E+04  0.50400001928E-02 0.  1.
        1   -1    0    0  501    0  0.00000000000E+00  0.00000000000E+00 -0.14732143374E+04  0.14732143375E+04  0.50400001928E-02 0. -1.
    10030    2    1    2    0    0  0.00000000000E+00  0.00000000000E+00 -0.42388797833E+03  0.25225406966E+04  0.24866705748E+04 0.  0.
        1    1    3    3  502    0 -0.51160482034E+03 -0.97055820243E+03  0.38143818338E+03  0.11615583516E+04  0.50400001928E-02 0.  1.
       -1    1    3    3    0  502  0.51160482034E+03  0.97055820243E+03 -0.80532616171E+03  0.13609823449E+04  0.50400001928E-02 0. -1.
</event>
<event>
 5   0  0.4959347E-05  0.2782823E+04  0.7818609E-02  0.8308621E-01
       -2   -1    0    0    0  501  0.00000000000E+00  0.00000000000E+00  0.17970022361E+04  0.17970022361E+04  0.25500000920E-02 0. -1.
        2   -1    0    0  501    0  0.00000000000E+00  0.00000000000E+00 -0.10773639415E+04  0.10773639415E+04  0.25500000920E-02 0.  1.
    10030    2    1    2    0    0  0.00000000000E+00  0.00000000000E+00  0.71963829458E+03  0.28743661776E+04  0.27828226045E+04 0.  0.
        3    1    3    3  502    0 -0.22019091407E+03 -0.94678616442E+03 -0.66848949685E+03  0.11797314514E+04  0.10100000352E+00 0.  1.
       -3    1    3    3    0  502  0.22019091407E+03  0.94678616442E+03  0.13881277914E+04  0.16946347262E+04  0.10100000352E+00 0. -1.
</event>
<event>
 5   0  0.5024070E-05  0.2504200E+04  0.7818609E-02  0.8401491E-01
       -2   -1    0    0    0  501  0.00000000000E+00  0.00000000000E+00  0.98137430523E+03  0.98137430523E+03  0.25500000920E-02 0. -1.
        2   -1    0    0  501    0  0.00000000000E+00  0.00000000000E+00 -0.15975096999E+04  0.15975096999E+04  0.25500000920E-02 0.  1.
    10030    2    1    2    0    0  0.00000000000E+00  0.00000000000E+00 -0.61613539470E+03  0.25788840052E+04  0.25042004487E+04 0.  0.
        5    1    3    3  502    0 -0.98370913588E+03 -0.54711924316E+03 -0.87279199700E+03  0.14243633983E+04  0.46999998093E+01 0.  1.
       -5    1    3    3    0  502  0.98370913588E+03  0.54711924316E+03  0.25665660230E+03  0.11545206069E+04  0.46999998093E+01 0. -1.
</event>
<event>
 5   0  0.5024070E-05  0.2434916E+04  0.7818609E-02  0.8426546E-01
        2   -1    0    0  501    0  0.00000000000E+00  0.00000000000E+00  0.10502158512E+04  0.10502158512E+04  0.25500000920E-02 0. -1.
       -2   -1    0    0    0  501  0.00000000000E+00  0.00000000000E+00 -0.14113330081E+04  0.14113330081E+04  0.25500000920E-02 0.  1.
    10030    2    1    2    0    0  0.00000000000E+00  0.00000000000E+00 -0.36111715693E+03  0.24615488593E+04  0.24349162585E+04 0.  0.
        5    1    3    3  502    0 -0.97934308581E+01  0.11581415273E+04  0.19877149275E+03  0.11751254848E+04  0.46999998093E+01 0.  1.
       -5    1    3    3    0  502  0.97934308581E+01 -0.11581415273E+04 -0.55988864968E+03  0.12864233746E+04  0.46999998093E+01 0. -1.
</event>
<event>
 5   0  0.4959347E-05  0.2472671E+04  0.7818609E-02  0.8412787E-01
        2   -1    0    0  501    0  0.00000000000E+00  0.00000000000E+00  0.14282746749E+04  0.14282746749E+04  0.25500000920E-02 0.  1.
       -2   -1    0    0    0  501  0.00000000000E+00  0.00000000000E+00 -0.10701898103E+04  0.10701898103E+04  0.25500000920E-02 0. -1.
    10030    2    1    2    0    0  0.00000000000E+00  0.00000000000E+00  0.35808486455E+03  0.24984644852E+04  0.24726706238E+04 0.  0.
        3    1    3    3  502    0 -0.73186310311E+03  0.90726071862E+03 -0.23729876118E+03  0.11895614005E+04  0.10100000352E+00 0. -1.
       -3    1    3    3    0  502  0.73186310311E+03 -0.90726071862E+03  0.59538362573E+03  0.13089030847E+04  0.10100000352E+00 0.  1.
</event>
<event>
 5   0  0.2081874E-05  0.2517047E+04  0.7818609E-02  0.8396937E-01
       -1   -1    0    0    0  501  0.00000000000E+00  0.00000000000E+00  0.15286906015E+04  0.15286906015E+04  0.50400001928E-02 0.  1.
        1   -1    0    0  501    0  0.00000000000E+00  0.00000000000E+00 -0.10361037192E+04  0.10361037192E+04  0.50400001928E-02 0. -1.
    10030    2    1    2    0    0  0.00000000000E+00  0.00000000000E+00  0.49258688231E+03  0.25647943208E+04  0.25170474909E+04 0.  0.
        1    1    3    3  502    0 -0.11240236244E+04  0.40400577284E+03  0.65034049228E+03  0.13599972532E+04  0.50400001928E-02 0.  1.
       -1    1    3    3    0  502  0.11240236244E+04 -0.40400577284E+03 -0.15775360997E+03  0.12047970676E+04  0.50400001928E-02 0. -1.
</event>
<event>
 5   0  0.2041718E-05  0.2502543E+04  0.7818609E-02  0.8402080E-01
       -1   -1    0    0    0  501  0.00000000000E+00  0.00000000000E+00  0.14442267665E+04  0.14442267665E+04  0.50400001928E-02 0. -1.
        1   -1    0    0  501    0  0.00000000000E+00  0.00000000000E+00 -0.10840961083E+04  0.10840961083E+04  0.50400001928E-02 0.  1.
    10030    2    1    2    0    0  0.00000000000E+00  0.00000000000E+00  0.36013065822E+03  0.25283228748E+04  0.25025432001E+04 0.  0.
        4    1    3    3  502    0  0.68858029990E+03 -0.97720531609E+03 -0.19334450450E+03  0.12109734801E+04  0.12699999809E+01 0.  1.
       -4    1    3    3    0  502 -0.68858029990E+03  0.97720531609E+03  0.55347516271E+03  0.13173493947E+04  0.12699999809E+01 0. -1.
</event>
<event>
 5   0  0.2066170E-05  0.2472981E+04  0.7818609E-02  0.8412675E-01
        1   -1    0    0  501    0  0.00000000000E+00  0.00000000000E+00  0.10516490022E+04  0.10516490023E+04  0.50400001928E-02 0. -1.
       -1   -1    0    0    0  501  0.00000000000E+00  0.00000000000E+00 -0.14538209276E+04  0.14538209276E+04  0.50400001928E-02 0.  1.
    10030    2    1    2    0    0  0.00000000000E+00  0.00000000000E+00 -0.40217192536E+03  0.25054699299E+04  0.24729814621E+04 0.  0.
        5    1    3    3  502    0 -0.97757448553E+03  0.52970558227E+03  0.34698985290E+03  0.11647591711E+04  0.46999998093E+01 0. -1.
       -5    1    3    3    0  502  0.97757448553E+03 -0.52970558227E+03 -0.74916177826E+03  0.13407107588E+04  0.46999998093E+01 0.  1.
</event>
<event>
 5   0  0.4995256E-05  0.2192768E+04  0.7818609E-02  0.8521444E-01
        2   -1    0    0  501    0  0.00000000000E+00  0.00000000000E+00  0.13236506976E+04  0.13236506976E+04  0.25500000920E-02 0.  1.
       -2   -1    0    0    0  501  0.00000000000E+00  0.00000000000E+00 -0.90813854890E+03  0.90813854890E+03  0.25500000920E-02 0. -1.
    10030    2    1    2    0    0  0.00000000000E+00  0.00000000000E+00  0.41551214868E+03  0.22317892465E+04  0.21927683177E+04 0.  0.
        2    1    3    3  502    0 -0.94145945896E+03  0.43742734328E+03  0.56669255854E+03  0.11827210362E+04  0.25500000920E-02 0.  1.
       -2    1    3    3    0  502  0.94145945896E+03 -0.43742734328E+03 -0.15118040986E+03  0.10490682103E+04  0.25500000920E-02 0. -1.
</event>
<event>
 5   0  0.2063930E-05  0.2498925E+04  0.7818609E-02  0.8403369E-01
        1   -1    0    0  501    0  0.00000000000E+00  0.00000000000E+00  0.15270689507E+04  0.15270689507E+04  0.50400001928E-02 0. -1.
       -1   -1    0    0    0  501  0.00000000000E+00  0.00000000000E+00 -0.10223223598E+04  0.10223223599E+04  0.50400001928E-02 0.  1.
    10030    2    1    2    0    0  0.00000000000E+00  0.00000000000E+00  0.50474659081E+03  0.25493913105E+04  0.24989251556E+04 0.  0.
        3    1    3    3  502    0 -0.39137597688E+02 -0.12006807970E+04  0.60280787028E+03  0.13440771803E+04  0.10100000352E+00 0. -1.
       -3    1    3    3    0  502  0.39137597688E+02  0.12006807970E+04 -0.98061279468E+02  0.12053141303E+04  0.10100000352E+00 0.  1.
</event>
<event>
 5   0  0.2041718E-05  0.2538653E+04  0.7818609E-02  0.8389343E-01
        1   -1    0    0  501    0  0.00000000000E+00  0.00000000000E+00  0.20993886006E+04  0.20993886006E+04  0.50400001928E-02 0.  1.
       -1   -1    0    0    0  501  0.00000000000E+00  0.00000000000E+00 -0.76745664976E+03  0.76745664978E+03  0.50400001928E-02 0. -1.
    10030    2    1    2    0    0  0.00000000000E+00  0.00000000000E+00  0.13319319508E+04  0.28668452504E+04  0.25386529830E+04 0.  0.
        4    1    3    3  502    0  0.56011540878E+03 -0.11355593260E+04  0.76674337076E+03  0.14802436501E+04  0.12699999809E+01 0. -1.
       -4    1    3    3    0  502 -0.56011540878E+03  0.11355593260E+04  0.56518858007E+03  0.13866016003E+04  0.12699999809E+01 0.  1.
</event>
<event>
 5   0  0.4959042E-05  0.2495287E+04  0.7818609E-02  0.8404667E-01
        2   -1    0    0  501    0  0.00000000000E+00  0.00000000000E+00  0.10139220026E+04  0.10139220026E+04  0.25500000920E-02 0. -1.
       -2   -1    0    0    0  501  0.00000000000E+00  0.00000000000E+00 -0.15352403867E+04  0.15352403868E+04  0.25500000920E-02 0.  1.
    10030    2    1    2    0    0  0.00000000000E+00  0.00000000000E+00 -0.52131838414E+03  0.25491623894E+04  0.24952867630E+04 0.  0.
        4    1    3    3  502    0  0.10375007448E+04  0.28764938178E+03 -0.90471734533E+03  0.14062947949E+04  0.12699999809E+01 0.  1.
       -4    1    3    3    0  502 -0.10375007448E+04 -0.28764938178E+03  0.38339896119E+03  0.11428675945E+04  0.12699999809E+01 0. -1.
</event>
<event>
 5   0  0.2041718E-05  0.2477796E+04  0.7818609E-02  0.8410939E-01
        1   -1    0    0  501    0  0.00000000000E+00  0.00000000000E+00  0.25374935512E+04  0.25374935512E+04  0.50400001928E-02 0.  1.
       -1   -1    0    0    0  501  0.00000000000E+00  0.00000000000E+00 -0.60487594436E+03  0.60487594438E+03  0.50400001928E-02 0. -1.
    10030    2    1    2    0    0  0.00000000000E+00  0.00000000000E+00  0.19326176068E+04  0.31423694956E+04  0.24777964470E+04 0.  0.
        4    1    3    3  502    0  0.67660867503E+03  0.10026384385E+03  0.22763257039E+04  0.23768703079E+04  0.12699999809E+01 0.  1.
       -4    1    3    3    0  502 -0.67660867503E+03 -0.10026384385E+03 -0.34370809703E+03  0.76549918770E+03  0.12699999809E+01 0. -1.
</event>
<event>
 5   0  0.2041718E-05  0.2530397E+04  0.7818609E-02  0.8392236E-01
       -1   -1    0    0    0  501  0.00000000000E+00  0.00000000000E+00  0.12579570713E+04  0.12579570713E+04  0.50400001928E-02 0.  1.
        1   -1    0    0  501    0  0.00000000000E+00  0.00000000000E+00 -0.12724815374E+04  0.12724815374E+04  0.50400001928E-02 0. -1.
    10030    2    1    2    0    0  0.00000000000E+00  0.00000000000E+00 -0.14524466035E+02  0.25304386087E+04  0.25303969239E+04 0.  0.
        4    1    3    3  502    0  0.63017517593E+03 -0.64480027283E+03  0.88035443442E+03  0.12601244729E+04  0.12699999809E+01 0.  1.
       -4    1    3    3    0  502 -0.63017517593E+03  0.64480027283E+03 -0.89487890045E+03  0.12703141358E+04  0.12699999809E+01 0. -1.
</event>
<event>
 5   0  0.2081874E-05  0.2511103E+04  0.7818609E-02  0.8399041E-01
        1   -1    0    0  501    0  0.00000000000E+00  0.00000000000E+00  0.16608534299E+04  0.16608534299E+04  0.50400001928E-02 0. -1.
       -1   -1    0    0    0  501  0.00000000000E+00  0.00000000000E+00 -0.94915651714E+03  0.94915651716E+03  0.50400001928E-02 0.  1.
    10030    2    1    2    0    0  0.00000000000E+00  0.00000000000E+00  0.71169691274E+03  0.26100099470E+04  0.25111032293E+04 0.  0.
        1    1    3    3  502    0  0.86365797150E+03 -0.22033893477E+03 -0.56326393356E+03  0.10543816182E+04  0.50400001928E-02 0.  1.
       -1    1    3    3    0  502 -0.86365797150E+03  0.22033893477E+03  0.12749608463E+04  0.15556283289E+04  0.50400001928E-02 0. -1.
</event>
<event>
 5   0  0.5219468E-05  0.2467738E+04  0.7818609E-02  0.8414570E-01
        2   -1    0    0  501    0  0.00000000000E+00  0.00000000000E+00  0.10411727636E+04  0.10411727636E+04  0.25500000920E-02 0. -1.
       -2   -1    0    0    0  501  0.00000000000E+00  0.00000000000E+00 -0.14622292902E+04  0.14622292902E+04  0.25500000920E-02 0.  1.
    10030    2    1    2    0    0  0.00000000000E+00  0.00000000000E+00 -0.42105652665E+03  0.25034020538E+04  0.24677384878E+04 0.  0.
        1    1    3    3  502    0 -0.26529077719E+03  0.12037584121E+04 -0.26627514206E+03  0.12610773023E+04  0.50400001928E-02 0.  1.
       -1    1    3    3    0  502  0.26529077719E+03 -0.12037584121E+04 -0.15478138459E+03  0.12423247515E+04  0.50400001928E-02 0. -1.
</event>
<event>
 5   0  0.2063930E-05  0.2525801E+04  0.7818609E-02  0.8393851E-01
        1   -1    0    0  501    0  0.00000000000E+00  0.00000000000E+00  0.11383012982E+04  0.11383012982E+04  0.50400001928E-02 0. -1.
       -1   -1    0    0    0  501  0.00000000000E+00  0.00000000000E+00 -0.14011385729E+04  0.14011385729E+04  0.50400001928E-02 0.  1.
    10030    2    1    2    0    0  0.00000000000E+00  0.00000000000E+00 -0.26283727468E+03  0.25394398710E+04  0.25258011453E+04 0.  0.
        3    1    3    3  502    0 -0.58033143170E+03  0.10259715335E+04 -0.58720493819E+03  0.13168947596E+04  0.10100000352E+00 0.  1.
       -3    1    3    3    0  502  0.58033143170E+03 -0.10259715335E+04  0.32436766351E+03  0.12225451115E+04  0.10100000352E+00 0. -1.
</event>
<event>
 5   0  0.4995256E-05  0.2587296E+04  0.7818609E-02  0.8372529E-01
       -2   -1    0    0    0  501  0.00000000000E+00  0.00000000000E+00  0.22300685250E+04  0.22300685250E+04  0.25500000920E-02 0. -1.
        2   -1    0    0  501    0  0.00000000000E+00  0.00000000000E+00 -0.75043638850E+03  0.75043638851E+03  0.25500000920E-02 0.  1.
    10030    2    1    2    0    0  0.00000000000E+00  0.00000000000E+00  0.14796321365E+04  0.29805049135E+04  0.25872955533E+04 0.  0.
        2    1    3    3  502    0 -0.89127741448E+03 -0.45847550082E+03  0.16820102539E+04  0.19579922647E+04  0.25500000920E-02 0. -1.
       -2    1    3    3    0  502  0.89127741448E+03  0.45847550082E+03 -0.20237811746E+03  0.10225126487E+04  0.25500000920E-02 0.  1.
</event>
<event>
 5   0  0.4959347E-05  0.1780911E+04  0.7818609E-02  0.8716517E-01
        2   -1    0    0  501    0  0.00000000000E+00  0.00000000000E+00  0.77590495249E+03  0.77590495249E+03  0.25500000920E-02 0. -1.
       -2   -1    0    0    0  501  0.00000000000E+00  0.00000000000E+00 -0.10219175549E+04  0.10219175549E+04  0.25500000920E-02 0.  1.
    10030    2    1    2    0    0  0.00000000000E+00  0.00000000000E+00 -0.24601260239E+03  0.17978225074E+04  0.17809108814E+04 0.  0.
        3    1    3    3  502    0  0.83811019697E+03 -0.25029247072E+03  0.45418846098E+02  0.87586409045E+03  0.10100000352E+00 0.  1.
       -3    1    3    3    0  502 -0.83811019697E+03  0.25029247072E+03 -0.29143144849E+03  0.92195841692E+03  0.10100000352E+00 0. -1.
</event>
<event>
 5   0  0.2066170E-05  0.2531570E+04  0.7818609E-02  0.8391824E-01
       -1   -1    0    0    0  501  0.00000000000E+00  0.00000000000E+00  0.13273222843E+04  0.13273222843E+04  0.50400001928E-02 0.  1.
        1   -1    0    0  501    0  0.00000000000E+00  0.00000000000E+00 -0.12071004484E+04  0.12071004484E+04  0.50400001928E-02 0. -1.
    10030    2    1    2    0    0  0.00000000000E+00  0.00000000000E+00  0.12022183587E+03  0.25344227328E+04  0.25315697301E+04 0.  0.
        5    1    3    3  502    0  0.10740872724E+04 -0.55279526299E+03 -0.31839341469E+03  0.12492567903E+04  0.46999998093E+01 0. -1.
       -5    1    3    3    0  502 -0.10740872724E+04  0.55279526299E+03  0.43861525056E+03  0.12851659425E+04  0.46999998093E+01 0.  1.
</event>
<event>
 5   0  0.4959042E-05  0.2579592E+04  0.7818609E-02  0.8375166E-01
       -2   -1    0    0    0  501  0.00000000000E+00  0.00000000000E+00  0.10015520849E+04  0.10015520849E+04  0.25500000920E-02 0.  1.
        2   -1    0    0  501    0  0.00000000000E+00  0.00000000000E+00 -0.16609962885E+04  0.16609962885E+04  0.25500000920E-02 0. -1.
    10030    2    1    2    0    0  0.00000000000E+00  0.00000000000E+00 -0.65944420352E+03  0.26625483734E+04  0.25795924452E+04 0.  0.
        4    1    3    3  502    0  0.42097849393E+03  0.39741444111E+01 -0.15880812657E+04  0.16429371277E+04  0.12699999809E+01 0. -1.
       -4    1    3    3    0  502 -0.42097849393E+03 -0.39741444111E+01  0.92863706219E+03  0.10196112457E+04  0.12699999809E+01 0.  1.
</event>
<event>
 5   0  0.4959042E-05  0.2538613E+04  0.7818609E-02  0.8389357E-01
       -2   -1    0    0    0  501  0.00000000000E+00  0.00000000000E+00  0.97484097837E+03  0.97484097837E+03  0.25500000920E-02 0.  1.
        2   -1    0    0  501    0  0.00000000000E+00  0.00000000000E+00 -0.16527198042E+04  0.16527198042E+04  0.25500000920E-02 0. -1.
    10030    2    1    2    0    0  0.00000000000E+00  0.00000000000E+00 -0.67787882583E+03  0.26275607826E+04  0.25386130000E+04 0.  0.
        4    1    3    3  502    0  0.93660607836E+03 -0.76587416018E+03  0.58363111393E+02  0.12112811568E+04  0.12699999809E+01 0.  1.
       -4    1    3    3    0  502 -0.93660607836E+03  0.76587416018E+03 -0.73624193722E+03  0.14162796257E+04  0.12699999809E+01 0. -1.
</event>
<event>
 5   0  0.4995256E-05  0.2460994E+04  0.7818609E-02  0.8417015E-01
       -2   -1    0    0    0  501  0.00000000000E+00  0.00000000000E+00  0.93489914036E+03  0.93489914036E+03  0.25500000920E-02 0. -1.
        2   -1    0    0  501    0  0.00000000000E+00  0.00000000000E+00 -0.16195570004E+04  0.16195570004E+04  0.25500000920E-02 0.  1.
    10030    2    1    2    0    0  0.00000000000E+00  0.00000000000E+00 -0.68465786002E+03  0.25544561407E+04  0.24609936590E+04 0.  0.
        2    1    3    3  502    0 -0.32231123822E+03  0.11629030744E+04 -0.92578608177E+02  0.12102887645E+04  0.25500000920E-02 0. -1.
       -2    1    3    3    0  502  0.32231123822E+03 -0.11629030744E+04 -0.59207925184E+03  0.13441673762E+04  0.25500000920E-02 0.  1.
</event>
<event>
 5   0  0.2066170E-05  0.2553016E+04  0.7818609E-02  0.8384338E-01
        1   -1    0    0  501    0  0.00000000000E+00  0.00000000000E+00  0.13690830789E+04  0.13690830789E+04  0.50400001928E-02 0.  1.
       -1   -1    0    0    0  501  0.00000000000E+00  0.00000000000E+00 -0.11901926540E+04  0.11901926540E+04  0.50400001928E-02 0. -1.
    10030    2    1    2    0    0  0.00000000000E+00  0.00000000000E+00  0.17889042484E+03  0.25592757329E+04  0.25530159602E+04 0.  0.
        5    1    3    3  502    0 -0.31915554515E+03  0.26981870038E+03  0.12985485635E+04  0.13641527975E+04  0.46999998093E+01 0.  1.
       -5    1    3    3    0  502  0.31915554515E+03 -0.26981870038E+03 -0.11196581387E+04  0.11951229354E+04  0.46999998093E+01 0. -1.
</event>
<event>
 5   0  0.4959347E-05  0.2536697E+04  0.7818609E-02  0.8390028E-01
       -2   -1    0    0    0  501  0.00000000000E+00  0.00000000000E+00  0.68899940527E+03  0.68899940528E+03  0.25500000920E-02 0. -1.
        2   -1    0    0  501    0  0.00000000000E+00  0.00000000000E+00 -0.23348462619E+04  0.23348462619E+04  0.25500000920E-02 0.  1.
    10030    2    1    2    0    0  0.00000000000E+00  0.00000000000E+00 -0.16458468567E+04  0.30238456672E+04  0.25366968174E+04 0.  0.
        3    1    3    3  502    0 -0.79406204657E+03 -0.18095159751E+03  0.33613590720E+03  0.88105923340E+03  0.10100000352E+00 0. -1.
       -3    1    3    3    0  502  0.79406204657E+03  0.18095159751E+03 -0.19819827639E+04  0.21427864338E+04  0.10100000352E+00 0.  1.
</event>
<event>
 5   0  0.1692125E-05  0.2461035E+04  0.7818609E-02  0.8417000E-01
       -3   -1    0    0    0  501  0.00000000000E+00  0.00000000000E+00  0.20088941119E+04  0.20088941144E+04  0.10100000352E+00 0. -1.
        3   -1    0    0  501    0  0.00000000000E+00  0.00000000000E+00 -0.75373449754E+03  0.75373450430E+03  0.10100000352E+00 0.  1.
    10030    2    1    2    0    0  0.00000000000E+00  0.00000000000E+00  0.12551596144E+04  0.27626286187E+04  0.24610345848E+04 0.  0.
        3    1    3    3  502    0  0.30399628052E+03 -0.24858806396E+03 -0.68150668382E+03  0.78655014742E+03  0.10100000352E+00 0.  1.
       -3    1    3    3    0  502 -0.30399628052E+03  0.24858806396E+03  0.19366662982E+04  0.19760784713E+04  0.10100000352E+00 0. -1.
</event>
<event>
 5   0  0.2063930E-05  0.2464270E+04  0.7818609E-02  0.8415826E-01
        1   -1    0    0  501    0  0.00000000000E+00  0.00000000000E+00  0.22052687767E+04  0.22052687767E+04  0.50400001928E-02 0.  1.
       -1   -1    0    0    0  501  0.00000000000E+00  0.00000000000E+00 -0.68842261816E+03  0.68842261818E+03  0.50400001928E-02 0. -1.
    10030    2    1    2    0    0  0.00000000000E+00  0.00000000000E+00  0.15168461585E+04  0.28936913949E+04  0.24642702003E+04 0.  0.
        3    1    3    3  502    0  0.11547185004E+03 -0.83389336139E+03 -0.29804787686E+03  0.89305343257E+03  0.10100000352E+00 0. -1.
       -3    1    3    3    0  502 -0.11547185004E+03  0.83389336139E+03  0.18148940354E+04  0.20006379623E+04  0.10100000352E+00 0.  1.
</event>
<event>
 5   0  0.1692125E-05  0.2425804E+04  0.7818609E-02  0.8429906E-01
       -3   -1    0    0    0  501  0.00000000000E+00  0.00000000000E+00  0.12980927475E+04  0.12980927514E+04  0.10100000352E+00 0.  1.
        3   -1    0    0  501    0  0.00000000000E+00  0.00000000000E+00 -0.11333020192E+04  0.11333020237E+04  0.10100000352E+00 0. -1.
    10030    2    1    2    0    0  0.00000000000E+00  0.00000000000E+00  0.16479072833E+03  0.24313947751E+04  0.24258039015E+04 0.  0.
        5    1    3    3  502    0  0.18708819152E+03 -0.60831918051E+03 -0.95248360444E+03  0.11455572109E+04  0.46999998093E+01 0. -1.
       -5    1    3    3    0  502 -0.18708819152E+03  0.60831918051E+03  0.11172743328E+04  0.12858375642E+04  0.46999998093E+01 0.  1.
</event>
<event>
 5   0  0.4959042E-05  0.2578251E+04  0.7818609E-02  0.8375626E-01
        2   -1    0    0  501    0  0.00000000000E+00  0.00000000000E+00  0.19950144138E+04  0.19950144138E+04  0.25500000920E-02 0.  1.
       -2   -1    0    0    0  501  0.00000000000E+00  0.00000000000E+00 -0.83299899921E+03  0.83299899921E+03  0.25500000920E-02 0. -1.
    10030    2    1    2    0    0  0.00000000000E+00  0.00000000000E+00  0.11620154146E+04  0.28280134130E+04  0.25782513532E+04 0.  0.
        4    1    3    3  502    0 -0.18435774763E+02  0.12885311850E+04  0.54315519345E+03  0.13984533133E+04  0.12699999809E+01 0. -1.
       -4    1    3    3    0  502  0.18435774763E+02 -0.12885311850E+04  0.61886022110E+03  0.14295600997E+04  0.12699999809E+01 0.  1.
</event>
<event>
 5   0  0.2041718E-05  0.2438219E+04  0.7818609E-02  0.8425332E-01
       -1   -1    0    0    0  501  0.00000000000E+00  0.00000000000E+00  0.98878868306E+03  0.98878868307E+03  0.50400001928E-02 0.  1.
        1   -1    0    0  501    0  0.00000000000E+00  0.00000000000E+00 -0.15030799639E+04  0.15030799639E+04  0.50400001928E-02 0. -1.
    10030    2    1    2    0    0  0.00000000000E+00  0.00000000000E+00 -0.51429128087E+03  0.24918686470E+04  0.24382193979E+04 0.  0.
        4    1    3    3  502    0 -0.15320017295E+03 -0.11236739766E+04  0.20003769436E+03  0.11515772621E+04  0.12699999809E+01 0.  1.
       -4    1    3    3    0  502  0.15320017295E+03  0.11236739766E+04 -0.71432897523E+03  0.13402913849E+04  0.12699999809E+01 0. -1.
</event>
<event>
 5   0  0.2063930E-05  0.1963653E+04  0.7818609E-02  0.8623805E-01
        1   -1    0    0  501    0  0.00000000000E+00  0.00000000000E+00  0.15113372098E+04  0.15113372098E+04  0.50400001928E-02 0.  1.
       -1   -1    0    0    0  501  0.00000000000E+00  0.00000000000E+00 -0.63783474235E+03  0.63783474237E+03  0.50400001928E-02 0. -1.
    10030    2    1    2    0    0  0.00000000000E+00  0.00000000000E+00  0.87350246748E+03  0.21491719522E+04  0.19636531057E+04 0.  0.
        3    1    3    3  502    0  0.34220201768E+03  0.27050268215E+03 -0.52595846122E+03  0.68330537469E+03  0.10100000352E+00 0. -1.
       -3    1    3    3    0  502 -0.34220201768E+03 -0.27050268215E+03  0.13994609287E+04  0.14658665775E+04  0.10100000352E+00 0.  1.
</event>
<event>
 5   0  0.4995256E-05  0.2499696E+04  0.7818609E-02  0.8403094E-01
       -2   -1    0    0    0  501  0.00000000000E+00  0.00000000000E+00  0.84776651186E+03  0.84776651186E+03  0.25500000920E-02 0. -1.
        2   -1    0    0  501    0  0.00000000000E+00  0.00000000000E+00 -0.18426303084E+04  0.18426303084E+04  0.25500000920E-02 0.  1.
    10030    2    1    2    0    0  0.00000000000E+00  0.00000000000E+00 -0.99486379657E+03  0.26903968203E+04  0.24996961969E+04 0.  0.
        2    1    3    3  502    0 -0.68391758296E+03 -0.92603320241E+03 -0.10212206827E+04  0.15388867519E+04  0.25500000920E-02 0.  1.
       -2    1    3    3    0  502  0.68391758296E+03  0.92603320241E+03  0.26356886128E+02  0.11515100684E+04  0.25500000920E-02 0. -1.
</event>
<event>
 5   0  0.2063930E-05  0.2475571E+04  0.7818609E-02  0.8411740E-01
       -1   -1    0    0    0  501  0.00000000000E+00  0.00000000000E+00  0.10459742366E+04  0.10459742366E+04  0.50400001928E-02 0. -1.
        1   -1    0    0  501    0  0.00000000000E+00  0.00000000000E+00 -0.14647713718E+04  0.14647713718E+04  0.50400001928E-02 0.  1.
    10030    2    1    2    0    0  0.00000000000E+00  0.00000000000E+00 -0.41879713522E+03  0.25107456084E+04  0.24755711401E+04 0.  0.
        3    1    3    3  502    0  0.50414202643E+03  0.10782394771E+04  0.13506460006E+03  0.11979156937E+04  0.10100000352E+00 0. -1.
       -3    1    3    3    0  502 -0.50414202643E+03 -0.10782394771E+04 -0.55386173527E+03  0.13128299147E+04  0.10100000352E+00 0.  1.
</event>
<event>
 5   0  0.4959042E-05  0.2499973E+04  0.7818609E-02  0.8402995E-01
        2   -1    0    0  501    0  0.00000000000E+00  0.00000000000E+00  0.17686124322E+04  0.17686124322E+04  0.25500000920E-02 0. -1.
       -2   -1    0    0    0  501  0.00000000000E+00  0.00000000000E+00 -0.88344191267E+03  0.88344191267E+03  0.25500000920E-02 0.  1.
    10030    2    1    2    0    0  0.00000000000E+00  0.00000000000E+00  0.88517051955E+03  0.26520543449E+04  0.24999730798E+04 0.  0.
        4    1    3    3  502    0 -0.72762732772E+03 -0.84159709362E+03 -0.16193844602E+03  0.11242565851E+04  0.12699999809E+01 0.  1.
       -4    1    3    3    0  502  0.72762732772E+03  0.84159709362E+03  0.10471089656E+04  0.15277977598E+04  0.12699999809E+01 0. -1.
</event>
<event>
 5   0  0.5219468E-05  0.2451662E+04  0.7818609E-02  0.8420411E-01
        2   -1    0    0  501    0  0.00000000000E+00  0.00000000000E+00  0.14947690641E+04  0.14947690642E+04  0.25500000920E-02 0. -1.
       -2   -1    0    0    0  501  0.00000000000E+00  0.00000000000E+00 -0.10052804304E+04  0.10052804305E+04  0.25500000920E-02 0.  1.
    10030    2    1    2    0    0  0.00000000000E+00  0.00000000000E+00  0.48948863370E+03  0.25000494946E+04  0.24516623652E+04 0.  0.
        1    1    3    3  502    0  0.52436443133E+03  0.75434401190E+03  0.10723464578E+04  0.14120622758E+04  0.50400001928E-02 0. -1.
       -1    1    3    3    0  502 -0.52436443133E+03 -0.75434401190E+03 -0.58285782410E+03  0.10879872188E+04  0.50400001928E-02 0.  1.
</event>
<event>
 5   0  0.4959347E-05  0.2468739E+04  0.7818609E-02  0.8414208E-01
        2   -1    0    0  501    0  0.00000000000E+00  0.00000000000E+00  0.15691054698E+04  0.15691054698E+04  0.25500000920E-02 0. -1.
       -2   -1    0    0    0  501  0.00000000000E+00  0.00000000000E+00 -0.97104257309E+03  0.97104257309E+03  0.25500000920E-02 0.  1.
    10030    2    1    2    0    0  0.00000000000E+00  0.00000000000E+00  0.59806289668E+03  0.25401480429E+04  0.24687391218E+04 0.  0.
        3    1    3    3  502    0  0.12080755422E+04  0.25222652151E+03  0.27375527996E+03  0.12641228964E+04  0.10100000352E+00 0. -1.
       -3    1    3    3    0  502 -0.12080755422E+04 -0.25222652151E+03  0.32430761672E+03  0.12760251464E+04  0.10100000352E+00 0.  1.
</event>
<event>
 5   0  0.4959347E-05  0.2580244E+04  0.7818609E-02  0.8374943E-01
        2   -1    0    0  501    0  0.00000000000E+00  0.00000000000E+00  0.12453086225E+04  0.12453086225E+04  0.25500000920E-02 0.  1.
       -2   -1    0    0    0  501  0.00000000000E+00  0.00000000000E+00 -0.13365478489E+04  0.13365478490E+04  0.25500000920E-02 0. -1.
    10030    2    1    2    0    0  0.00000000000E+00  0.00000000000E+00 -0.91239226457E+02  0.25818564714E+04  0.25802438340E+04 0.  0.
        3    1    3    3  502    0  0.57943987344E+03 -0.19027746399E+03 -0.11831935815E+04  0.13311285219E+04  0.10100000352E+00 0. -1.
       -3    1    3    3    0  502 -0.57943987344E+03  0.19027746399E+03  0.10919543550E+04  0.12507279496E+04  0.10100000352E+00 0.  1.
</event>
<event>
 5   0  0.5024070E-05  0.2520746E+04  0.7818609E-02  0.8395632E-01
        2   -1    0    0  501    0  0.00000000000E+00  0.00000000000E+00  0.25445522897E+04  0.25445522897E+04  0.25500000920E-02 0.  1.
       -2   -1    0    0    0  501  0.00000000000E+00  0.00000000000E+00 -0.62429054345E+03  0.62429054346E+03  0.25500000920E-02 0. -1.
    10030    2    1    2    0    0  0.00000000000E+00  0.00000000000E+00  0.19202617462E+04  0.31688428331E+04  0.25207458672E+04 0.  0.
        5    1    3    3  502    0  0.64116448968E+03  0.10199854036E+04  0.14255242638E+04  0.18664414385E+04  0.46999998093E+01 0.  1.
       -5    1    3    3    0  502 -0.64116448968E+03 -0.10199854036E+04  0.49473748238E+03  0.13024013947E+04  0.46999998093E+01 0. -1.
</event>
<event>
 5   0  0.2063930E-05  0.2526039E+04  0.7818609E-02  0.8393767E-01
       -1   -1    0    0    0  501  0.00000000000E+00  0.00000000000E+00  0.90688576422E+03  0.90688576424E+03  0.50400001928E-02 0. -1.
        1   -1    0    0  501    0  0.00000000000E+00  0.00000000000E+00 -0.17590062917E+04  0.17590062917E+04  0.50400001928E-02 0.  1.
    10030    2    1    2    0    0  0.00000000000E+00  0.00000000000E+00 -0.85212052750E+03  0.26658920560E+04  0.25260386103E+04 0.  0.
        3    1    3    3  502    0 -0.26386073756E+03 -0.74927905711E+03 -0.14623489834E+04  0.16641833294E+04  0.10100000352E+00 0.  1.
       -3    1    3    3    0  502  0.26386073756E+03  0.74927905711E+03  0.61022845594E+03  0.10017087266E+04  0.10100000352E+00 0. -1.
</event>
<event>
 5   0  0.2041718E-05  0.2520815E+04  0.7818609E-02  0.8395608E-01
       -1   -1    0    0    0  501  0.00000000000E+00  0.00000000000E+00  0.89405228207E+03  0.89405228209E+03  0.50400001928E-02 0. -1.
        1   -1    0    0  501    0  0.00000000000E+00  0.00000000000E+00 -0.17768831507E+04  0.17768831507E+04  0.50400001928E-02 0.  1.
    10030    2    1    2    0    0  0.00000000000E+00  0.00000000000E+00 -0.88283086864E+03  0.26709354328E+04  0.25208145000E+04 0.  0.
        4    1    3    3  502    0 -0.94127373792E+03 -0.13763364551E+03  0.43467855883E+03  0.10458902105E+04  0.12699999809E+01 0. -1.
       -4    1    3    3    0  502  0.94127373792E+03  0.13763364551E+03 -0.13175094275E+04  0.16250452223E+04  0.12699999809E+01 0.  1.
</event>
<event>
 5   0  0.4959042E-05  0.2380161E+04  0.7818609E-02  0.8446969E-01
       -2   -1    0    0    0  501  0.00000000000E+00  0.00000000000E+00  0.13017061427E+04  0.13017061427E+04  0.25500000920E-02 0.  1.
        2   -1    0    0  501    0  0.00000000000E+00  0.00000000000E+00 -0.10880271529E+04  0.10880271529E+04  0.25500000920E-02 0. -1.
    10030    2    1    2    0    0  0.00000000000E+00  0.00000000000E+00  0.21367898981E+03  0.23897332956E+04  0.23801610268E+04 0.  0.
        4    1    3    3  502    0 -0.15151125774E+02 -0.23501421273E+02 -0.10876966097E+04  0.10880567086E+04  0.12699999809E+01 0. -1.
       -4    1    3    3    0  502  0.15151125774E+02  0.23501421273E+02  0.13013755995E+04  0.13016765871E+04  0.12699999809E+01 0.  1.
</event>
<event>
 5   0  0.2063930E-05  0.2489605E+04  0.7818609E-02  0.8406698E-01
       -1   -1    0    0    0  501  0.00000000000E+00  0.00000000000E+00  0.85311674405E+03  0.85311674407E+03  0.50400001928E-02 0. -1.
        1   -1    0    0  501    0  0.00000000000E+00  0.00000000000E+00 -0.18163205248E+04  0.18163205248E+04  0.50400001928E-02 0.  1.
    10030    2    1    2    0    0  0.00000000000E+00  0.00000000000E+00 -0.96320378076E+03  0.26694372689E+04  0.24896051513E+04 0.  0.
        3    1    3    3  502    0  0.70905467506E+03  0.10229460274E+04 -0.46136151796E+03  0.13274153711E+04  0.10100000352E+00 0.  1.
       -3    1    3    3    0  502 -0.70905467506E+03 -0.10229460274E+04 -0.50184226281E+03  0.13420218977E+04  0.10100000352E+00 0. -1.
</event>
<event>
 5   0  0.2036578E-05  0.1680825E+04  0.7818609E-02  0.8772377E-01
       -1   -1    0    0    0  501  0.00000000000E+00  0.00000000000E+00  0.43803494025E+03  0.43803494027E+03  0.50400001928E-02 0.  1.
        1   -1    0    0  501    0  0.00000000000E+00  0.00000000000E+00 -0.16124125061E+04  0.16124125061E+04  0.50400001928E-02 0. -1.
    10030    2    1    2    0    0  0.00000000000E+00  0.00000000000E+00 -0.11743775659E+04  0.20504474464E+04  0.16808248163E+04 0.  0.
        2    1    3    3  502    0  0.67613959746E+03 -0.19686485533E+03 -0.11467152880E+04  0.13456881058E+04  0.25500000920E-02 0. -1.
       -2    1    3    3    0  502 -0.67613959746E+03  0.19686485533E+03 -0.27662277924E+02  0.70475934058E+03  0.25500000920E-02 0.  1.
</event>
<event>
 5   0  0.2066170E-05  0.2480132E+04  0.7818609E-02  0.8410098E-01
        1   -1    0    0  501    0  0.00000000000E+00  0.00000000000E+00  0.13986411870E+04  0.13986411870E+04  0.50400001928E-02 0. -1.
       -1   -1    0    0    0  501  0.00000000000E+00  0.00000000000E+00 -0.10994694212E+04  0.10994694212E+04  0.50400001928E-02 0.  1.
    10030    2    1    2    0    0  0.00000000000E+00  0.00000000000E+00  0.29917176586E+03  0.24981106082E+04  0.24801316226E+04 0.  0.
        5    1    3    3  502    0 -0.35829543741E+03  0.11852127574E+04  0.81002451732E+02  0.12408418062E+04  0.46999998093E+01 0.  1.
       -5    1    3    3    0  502  0.35829543741E+03 -0.11852127574E+04  0.21816931413E+03  0.12572688020E+04  0.46999998093E+01 0. -1.
</event>
<event>
 5   0  0.2063930E-05  0.2309032E+04  0.7818609E-02  0.8474368E-01
       -1   -1    0    0    0  501  0.00000000000E+00  0.00000000000E+00  0.16919966071E+04  0.16919966071E+04  0.50400001928E-02 0.  1.
        1   -1    0    0  501    0  0.00000000000E+00  0.00000000000E+00 -0.78777168882E+03  0.78777168884E+03  0.50400001928E-02 0. -1.
    10030    2    1    2    0    0  0.00000000000E+00  0.00000000000E+00  0.90422491825E+03  0.24797682959E+04  0.23090318531E+04 0.  0.
        3    1    3    3  502    0 -0.50934263593E+01 -0.19736932802E+03  0.16737319955E+04  0.16853365829E+04  0.10100000352E+00 0.  1.
       -3    1    3    3    0  502  0.50934263593E+01  0.19736932802E+03 -0.76950707722E+03  0.79443171307E+03  0.10100000352E+00 0. -1.
</event>
<event>
 5   0  0.2066170E-05  0.2396121E+04  0.7818609E-02  0.8440957E-01
       -1   -1    0    0    0  501  0.00000000000E+00  0.00000000000E+00  0.56320409436E+03  0.56320409438E+03  0.50400001928E-02 0.  1.
        1   -1    0    0  501    0  0.00000000000E+00  0.00000000000E+00 -0.25485418460E+04  0.25485418460E+04  0.50400001928E-02 0. -1.
    10030    2    1    2    0    0  0.00000000000E+00  0.00000000000E+00 -0.19853377517E+04  0.31117459404E+04  0.23961212009E+04 0.  0.
        5    1    3    3  502    0  0.76491141854E+03  0.14494944599E+03 -0.21752532700E+04  0.23103784752E+04  0.46999998093E+01 0. -1.
       -5    1    3    3    0  502 -0.76491141854E+03 -0.14494944599E+03  0.18991551836E+03  0.80136746517E+03  0.46999998093E+01 0.  1.
</event>
<event>
 5   0  0.2036578E-05  0.2528004E+04  0.7818609E-02  0.8393076E-01
       -1   -1    0    0    0  501  0.00000000000E+00  0.00000000000E+00  0.13219758981E+04  0.13219758981E+04  0.50400001928E-02 0.  1.
        1   -1    0    0  501    0  0.00000000000E+00  0.00000000000E+00 -0.12085707691E+04  0.12085707691E+04  0.50400001928E-02 0. -1.
    10030    2    1    2    0    0  0.00000000000E+00  0.00000000000E+00  0.11340512902E+03  0.25305466672E+04  0.25280042942E+04 0.  0.
        2    1    3    3  502    0  0.43583424297E+03  0.49274044304E+03  0.11371196742E+04  0.13136916628E+04  0.25500000920E-02 0.  1.
       -2    1    3    3    0  502 -0.43583424297E+03 -0.49274044304E+03 -0.10237145452E+04  0.12168550043E+04  0.25500000920E-02 0. -1.
</event>
<event>
 5   0  0.2036578E-05  0.2463980E+04  0.7818609E-02  0.8415931E-01
        1   -1    0    0  501    0  0.00000000000E+00  0.00000000000E+00  0.14486580181E+04  0.14486580181E+04  0.50400001928E-02 0.  1.
       -1   -1    0    0    0  501  0.00000000000E+00  0.00000000000E+00 -0.10477278248E+04  0.10477278248E+04  0.50400001928E-02 0. -1.
    10030    2    1    2    0    0  0.00000000000E+00  0.00000000000E+00  0.40093019327E+03  0.24963858430E+04  0.24639799628E+04 0.  0.
        2    1    3    3  502    0  0.48065894483E+03 -0.36055533229E+03 -0.88921074884E+03  0.10731863420E+04  0.25500000920E-02 0. -1.
       -2    1    3    3    0  502 -0.48065894483E+03  0.36055533229E+03  0.12901409421E+04  0.14231995009E+04  0.25500000920E-02 0.  1.
</event>
<event>
 5   0  0.5024070E-05  0.2486098E+04  0.7818609E-02  0.8407955E-01
        2   -1    0    0  501    0  0.00000000000E+00  0.00000000000E+00  0.20171947307E+04  0.20171947307E+04  0.25500000920E-02 0. -1.
       -2   -1    0    0    0  501  0.00000000000E+00  0.00000000000E+00 -0.76599967513E+03  0.76599967513E+03  0.25500000920E-02 0.  1.
    10030    2    1    2    0    0  0.00000000000E+00  0.00000000000E+00  0.12511950556E+04  0.27831944059E+04  0.24860977522E+04 0.  0.
        5    1    3    3  502    0  0.65875296605E+03  0.50286038862E+03 -0.41157514506E+03  0.92533249740E+03  0.46999998093E+01 0.  1.
       -5    1    3    3    0  502 -0.65875296605E+03 -0.50286038862E+03  0.16627702007E+04  0.18578619085E+04  0.46999998093E+01 0. -1.
</event>
<event>
 5   0  0.2063930E-05  0.2518868E+04  0.7818609E-02  0.8396294E-01
        1   -1    0    0  501    0  0.00000000000E+00  0.00000000000E+00  0.59239971138E+03  0.59239971140E+03  0.50400001928E-02 0. -1.
       -1   -1    0    0    0  501  0.00000000000E+00  0.00000000000E+00 -0.26775409390E+04  0.26775409390E+04  0.50400001928E-02 0.  1.
    10030    2    1    2    0    0  0.00000000000E+00  0.00000000000E+00 -0.20851412276E+04  0.32699406504E+04  0.25188683805E+04 0.  0.
        3    1    3    3  502    0 -0.23786798754E+03  0.60619716155E+03  0.35688640287E+03  0.74257935126E+03  0.10100000352E+00 0. -1.
       -3    1    3    3    0  502  0.23786798754E+03 -0.60619716155E+03 -0.24420276305E+04  0.25273612992E+04  0.10100000352E+00 0.  1.
</event>
<event>
 5   0  0.5024070E-05  0.2516297E+04  0.7818609E-02  0.8397203E-01
        2   -1    0    0  501    0  0.00000000000E+00  0.00000000000E+00  0.13293858538E+04  0.13293858538E+04  0.25500000920E-02 0. -1.
       -2   -1    0    0    0  501  0.00000000000E+00  0.00000000000E+00 -0.11907284621E+04  0.11907284621E+04  0.25500000920E-02 0.  1.
    10030    2    1    2    0    0  0.00000000000E+00  0.00000000000E+00  0.13865739167E+03  0.25201143159E+04  0.25162969406E+04 0.  0.
        5    1    3    3  502    0  0.10411065704E+04  0.49382332239E+03  0.57521985547E+03  0.12878914305E+04  0.46999998093E+01 0. -1.
       -5    1    3    3    0  502 -0.10411065704E+04 -0.49382332239E+03 -0.43656246381E+03  0.12322228854E+04  0.46999998093E+01 0.  1.
</event>
<event>
 5   0  0.2063930E-05  0.2522210E+04  0.7818609E-02  0.8395116E-01
       -1   -1    0    0    0  501  0.00000000000E+00  0.00000000000E+00  0.12555886163E+04  0.12555886163E+04  0.50400001928E-02 0. -1.
        1   -1    0    0  501    0  0.00000000000E+00  0.00000000000E+00 -0.12666453314E+04  0.12666453314E+04  0.50400001928E-02 0.  1.
    10030    2    1    2    0    0  0.00000000000E+00  0.00000000000E+00 -0.11056715112E+02  0.25222339477E+04  0.25222097129E+04 0.  0.
        3    1    3    3  502    0  0.10878937273E+04  0.52319136830E+03 -0.37042017386E+03  0.12627165498E+04  0.10100000352E+00 0.  1.
       -3    1    3    3    0  502 -0.10878937273E+04 -0.52319136830E+03  0.35936345875E+03  0.12595173978E+04  0.10100000352E+00 0. -1.
</event>
<event>
 5   0  0.4959042E-05  0.2581463E+04  0.7818609E-02  0.8374525E-01
       -2   -1    0    0    0  501  0.00000000000E+00  0.00000000000E+00  0.61653864271E+03  0.61653864272E+03  0.25500000920E-02 0.  1.
        2   -1    0    0  501    0  0.00000000000E+00  0.00000000000E+00 -0.27021626416E+04  0.27021626416E+04  0.25500000920E-02 0. -1.
    10030    2    1    2    0    0  0.00000000000E+00  0.00000000000E+00 -0.20856239989E+04  0.33187012843E+04  0.25814629088E+04 0.  0.
        4    1    3    3  502    0 -0.12589639075E+03 -0.97986945808E+03 -0.21106965600E+04  0.23304582462E+04  0.12699999809E+01 0. -1.
       -4    1    3    3    0  502  0.12589639075E+03  0.97986945808E+03  0.25072561131E+02  0.98824303808E+03  0.12699999809E+01 0.  1.
</event>
<event>
 5   0  0.2041718E-05  0.2429748E+04  0.7818609E-02  0.8428450E-01
        1   -1    0    0  501    0  0.00000000000E+00  0.00000000000E+00  0.13986331324E+04  0.13986331324E+04  0.50400001928E-02 0.  1.
       -1   -1    0    0    0  501  0.00000000000E+00  0.00000000000E+00 -0.10552576759E+04  0.10552576759E+04  0.50400001928E-02 0. -1.
    10030    2    1    2    0    0  0.00000000000E+00  0.00000000000E+00  0.34337545655E+03  0.24538908083E+04  0.24297475990E+04 0.  0.
        4    1    3    3  502    0 -0.58317059070E+03  0.27831160910E+03  0.12106819433E+04  0.13723329299E+04  0.12699999809E+01 0.  1.
       -4    1    3    3    0  502  0.58317059070E+03 -0.27831160910E+03 -0.86730648675E+03  0.10815578785E+04  0.12699999809E+01 0. -1.
</event>
<event>
 5   0  0.4959042E-05  0.2446735E+04  0.7818609E-02  0.8422211E-01
       -2   -1    0    0    0  501  0.00000000000E+00  0.00000000000E+00  0.90453340560E+03  0.90453340560E+03  0.25500000920E-02 0. -1.
        2   -1    0    0  501    0  0.00000000000E+00  0.00000000000E+00 -0.16545853205E+04  0.16545853205E+04  0.25500000920E-02 0.  1.
    10030    2    1    2    0    0  0.00000000000E+00  0.00000000000E+00 -0.75005191492E+03  0.25591187261E+04  0.24467347178E+04 0.  0.
        4    1    3    3  502    0 -0.10753290155E+04 -0.50108361097E+03 -0.68742335800E+03  0.13711198937E+04  0.12699999809E+01 0.  1.
       -4    1    3    3    0  502  0.10753290155E+04  0.50108361097E+03 -0.62628556919E+02  0.11879988324E+04  0.12699999809E+01 0. -1.
</event>
<event>
 5   0  0.4995256E-05  0.2527243E+04  0.7818609E-02  0.8393344E-01
       -2   -1    0    0    0  501  0.00000000000E+00  0.00000000000E+00  0.10553636576E+04  0.10553636576E+04  0.25500000920E-02 0. -1.
        2   -1    0    0  501    0  0.00000000000E+00  0.00000000000E+00 -0.15129756336E+04  0.15129756336E+04  0.25500000920E-02 0.  1.
    10030    2    1    2    0    0  0.00000000000E+00  0.00000000000E+00 -0.45761197597E+03  0.25683392912E+04  0.25272431609E+04 0.  0.
        2    1    3    3  502    0 -0.12912016459E+03 -0.55795687185E+03  0.91589924756E+03  0.10802126270E+04  0.25500000920E-02 0. -1.
       -2    1    3    3    0  502  0.12912016459E+03  0.55795687185E+03 -0.13735112235E+04  0.14881266643E+04  0.25500000920E-02 0.  1.
</event>
<event>
 5   0  0.2081874E-05  0.2559919E+04  0.7818609E-02  0.8381945E-01
        1   -1    0    0  501    0  0.00000000000E+00  0.00000000000E+00  0.16424134956E+04  0.16424134956E+04  0.50400001928E-02 0. -1.
       -1   -1    0    0    0  501  0.00000000000E+00  0.00000000000E+00 -0.99749322084E+03  0.99749322085E+03  0.50400001928E-02 0.  1.
    10030    2    1    2    0    0  0.00000000000E+00  0.00000000000E+00  0.64492027479E+03  0.26399067165E+04  0.25599190047E+04 0.  0.
        1    1    3    3  502    0 -0.12185839264E+03  0.75791236040E+03 -0.73375734909E+03  0.10619230016E+04  0.50400001928E-02 0.  1.
       -1    1    3    3    0  502  0.12185839264E+03 -0.75791236040E+03  0.13786776239E+04  0.15779837149E+04  0.50400001928E-02 0. -1.
</event>
<event>
 5   0  0.1692125E-05  0.2457963E+04  0.7818609E-02  0.8418116E-01
       -3   -1    0    0    0  501  0.00000000000E+00  0.00000000000E+00  0.18591942294E+04  0.18591942322E+04  0.10100000352E+00 0.  1.
        3   -1    0    0  501    0  0.00000000000E+00  0.00000000000E+00 -0.81239239918E+03  0.81239240546E+03  0.10100000352E+00 0. -1.
    10030    2    1    2    0    0  0.00000000000E+00  0.00000000000E+00  0.10468018302E+04  0.26715866376E+04  0.24579627927E+04 0.  0.
        5    1    3    3  502    0 -0.19925021892E+02 -0.11950198145E+04  0.83446225233E+03  0.14576757884E+04  0.46999998093E+01 0.  1.
       -5    1    3    3    0  502  0.19925021892E+02  0.11950198145E+04  0.21233957790E+03  0.12139108492E+04  0.46999998093E+01 0. -1.
</event>
<event>
 5   0  0.2081874E-05  0.2500820E+04  0.7818609E-02  0.8402693E-01
       -1   -1    0    0    0  501  0.00000000000E+00  0.00000000000E+00  0.82807882696E+03  0.82807882698E+03  0.50400001928E-02 0. -1.
        1   -1    0    0  501    0  0.00000000000E+00  0.00000000000E+00 -0.18881360755E+04  0.18881360755E+04  0.50400001928E-02 0.  1.
    10030    2    1    2    0    0  0.00000000000E+00  0.00000000000E+00 -0.10600572485E+04  0.27162149024E+04  0.25008202707E+04 0.  0.
        1    1    3    3  502    0 -0.68919053107E+03 -0.33911678957E+03  0.54163608862E+03  0.93986884064E+03  0.50400001928E-02 0. -1.
       -1    1    3    3    0  502  0.68919053107E+03  0.33911678957E+03 -0.16016933371E+04  0.17763460618E+04  0.50400001928E-02 0.  1.
</event>
<event>
 5   0  0.5024070E-05  0.2507088E+04  0.7818609E-02  0.8400465E-01
        2   -1    0    0  501    0  0.00000000000E+00  0.00000000000E+00  0.17498415010E+04  0.17498415010E+04  0.25500000920E-02 0.  1.
       -2   -1    0    0    0  501  0.00000000000E+00  0.00000000000E+00 -0.89800856396E+03  0.89800856396E+03  0.25500000920E-02 0. -1.
    10030    2    1    2    0    0  0.00000000000E+00  0.00000000000E+00  0.85183293703E+03  0.26478500649E+04  0.25070880746E+04 0.  0.
        5    1    3    3  502    0  0.91232246076E+03 -0.57730803858E+03  0.10986519743E+04  0.15403490171E+04  0.46999998093E+01 0.  1.
       -5    1    3    3    0  502 -0.91232246076E+03  0.57730803858E+03 -0.24681903729E+03  0.11075010478E+04  0.46999998093E+01 0. -1.
</event>
<event>
 5   0  0.4959347E-05  0.2403978E+04  0.7818609E-02  0.8438016E-01
       -2   -1    0    0    0  501  0.00000000000E+00  0.00000000000E+00  0.61671832575E+03  0.61671832575E+03  0.25500000920E-02 0.  1.
        2   -1    0    0  501    0  0.00000000000E+00  0.00000000000E+00 -0.23426866625E+04  0.23426866625E+04  0.25500000920E-02 0. -1.
    10030    2    1    2    0    0  0.00000000000E+00  0.00000000000E+00 -0.17259683368E+04  0.29594049883E+04  0.24039781998E+04 0.  0.
        3    1    3    3  502    0  0.29974413851E+03 -0.44454865518E+03 -0.21873205306E+04  0.22520748587E+04  0.10100000352E+00 0. -1.
       -3    1    3    3    0  502 -0.29974413851E+03  0.44454865518E+03  0.46135219377E+03  0.70733012963E+03  0.10100000352E+00 0.  1.
</event>
<event>
 5   0  0.5024070E-05  0.2513479E+04  0.7818609E-02  0.8398199E-01
        2   -1    0    0  501    0  0.00000000000E+00  0.00000000000E+00  0.93813337026E+03  0.93813337026E+03  0.25500000920E-02 0. -1.
       -2   -1    0    0    0  501  0.00000000000E+00  0.00000000000E+00 -0.16835492401E+04  0.16835492401E+04  0.25500000920E-02 0.  1.
    10030    2    1    2    0    0  0.00000000000E+00  0.00000000000E+00 -0.74541586988E+03  0.26216826104E+04  0.25134786434E+04 0.  0.
        5    1    3    3  502    0  0.10245973054E+04  0.51958980549E+03  0.15873415036E+03  0.11597378258E+04  0.46999998093E+01 0. -1.
       -5    1    3    3    0  502 -0.10245973054E+04 -0.51958980549E+03 -0.90415002024E+03  0.14619447846E+04  0.46999998093E+01 0.  1.
</event>
<event>
 5   0  0.2036578E-05  0.2506196E+04  0.7818609E-02  0.8400782E-01
        1   -1    0    0  501    0  0.00000000000E+00  0.00000000000E+00  0.15671988476E+04  0.15671988476E+04  0.50400001928E-02 0. -1.
       -1   -1    0    0    0  501  0.00000000000E+00  0.00000000000E+00 -0.10019496589E+04  0.10019496589E+04  0.50400001928E-02 0.  1.
    10030    2    1    2    0    0  0.00000000000E+00  0.00000000000E+00  0.56524918867E+03  0.25691485065E+04  0.25061958031E+04 0.  0.
        2    1    3    3  502    0  0.65456115192E+03  0.88099469246E+03 -0.33725654885E+03  0.11481915909E+04  0.25500000920E-02 0. -1.
       -2    1    3    3    0  502 -0.65456115192E+03 -0.88099469246E+03  0.90250573752E+03  0.14209569156E+04  0.25500000920E-02 0.  1.
</event>
<event>
 5   0  0.4959042E-05  0.2516770E+04  0.7818609E-02  0.8397036E-01
       -2   -1    0    0    0  501  0.00000000000E+00  0.00000000000E+00  0.64338918557E+03  0.64338918557E+03  0.25500000920E-02 0.  1.
        2   -1    0    0  501    0  0.00000000000E+00  0.00000000000E+00 -0.24612356939E+04  0.24612356939E+04  0.25500000920E-02 0. -1.
    10030    2    1    2    0    0  0.00000000000E+00  0.00000000000E+00 -0.18178465083E+04  0.31046248794E+04  0.25167696983E+04 0.  0.
        4    1    3    3  502    0  0.11767885713E+04  0.35346262892E+03 -0.57389083048E+03  0.13561413900E+04  0.12699999809E+01 0.  1.
       -4    1    3    3    0  502 -0.11767885713E+04 -0.35346262892E+03 -0.12439556778E+04  0.17484834894E+04  0.12699999809E+01 0. -1.
</event>
<event>
 5   0  0.2063930E-05  0.2592636E+04  0.7818609E-02  0.8370707E-01
       -1   -1    0    0    0  501  0.00000000000E+00  0.00000000000E+00  0.73661051931E+03  0.73661051933E+03  0.50400001928E-02 0. -1.
        1   -1    0    0  501    0  0.00000000000E+00  0.00000000000E+00 -0.22813149623E+04  0.22813149623E+04  0.50400001928E-02 0.  1.
    10030    2    1    2    0    0  0.00000000000E+00  0.00000000000E+00 -0.15447044429E+04  0.30179254816E+04  0.25926361867E+04 0.  0.
        3    1    3    3  502    0  0.84039411597E+03  0.58688171506E+03 -0.16960935852E+04  0.19817734173E+04  0.10100000352E+00 0.  1.
       -3    1    3    3    0  502 -0.84039411597E+03 -0.58688171506E+03  0.15138914229E+03  0.10361520642E+04  0.10100000352E+00 0. -1.
</event>
<event>
 5   0  0.4959347E-05  0.2408062E+04  0.7818609E-02  0.8436491E-01
        2   -1    0    0  501    0  0.00000000000E+00  0.00000000000E+00  0.12976175056E+04  0.12976175056E+04  0.25500000920E-02 0. -1.
       -2   -1    0    0    0  501  0.00000000000E+00  0.00000000000E+00 -0.11171944891E+04  0.11171944891E+04  0.25500000920E-02 0.  1.
    10030    2    1    2    0    0  0.00000000000E+00  0.00000000000E+00  0.18042301650E+03  0.24148119946E+04  0.24080623963E+04 0.  0.
        3    1    3    3  502    0 -0.19049699733E+03 -0.13858979239E+03 -0.10938583617E+04  0.11189380511E+04  0.10100000352E+00 0.  1.
       -3    1    3    3    0  502  0.19049699733E+03  0.13858979239E+03  0.12742813782E+04  0.12958739435E+04  0.10100000352E+00 0. -1.
</event>
<event>
 5   0  0.2081874E-05  0.2340463E+04  0.7818609E-02  0.8462136E-01
        1   -1    0    0  501    0  0.00000000000E+00  0.00000000000E+00  0.12976652667E+04  0.12976652667E+04  0.50400001928E-02 0. -1.
       -1   -1    0    0    0  501  0.00000000000E+00  0.00000000000E+00 -0.10553118398E+04  0.10553118398E+04  0.50400001928E-02 0.  1.
    10030    2    1    2    0    0  0.00000000000E+00  0.00000000000E+00  0.24235342689E+03  0.23529771065E+04  0.23404627919E+04 0.  0.
        1    1    3    3  502    0 -0.61725947764E+03 -0.72172163003E+03 -0.56625578398E+03  0.11056839453E+04  0.50400001928E-02 0.  1.
       -1    1    3    3    0  502  0.61725947764E+03  0.72172163003E+03  0.80860921086E+03  0.12472931612E+04  0.50400001928E-02 0. -1.
</event>
<event>
 5   0  0.5024070E-05  0.1647531E+04  0.7818609E-02  0.8791868E-01
       -2   -1    0    0    0  501  0.00000000000E+00  0.00000000000E+00  0.33715039945E+03  0.33715039946E+03  0.25500000920E-02 0. -1.
        2   -1    0    0  501    0  0.00000000000E+00  0.00000000000E+00 -0.20127214088E+04  0.20127214088E+04  0.25500000920E-02 0.  1.
    10030    2    1    2    0    0  0.00000000000E+00  0.00000000000E+00 -0.16755710093E+04  0.23498718083E+04  0.16475312768E+04 0.  0.
        5    1    3    3  502    0 -0.71988234177E+02 -0.79823118252E+03 -0.56636714618E+03  0.98140163077E+03  0.46999998093E+01 0.  1.
       -5    1    3    3    0  502  0.71988234177E+02  0.79823118252E+03 -0.11092038632E+04  0.13684701775E+04  0.46999998093E+01 0. -1.
</event>
<event>
 5   0  0.2041718E-05  0.2508139E+04  0.7818609E-02  0.8400092E-01
        1   -1    0    0  501    0  0.00000000000E+00  0.00000000000E+00  0.21769727896E+04  0.21769727896E+04  0.50400001928E-02 0.  1.
       -1   -1    0    0    0  501  0.00000000000E+00  0.00000000000E+00 -0.72242100633E+03  0.72242100635E+03  0.50400001928E-02 0. -1.
    10030    2    1    2    0    0  0.00000000000E+00  0.00000000000E+00  0.14545517833E+04  0.28993937960E+04  0.25081394487E+04 0.  0.
        4    1    3    3  502    0 -0.64785314102E+03 -0.61577110793E+03 -0.28960553039E+03  0.93955347150E+03  0.12699999809E+01 0. -1.
       -4    1    3    3    0  502  0.64785314102E+03  0.61577110793E+03  0.17441573137E+04  0.19598403245E+04  0.12699999809E+01 0.  1.
</event>
<event>
 5   0  0.4995256E-05  0.2534791E+04  0.7818609E-02  0.8390695E-01
       -2   -1    0    0    0  501  0.00000000000E+00  0.00000000000E+00  0.57231903322E+03  0.57231903323E+03  0.25500000920E-02 0. -1.
        2   -1    0    0  501    0  0.00000000000E+00  0.00000000000E+00 -0.28066357552E+04  0.28066357552E+04  0.25500000920E-02 0.  1.
    10030    2    1    2    0    0  0.00000000000E+00  0.00000000000E+00 -0.22343167219E+04  0.33789547884E+04  0.25347907701E+04 0.  0.
        2    1    3    3  502    0 -0.92683988671E+03 -0.79516685255E+03 -0.15691493902E+04  0.19883541706E+04  0.25500000920E-02 0.  1.
       -2    1    3    3    0  502  0.92683988671E+03  0.79516685255E+03 -0.66516733178E+03  0.13906006178E+04  0.25500000920E-02 0. -1.
</event>
<event>
 5   0  0.4959347E-05  0.2589429E+04  0.7818609E-02  0.8371801E-01
       -2   -1    0    0    0  501  0.00000000000E+00  0.00000000000E+00  0.57493755890E+03  0.57493755890E+03  0.25500000920E-02 0.  1.
        2   -1    0    0  501    0  0.00000000000E+00  0.00000000000E+00 -0.29155970680E+04  0.29155970680E+04  0.25500000920E-02 0. -1.
    10030    2    1    2    0    0  0.00000000000E+00  0.00000000000E+00 -0.23406595091E+04  0.34905346269E+04  0.25894294823E+04 0.  0.
        3    1    3    3  502    0  0.17686459018E+03  0.74444445417E+01  0.55854757603E+03  0.58592824467E+03  0.10100000352E+00 0.  1.
       -3    1    3    3    0  502 -0.17686459018E+03 -0.74444445417E+01 -0.28992070851E+04  0.29046063822E+04  0.10100000352E+00 0. -1.
</event>
<event>
 5   0  0.2066170E-05  0.2484880E+04  0.7818609E-02  0.8408392E-01
        1   -1    0    0  501    0  0.00000000000E+00  0.00000000000E+00  0.12549125371E+04  0.12549125372E+04  0.50400001928E-02 0.  1.
       -1   -1    0    0    0  501  0.00000000000E+00  0.00000000000E+00 -0.12300911450E+04  0.12300911451E+04  0.50400001928E-02 0. -1.
    10030    2    1    2    0    0  0.00000000000E+00  0.00000000000E+00  0.24821392101E+02  0.24850036822E+04  0.24848797152E+04 0.  0.
        5    1    3    3  502    0 -0.20302582277E+03  0.10925956958E+04 -0.54317968135E+03  0.12369523416E+04  0.46999998093E+01 0. -1.
       -5    1    3    3    0  502  0.20302582277E+03 -0.10925956958E+04  0.56800107345E+03  0.12480513406E+04  0.46999998093E+01 0.  1.
</event>
<event>
 5   0  0.2036578E-05  0.2532067E+04  0.7818609E-02  0.8391650E-01
       -1   -1    0    0    0  501  0.00000000000E+00  0.00000000000E+00  0.73268851668E+03  0.73268851670E+03  0.50400001928E-02 0.  1.
        1   -1    0    0  501    0  0.00000000000E+00  0.00000000000E+00 -0.21876158259E+04  0.21876158259E+04  0.50400001928E-02 0. -1.
    10030    2    1    2    0    0  0.00000000000E+00  0.00000000000E+00 -0.14549273092E+04  0.29203043426E+04  0.25320671355E+04 0.  0.
        2    1    3    3  502    0 -0.13279877786E+03  0.10339240722E+04  0.10117393221E+03  0.10473159347E+04  0.25500000920E-02 0. -1.
       -2    1    3    3    0  502  0.13279877786E+03 -0.10339240722E+04 -0.15561012415E+04  0.18729884079E+04  0.25500000920E-02 0.  1.
</event>
<event>
 5   0  0.4959042E-05  0.2468734E+04  0.7818609E-02  0.8414209E-01
       -2   -1    0    0    0  501  0.00000000000E+00  0.00000000000E+00  0.10414394637E+04  0.10414394637E+04  0.25500000920E-02 0. -1.
        2   -1    0    0  501    0  0.00000000000E+00  0.00000000000E+00 -0.14630351047E+04  0.14630351047E+04  0.25500000920E-02 0.  1.
    10030    2    1    2    0    0  0.00000000000E+00  0.00000000000E+00 -0.42159564109E+03  0.25044745684E+04  0.24687344894E+04 0.  0.
        4    1    3    3  502    0 -0.39427428406E+03  0.10769572479E+03 -0.13923959559E+04  0.14511439250E+04  0.12699999809E+01 0.  1.
       -4    1    3    3    0  502  0.39427428406E+03 -0.10769572479E+03  0.97080031480E+03  0.10533306434E+04  0.12699999809E+01 0. -1.
</event>
<event>
 5   0  0.4995256E-05  0.1547859E+04  0.7818609E-02  0.8853236E-01
       -2   -1    0    0    0  501  0.00000000000E+00  0.00000000000E+00  0.72169838649E+03  0.72169838649E+03  0.25500000920E-02 0.  1.
        2   -1    0    0  501    0  0.00000000000E+00  0.00000000000E+00 -0.82994120948E+03  0.82994120948E+03  0.25500000920E-02 0. -1.
    10030    2    1    2    0    0  0.00000000000E+00  0.00000000000E+00 -0.10824282300E+03  0.15516395960E+04  0.15478594662E+04 0.  0.
        2    1    3    3  502    0 -0.74623277789E+03  0.13019201388E+03 -0.21310858888E+03  0.78691078906E+03  0.25500000920E-02 0. -1.
       -2    1    3    3    0  502  0.74623277789E+03 -0.13019201388E+03  0.10486576589E+03  0.76472880692E+03  0.25500000920E-02 0.  1.
</event>
<event>
 5   0  0.2036578E-05  0.2519287E+04  0.7818609E-02  0.8396147E-01
       -1   -1    0    0    0  501  0.00000000000E+00  0.00000000000E+00  0.13545532801E+04  0.13545532801E+04  0.50400001928E-02 0.  1.
        1   -1    0    0  501    0  0.00000000000E+00  0.00000000000E+00 -0.11713837893E+04  0.11713837893E+04  0.50400001928E-02 0. -1.
    10030    2    1    2    0    0  0.00000000000E+00  0.00000000000E+00  0.18316949088E+03  0.25259370694E+04  0.25192870055E+04 0.  0.
        2    1    3    3  502    0 -0.45404975771E+02  0.13780847816E+02 -0.11704873974E+04  0.11714487915E+04  0.25500000920E-02 0. -1.
       -2    1    3    3    0  502  0.45404975771E+02 -0.13780847816E+02  0.13536568883E+04  0.13544882779E+04  0.25500000920E-02 0.  1.
</event>
<event>
 5   0  0.4959042E-05  0.2487825E+04  0.7818609E-02  0.8407336E-01
        2   -1    0    0  501    0  0.00000000000E+00  0.00000000000E+00  0.21975297398E+04  0.21975297398E+04  0.25500000920E-02 0. -1.
       -2   -1    0    0    0  501  0.00000000000E+00  0.00000000000E+00 -0.70411727479E+03  0.70411727479E+03  0.25500000920E-02 0.  1.
    10030    2    1    2    0    0  0.00000000000E+00  0.00000000000E+00  0.14934124650E+04  0.29016470145E+04  0.24878252765E+04 0.  0.
        4    1    3    3  502    0  0.84188745170E+03 -0.26330241631E+03  0.17696420958E+04  0.19773055919E+04  0.12699999809E+01 0. -1.
       -4    1    3    3    0  502 -0.84188745170E+03  0.26330241631E+03 -0.27622963081E+03  0.92434142263E+03  0.12699999809E+01 0.  1.
</event>
<event>
 5   0  0.5024070E-05  0.2529658E+04  0.7818609E-02  0.8392495E-01
        2   -1    0    0  501    0  0.00000000000E+00  0.00000000000E+00  0.11394027529E+04  0.11394027529E+04  0.25500000920E-02 0.  1.
       -2   -1    0    0    0  501  0.00000000000E+00  0.00000000000E+00 -0.14040618283E+04  0.14040618284E+04  0.25500000920E-02 0. -1.
    10030    2    1    2    0    0  0.00000000000E+00  0.00000000000E+00 -0.26465907542E+03  0.25434645813E+04  0.25296576152E+04 0.  0.
        5    1    3    3  502    0 -0.14541843742E+03 -0.12512296236E+04 -0.24717965002E+03  0.12836829680E+04  0.46999998093E+01 0. -1.
       -5    1    3    3    0  502  0.14541843742E+03  0.12512296236E+04 -0.17479425402E+02  0.12597816133E+04  0.46999998093E+01 0.  1.
</event>
<event>
 5   0  0.4959042E-05  0.2479013E+04  0.7818609E-02  0.8410501E-01
        2   -1    0    0  501    0  0.00000000000E+00  0.00000000000E+00  0.20573762063E+04  0.20573762063E+04  0.25500000920E-02 0.  1.
       -2   -1    0    0    0  501  0.00000000000E+00  0.00000000000E+00 -0.74676482213E+03  0.74676482213E+03  0.25500000920E-02 0. -1.
    10030    2    1    2    0    0  0.00000000000E+00  0.00000000000E+00  0.13106113841E+04  0.28041410284E+04  0.24790128493E+04 0.  0.
        4    1    3    3  502    0 -0.31191125368E+03  0.65644760588E+03  0.17910650872E+04  0.19329065805E+04  0.12699999809E+01 0.  1.
       -4    1    3    3    0  502  0.31191125368E+03 -0.65644760588E+03 -0.48045370310E+03  0.87123444787E+03  0.12699999809E+01 0. -1.
</event>
<event>
 5   0  0.4995256E-05  0.2457904E+04  0.7818609E-02  0.8418138E-01
       -2   -1    0    0    0  501  0.00000000000E+00  0.00000000000E+00  0.85247804599E+03  0.85247804600E+03  0.25500000920E-02 0.  1.
        2   -1    0    0  501    0  0.00000000000E+00  0.00000000000E+00 -0.17716858077E+04  0.17716858077E+04  0.25500000920E-02 0. -1.
    10030    2    1    2    0    0  0.00000000000E+00  0.00000000000E+00 -0.91920776171E+03  0.26241638537E+04  0.24579041930E+04 0.  0.
        2    1    3    3  502    0  0.16459297724E+03 -0.12170040152E+04 -0.50891967015E+03  0.13293565556E+04  0.25500000920E-02 0. -1.
       -2    1    3    3    0  502 -0.16459297724E+03  0.12170040152E+04 -0.41028809157E+03  0.12948072981E+04  0.25500000920E-02 0.  1.
</event>
<event>
 5   0  0.1692125E-05  0.2453896E+04  0.7818609E-02  0.8419597E-01
       -4   -1    0    0    0  501  0.00000000000E+00  0.00000000000E+00  0.18244272313E+04  0.18244276733E+04  0.12699999809E+01 0.  1.
        4   -1    0    0  501    0  0.00000000000E+00  0.00000000000E+00 -0.82513552996E+03  0.82513650731E+03  0.12699999809E+01 0. -1.
    10030    2    1    2    0    0  0.00000000000E+00  0.00000000000E+00  0.99929170136E+03  0.26495641807E+04  0.24538961761E+04 0.  0.
        3    1    3    3  502    0 -0.36665768609E+02  0.24376135538E+03  0.17974158213E+04  0.18142402327E+04  0.10100000352E+00 0.  1.
       -3    1    3    3    0  502  0.36665768609E+02 -0.24376135538E+03 -0.79812411997E+03  0.83532394797E+03  0.10100000352E+00 0. -1.
</event>
<event>
 5   0  0.2081874E-05  0.2468861E+04  0.7818609E-02  0.8414164E-01
       -1   -1    0    0    0  501  0.00000000000E+00  0.00000000000E+00  0.12344114554E+04  0.12344114554E+04  0.50400001928E-02 0.  1.
        1   -1    0    0  501    0  0.00000000000E+00  0.00000000000E+00 -0.12344494718E+04  0.12344494719E+04  0.50400001928E-02 0. -1.
    10030    2    1    2    0    0  0.00000000000E+00  0.00000000000E+00 -0.38016439989E-01  0.24688609273E+04  0.24688609270E+04 0.  0.
        1    1    3    3  502    0 -0.12450454014E+02  0.80558690929E+03  0.93523137919E+03  0.12344160623E+04  0.50400001928E-02 0.  1.
       -1    1    3    3    0  502  0.12450454014E+02 -0.80558690929E+03 -0.93526939563E+03  0.12344448650E+04  0.50400001928E-02 0. -1.
</event>
<event>
 5   0  0.4959347E-05  0.2517353E+04  0.7818609E-02  0.8396829E-01
       -2   -1    0    0    0  501  0.00000000000E+00  0.00000000000E+00  0.82983284980E+03  0.82983284980E+03  0.25500000920E-02 0.  1.
        2   -1    0    0  501    0  0.00000000000E+00  0.00000000000E+00 -0.19091396578E+04  0.19091396579E+04  0.25500000920E-02 0. -1.
    10030    2    1    2    0    0  0.00000000000E+00  0.00000000000E+00 -0.10793068081E+04  0.27389725077E+04  0.25173532155E+04 0.  0.
        3    1    3    3  502    0 -0.36971269093E+03 -0.10158327238E+04  0.16182499595E+03  0.10930649277E+04  0.10100000352E+00 0.  1.
       -3    1    3    3    0  502  0.36971269093E+03  0.10158327238E+04 -0.12411318040E+04  0.16459075800E+04  0.10100000352E+00 0. -1.
</event>
<event>
 5   0  0.2081874E-05  0.2469361E+04  0.7818609E-02  0.8413983E-01
        1   -1    0    0  501    0  0.00000000000E+00  0.00000000000E+00  0.13566380917E+04  0.13566380917E+04  0.50400001928E-02 0. -1.
       -1   -1    0    0    0  501  0.00000000000E+00  0.00000000000E+00 -0.11236862886E+04  0.11236862886E+04  0.50400001928E-02 0.  1.
    10030    2    1    2    0    0  0.00000000000E+00  0.00000000000E+00  0.23295180313E+03  0.24803243803E+04  0.24693607450E+04 0.  0.
        1    1    3    3  502    0 -0.97921452241E+03 -0.64931895750E+03  0.49758033895E+03  0.12759554785E+04  0.50400001928E-02 0. -1.
       -1    1    3    3    0  502  0.97921452241E+03  0.64931895750E+03 -0.26462853581E+03  0.12043689017E+04  0.50400001928E-02 0.  1.
</event>
<event>
 5   0  0.4995256E-05  0.2530647E+04  0.7818609E-02  0.8392148E-01
        2   -1    0    0  501    0  0.00000000000E+00  0.00000000000E+00  0.16484757087E+04  0.16484757087E+04  0.25500000920E-02 0. -1.
       -2   -1    0    0    0  501  0.00000000000E+00  0.00000000000E+00 -0.97122684208E+03  0.97122684208E+03  0.25500000920E-02 0.  1.
    10030    2    1    2    0    0  0.00000000000E+00  0.00000000000E+00  0.67724886661E+03  0.26197025508E+04  0.25306472348E+04 0.  0.
        2    1    3    3  502    0  0.56409661200E+03  0.10372248811E+04  0.80961165910E+03  0.14316114977E+04  0.25500000920E-02 0. -1.
       -2    1    3    3    0  502 -0.56409661200E+03 -0.10372248811E+04 -0.13236279250E+03  0.11880910531E+04  0.25500000920E-02 0.  1.
</event>
<event>
 5   0  0.5024070E-05  0.2396220E+04  0.7818609E-02  0.8440920E-01
       -2   -1    0    0    0  501  0.00000000000E+00  0.00000000000E+00  0.76441739414E+03  0.76441739414E+03  0.25500000920E-02 0.  1.
        2   -1    0    0  501    0  0.00000000000E+00  0.00000000000E+00 -0.18778580365E+04  0.18778580365E+04  0.25500000920E-02 0. -1.
    10030    2    1    2    0    0  0.00000000000E+00  0.00000000000E+00 -0.11134406423E+04  0.26422754306E+04  0.23962198120E+04 0.  0.
        5    1    3    3  502    0  0.69854269358E+03 -0.22206799633E+03 -0.16017545200E+04  0.17615095010E+04  0.46999998093E+01 0. -1.
       -5    1    3    3    0  502 -0.69854269358E+03  0.22206799633E+03  0.48831387764E+03  0.88076592965E+03  0.46999998093E+01 0.  1.
</event>
<event>
 5   0  0.2063930E-05  0.2500422E+04  0.7818609E-02  0.8402835E-01
       -1   -1    0    0    0  501  0.00000000000E+00  0.00000000000E+00  0.11600152347E+04  0.11600152348E+04  0.50400001928E-02 0.  1.
        1   -1    0    0  501    0  0.00000000000E+00  0.00000000000E+00 -0.13474199490E+04  0.13474199490E+04  0.50400001928E-02 0. -1.
    10030    2    1    2    0    0  0.00000000000E+00  0.00000000000E+00 -0.18740471421E+03  0.25074351837E+04  0.25004220991E+04 0.  0.
        3    1    3    3  502    0  0.73762660495E+03  0.18709857944E+03 -0.10884163262E+04  0.13280621206E+04  0.10100000352E+00 0. -1.
       -3    1    3    3    0  502 -0.73762660495E+03 -0.18709857944E+03  0.90101161203E+03  0.11793730631E+04  0.10100000352E+00 0.  1.
</event>
<event>
 5   0  0.2081874E-05  0.2508385E+04  0.7818609E-02  0.8400004E-01
        1   -1    0    0  501    0  0.00000000000E+00  0.00000000000E+00  0.25946589065E+04  0.25946589065E+04  0.50400001928E-02 0. -1.
       -1   -1    0    0    0  501  0.00000000000E+00  0.00000000000E+00 -0.60624498008E+03  0.60624498010E+03  0.50400001928E-02 0.  1.
    10030    2    1    2    0    0  0.00000000000E+00  0.00000000000E+00  0.19884139265E+04  0.32009038866E+04  0.25083850878E+04 0.  0.
        1    1    3    3  502    0 -0.76221574395E+03 -0.52268714503E+03 -0.87699666431E+02  0.92836734293E+03  0.50400001928E-02 0.  1.
       -1    1    3    3    0  502  0.76221574395E+03  0.52268714503E+03  0.20761135929E+04  0.22725365437E+04  0.50400001928E-02 0. -1.
</event>
<event>
 5   0  0.2066170E-05  0.2624886E+04  0.7818609E-02  0.8359797E-01
        1   -1    0    0  501    0  0.00000000000E+00  0.00000000000E+00  0.21945053631E+04  0.21945053631E+04  0.50400001928E-02 0.  1.
       -1   -1    0    0    0  501  0.00000000000E+00  0.00000000000E+00 -0.78491785175E+03  0.78491785176E+03  0.50400001928E-02 0. -1.
    10030    2    1    2    0    0  0.00000000000E+00  0.00000000000E+00  0.14095875113E+04  0.29794232149E+04  0.26248858530E+04 0.  0.
        5    1    3    3  502    0 -0.29241610660E+03  0.28698971599E+03  0.21200434571E+04  0.21592768759E+04  0.46999998093E+01 0.  1.
       -5    1    3    3    0  502  0.29241610660E+03 -0.28698971599E+03 -0.71045594578E+03  0.82014633901E+03  0.46999998093E+01 0. -1.
</event>
<event>
 5   0  0.1692125E-05  0.2518178E+04  0.7818609E-02  0.8396538E-01
       -3   -1    0    0    0  501  0.00000000000E+00  0.00000000000E+00  0.10655898576E+04  0.10655898624E+04  0.10100000352E+00 0. -1.
        3   -1    0    0  501    0  0.00000000000E+00  0.00000000000E+00 -0.14877254323E+04  0.14877254357E+04  0.10100000352E+00 0.  1.
    10030    2    1    2    0    0  0.00000000000E+00  0.00000000000E+00 -0.42213557472E+03  0.25533152981E+04  0.25181780255E+04 0.  0.
        3    1    3    3  502    0 -0.24466687356E+03 -0.65276359505E+03 -0.12741934795E+04  0.14524225361E+04  0.10100000352E+00 0.  1.
       -3    1    3    3    0  502  0.24466687356E+03  0.65276359505E+03  0.85205790480E+03  0.11008927620E+04  0.10100000352E+00 0. -1.
</event>
<event>
 5   0  0.2063930E-05  0.2168445E+04  0.7818609E-02  0.8531678E-01
       -1   -1    0    0    0  501  0.00000000000E+00  0.00000000000E+00  0.10103442248E+04  0.10103442248E+04  0.50400001928E-02 0. -1.
        1   -1    0    0  501    0  0.00000000000E+00  0.00000000000E+00 -0.11635031063E+04  0.11635031063E+04  0.50400001928E-02 0.  1.
    10030    2    1    2    0    0  0.00000000000E+00  0.00000000000E+00 -0.15315888149E+03  0.21738473311E+04  0.21684451978E+04 0.  0.
        3    1    3    3  502    0  0.29689543041E+03  0.98008786799E+03 -0.43358388444E+03  0.11120764905E+04  0.10100000352E+00 0.  1.
       -3    1    3    3    0  502 -0.29689543041E+03 -0.98008786799E+03  0.28042500295E+03  0.10617708407E+04  0.10100000352E+00 0. -1.
</event>
<event>
 5   0  0.5024070E-05  0.2474505E+04  0.7818609E-02  0.8412125E-01
        2   -1    0    0  501    0  0.00000000000E+00  0.00000000000E+00  0.13702299490E+04  0.13702299490E+04  0.25500000920E-02 0.  1.
       -2   -1    0    0    0  501  0.00000000000E+00  0.00000000000E+00 -0.11171801900E+04  0.11171801900E+04  0.25500000920E-02 0. -1.
    10030    2    1    2    0    0  0.00000000000E+00  0.00000000000E+00  0.25304975900E+03  0.24874101390E+04  0.24745050049E+04 0.  0.
        5    1    3    3  502    0  0.47221479010E+03 -0.90794782665E+03  0.82543188663E+03  0.13148064319E+04  0.46999998093E+01 0.  1.
       -5    1    3    3    0  502 -0.47221479010E+03  0.90794782665E+03 -0.57238212763E+03  0.11726037071E+04  0.46999998093E+01 0. -1.
</event>
<event>
 5   0  0.1692125E-05  0.2531082E+04  0.7818609E-02  0.8391995E-01
        3   -1    0    0  501    0  0.00000000000E+00  0.00000000000E+00  0.62472157247E+03  0.62472158063E+03  0.10100000352E+00 0.  1.
       -3   -1    0    0    0  501  0.00000000000E+00  0.00000000000E+00 -0.25636932211E+04  0.25636932231E+04  0.10100000352E+00 0. -1.
    10030    2    1    2    0    0  0.00000000000E+00  0.00000000000E+00 -0.19389716487E+04  0.31884148038E+04  0.25310823587E+04 0.  0.
        3    1    3    3  502    0  0.10886614647E+04 -0.45771657839E+03 -0.15424867302E+04  0.19426666142E+04  0.10100000352E+00 0. -1.
       -3    1    3    3    0  502 -0.10886614647E+04  0.45771657839E+03 -0.39648491845E+03  0.12457481895E+04  0.10100000352E+00 0.  1.
</event>
<event>
 5   0  0.5024070E-05  0.2467248E+04  0.7818609E-02  0.8414747E-01
       -2   -1    0    0    0  501  0.00000000000E+00  0.00000000000E+00  0.66342164859E+03  0.66342164860E+03  0.25500000920E-02 0. -1.
        2   -1    0    0  501    0  0.00000000000E+00  0.00000000000E+00 -0.22939076340E+04  0.22939076340E+04  0.25500000920E-02 0.  1.
    10030    2    1    2    0    0  0.00000000000E+00  0.00000000000E+00 -0.16304859854E+04  0.29573292826E+04  0.24672478467E+04 0.  0.
        5    1    3    3  502    0 -0.94718435885E+03  0.33803460541E+03 -0.16715585854E+04  0.19507833808E+04  0.46999998093E+01 0.  1.
       -5    1    3    3    0  502  0.94718435885E+03 -0.33803460541E+03  0.41072600000E+02  0.10065459019E+04  0.46999998093E+01 0. -1.
</event>
<event>
 5   0  0.2081874E-05  0.2391104E+04  0.7818609E-02  0.8442841E-01
       -1   -1    0    0    0  501  0.00000000000E+00  0.00000000000E+00  0.17354011568E+04  0.17354011568E+04  0.50400001928E-02 0. -1.
        1   -1    0    0  501    0  0.00000000000E+00  0.00000000000E+00 -0.82363961909E+03  0.82363961910E+03  0.50400001928E-02 0.  1.
    10030    2    1    2    0    0  0.00000000000E+00  0.00000000000E+00  0.91176153770E+03  0.25590407759E+04  0.23911044710E+04 0.  0.
        1    1    3    3  502    0  0.59232635609E+03  0.23767409557E+03 -0.62606453193E+03  0.89403371637E+03  0.50400001928E-02 0.  1.
       -1    1    3    3    0  502 -0.59232635609E+03 -0.23767409557E+03  0.15378260696E+04  0.16650070595E+04  0.50400001928E-02 0. -1.
</event>
<event>
 5   0  0.2066170E-05  0.1858803E+04  0.7818609E-02  0.8675639E-01
       -1   -1    0    0    0  501  0.00000000000E+00  0.00000000000E+00  0.95017194473E+03  0.95017194474E+03  0.50400001928E-02 0. -1.
        1   -1    0    0  501    0  0.00000000000E+00  0.00000000000E+00 -0.90908555499E+03  0.90908555501E+03  0.50400001928E-02 0.  1.
    10030    2    1    2    0    0  0.00000000000E+00  0.00000000000E+00  0.41086389733E+02  0.18592574997E+04  0.18588034751E+04 0.  0.
        5    1    3    3  502    0 -0.57569787317E+03  0.57157739425E+03  0.47412583275E+03  0.93965214525E+03  0.46999998093E+01 0. -1.
       -5    1    3    3    0  502  0.57569787317E+03 -0.57157739425E+03 -0.43303944302E+03  0.91960535449E+03  0.46999998093E+01 0.  1.
</event>
<event>
 5   0  0.4959347E-05  0.2448705E+04  0.7818609E-02  0.8421491E-01
       -2   -1    0    0    0  501  0.00000000000E+00  0.00000000000E+00  0.15723220104E+04  0.15723220104E+04  0.25500000920E-02 0. -1.
        2   -1    0    0  501    0  0.00000000000E+00  0.00000000000E+00 -0.95339190964E+03  0.95339190965E+03  0.25500000920E-02 0.  1.
    10030    2    1    2    0    0  0.00000000000E+00  0.00000000000E+00  0.61893010080E+03  0.25257139201E+04  0.24487050326E+04 0.  0.
        3    1    3    3  502    0 -0.15252875093E+03  0.57593830736E+03  0.14127147448E+04  0.15332100032E+04  0.10100000352E+00 0. -1.
       -3    1    3    3    0  502  0.15252875093E+03 -0.57593830736E+03 -0.79378464397E+03  0.99250391685E+03  0.10100000352E+00 0.  1.
</event>
<event>
 5   0  0.5024070E-05  0.2488989E+04  0.7818609E-02  0.8406919E-01
        2   -1    0    0  501    0  0.00000000000E+00  0.00000000000E+00  0.17446099089E+04  0.17446099089E+04  0.25500000920E-02 0. -1.
       -2   -1    0    0    0  501  0.00000000000E+00  0.00000000000E+00 -0.88774357123E+03  0.88774357124E+03  0.25500000920E-02 0.  1.
    10030    2    1    2    0    0  0.00000000000E+00  0.00000000000E+00  0.85686633762E+03  0.26323534801E+04  0.24889887351E+04 0.  0.
        5    1    3    3  502    0  0.20678491117E+03  0.12010327196E+04  0.16191692113E+03  0.12294221295E+04  0.46999998093E+01 0. -1.
       -5    1    3    3    0  502 -0.20678491117E+03 -0.12010327196E+04  0.69494941649E+03  0.14029313506E+04  0.46999998093E+01 0.  1.
</event>
<event>
 5   0  0.1692125E-05  0.2507727E+04  0.7818609E-02  0.8400238E-01
        3   -1    0    0  501    0  0.00000000000E+00  0.00000000000E+00  0.10559889965E+04  0.10559890013E+04  0.10100000352E+00 0. -1.
       -3   -1    0    0    0  501  0.00000000000E+00  0.00000000000E+00 -0.14888167551E+04  0.14888167585E+04  0.10100000352E+00 0.  1.
    10030    2    1    2    0    0  0.00000000000E+00  0.00000000000E+00 -0.43282775865E+03  0.25448057598E+04  0.25077273549E+04 0.  0.
        5    1    3    3  502    0 -0.73983552443E+03  0.10071914516E+04 -0.11312081956E+03  0.12548345043E+04  0.46999998093E+01 0. -1.
       -5    1    3    3    0  502  0.73983552443E+03 -0.10071914516E+04 -0.31970693909E+03  0.12899712556E+04  0.46999998093E+01 0.  1.
</event>
<event>
 5   0  0.4959042E-05  0.2445196E+04  0.7818609E-02  0.8422774E-01
        2   -1    0    0  501    0  0.00000000000E+00  0.00000000000E+00  0.12293079615E+04  0.12293079615E+04  0.25500000920E-02 0.  1.
       -2   -1    0    0    0  501  0.00000000000E+00  0.00000000000E+00 -0.12159242018E+04  0.12159242018E+04  0.25500000920E-02 0. -1.
    10030    2    1    2    0    0  0.00000000000E+00  0.00000000000E+00  0.13383759704E+02  0.24452321633E+04  0.24451955356E+04 0.  0.
        4    1    3    3  502    0  0.72978232120E+03 -0.89747106924E+03 -0.38917656714E+03  0.12204493311E+04  0.12699999809E+01 0. -1.
       -4    1    3    3    0  502 -0.72978232120E+03  0.89747106924E+03  0.40256032685E+03  0.12247828322E+04  0.12699999809E+01 0.  1.
</event>
<event>
 5   0  0.2063930E-05  0.2274436E+04  0.7818609E-02  0.8488070E-01
        1   -1    0    0  501    0  0.00000000000E+00  0.00000000000E+00  0.13186537036E+04  0.13186537036E+04  0.50400001928E-02 0.  1.
       -1   -1    0    0    0  501  0.00000000000E+00  0.00000000000E+00 -0.98074597514E+03  0.98074597515E+03  0.50400001928E-02 0. -1.
    10030    2    1    2    0    0  0.00000000000E+00  0.00000000000E+00  0.33790772846E+03  0.22993996788E+04  0.22744355893E+04 0.  0.
        3    1    3    3  502    0 -0.28799854508E+03  0.59188097247E+03  0.11064933300E+04  0.12874757268E+04  0.10100000352E+00 0.  1.
       -3    1    3    3    0  502  0.28799854508E+03 -0.59188097247E+03 -0.76858560152E+03  0.10119239520E+04  0.10100000352E+00 0. -1.
</event>
<event>
 5   0  0.2041718E-05  0.2442644E+04  0.7818609E-02  0.8423708E-01
        1   -1    0    0  501    0  0.00000000000E+00  0.00000000000E+00  0.18361404573E+04  0.18361404573E+04  0.50400001928E-02 0. -1.
       -1   -1    0    0    0  501  0.00000000000E+00  0.00000000000E+00 -0.81237139557E+03  0.81237139559E+03  0.50400001928E-02 0.  1.
    10030    2    1    2    0    0  0.00000000000E+00  0.00000000000E+00  0.10237690617E+04  0.26485118529E+04  0.24426444569E+04 0.  0.
        4    1    3    3  502    0  0.11811266208E+04  0.23717781048E+03  0.72958733993E+03  0.14084078627E+04  0.12699999809E+01 0.  1.
       -4    1    3    3    0  502 -0.11811266208E+04 -0.23717781048E+03  0.29418172176E+03  0.12401039902E+04  0.12699999809E+01 0. -1.
</event>
<event>
 5   0  0.2041718E-05  0.2453232E+04  0.7818609E-02  0.8419839E-01
       -1   -1    0    0    0  501  0.00000000000E+00  0.00000000000E+00  0.93029187597E+03  0.93029187598E+03  0.50400001928E-02 0. -1.
        1   -1    0    0  501    0  0.00000000000E+00  0.00000000000E+00 -0.16173271847E+04  0.16173271847E+04  0.50400001928E-02 0.  1.
    10030    2    1    2    0    0  0.00000000000E+00  0.00000000000E+00 -0.68703530870E+03  0.25476190607E+04  0.24532316162E+04 0.  0.
        4    1    3    3  502    0  0.89661377974E+03 -0.60997048359E+03  0.25177793917E+03  0.11132717568E+04  0.12699999809E+01 0. -1.
       -4    1    3    3    0  502 -0.89661377974E+03  0.60997048359E+03 -0.93881324787E+03  0.14343473039E+04  0.12699999809E+01 0.  1.
</event>
<event>
 5   0  0.2041718E-05  0.2517436E+04  0.7818609E-02  0.8396800E-01
       -1   -1    0    0    0  501  0.00000000000E+00  0.00000000000E+00  0.15177838775E+04  0.15177838775E+04  0.50400001928E-02 0. -1.
        1   -1    0    0  501    0  0.00000000000E+00  0.00000000000E+00 -0.10438715343E+04  0.10438715343E+04  0.50400001928E-02 0.  1.
    10030    2    1    2    0    0  0.00000000000E+00  0.00000000000E+00  0.47391234327E+03  0.25616554118E+04  0.25174363030E+04 0.  0.
        4    1    3    3  502    0 -0.71921549515E+03  0.95670449141E+03  0.63343506706E+03  0.13541772445E+04  0.12699999809E+01 0. -1.
       -4    1    3    3    0  502  0.71921549515E+03 -0.95670449141E+03 -0.15952272378E+03  0.12074781674E+04  0.12699999809E+01 0.  1.
</event>
<event>
 5   0  0.2081874E-05  0.2471148E+04  0.7818609E-02  0.8413337E-01
        1   -1    0    0  501    0  0.00000000000E+00  0.00000000000E+00  0.12721686492E+04  0.12721686492E+04  0.50400001928E-02 0.  1.
       -1   -1    0    0    0  501  0.00000000000E+00  0.00000000000E+00 -0.12000316788E+04  0.12000316788E+04  0.50400001928E-02 0. -1.
    10030    2    1    2    0    0  0.00000000000E+00  0.00000000000E+00  0.72136970398E+02  0.24722003280E+04  0.24711476523E+04 0.  0.
        1    1    3    3  502    0  0.31788402087E+03 -0.75976679808E+02 -0.11560010930E+04  0.12013164586E+04  0.50400001928E-02 0. -1.
       -1    1    3    3    0  502 -0.31788402087E+03  0.75976679808E+02  0.12281380634E+04  0.12708838694E+04  0.50400001928E-02 0.  1.
</event>
<event>
 5   0  0.2066170E-05  0.2498463E+04  0.7818609E-02  0.8403533E-01
        1   -1    0    0  501    0  0.00000000000E+00  0.00000000000E+00  0.11880522074E+04  0.11880522074E+04  0.50400001928E-02 0. -1.
       -1   -1    0    0    0  501  0.00000000000E+00  0.00000000000E+00 -0.13135614947E+04  0.13135614947E+04  0.50400001928E-02 0.  1.
    10030    2    1    2    0    0  0.00000000000E+00  0.00000000000E+00 -0.12550928732E+03  0.25016137021E+04  0.24984632343E+04 0.  0.
        5    1    3    3  502    0 -0.11888489872E+04 -0.36031344280E+03 -0.19471556547E+03  0.12574275060E+04  0.46999998093E+01 0.  1.
       -5    1    3    3    0  502  0.11888489872E+04  0.36031344280E+03  0.69206278144E+02  0.12441861961E+04  0.46999998093E+01 0. -1.
</event>
<event>
 5   0  0.4959042E-05  0.2465039E+04  0.7818609E-02  0.8415547E-01
        2   -1    0    0  501    0  0.00000000000E+00  0.00000000000E+00  0.19533995551E+04  0.19533995551E+04  0.25500000920E-02 0.  1.
       -2   -1    0    0    0  501  0.00000000000E+00  0.00000000000E+00 -0.77767229996E+03  0.77767229996E+03  0.25500000920E-02 0. -1.
    10030    2    1    2    0    0  0.00000000000E+00  0.00000000000E+00  0.11757272551E+04  0.27310718550E+04  0.24650393301E+04 0.  0.
        4    1    3    3  502    0 -0.39268706906E+03 -0.67521285740E+03 -0.46843872528E+03  0.91079744688E+03  0.12699999809E+01 0. -1.
       -4    1    3    3    0  502  0.39268706906E+03  0.67521285740E+03  0.16441659804E+04  0.18202744081E+04  0.12699999809E+01 0.  1.
</event>
<event>
 5   0  0.2066170E-05  0.2454129E+04  0.7818609E-02  0.8419512E-01
       -1   -1    0    0    0  501  0.00000000000E+00  0.00000000000E+00  0.17585726895E+04  0.17585726895E+04  0.50400001928E-02 0. -1.
        1   -1    0    0  501    0  0.00000000000E+00  0.00000000000E+00 -0.85619880861E+03  0.85619880862E+03  0.50400001928E-02 0.  1.
    10030    2    1    2    0    0  0.00000000000E+00  0.00000000000E+00  0.90237388092E+03  0.26147714982E+04  0.24541294519E+04 0.  0.
        5    1    3    3  502    0 -0.75629989026E+03  0.67541583874E+03  0.11874250033E+04  0.15614660764E+04  0.46999998093E+01 0. -1.
       -5    1    3    3    0  502  0.75629989026E+03 -0.67541583874E+03 -0.28505112235E+03  0.10533054218E+04  0.46999998093E+01 0.  1.
</event>
<event>
 5   0  0.4959042E-05  0.2489294E+04  0.7818609E-02  0.8406809E-01
       -2   -1    0    0    0  501  0.00000000000E+00  0.00000000000E+00  0.49524612900E+03  0.49524612901E+03  0.25500000920E-02 0.  1.
        2   -1    0    0  501    0  0.00000000000E+00  0.00000000000E+00 -0.31280334364E+04  0.31280334364E+04  0.25500000920E-02 0. -1.
    10030    2    1    2    0    0  0.00000000000E+00  0.00000000000E+00 -0.26327873074E+04  0.36232795654E+04  0.24892942379E+04 0.  0.
        4    1    3    3  502    0  0.78507330382E+02  0.29223443904E+03 -0.30736773552E+04  0.30885366220E+04  0.12699999809E+01 0. -1.
       -4    1    3    3    0  502 -0.78507330382E+02 -0.29223443904E+03  0.44089004788E+03  0.53474294339E+03  0.12699999809E+01 0.  1.
</event>
<event>
 5   0  0.2081874E-05  0.2473110E+04  0.7818609E-02  0.8412628E-01
       -1   -1    0    0    0  501  0.00000000000E+00  0.00000000000E+00  0.11859351064E+04  0.11859351064E+04  0.50400001928E-02 0.  1.
        1   -1    0    0  501    0  0.00000000000E+00  0.00000000000E+00 -0.12893355792E+04  0.12893355792E+04  0.50400001928E-02 0. -1.
    10030    2    1    2    0    0  0.00000000000E+00  0.00000000000E+00 -0.10340047273E+03  0.24752706856E+04  0.24731100480E+04 0.  0.
        1    1    3    3  502    0 -0.79008362831E+03 -0.26616015971E+01 -0.10037563301E+04  0.12774059629E+04  0.50400001928E-02 0. -1.
       -1    1    3    3    0  502  0.79008362831E+03  0.26616015971E+01  0.90035585740E+03  0.11978647227E+04  0.50400001928E-02 0.  1.
</event>
<event>
 5   0  0.5219468E-05  0.2396267E+04  0.7818609E-02  0.8440902E-01
       -2   -1    0    0    0  501  0.00000000000E+00  0.00000000000E+00  0.11827116229E+04  0.11827116229E+04  0.25500000920E-02 0. -1.
        2   -1    0    0  501    0  0.00000000000E+00  0.00000000000E+00 -0.12137566338E+04  0.12137566338E+04  0.25500000920E-02 0.  1.
    10030    2    1    2    0    0  0.00000000000E+00  0.00000000000E+00 -0.31045010884E+02  0.23964682566E+04  0.23962671621E+04 0.  0.
        1    1    3    3  502    0  0.77328139008E+03 -0.22997136195E+02 -0.93049332168E+03  0.12100871036E+04  0.50400001928E-02 0.  1.
       -1    1    3    3    0  502 -0.77328139008E+03  0.22997136195E+02  0.89944831080E+03  0.11863811531E+04  0.50400001928E-02 0. -1.
</event>
<event>
 5   0  0.2063930E-05  0.2501539E+04  0.7818609E-02  0.8402437E-01
       -1   -1    0    0    0  501  0.00000000000E+00  0.00000000000E+00  0.10468393608E+04  0.10468393608E+04  0.50400001928E-02 0. -1.
        1   -1    0    0  501    0  0.00000000000E+00  0.00000000000E+00 -0.14944266075E+04  0.14944266075E+04  0.50400001928E-02 0.  1.
    10030    2    1    2    0    0  0.00000000000E+00  0.00000000000E+00 -0.44758724676E+03  0.25412659683E+04  0.25015392018E+04 0.  0.
        3    1    3    3  502    0 -0.83333855426E+03 -0.26670129062E+03 -0.11317672093E+04  0.14305522537E+04  0.10100000352E+00 0.  1.
       -3    1    3    3    0  502  0.83333855426E+03  0.26670129062E+03  0.68417996252E+03  0.11107137146E+04  0.10100000352E+00 0. -1.
</event>
<event>
 5   0  0.4995256E-05  0.2498088E+04  0.7818609E-02  0.8403667E-01
        2   -1    0    0  501    0  0.00000000000E+00  0.00000000000E+00  0.18791856529E+04  0.18791856529E+04  0.25500000920E-02 0.  1.
       -2   -1    0    0    0  501  0.00000000000E+00  0.00000000000E+00 -0.83020605955E+03  0.83020605955E+03  0.25500000920E-02 0. -1.
    10030    2    1    2    0    0  0.00000000000E+00  0.00000000000E+00  0.10489795934E+04  0.27093917125E+04  0.24980883219E+04 0.  0.
        2    1    3    3  502    0  0.69930051805E+03 -0.57549279638E+03  0.14574217702E+04  0.17158937582E+04  0.25500000920E-02 0.  1.
       -2    1    3    3    0  502 -0.69930051805E+03  0.57549279638E+03 -0.40844217685E+03  0.99349795423E+03  0.25500000920E-02 0. -1.
</event>
<event>
 5   0  0.2081874E-05  0.2488924E+04  0.7818609E-02  0.8406942E-01
       -1   -1    0    0    0  501  0.00000000000E+00  0.00000000000E+00  0.86670043952E+03  0.86670043953E+03  0.50400001928E-02 0. -1.
        1   -1    0    0  501    0  0.00000000000E+00  0.00000000000E+00 -0.17868753084E+04  0.17868753084E+04  0.50400001928E-02 0.  1.
    10030    2    1    2    0    0  0.00000000000E+00  0.00000000000E+00 -0.92017486886E+03  0.26535757479E+04  0.24889239564E+04 0.  0.
        1    1    3    3  502    0 -0.79654031671E+03  0.25417679517E+03 -0.14428032730E+04  0.16675621739E+04  0.50400001928E-02 0.  1.
       -1    1    3    3    0  502  0.79654031671E+03 -0.25417679517E+03  0.52262840410E+03  0.98601357401E+03  0.50400001928E-02 0. -1.
</event>
<event>
 5   0  0.2063930E-05  0.2116791E+04  0.7818609E-02  0.8553883E-01
        1   -1    0    0  501    0  0.00000000000E+00  0.00000000000E+00  0.11351259732E+04  0.11351259732E+04  0.50400001928E-02 0.  1.
       -1   -1    0    0    0  501  0.00000000000E+00  0.00000000000E+00 -0.98685133289E+03  0.98685133290E+03  0.50400001928E-02 0. -1.
    10030    2    1    2    0    0  0.00000000000E+00  0.00000000000E+00  0.14827464032E+03  0.21219773061E+04  0.21167905703E+04 0.  0.
        3    1    3    3  502    0 -0.32086799433E+03 -0.87055619069E+03  0.58467514054E+03  0.10966628384E+04  0.10100000352E+00 0.  1.
       -3    1    3    3    0  502  0.32086799433E+03  0.87055619069E+03 -0.43640050022E+03  0.10253144677E+04  0.10100000352E+00 0. -1.
</event>
<event>
 5   0  0.2081874E-05  0.2364272E+04  0.7818609E-02  0.8453002E-01
       -1   -1    0    0    0  501  0.00000000000E+00  0.00000000000E+00  0.62410883223E+03  0.62410883225E+03  0.50400001928E-02 0. -1.
        1   -1    0    0  501    0  0.00000000000E+00  0.00000000000E+00 -0.22391047576E+04  0.22391047576E+04  0.50400001928E-02 0.  1.
    10030    2    1    2    0    0  0.00000000000E+00  0.00000000000E+00 -0.16149959253E+04  0.28632135898E+04  0.23642716050E+04 0.  0.
        1    1    3    3  502    0  0.13774938114E+03 -0.11707836330E+04 -0.70098306526E+03  0.13715270559E+04  0.50400001928E-02 0. -1.
       -1    1    3    3    0  502 -0.13774938114E+03  0.11707836330E+04 -0.91401286009E+03  0.14916865340E+04  0.50400001928E-02 0.  1.
</event>
<event>
 5   0  0.5024070E-05  0.2515138E+04  0.7818609E-02  0.8397612E-01
       -2   -1    0    0    0  501  0.00000000000E+00  0.00000000000E+00  0.12323035916E+04  0.12323035916E+04  0.25500000920E-02 0.  1.
        2   -1    0    0  501    0  0.00000000000E+00  0.00000000000E+00 -0.12833521824E+04  0.12833521824E+04  0.25500000920E-02 0. -1.
    10030    2    1    2    0    0  0.00000000000E+00  0.00000000000E+00 -0.51048590847E+02  0.25156557740E+04  0.25151377725E+04 0.  0.
        5    1    3    3  502    0  0.19185794377E+03 -0.95378119598E+03  0.77147692181E+03  0.12416548519E+04  0.46999998093E+01 0.  1.
       -5    1    3    3    0  502 -0.19185794377E+03  0.95378119598E+03 -0.82252551266E+03  0.12740009220E+04  0.46999998093E+01 0. -1.
</event>
<event>
 5   0  0.4959347E-05  0.2449130E+04  0.7818609E-02  0.8421336E-01
       -2   -1    0    0    0  501  0.00000000000E+00  0.00000000000E+00  0.12999798950E+04  0.12999798950E+04  0.25500000920E-02 0.  1.
        2   -1    0    0  501    0  0.00000000000E+00  0.00000000000E+00 -0.11535252311E+04  0.11535252311E+04  0.25500000920E-02 0. -1.
    10030    2    1    2    0    0  0.00000000000E+00  0.00000000000E+00  0.14645466390E+03  0.24535051260E+04  0.24491301384E+04 0.  0.
        3    1    3    3  502    0 -0.36900137242E+03  0.11307999141E+04 -0.21830650468E+03  0.12093503210E+04  0.10100000352E+00 0. -1.
       -3    1    3    3    0  502  0.36900137242E+03 -0.11307999141E+04  0.36476116859E+03  0.12441548051E+04  0.10100000352E+00 0.  1.
</event>
<event>
 5   0  0.5219468E-05  0.2373496E+04  0.7818609E-02  0.8449494E-01
        2   -1    0    0  501    0  0.00000000000E+00  0.00000000000E+00  0.12823556527E+04  0.12823556527E+04  0.25500000920E-02 0.  1.
       -2   -1    0    0    0  501  0.00000000000E+00  0.00000000000E+00 -0.10982682134E+04  0.10982682134E+04  0.25500000920E-02 0. -1.
    10030    2    1    2    0    0  0.00000000000E+00  0.00000000000E+00  0.18408743924E+03  0.23806238661E+04  0.23734956934E+04 0.  0.
        1    1    3    3  502    0  0.10559707098E+04 -0.50359557567E+03 -0.10777257018E+03  0.11748606601E+04  0.50400001928E-02 0.  1.
       -1    1    3    3    0  502 -0.10559707098E+04  0.50359557567E+03  0.29186000942E+03  0.12057632060E+04  0.50400001928E-02 0. -1.
</event>
<event>
 5   0  0.2036578E-05  0.2481541E+04  0.7818609E-02  0.8409591E-01
       -1   -1    0    0    0  501  0.00000000000E+00  0.00000000000E+00  0.10560385796E+04  0.10560385796E+04  0.50400001928E-02 0. -1.
        1   -1    0    0  501    0  0.00000000000E+00  0.00000000000E+00 -0.14578168879E+04  0.14578168879E+04  0.50400001928E-02 0.  1.
    10030    2    1    2    0    0  0.00000000000E+00  0.00000000000E+00 -0.40177830828E+03  0.25138554675E+04  0.24815405503E+04 0.  0.
        2    1    3    3  502    0 -0.11518705156E+04  0.33575287883E+03 -0.52119514289E+03  0.13081208115E+04  0.25500000920E-02 0.  1.
       -2    1    3    3    0  502  0.11518705156E+04 -0.33575287883E+03  0.11941683461E+03  0.12057346561E+04  0.25500000920E-02 0. -1.
</event>
<event>
 5   0  0.2081874E-05  0.2436089E+04  0.7818609E-02  0.8426115E-01
       -1   -1    0    0    0  501  0.00000000000E+00  0.00000000000E+00  0.84990949312E+03  0.84990949314E+03  0.50400001928E-02 0. -1.
        1   -1    0    0  501    0  0.00000000000E+00  0.00000000000E+00 -0.17456350478E+04  0.17456350478E+04  0.50400001928E-02 0.  1.
    10030    2    1    2    0    0  0.00000000000E+00  0.00000000000E+00 -0.89572555463E+03  0.25955445409E+04  0.24360885030E+04 0.  0.
        1    1    3    3  502    0 -0.11820160147E+04  0.10538527809E+03 -0.74035684095E+03  0.13987123249E+04  0.50400001928E-02 0.  1.
       -1    1    3    3    0  502  0.11820160147E+04 -0.10538527809E+03 -0.15536871368E+03  0.11968322160E+04  0.50400001928E-02 0. -1.
</event>
<event>
 5   0  0.5024070E-05  0.2441175E+04  0.7818609E-02  0.8424247E-01
       -2   -1    0    0    0  501  0.00000000000E+00  0.00000000000E+00  0.88072793029E+03  0.88072793029E+03  0.25500000920E-02 0. -1.
        2   -1    0    0  501    0  0.00000000000E+00  0.00000000000E+00 -0.16915932994E+04  0.16915932994E+04  0.25500000920E-02 0.  1.
    10030    2    1    2    0    0  0.00000000000E+00  0.00000000000E+00 -0.81086536913E+03  0.25723212297E+04  0.24411746889E+04 0.  0.
        5    1    3    3  502    0  0.91953492712E+03 -0.20777968486E+03 -0.12223869023E+04  0.15436867262E+04  0.46999998093E+01 0.  1.
       -5    1    3    3    0  502 -0.91953492712E+03  0.20777968486E+03  0.41152153316E+03  0.10286345035E+04  0.46999998093E+01 0. -1.
</event>
<event>
 5   0  0.2066170E-05  0.2475549E+04  0.7818609E-02  0.8411748E-01
        1   -1    0    0  501    0  0.00000000000E+00  0.00000000000E+00  0.21767948107E+04  0.21767948107E+04  0.50400001928E-02 0.  1.
       -1   -1    0    0    0  501  0.00000000000E+00  0.00000000000E+00 -0.70382660304E+03  0.70382660305E+03  0.50400001928E-02 0. -1.
    10030    2    1    2    0    0  0.00000000000E+00  0.00000000000E+00  0.14729682077E+04  0.28806214138E+04  0.24755493105E+04 0.  0.
        5    1    3    3  502    0  0.32280296844E+03  0.11467499570E+04  0.34562456666E+03  0.12404497779E+04  0.46999998093E+01 0. -1.
       -5    1    3    3    0  502 -0.32280296844E+03 -0.11467499570E+04  0.11273436410E+04  0.16401716359E+04  0.46999998093E+01 0.  1.
</event>
<event>
 5   0  0.2041718E-05  0.2522837E+04  0.7818609E-02  0.8394895E-01
        1   -1    0    0  501    0  0.00000000000E+00  0.00000000000E+00  0.97965583969E+03  0.97965583971E+03  0.50400001928E-02 0.  1.
       -1   -1    0    0    0  501  0.00000000000E+00  0.00000000000E+00 -0.16242203226E+04  0.16242203226E+04  0.50400001928E-02 0. -1.
    10030    2    1    2    0    0  0.00000000000E+00  0.00000000000E+00 -0.64456448291E+03  0.26038761623E+04  0.25228372314E+04 0.  0.
        4    1    3    3  502    0  0.43179484071E+03  0.73643296899E+03 -0.12807647932E+04  0.15392012119E+04  0.12699999809E+01 0. -1.
       -4    1    3    3    0  502 -0.43179484071E+03 -0.73643296899E+03  0.63620031031E+03  0.10646749504E+04  0.12699999809E+01 0.  1.
</event>
<event>
 5   0  0.5024070E-05  0.2452484E+04  0.7818609E-02  0.8420112E-01
       -2   -1    0    0    0  501  0.00000000000E+00  0.00000000000E+00  0.83618093531E+03  0.83618093531E+03  0.25500000920E-02 0. -1.
        2   -1    0    0  501    0  0.00000000000E+00  0.00000000000E+00 -0.17982581558E+04  0.17982581558E+04  0.25500000920E-02 0.  1.
    10030    2    1    2    0    0  0.00000000000E+00  0.00000000000E+00 -0.96207722053E+03  0.26344390912E+04  0.24524837913E+04 0.  0.
        5    1    3    3  502    0  0.68215736938E+03 -0.96746214353E+03 -0.82465493327E+03  0.14427056265E+04  0.46999998093E+01 0.  1.
       -5    1    3    3    0  502 -0.68215736938E+03  0.96746214353E+03 -0.13742228726E+03  0.11917334647E+04  0.46999998093E+01 0. -1.
</event>
<event>
 5   0  0.1692125E-05  0.2488457E+04  0.7818609E-02  0.8407110E-01
       -3   -1    0    0    0  501  0.00000000000E+00  0.00000000000E+00  0.11714667250E+04  0.11714667293E+04  0.10100000352E+00 0.  1.
        3   -1    0    0  501    0  0.00000000000E+00  0.00000000000E+00 -0.13215091497E+04  0.13215091535E+04  0.10100000352E+00 0. -1.
    10030    2    1    2    0    0  0.00000000000E+00  0.00000000000E+00 -0.15004242469E+03  0.24929758829E+04  0.24884565544E+04 0.  0.
        4    1    3    3  502    0 -0.22812510188E+03 -0.56699726511E+03  0.10107253692E+04  0.11811411201E+04  0.12699999809E+01 0.  1.
       -4    1    3    3    0  502  0.22812510188E+03  0.56699726511E+03 -0.11607677938E+04  0.13118347628E+04  0.12699999809E+01 0. -1.
</event>
<event>
 5   0  0.5024070E-05  0.2278987E+04  0.7818609E-02  0.8486253E-01
       -2   -1    0    0    0  501  0.00000000000E+00  0.00000000000E+00  0.11574552631E+04  0.11574552631E+04  0.25500000920E-02 0.  1.
        2   -1    0    0  501    0  0.00000000000E+00  0.00000000000E+00 -0.11218106689E+04  0.11218106689E+04  0.25500000920E-02 0. -1.
    10030    2    1    2    0    0  0.00000000000E+00  0.00000000000E+00  0.35644594249E+02  0.22792659320E+04  0.22789871987E+04 0.  0.
        5    1    3    3  502    0  0.74001539131E+02 -0.19698724866E+03  0.11378446923E+04  0.11571485807E+04  0.46999998093E+01 0.  1.
       -5    1    3    3    0  502 -0.74001539131E+02  0.19698724866E+03 -0.11022000981E+04  0.11221173513E+04  0.46999998093E+01 0. -1.
</event>
<event>
 5   0  0.4959042E-05  0.2477537E+04  0.7818609E-02  0.8411032E-01
        2   -1    0    0  501    0  0.00000000000E+00  0.00000000000E+00  0.11248824808E+04  0.11248824809E+04  0.25500000920E-02 0.  1.
       -2   -1    0    0    0  501  0.00000000000E+00  0.00000000000E+00 -0.13641843833E+04  0.13641843833E+04  0.25500000920E-02 0. -1.
    10030    2    1    2    0    0  0.00000000000E+00  0.00000000000E+00 -0.23930190246E+03  0.24890668642E+04  0.24775367714E+04 0.  0.
        4    1    3    3  502    0 -0.75996289339E+03 -0.45527313459E+02 -0.11014034901E+04  0.13389203100E+04  0.12699999809E+01 0. -1.
       -4    1    3    3    0  502  0.75996289339E+03  0.45527313459E+02  0.86210158769E+03  0.11501465541E+04  0.12699999809E+01 0.  1.
</event>
<event>
 5   0  0.5219468E-05  0.2513192E+04  0.7818609E-02  0.8398301E-01
       -2   -1    0    0    0  501  0.00000000000E+00  0.00000000000E+00  0.97376095561E+03  0.97376095561E+03  0.25500000920E-02 0.  1.
        2   -1    0    0  501    0  0.00000000000E+00  0.00000000000E+00 -0.16215819620E+04  0.16215819621E+04  0.25500000920E-02 0. -1.
    10030    2    1    2    0    0  0.00000000000E+00  0.00000000000E+00 -0.64782100644E+03  0.25953429177E+04  0.25131917563E+04 0.  0.
        1    1    3    3  502    0 -0.35014826803E+03 -0.10555245746E+04 -0.92809675094E+03  0.14484817970E+04  0.50400001928E-02 0. -1.
       -1    1    3    3    0  502  0.35014826803E+03  0.10555245746E+04  0.28027574450E+03  0.11468611207E+04  0.50400001928E-02 0.  1.
</event>
<event>
 5   0  0.5219468E-05  0.2295909E+04  0.7818609E-02  0.8479536E-01
       -2   -1    0    0    0  501  0.00000000000E+00  0.00000000000E+00  0.61139641136E+03  0.61139641136E+03  0.25500000920E-02 0. -1.
        2   -1    0    0  501    0  0.00000000000E+00  0.00000000000E+00 -0.21553936042E+04  0.21553936042E+04  0.25500000920E-02 0.  1.
    10030    2    1    2    0    0  0.00000000000E+00  0.00000000000E+00 -0.15439971929E+04  0.27667900156E+04  0.22959093316E+04 0.  0.
        1    1    3    3  502    0  0.41386647910E+03  0.82228837174E+03 -0.15984835333E+04  0.18446119470E+04  0.50400001928E-02 0.  1.
       -1    1    3    3    0  502 -0.41386647910E+03 -0.82228837174E+03  0.54486340438E+02  0.92217806856E+03  0.50400001928E-02 0. -1.
</event>
<event>
 5   0  0.2036578E-05  0.2434959E+04  0.7818609E-02  0.8426530E-01
       -1   -1    0    0    0  501  0.00000000000E+00  0.00000000000E+00  0.73479185309E+03  0.73479185311E+03  0.50400001928E-02 0.  1.
        1   -1    0    0  501    0  0.00000000000E+00  0.00000000000E+00 -0.20172466465E+04  0.20172466465E+04  0.50400001928E-02 0. -1.
    10030    2    1    2    0    0  0.00000000000E+00  0.00000000000E+00 -0.12824547934E+04  0.27520384996E+04  0.24349590564E+04 0.  0.
        2    1    3    3  502    0  0.25872899132E+02 -0.19251641782E+03  0.71716513983E+03  0.74300593257E+03  0.25500000920E-02 0.  1.
       -2    1    3    3    0  502 -0.25872899132E+02  0.19251641782E+03 -0.19996199332E+04  0.20090325670E+04  0.25500000920E-02 0. -1.
</event>
<event>
 5   0  0.5219468E-05  0.2536946E+04  0.7818609E-02  0.8389940E-01
       -2   -1    0    0    0  501  0.00000000000E+00  0.00000000000E+00  0.12590977119E+04  0.12590977119E+04  0.25500000920E-02 0. -1.
        2   -1    0    0  501    0  0.00000000000E+00  0.00000000000E+00 -0.12779179688E+04  0.12779179688E+04  0.25500000920E-02 0.  1.
    10030    2    1    2    0    0  0.00000000000E+00  0.00000000000E+00 -0.18820256883E+02  0.25370156808E+04  0.25369458730E+04 0.  0.
        1    1    3    3  502    0 -0.44572904577E+03  0.86119190851E+03  0.80835175986E+03  0.12624414653E+04  0.50400001928E-02 0. -1.
       -1    1    3    3    0  502  0.44572904577E+03 -0.86119190851E+03 -0.82717201675E+03  0.12745742155E+04  0.50400001928E-02 0.  1.
</event>
<event>
 5   0  0.2066170E-05  0.2540805E+04  0.7818609E-02  0.8388591E-01
       -1   -1    0    0    0  501  0.00000000000E+00  0.00000000000E+00  0.95393116603E+03  0.95393116605E+03  0.50400001928E-02 0.  1.
        1   -1    0    0  501    0  0.00000000000E+00  0.00000000000E+00 -0.16918647055E+04  0.16918647055E+04  0.50400001928E-02 0. -1.
    10030    2    1    2    0    0  0.00000000000E+00  0.00000000000E+00 -0.73793353944E+03  0.26457958715E+04  0.25408049679E+04 0.  0.
        5    1    3    3  502    0 -0.19509663778E+01  0.90423631822E+03  0.56023625561E+03  0.10637358119E+04  0.46999998093E+01 0.  1.
       -5    1    3    3    0  502  0.19509663778E+01 -0.90423631822E+03 -0.12981697950E+04  0.15820600596E+04  0.46999998093E+01 0. -1.
</event>
<event>
 5   0  0.2063930E-05  0.2503169E+04  0.7818609E-02  0.8401857E-01
       -1   -1    0    0    0  501  0.00000000000E+00  0.00000000000E+00  0.12274537702E+04  0.12274537702E+04  0.50400001928E-02 0. -1.
        1   -1    0    0  501    0  0.00000000000E+00  0.00000000000E+00 -0.12761896224E+04  0.12761896224E+04  0.50400001928E-02 0.  1.
    10030    2    1    2    0    0  0.00000000000E+00  0.00000000000E+00 -0.48735852243E+02  0.25036433926E+04  0.25031690023E+04 0.  0.
        3    1    3    3  502    0 -0.81821373318E+03  0.31810041793E+03  0.86787857969E+03  0.12344532508E+04  0.10100000352E+00 0. -1.
       -3    1    3    3    0  502  0.81821373318E+03 -0.31810041793E+03 -0.91661443193E+03  0.12691901418E+04  0.10100000352E+00 0.  1.
</event>
<event>
 5   0  0.4959042E-05  0.2476995E+04  0.7818609E-02  0.8411227E-01
        2   -1    0    0  501    0  0.00000000000E+00  0.00000000000E+00  0.18479721600E+04  0.18479721600E+04  0.25500000920E-02 0. -1.
       -2   -1    0    0    0  501  0.00000000000E+00  0.00000000000E+00 -0.83003189858E+03  0.83003189858E+03  0.25500000920E-02 0.  1.
    10030    2    1    2    0    0  0.00000000000E+00  0.00000000000E+00  0.10179402614E+04  0.26780040585E+04  0.24769948248E+04 0.  0.
        4    1    3    3  502    0 -0.36088364917E+03  0.91363622623E+02 -0.76811061783E+03  0.85356889230E+03  0.12699999809E+01 0.  1.
       -4    1    3    3    0  502  0.36088364917E+03 -0.91363622623E+02  0.17860508792E+04  0.18244351662E+04  0.12699999809E+01 0. -1.
</event>
<event>
 5   0  0.2081874E-05  0.2433778E+04  0.7818609E-02  0.8426965E-01
       -1   -1    0    0    0  501  0.00000000000E+00  0.00000000000E+00  0.13757903740E+04  0.13757903740E+04  0.50400001928E-02 0.  1.
        1   -1    0    0  501    0  0.00000000000E+00  0.00000000000E+00 -0.10763400320E+04  0.10763400321E+04  0.50400001928E-02 0. -1.
    10030    2    1    2    0    0  0.00000000000E+00  0.00000000000E+00  0.29945034199E+03  0.24521304061E+04  0.24337775209E+04 0.  0.
        1    1    3    3  502    0 -0.85635100644E+03 -0.11589308693E+02 -0.72128616017E+03  0.11196986573E+04  0.50400001928E-02 0. -1.
       -1    1    3    3    0  502  0.85635100644E+03  0.11589308693E+02  0.10207365022E+04  0.13324317488E+04  0.50400001928E-02 0.  1.
</event>
<event>
 5   0  0.4959347E-05  0.2509556E+04  0.7818609E-02  0.8399589E-01
        2   -1    0    0  501    0  0.00000000000E+00  0.00000000000E+00  0.21598494663E+04  0.21598494663E+04  0.25500000920E-02 0.  1.
       -2   -1    0    0    0  501  0.00000000000E+00  0.00000000000E+00 -0.72897103313E+03  0.72897103313E+03  0.25500000920E-02 0. -1.
    10030    2    1    2    0    0  0.00000000000E+00  0.00000000000E+00  0.14308784332E+04  0.28888204994E+04  0.25095558945E+04 0.  0.
        3    1    3    3  502    0  0.12513947555E+04  0.83003910016E+02  0.66954970316E+03  0.14216804487E+04  0.10100000352E+00 0. -1.
       -3    1    3    3    0  502 -0.12513947555E+04 -0.83003910016E+02  0.76132873001E+03  0.14671400507E+04  0.10100000352E+00 0.  1.
</event>
<event>
 5   0  0.4959347E-05  0.2507470E+04  0.7818609E-02  0.8400329E-01
       -2   -1    0    0    0  501  0.00000000000E+00  0.00000000000E+00  0.53370593798E+03  0.53370593799E+03  0.25500000920E-02 0. -1.
        2   -1    0    0  501    0  0.00000000000E+00  0.00000000000E+00 -0.29451639978E+04  0.29451639978E+04  0.25500000920E-02 0.  1.
    10030    2    1    2    0    0  0.00000000000E+00  0.00000000000E+00 -0.24114580599E+04  0.34788699358E+04  0.25074700509E+04 0.  0.
        3    1    3    3  502    0 -0.92720921878E+03  0.29584878262E+03 -0.23022229599E+04  0.24994947499E+04  0.10100000352E+00 0.  1.
       -3    1    3    3    0  502  0.92720921878E+03 -0.29584878262E+03 -0.10923510000E+03  0.97937518595E+03  0.10100000352E+00 0. -1.
</event>
<event>
 5   0  0.4959347E-05  0.2605126E+04  0.7818609E-02  0.8366462E-01
        2   -1    0    0  501    0  0.00000000000E+00  0.00000000000E+00  0.17396881141E+04  0.17396881141E+04  0.25500000920E-02 0. -1.
       -2   -1    0    0    0  501  0.00000000000E+00  0.00000000000E+00 -0.97527241614E+03  0.97527241615E+03  0.25500000920E-02 0.  1.
    10030    2    1    2    0    0  0.00000000000E+00  0.00000000000E+00  0.76441569797E+03  0.27149605303E+04  0.26051255865E+04 0.  0.
        3    1    3    3  502    0 -0.40032591774E+03 -0.24478743402E+02 -0.90931938674E+03  0.99384194246E+03  0.10100000352E+00 0.  1.
       -3    1    3    3    0  502  0.40032591774E+03  0.24478743402E+02  0.16737350847E+04  0.17211185878E+04  0.10100000352E+00 0. -1.
</event>
<event>
 5   0  0.2036578E-05  0.2435995E+04  0.7818609E-02  0.8426149E-01
       -1   -1    0    0    0  501  0.00000000000E+00  0.00000000000E+00  0.98515390613E+03  0.98515390615E+03  0.50400001928E-02 0.  1.
        1   -1    0    0  501    0  0.00000000000E+00  0.00000000000E+00 -0.15058747973E+04  0.15058747973E+04  0.50400001928E-02 0. -1.
    10030    2    1    2    0    0  0.00000000000E+00  0.00000000000E+00 -0.52072089113E+03  0.24910287034E+04  0.24359954341E+04 0.  0.
        2    1    3    3  502    0  0.12164046924E+04  0.13745885686E+02 -0.19825019549E+03  0.12325309185E+04  0.25500000920E-02 0.  1.
       -2    1    3    3    0  502 -0.12164046924E+04 -0.13745885686E+02 -0.32247069564E+03  0.12584977849E+04  0.25500000920E-02 0. -1.
</event>
<event>
 5   0  0.5024070E-05  0.2522991E+04  0.7818609E-02  0.8394840E-01
        2   -1    0    0  501    0  0.00000000000E+00  0.00000000000E+00  0.18662450176E+04  0.18662450176E+04  0.25500000920E-02 0. -1.
       -2   -1    0    0    0  501  0.00000000000E+00  0.00000000000E+00 -0.85271282009E+03  0.85271282009E+03  0.25500000920E-02 0.  1.
    10030    2    1    2    0    0  0.00000000000E+00  0.00000000000E+00  0.10135321975E+04  0.27189578377E+04  0.25229911232E+04 0.  0.
        5    1    3    3  502    0  0.73010824355E+02 -0.49133143713E+03  0.17564069378E+04  0.18253012307E+04  0.46999998093E+01 0. -1.
       -5    1    3    3    0  502 -0.73010824355E+02  0.49133143713E+03 -0.74287474026E+03  0.89365660703E+03  0.46999998093E+01 0.  1.
</event>
<event>
 5   0  0.5024070E-05  0.2316773E+04  0.7818609E-02  0.8471337E-01
       -2   -1    0    0    0  501  0.00000000000E+00  0.00000000000E+00  0.13595162290E+04  0.13595162290E+04  0.25500000920E-02 0. -1.
        2   -1    0    0  501    0  0.00000000000E+00  0.00000000000E+00 -0.98701267275E+03  0.98701267276E+03  0.25500000920E-02 0.  1.
    10030    2    1    2    0    0  0.00000000000E+00  0.00000000000E+00  0.37250355623E+03  0.23465289017E+04  0.23167734001E+04 0.  0.
        5    1    3    3  502    0 -0.49535246653E+03  0.23316021429E+03 -0.84769224652E+03  0.10091293210E+04  0.46999998093E+01 0.  1.
       -5    1    3    3    0  502  0.49535246653E+03 -0.23316021429E+03  0.12201958028E+04  0.13373995808E+04  0.46999998093E+01 0. -1.
</event>
<event>
 5   0  0.4959042E-05  0.2503638E+04  0.7818609E-02  0.8401691E-01
       -2   -1    0    0    0  501  0.00000000000E+00  0.00000000000E+00  0.11941576131E+04  0.11941576131E+04  0.25500000920E-02 0.  1.
        2   -1    0    0  501    0  0.00000000000E+00  0.00000000000E+00 -0.13122648868E+04  0.13122648868E+04  0.25500000920E-02 0. -1.
    10030    2    1    2    0    0  0.00000000000E+00  0.00000000000E+00 -0.11810727371E+03  0.25064224999E+04  0.25036382366E+04 0.  0.
        4    1    3    3  502    0  0.80290196700E+03  0.86004810979E+03  0.36887368002E+03  0.12330465216E+04  0.12699999809E+01 0.  1.
       -4    1    3    3    0  502 -0.80290196700E+03 -0.86004810979E+03 -0.48698095373E+03  0.12733759782E+04  0.12699999809E+01 0. -1.
</event>
<event>
 5   0  0.4959042E-05  0.2650910E+04  0.7818609E-02  0.8351111E-01
        2   -1    0    0  501    0  0.00000000000E+00  0.00000000000E+00  0.94710417780E+03  0.94710417780E+03  0.25500000920E-02 0. -1.
       -2   -1    0    0    0  501  0.00000000000E+00  0.00000000000E+00 -0.18549505204E+04  0.18549505204E+04  0.25500000920E-02 0.  1.
    10030    2    1    2    0    0  0.00000000000E+00  0.00000000000E+00 -0.90784634255E+03  0.28020546982E+04  0.26509103247E+04 0.  0.
        4    1    3    3  502    0  0.27851788812E+03 -0.50202629687E+03  0.80885807256E+03  0.99189495976E+03  0.12699999809E+01 0. -1.
       -4    1    3    3    0  502 -0.27851788812E+03  0.50202629687E+03 -0.17167044151E+04  0.18101597384E+04  0.12699999809E+01 0.  1.
</event>
<event>
 5   0  0.2041718E-05  0.2533513E+04  0.7818609E-02  0.8391143E-01
        1   -1    0    0  501    0  0.00000000000E+00  0.00000000000E+00  0.10835861192E+04  0.10835861193E+04  0.50400001928E-02 0.  1.
       -1   -1    0    0    0  501  0.00000000000E+00  0.00000000000E+00 -0.14808905786E+04  0.14808905787E+04  0.50400001928E-02 0. -1.
    10030    2    1    2    0    0  0.00000000000E+00  0.00000000000E+00 -0.39730445941E+03  0.25644766979E+04  0.25335133512E+04 0.  0.
        4    1    3    3  502    0  0.83467495783E+03 -0.65599116342E+03  0.50092697760E+03  0.11738552473E+04  0.12699999809E+01 0.  1.
       -4    1    3    3    0  502 -0.83467495783E+03  0.65599116342E+03 -0.89823143701E+03  0.13906214507E+04  0.12699999809E+01 0. -1.
</event>
<event>
 5   0  0.4959347E-05  0.2473716E+04  0.7818609E-02  0.8412410E-01
        2   -1    0    0  501    0  0.00000000000E+00  0.00000000000E+00  0.25877401842E+04  0.25877401842E+04  0.25500000920E-02 0.  1.
       -2   -1    0    0    0  501  0.00000000000E+00  0.00000000000E+00 -0.59117882246E+03  0.59117882246E+03  0.25500000920E-02 0. -1.
    10030    2    1    2    0    0  0.00000000000E+00  0.00000000000E+00  0.19965613617E+04  0.31789190066E+04  0.24737155818E+04 0.  0.
        3    1    3    3  502    0 -0.30281255804E+03 -0.31356008428E+03 -0.48919535898E+03  0.65523086100E+03  0.10100000352E+00 0. -1.
       -3    1    3    3    0  502  0.30281255804E+03  0.31356008428E+03  0.24857567207E+04  0.25236881456E+04  0.10100000352E+00 0.  1.
</event>
<event>
 5   0  0.2041718E-05  0.2515876E+04  0.7818609E-02  0.8397351E-01
       -1   -1    0    0    0  501  0.00000000000E+00  0.00000000000E+00  0.10002206991E+04  0.10002206991E+04  0.50400001928E-02 0. -1.
        1   -1    0    0  501    0  0.00000000000E+00  0.00000000000E+00 -0.15820588414E+04  0.15820588414E+04  0.50400001928E-02 0.  1.
    10030    2    1    2    0    0  0.00000000000E+00  0.00000000000E+00 -0.58183814234E+03  0.25822795405E+04  0.25158759909E+04 0.  0.
        4    1    3    3  502    0 -0.12155902247E+04  0.30448394254E+03 -0.17831323036E+03  0.12657674695E+04  0.12699999809E+01 0. -1.
       -4    1    3    3    0  502  0.12155902247E+04 -0.30448394254E+03 -0.40352491198E+03  0.13165120710E+04  0.12699999809E+01 0.  1.
</event>
<event>
 5   0  0.5219468E-05  0.2038201E+04  0.7818609E-02  0.8588966E-01
       -2   -1    0    0    0  501  0.00000000000E+00  0.00000000000E+00  0.10825852049E+04  0.10825852049E+04  0.25500000920E-02 0.  1.
        2   -1    0    0  501    0  0.00000000000E+00  0.00000000000E+00 -0.95933892845E+03  0.95933892845E+03  0.25500000920E-02 0. -1.
    10030    2    1    2    0    0  0.00000000000E+00  0.00000000000E+00  0.12324627649E+03  0.20419241334E+04  0.20382012957E+04 0.  0.
        1    1    3    3  502    0 -0.11291785078E+03 -0.81742410769E+03 -0.53749385208E+03  0.98480061632E+03  0.50400001928E-02 0. -1.
       -1    1    3    3    0  502  0.11291785078E+03  0.81742410769E+03  0.66074012857E+03  0.10571235171E+04  0.50400001928E-02 0.  1.
</event>
<event>
 5   0  0.4995256E-05  0.2491117E+04  0.7818609E-02  0.8406157E-01
        2   -1    0    0  501    0  0.00000000000E+00  0.00000000000E+00  0.16531058347E+04  0.16531058347E+04  0.25500000920E-02 0.  1.
       -2   -1    0    0    0  501  0.00000000000E+00  0.00000000000E+00 -0.93848521879E+03  0.93848521879E+03  0.25500000920E-02 0. -1.
    10030    2    1    2    0    0  0.00000000000E+00  0.00000000000E+00  0.71462061591E+03  0.25915910535E+04  0.24911165296E+04 0.  0.
        2    1    3    3  502    0  0.53144051081E+03  0.88301893984E+03  0.10849963198E+04  0.14964519634E+04  0.25500000920E-02 0.  1.
       -2    1    3    3    0  502 -0.53144051081E+03 -0.88301893984E+03 -0.37037570392E+03  0.10951390901E+04  0.25500000920E-02 0. -1.
</event>
<event>
 5   0  0.2081874E-05  0.2440187E+04  0.7818609E-02  0.8424610E-01
       -1   -1    0    0    0  501  0.00000000000E+00  0.00000000000E+00  0.85875927594E+03  0.85875927595E+03  0.50400001928E-02 0.  1.
        1   -1    0    0  501    0  0.00000000000E+00  0.00000000000E+00 -0.17334632534E+04  0.17334632534E+04  0.50400001928E-02 0. -1.
    10030    2    1    2    0    0  0.00000000000E+00  0.00000000000E+00 -0.87470397743E+03  0.25922225293E+04  0.24401865899E+04 0.  0.
        1    1    3    3  502    0 -0.21380658857E+03 -0.70432856349E+03  0.59632904798E+03  0.94731215349E+03  0.50400001928E-02 0.  1.
       -1    1    3    3    0  502  0.21380658857E+03  0.70432856349E+03 -0.14710330254E+04  0.16449103758E+04  0.50400001928E-02 0. -1.
</event>
<event>
 5   0  0.2036578E-05  0.2500686E+04  0.7818609E-02  0.8402741E-01
        1   -1    0    0  501    0  0.00000000000E+00  0.00000000000E+00  0.15294046887E+04  0.15294046887E+04  0.50400001928E-02 0. -1.
       -1   -1    0    0    0  501  0.00000000000E+00  0.00000000000E+00 -0.10222000775E+04  0.10222000775E+04  0.50400001928E-02 0.  1.
    10030    2    1    2    0    0  0.00000000000E+00  0.00000000000E+00  0.50720461115E+03  0.25516047662E+04  0.25006859789E+04 0.  0.
        2    1    3    3  502    0 -0.75675120569E+03 -0.14535377140E+03  0.12583130055E+04  0.14755174434E+04  0.25500000920E-02 0. -1.
       -2    1    3    3    0  502  0.75675120569E+03  0.14535377140E+03 -0.75110839431E+03  0.10760873227E+04  0.25500000920E-02 0.  1.
</event>
<event>
 5   0  0.4959042E-05  0.2497642E+04  0.7818609E-02  0.8403826E-01
        2   -1    0    0  501    0  0.00000000000E+00  0.00000000000E+00  0.17877434996E+04  0.17877434996E+04  0.25500000920E-02 0.  1.
       -2   -1    0    0    0  501  0.00000000000E+00  0.00000000000E+00 -0.87235877450E+03  0.87235877451E+03  0.25500000920E-02 0. -1.
    10030    2    1    2    0    0  0.00000000000E+00  0.00000000000E+00  0.91538472506E+03  0.26601022741E+04  0.24976418706E+04 0.  0.
        4    1    3    3  502    0  0.98401007715E+03 -0.55566625846E+03 -0.10839840816E+03  0.11352500388E+04  0.12699999809E+01 0. -1.
       -4    1    3    3    0  502 -0.98401007715E+03  0.55566625846E+03  0.10237831332E+04  0.15248522353E+04  0.12699999809E+01 0.  1.
</event>
<event>
 5   0  0.4959042E-05  0.2507107E+04  0.7818609E-02  0.8400458E-01
        2   -1    0    0  501    0  0.00000000000E+00  0.00000000000E+00  0.15117462610E+04  0.15117462610E+04  0.25500000920E-02 0. -1.
       -2   -1    0    0    0  501  0.00000000000E+00  0.00000000000E+00 -0.10394579099E+04  0.10394579099E+04  0.25500000920E-02 0.  1.
    10030    2    1    2    0    0  0.00000000000E+00  0.00000000000E+00  0.47228835112E+03  0.25512041708E+04  0.25071071845E+04 0.  0.
        4    1    3    3  502    0 -0.83849126213E+03  0.38120018007E+03 -0.62911380712E+03  0.11154223277E+04  0.12699999809E+01 0.  1.
       -4    1    3    3    0  502  0.83849126213E+03 -0.38120018007E+03  0.11014021582E+04  0.14357818431E+04  0.12699999809E+01 0. -1.
</event>
<event>
 5   0  0.2041718E-05  0.2476326E+04  0.7818609E-02  0.8411468E-01
       -1   -1    0    0    0  501  0.00000000000E+00  0.00000000000E+00  0.15998682950E+04  0.15998682950E+04  0.50400001928E-02 0.  1.
        1   -1    0    0  501    0  0.00000000000E+00  0.00000000000E+00 -0.95823383753E+03  0.95823383754E+03  0.50400001928E-02 0. -1.
    10030    2    1    2    0    0  0.00000000000E+00  0.00000000000E+00  0.64163445743E+03  0.25581021325E+04  0.24763262595E+04 0.  0.
        4    1    3    3  502    0 -0.45371621198E+03  0.11502884754E+04  0.38634986381E+03  0.12954882508E+04  0.12699999809E+01 0.  1.
       -4    1    3    3    0  502  0.45371621198E+03 -0.11502884754E+04  0.25528459362E+03  0.12626138817E+04  0.12699999809E+01 0. -1.
</event>
<event>
 5   0  0.2036578E-05  0.2539627E+04  0.7818609E-02  0.8389003E-01
        1   -1    0    0  501    0  0.00000000000E+00  0.00000000000E+00  0.12080830814E+04  0.12080830814E+04  0.50400001928E-02 0.  1.
       -1   -1    0    0    0  501  0.00000000000E+00  0.00000000000E+00 -0.13346978516E+04  0.13346978516E+04  0.50400001928E-02 0. -1.
    10030    2    1    2    0    0  0.00000000000E+00  0.00000000000E+00 -0.12661477020E+03  0.25427809330E+04  0.25396266602E+04 0.  0.
        2    1    3    3  502    0  0.70212113837E+03  0.20130410602E+03  0.97669753212E+03  0.12196046512E+04  0.25500000920E-02 0.  1.
       -2    1    3    3    0  502 -0.70212113837E+03 -0.20130410602E+03 -0.11033123023E+04  0.13231762817E+04  0.25500000920E-02 0. -1.
</event>
<event>
 5   0  0.5024070E-05  0.2511103E+04  0.7818609E-02  0.8399041E-01
        2   -1    0    0  501    0  0.00000000000E+00  0.00000000000E+00  0.98561177696E+03  0.98561177697E+03  0.25500000920E-02 0.  1.
       -2   -1    0    0    0  501  0.00000000000E+00  0.00000000000E+00 -0.15994219494E+04  0.15994219494E+04  0.25500000920E-02 0. -1.
    10030    2    1    2    0    0  0.00000000000E+00  0.00000000000E+00 -0.61381017244E+03  0.25850337264E+04  0.25111026340E+04 0.  0.
        5    1    3    3  502    0 -0.38139141376E+03 -0.11911478388E+04 -0.42011762962E+03  0.13193989151E+04  0.46999998093E+01 0. -1.
       -5    1    3    3    0  502  0.38139141376E+03  0.11911478388E+04 -0.19369254283E+03  0.12656348113E+04  0.46999998093E+01 0.  1.
</event>
<event>
 5   0  0.1692125E-05  0.2528022E+04  0.7818609E-02  0.8393070E-01
        4   -1    0    0  501    0  0.00000000000E+00  0.00000000000E+00  0.12653524161E+04  0.12653530534E+04  0.12699999809E+01 0.  1.
       -4   -1    0    0    0  501  0.00000000000E+00  0.00000000000E+00 -0.12626697506E+04  0.12626703893E+04  0.12699999809E+01 0. -1.
    10030    2    1    2    0    0  0.00000000000E+00  0.00000000000E+00  0.26826655411E+01  0.25280234427E+04  0.25280220193E+04 0.  0.
        3    1    3    3  502    0 -0.95490341640E+03 -0.60322978878E+03  0.56878954381E+03  0.12646138810E+04  0.10100000352E+00 0.  1.
       -3    1    3    3    0  502  0.95490341640E+03  0.60322978878E+03 -0.56610687827E+03  0.12634095617E+04  0.10100000352E+00 0. -1.
</event>
<event>
 5   0  0.2066170E-05  0.2388805E+04  0.7818609E-02  0.8443707E-01
        1   -1    0    0  501    0  0.00000000000E+00  0.00000000000E+00  0.14013675694E+04  0.14013675694E+04  0.50400001928E-02 0.  1.
       -1   -1    0    0    0  501  0.00000000000E+00  0.00000000000E+00 -0.10180033287E+04  0.10180033287E+04  0.50400001928E-02 0. -1.
    10030    2    1    2    0    0  0.00000000000E+00  0.00000000000E+00  0.38336424068E+03  0.24193708981E+04  0.23888045967E+04 0.  0.
        5    1    3    3  502    0  0.71459676462E+03 -0.85179091350E+03 -0.25022473164E+03  0.11396625828E+04  0.46999998093E+01 0. -1.
       -5    1    3    3    0  502 -0.71459676462E+03  0.85179091350E+03  0.63358897232E+03  0.12797083153E+04  0.46999998093E+01 0.  1.
</event>
<event>
 5   0  0.4995256E-05  0.2503585E+04  0.7818609E-02  0.8401710E-01
        2   -1    0    0  501    0  0.00000000000E+00  0.00000000000E+00  0.89678573299E+03  0.89678573300E+03  0.25500000920E-02 0. -1.
       -2   -1    0    0    0  501  0.00000000000E+00  0.00000000000E+00 -0.17473339121E+04  0.17473339121E+04  0.25500000920E-02 0.  1.
    10030    2    1    2    0    0  0.00000000000E+00  0.00000000000E+00 -0.85054817910E+03  0.26441196451E+04  0.25035847285E+04 0.  0.
        2    1    3    3  502    0 -0.52425905712E+03 -0.15847371892E+03 -0.16140801146E+04  0.17044694468E+04  0.25500000920E-02 0.  1.
       -2    1    3    3    0  502  0.52425905712E+03  0.15847371892E+03  0.76353193554E+03  0.93965019830E+03  0.25500000920E-02 0. -1.
</event>
<event>
 5   0  0.2041718E-05  0.2266008E+04  0.7818609E-02  0.8491445E-01
       -1   -1    0    0    0  501  0.00000000000E+00  0.00000000000E+00  0.10602590711E+04  0.10602590711E+04  0.50400001928E-02 0. -1.
        1   -1    0    0  501    0  0.00000000000E+00  0.00000000000E+00 -0.12107404271E+04  0.12107404271E+04  0.50400001928E-02 0.  1.
    10030    2    1    2    0    0  0.00000000000E+00  0.00000000000E+00 -0.15048135600E+03  0.22709994982E+04  0.22660084030E+04 0.  0.
        4    1    3    3  502    0  0.62092402433E+03 -0.99900621003E+02 -0.10197442481E+04  0.11980846057E+04  0.12699999809E+01 0.  1.
       -4    1    3    3    0  502 -0.62092402433E+03  0.99900621003E+02  0.86926289210E+03  0.10729148925E+04  0.12699999809E+01 0. -1.
</event>
<event>
 5   0  0.4959347E-05  0.2513750E+04  0.7818609E-02  0.8398103E-01
        2   -1    0    0  501    0  0.00000000000E+00  0.00000000000E+00  0.14625840287E+04  0.14625840287E+04  0.25500000920E-02 0.  1.
       -2   -1    0    0    0  501  0.00000000000E+00  0.00000000000E+00 -0.10800983083E+04  0.10800983083E+04  0.25500000920E-02 0. -1.
    10030    2    1    2    0    0  0.00000000000E+00  0.00000000000E+00  0.38248572044E+03  0.25426823371E+04  0.25137498167E+04 0.  0.
        3    1    3    3  502    0 -0.25667843242E+03  0.11247407105E+04  0.69579160878E+03  0.13472384557E+04  0.10100000352E+00 0.  1.
       -3    1    3    3    0  502  0.25667843242E+03 -0.11247407105E+04 -0.31330588834E+03  0.11954438813E+04  0.10100000352E+00 0. -1.
</event>
<event>
 5   0  0.2036578E-05  0.2525969E+04  0.7818609E-02  0.8393792E-01
       -1   -1    0    0    0  501  0.00000000000E+00  0.00000000000E+00  0.99568210109E+03  0.99568210110E+03  0.50400001928E-02 0.  1.
        1   -1    0    0  501    0  0.00000000000E+00  0.00000000000E+00 -0.16020473312E+04  0.16020473312E+04  0.50400001928E-02 0. -1.
    10030    2    1    2    0    0  0.00000000000E+00  0.00000000000E+00 -0.60636523008E+03  0.25977294323E+04  0.25259690044E+04 0.  0.
        2    1    3    3  502    0 -0.68543760795E+03  0.51334994071E+03  0.65150951275E+03  0.10760192941E+04  0.25500000920E-02 0.  1.
       -2    1    3    3    0  502  0.68543760795E+03 -0.51334994071E+03 -0.12578747428E+04  0.15217101382E+04  0.25500000920E-02 0. -1.
</event>
<event>
 5   0  0.4995256E-05  0.2458815E+04  0.7818609E-02  0.8417807E-01
       -2   -1    0    0    0  501  0.00000000000E+00  0.00000000000E+00  0.67625566228E+03  0.67625566229E+03  0.25500000920E-02 0. -1.
        2   -1    0    0  501    0  0.00000000000E+00  0.00000000000E+00 -0.22350169900E+04  0.22350169900E+04  0.25500000920E-02 0.  1.
    10030    2    1    2    0    0  0.00000000000E+00  0.00000000000E+00 -0.15587613278E+04  0.29112726523E+04  0.24588150763E+04 0.  0.
        2    1    3    3  502    0  0.11819176427E+04 -0.37224557838E+02 -0.11776179329E+04  0.16688615814E+04  0.25500000920E-02 0. -1.
       -2    1    3    3    0  502 -0.11819176427E+04  0.37224557838E+02 -0.38114339483E+03  0.12424110710E+04  0.25500000920E-02 0.  1.
</event>
<event>
 5   0  0.2063930E-05  0.2478657E+04  0.7818609E-02  0.8410629E-01
        1   -1    0    0  501    0  0.00000000000E+00  0.00000000000E+00  0.11089896622E+04  0.11089896622E+04  0.50400001928E-02 0. -1.
       -1   -1    0    0    0  501  0.00000000000E+00  0.00000000000E+00 -0.13849858095E+04  0.13849858095E+04  0.50400001928E-02 0.  1.
    10030    2    1    2    0    0  0.00000000000E+00  0.00000000000E+00 -0.27599614727E+03  0.24939754717E+04  0.24786568500E+04 0.  0.
        3    1    3    3  502    0 -0.98479949069E+03  0.36642822282E+03  0.52320493240E+03  0.11738156119E+04  0.10100000352E+00 0. -1.
       -3    1    3    3    0  502  0.98479949069E+03 -0.36642822282E+03 -0.79920107967E+03  0.13201598597E+04  0.10100000352E+00 0.  1.
</event>
<event>
 5   0  0.4995256E-05  0.1819245E+04  0.7818609E-02  0.8696132E-01
        2   -1    0    0  501    0  0.00000000000E+00  0.00000000000E+00  0.54962460551E+03  0.54962460552E+03  0.25500000920E-02 0.  1.
       -2   -1    0    0    0  501  0.00000000000E+00  0.00000000000E+00 -0.15054144356E+04  0.15054144356E+04  0.25500000920E-02 0. -1.
    10030    2    1    2    0    0  0.00000000000E+00  0.00000000000E+00 -0.95578983007E+03  0.20550390411E+04  0.18192446953E+04 0.  0.
        2    1    3    3  502    0 -0.72181181065E+03  0.24752720173E+02  0.14675841113E+03  0.73699594191E+03  0.25500000920E-02 0.  1.
       -2    1    3    3    0  502  0.72181181065E+03 -0.24752720173E+02 -0.11025482412E+04  0.13180430992E+04  0.25500000920E-02 0. -1.
</event>
<event>
 5   0  0.2066170E-05  0.2371853E+04  0.7818609E-02  0.8450117E-01
       -1   -1    0    0    0  501  0.00000000000E+00  0.00000000000E+00  0.91890028524E+03  0.91890028525E+03  0.50400001928E-02 0.  1.
        1   -1    0    0  501    0  0.00000000000E+00  0.00000000000E+00 -0.15305488192E+04  0.15305488192E+04  0.50400001928E-02 0. -1.
    10030    2    1    2    0    0  0.00000000000E+00  0.00000000000E+00 -0.61164853395E+03  0.24494491045E+04  0.23718530701E+04 0.  0.
        5    1    3    3  502    0 -0.85322322369E+03 -0.12895095826E+03  0.53428916515E+03  0.10149409939E+04  0.46999998093E+01 0.  1.
       -5    1    3    3    0  502  0.85322322369E+03  0.12895095826E+03 -0.11459376991E+04  0.14345081106E+04  0.46999998093E+01 0. -1.
</event>
<event>
 5   0  0.2041718E-05  0.2427786E+04  0.7818609E-02  0.8429174E-01
        1   -1    0    0  501    0  0.00000000000E+00  0.00000000000E+00  0.82729711970E+03  0.82729711972E+03  0.50400001928E-02 0. -1.
       -1   -1    0    0    0  501  0.00000000000E+00  0.00000000000E+00 -0.17811445124E+04  0.17811445124E+04  0.50400001928E-02 0.  1.
    10030    2    1    2    0    0  0.00000000000E+00  0.00000000000E+00 -0.95384739269E+03  0.26084416321E+04  0.24277855959E+04 0.  0.
        4    1    3    3  502    0 -0.31338429902E+03 -0.11488889480E+04 -0.72976131627E+03  0.13966777457E+04  0.12699999809E+01 0. -1.
       -4    1    3    3    0  502  0.31338429902E+03  0.11488889480E+04 -0.22408607643E+03  0.12117638864E+04  0.12699999809E+01 0.  1.
</event>
<event>
 5   0  0.4959347E-05  0.2498757E+04  0.7818609E-02  0.8403429E-01
       -2   -1    0    0    0  501  0.00000000000E+00  0.00000000000E+00  0.12272892832E+04  0.12272892832E+04  0.25500000920E-02 0.  1.
        2   -1    0    0  501    0  0.00000000000E+00  0.00000000000E+00 -0.12718648627E+04  0.12718648627E+04  0.25500000920E-02 0. -1.
    10030    2    1    2    0    0  0.00000000000E+00  0.00000000000E+00 -0.44575579456E+02  0.24991541459E+04  0.24987565833E+04 0.  0.
        3    1    3    3  502    0  0.23772138140E+03 -0.84967705104E+03 -0.90700953800E+03  0.12653572059E+04  0.10100000352E+00 0. -1.
       -3    1    3    3    0  502 -0.23772138140E+03  0.84967705104E+03  0.86243395854E+03  0.12337969401E+04  0.10100000352E+00 0.  1.
</event>
<event>
 5   0  0.2063930E-05  0.2567781E+04  0.7818609E-02  0.8379228E-01
       -1   -1    0    0    0  501  0.00000000000E+00  0.00000000000E+00  0.56716080125E+03  0.56716080128E+03  0.50400001928E-02 0. -1.
        1   -1    0    0  501    0  0.00000000000E+00  0.00000000000E+00 -0.29063625816E+04  0.29063625816E+04  0.50400001928E-02 0.  1.
    10030    2    1    2    0    0  0.00000000000E+00  0.00000000000E+00 -0.23392017804E+04  0.34735233829E+04  0.25677810893E+04 0.  0.
        3    1    3    3  502    0 -0.47999422967E+03  0.73642867353E+03  0.96237658796E+02  0.88429822395E+03  0.10100000352E+00 0.  1.
       -3    1    3    3    0  502  0.47999422967E+03 -0.73642867353E+03 -0.24354394392E+04  0.25892251590E+04  0.10100000352E+00 0. -1.
</event>
<event>
 5   0  0.2036578E-05  0.2504214E+04  0.7818609E-02  0.8401486E-01
       -1   -1    0    0    0  501  0.00000000000E+00  0.00000000000E+00  0.11903897399E+04  0.11903897399E+04  0.50400001928E-02 0.  1.
        1   -1    0    0  501    0  0.00000000000E+00  0.00000000000E+00 -0.13170240922E+04  0.13170240922E+04  0.50400001928E-02 0. -1.
    10030    2    1    2    0    0  0.00000000000E+00  0.00000000000E+00 -0.12663435223E+03  0.25074138321E+04  0.25042140217E+04 0.  0.
        2    1    3    3  502    0  0.83679244914E+03  0.60301790483E+03 -0.77409729706E+03  0.12896041338E+04  0.25500000920E-02 0. -1.
       -2    1    3    3    0  502 -0.83679244914E+03 -0.60301790483E+03  0.64746294483E+03  0.12178096984E+04  0.25500000920E-02 0.  1.
</event>
<event>
 5   0  0.2036578E-05  0.2453914E+04  0.7818609E-02  0.8419590E-01
        1   -1    0    0  501    0  0.00000000000E+00  0.00000000000E+00  0.11722063206E+04  0.11722063206E+04  0.50400001928E-02 0.  1.
       -1   -1    0    0    0  501  0.00000000000E+00  0.00000000000E+00 -0.12842653460E+04  0.12842653460E+04  0.50400001928E-02 0. -1.
    10030    2    1    2    0    0  0.00000000000E+00  0.00000000000E+00 -0.11205902546E+03  0.24564716666E+04  0.24539143880E+04 0.  0.
        2    1    3    3  502    0 -0.58848371468E+03 -0.61466028078E+02 -0.11320137372E+04  0.12773199507E+04  0.25500000920E-02 0. -1.
       -2    1    3    3    0  502  0.58848371468E+03  0.61466028078E+02  0.10199547118E+04  0.11791517159E+04  0.25500000920E-02 0.  1.
</event>
<event>
 5   0  0.4959042E-05  0.2148845E+04  0.7818609E-02  0.8540027E-01
        2   -1    0    0  501    0  0.00000000000E+00  0.00000000000E+00  0.12504464268E+04  0.12504464268E+04  0.25500000920E-02 0.  1.
       -2   -1    0    0    0  501  0.00000000000E+00  0.00000000000E+00 -0.92317721179E+03  0.92317721180E+03  0.25500000920E-02 0. -1.
    10030    2    1    2    0    0  0.00000000000E+00  0.00000000000E+00  0.32726921499E+03  0.21736236386E+04  0.21488449416E+04 0.  0.
        4    1    3    3  502    0 -0.25688370268E+03 -0.34682781491E+03  0.11589027708E+04  0.12366632585E+04  0.12699999809E+01 0.  1.
       -4    1    3    3    0  502  0.25688370268E+03  0.34682781491E+03 -0.83163355577E+03  0.93696038010E+03  0.12699999809E+01 0. -1.
</event>
<event>
 5   0  0.2081874E-05  0.2159262E+04  0.7818609E-02  0.8535578E-01
       -1   -1    0    0    0  501  0.00000000000E+00  0.00000000000E+00  0.14021904925E+04  0.14021904925E+04  0.50400001928E-02 0. -1.
        1   -1    0    0  501    0  0.00000000000E+00  0.00000000000E+00 -0.83127266870E+03  0.83127266871E+03  0.50400001928E-02 0.  1.
    10030    2    1    2    0    0  0.00000000000E+00  0.00000000000E+00  0.57091782383E+03  0.22334631612E+04  0.21592615708E+04 0.  0.
        1    1    3    3  502    0 -0.25331550995E+03  0.65606240726E+03 -0.56184649336E+03  0.90014338410E+03  0.50400001928E-02 0.  1.
       -1    1    3    3    0  502  0.25331550995E+03 -0.65606240726E+03  0.11327643172E+04  0.13333197772E+04  0.50400001928E-02 0. -1.
</event>
<event>
 5   0  0.2081874E-05  0.2640115E+04  0.7818609E-02  0.8354701E-01
        1   -1    0    0  501    0  0.00000000000E+00  0.00000000000E+00  0.17608338890E+04  0.17608338890E+04  0.50400001928E-02 0.  1.
       -1   -1    0    0    0  501  0.00000000000E+00  0.00000000000E+00 -0.98961769511E+03  0.98961769512E+03  0.50400001928E-02 0. -1.
    10030    2    1    2    0    0  0.00000000000E+00  0.00000000000E+00  0.77121619390E+03  0.27504515841E+04  0.26401154329E+04 0.  0.
        1    1    3    3  502    0  0.10890450034E+04  0.18558471130E+03  0.11383645216E+04  0.15862958389E+04  0.50400001928E-02 0. -1.
       -1    1    3    3    0  502 -0.10890450034E+04 -0.18558471130E+03 -0.36714832773E+03  0.11641557452E+04  0.50400001928E-02 0.  1.
</event>
<event>
 5   0  0.5024070E-05  0.2489332E+04  0.7818609E-02  0.8406796E-01
        2   -1    0    0  501    0  0.00000000000E+00  0.00000000000E+00  0.13116705215E+04  0.13116705215E+04  0.25500000920E-02 0. -1.
       -2   -1    0    0    0  501  0.00000000000E+00  0.00000000000E+00 -0.11810841537E+04  0.11810841537E+04  0.25500000920E-02 0.  1.
    10030    2    1    2    0    0  0.00000000000E+00  0.00000000000E+00  0.13058636782E+03  0.24927546752E+04  0.24893318524E+04 0.  0.
        5    1    3    3  502    0 -0.59556914837E+03  0.95863434796E+02 -0.10249088701E+04  0.11892656098E+04  0.46999998093E+01 0.  1.
       -5    1    3    3    0  502  0.59556914837E+03 -0.95863434796E+02  0.11554952379E+04  0.13034890654E+04  0.46999998093E+01 0. -1.
</event>
<event>
 5   0  0.5219468E-05  0.2465647E+04  0.7818609E-02  0.8415327E-01
        2   -1    0    0  501    0  0.00000000000E+00  0.00000000000E+00  0.13558684778E+04  0.13558684778E+04  0.25500000920E-02 0.  1.
       -2   -1    0    0    0  501  0.00000000000E+00  0.00000000000E+00 -0.11209449116E+04  0.11209449116E+04  0.25500000920E-02 0. -1.
    10030    2    1    2    0    0  0.00000000000E+00  0.00000000000E+00  0.23492356619E+03  0.24768133893E+04  0.24656470720E+04 0.  0.
        1    1    3    3  502    0 -0.44298973153E+03  0.11859375710E+03  0.12669997823E+04  0.13474393604E+04  0.50400001928E-02 0.  1.
       -1    1    3    3    0  502  0.44298973153E+03 -0.11859375710E+03 -0.10320762161E+04  0.11293740290E+04  0.50400001928E-02 0. -1.
</event>
<event>
 5   0  0.5219468E-05  0.2649932E+04  0.7818609E-02  0.8351435E-01
        2   -1    0    0  501    0  0.00000000000E+00  0.00000000000E+00  0.14170392270E+04  0.14170392270E+04  0.25500000920E-02 0. -1.
       -2   -1    0    0    0  501  0.00000000000E+00  0.00000000000E+00 -0.12388756393E+04  0.12388756393E+04  0.25500000920E-02 0.  1.
    10030    2    1    2    0    0  0.00000000000E+00  0.00000000000E+00  0.17816358765E+03  0.26559148663E+04  0.26499323601E+04 0.  0.
        1    1    3    3  502    0  0.76572016965E+03  0.14713233823E+02 -0.99455824147E+03  0.12552648936E+04  0.50400001928E-02 0.  1.
       -1    1    3    3    0  502 -0.76572016965E+03 -0.14713233823E+02  0.11727218291E+04  0.14006499727E+04  0.50400001928E-02 0. -1.
</event>
<event>
 5   0  0.2063930E-05  0.2575945E+04  0.7818609E-02  0.8376418E-01
       -1   -1    0    0    0  501  0.00000000000E+00  0.00000000000E+00  0.93686099839E+03  0.93686099840E+03  0.50400001928E-02 0. -1.
        1   -1    0    0  501    0  0.00000000000E+00  0.00000000000E+00 -0.17706717342E+04  0.17706717342E+04  0.50400001928E-02 0.  1.
    10030    2    1    2    0    0  0.00000000000E+00  0.00000000000E+00 -0.83381073580E+03  0.27075327326E+04  0.25759450994E+04 0.  0.
        3    1    3    3  502    0 -0.17729620841E+03 -0.12755351645E+04 -0.43918677514E+03  0.13606281399E+04  0.10100000352E+00 0.  1.
       -3    1    3    3    0  502  0.17729620841E+03  0.12755351645E+04 -0.39462396066E+03  0.13469045927E+04  0.10100000352E+00 0. -1.
</event>
<event>
 5   0  0.5024070E-05  0.2494726E+04  0.7818609E-02  0.8404867E-01
       -2   -1    0    0    0  501  0.00000000000E+00  0.00000000000E+00  0.12890517790E+04  0.12890517790E+04  0.25500000920E-02 0. -1.
        2   -1    0    0  501    0  0.00000000000E+00  0.00000000000E+00 -0.12070226499E+04  0.12070226499E+04  0.25500000920E-02 0.  1.
    10030    2    1    2    0    0  0.00000000000E+00  0.00000000000E+00  0.82029129114E+02  0.24960744290E+04  0.24947261928E+04 0.  0.
        5    1    3    3  502    0  0.80428824062E+03  0.71439162509E+02  0.99226991834E+03  0.12792985612E+04  0.46999998093E+01 0. -1.
       -5    1    3    3    0  502 -0.80428824062E+03 -0.71439162509E+02 -0.91024078922E+03  0.12167758677E+04  0.46999998093E+01 0.  1.
</event>
<event>
 5   0  0.4995256E-05  0.2457132E+04  0.7818609E-02  0.8418419E-01
        2   -1    0    0  501    0  0.00000000000E+00  0.00000000000E+00  0.19298492941E+04  0.19298492941E+04  0.25500000920E-02 0. -1.
       -2   -1    0    0    0  501  0.00000000000E+00  0.00000000000E+00 -0.78212009666E+03  0.78212009666E+03  0.25500000920E-02 0.  1.
    10030    2    1    2    0    0  0.00000000000E+00  0.00000000000E+00  0.11477291975E+04  0.27119693908E+04  0.24571315931E+04 0.  0.
        2    1    3    3  502    0 -0.48856428792E+03 -0.29223715654E+03 -0.62775268727E+03  0.84744973625E+03  0.25500000920E-02 0.  1.
       -2    1    3    3    0  502  0.48856428792E+03  0.29223715654E+03  0.17754818847E+04  0.18645196545E+04  0.25500000920E-02 0. -1.
</event>
<event>
 5   0  0.2066170E-05  0.2510096E+04  0.7818609E-02  0.8399398E-01
        1   -1    0    0  501    0  0.00000000000E+00  0.00000000000E+00  0.90746069530E+03  0.90746069531E+03  0.50400001928E-02 0.  1.
       -1   -1    0    0    0  501  0.00000000000E+00  0.00000000000E+00 -0.17357723639E+04  0.17357723639E+04  0.50400001928E-02 0. -1.
    10030    2    1    2    0    0  0.00000000000E+00  0.00000000000E+00 -0.82831166861E+03  0.26432330592E+04  0.25100957721E+04 0.  0.
        5    1    3    3  502    0 -0.73819304389E+03 -0.91314848895E+03 -0.88077762094E+03  0.14678421034E+04  0.46999998093E+01 0.  1.
       -5    1    3    3    0  502  0.73819304389E+03  0.91314848895E+03  0.52465952327E+02  0.11753909558E+04  0.46999998093E+01 0. -1.
</event>
<event>
 5   0  0.5219468E-05  0.2541657E+04  0.7818609E-02  0.8388294E-01
        2   -1    0    0  501    0  0.00000000000E+00  0.00000000000E+00  0.12000098059E+04  0.12000098059E+04  0.25500000920E-02 0.  1.
       -2   -1    0    0    0  501  0.00000000000E+00  0.00000000000E+00 -0.13458263167E+04  0.13458263167E+04  0.25500000920E-02 0. -1.
    10030    2    1    2    0    0  0.00000000000E+00  0.00000000000E+00 -0.14581651081E+03  0.25458361226E+04  0.25416567645E+04 0.  0.
        1    1    3    3  502    0 -0.42678416543E+03  0.91727956801E+03  0.69741957626E+03  0.12287964010E+04  0.50400001928E-02 0.  1.
       -1    1    3    3    0  502  0.42678416543E+03 -0.91727956801E+03 -0.84323608707E+03  0.13170397216E+04  0.50400001928E-02 0. -1.
</event>
<event>
 5   0  0.4959042E-05  0.2343668E+04  0.7818609E-02  0.8460900E-01
       -2   -1    0    0    0  501  0.00000000000E+00  0.00000000000E+00  0.77915104270E+03  0.77915104271E+03  0.25500000920E-02 0.  1.
        2   -1    0    0  501    0  0.00000000000E+00  0.00000000000E+00 -0.17624250046E+04  0.17624250046E+04  0.25500000920E-02 0. -1.
    10030    2    1    2    0    0  0.00000000000E+00  0.00000000000E+00 -0.98327396191E+03  0.25415760473E+04  0.23436683042E+04 0.  0.
        4    1    3    3  502    0  0.78438833720E+02  0.10881535187E+04 -0.27775272687E+02  0.10913312098E+04  0.12699999809E+01 0.  1.
       -4    1    3    3    0  502 -0.78438833720E+02 -0.10881535187E+04 -0.95549868923E+03  0.14502448375E+04  0.12699999809E+01 0. -1.
</event>
<event>
 5   0  0.5219468E-05  0.2467424E+04  0.7818609E-02  0.8414684E-01
       -2   -1    0    0    0  501  0.00000000000E+00  0.00000000000E+00  0.22378192422E+04  0.22378192422E+04  0.25500000920E-02 0. -1.
        2   -1    0    0  501    0  0.00000000000E+00  0.00000000000E+00 -0.68014688795E+03  0.68014688795E+03  0.25500000920E-02 0.  1.
    10030    2    1    2    0    0  0.00000000000E+00  0.00000000000E+00  0.15576723543E+04  0.29179661302E+04  0.24674244008E+04 0.  0.
        1    1    3    3  502    0  0.69933848776E+02 -0.33181561934E+03 -0.62395067993E+03  0.71014561849E+03  0.50400001928E-02 0.  1.
       -1    1    3    3    0  502 -0.69933848776E+02  0.33181561934E+03  0.21816230342E+04  0.22078205117E+04  0.50400001928E-02 0. -1.
</event>
<event>
 5   0  0.4995256E-05  0.2515451E+04  0.7818609E-02  0.8397502E-01
       -2   -1    0    0    0  501  0.00000000000E+00  0.00000000000E+00  0.16920175513E+04  0.16920175513E+04  0.25500000920E-02 0.  1.
        2   -1    0    0  501    0  0.00000000000E+00  0.00000000000E+00 -0.93490388578E+03  0.93490388578E+03  0.25500000920E-02 0. -1.
    10030    2    1    2    0    0  0.00000000000E+00  0.00000000000E+00  0.75711366549E+03  0.26269214371E+04  0.25154512784E+04 0.  0.
        2    1    3    3  502    0 -0.11040616494E+04 -0.19145372848E+02 -0.25025136006E+03  0.11322298416E+04  0.25500000920E-02 0. -1.
       -2    1    3    3    0  502  0.11040616494E+04  0.19145372848E+02  0.10073650255E+04  0.14946915955E+04  0.25500000920E-02 0.  1.
</event>
<event>
 5   0  0.2036578E-05  0.2599228E+04  0.7818609E-02  0.8368463E-01
       -1   -1    0    0    0  501  0.00000000000E+00  0.00000000000E+00  0.98478980901E+03  0.98478980902E+03  0.50400001928E-02 0. -1.
        1   -1    0    0  501    0  0.00000000000E+00  0.00000000000E+00 -0.17150836777E+04  0.17150836777E+04  0.50400001928E-02 0.  1.
    10030    2    1    2    0    0  0.00000000000E+00  0.00000000000E+00 -0.73029386867E+03  0.26998734867E+04  0.25992282912E+04 0.  0.
        2    1    3    3  502    0 -0.68463617514E+03  0.61925653989E+02  0.78048080932E+03  0.10400537355E+04  0.25500000920E-02 0. -1.
       -2    1    3    3    0  502  0.68463617514E+03 -0.61925653989E+02 -0.15107746780E+04  0.16598197512E+04  0.25500000920E-02 0.  1.
</event>
<event>
 5   0  0.2036578E-05  0.2465839E+04  0.7818609E-02  0.8415258E-01
        1   -1    0    0  501    0  0.00000000000E+00  0.00000000000E+00  0.20179660839E+04  0.20179660839E+04  0.50400001928E-02 0.  1.
       -1   -1    0    0    0  501  0.00000000000E+00  0.00000000000E+00 -0.75327827872E+03  0.75327827874E+03  0.50400001928E-02 0. -1.
    10030    2    1    2    0    0  0.00000000000E+00  0.00000000000E+00  0.12646878052E+04  0.27712443626E+04  0.24658386145E+04 0.  0.
        2    1    3    3  502    0 -0.14937748214E+03 -0.10857778040E+04 -0.22738267090E+01  0.10960074097E+04  0.25500000920E-02 0. -1.
       -2    1    3    3    0  502  0.14937748214E+03  0.10857778040E+04  0.12669616319E+04  0.16752369529E+04  0.25500000920E-02 0.  1.
</event>
<event>
 5   0  0.5219468E-05  0.2450263E+04  0.7818609E-02  0.8420922E-01
       -2   -1    0    0    0  501  0.00000000000E+00  0.00000000000E+00  0.51231745388E+03  0.51231745389E+03  0.25500000920E-02 0.  1.
        2   -1    0    0  501    0  0.00000000000E+00  0.00000000000E+00 -0.29297219529E+04  0.29297219529E+04  0.25500000920E-02 0. -1.
    10030    2    1    2    0    0  0.00000000000E+00  0.00000000000E+00 -0.24174044991E+04  0.34420394068E+04  0.24502634075E+04 0.  0.
        1    1    3    3  502    0  0.29701340065E+03  0.92994216578E+03 -0.16885656761E+03  0.99071788735E+03  0.50400001928E-02 0.  1.
       -1    1    3    3    0  502 -0.29701340065E+03 -0.92994216578E+03 -0.22485479314E+04  0.24513215195E+04  0.50400001928E-02 0. -1.
</event>
<event>
 5   0  0.2081874E-05  0.2444218E+04  0.7818609E-02  0.8423132E-01
        1   -1    0    0  501    0  0.00000000000E+00  0.00000000000E+00  0.13473780259E+04  0.13473780259E+04  0.50400001928E-02 0.  1.
       -1   -1    0    0    0  501  0.00000000000E+00  0.00000000000E+00 -0.11084867211E+04  0.11084867211E+04  0.50400001928E-02 0. -1.
    10030    2    1    2    0    0  0.00000000000E+00  0.00000000000E+00  0.23889130474E+03  0.24558647470E+04  0.24442181981E+04 0.  0.
        1    1    3    3  502    0 -0.87261265055E+03 -0.68724461344E+03  0.63157292541E+03  0.12777489412E+04  0.50400001928E-02 0. -1.
       -1    1    3    3    0  502  0.87261265055E+03  0.68724461344E+03 -0.39268162067E+03  0.11781158058E+04  0.50400001928E-02 0.  1.
</event>
<event>
 5   0  0.2066170E-05  0.2531920E+04  0.7818609E-02  0.8391701E-01
        1   -1    0    0  501    0  0.00000000000E+00  0.00000000000E+00  0.11288345710E+04  0.11288345710E+04  0.50400001928E-02 0. -1.
       -1   -1    0    0    0  501  0.00000000000E+00  0.00000000000E+00 -0.14197426072E+04  0.14197426072E+04  0.50400001928E-02 0.  1.
    10030    2    1    2    0    0  0.00000000000E+00  0.00000000000E+00 -0.29090803616E+03  0.25485771783E+04  0.25319198542E+04 0.  0.
        5    1    3    3  502    0  0.11466426281E+03  0.11854108817E+04  0.28665519954E+03  0.12249653648E+04  0.46999998093E+01 0. -1.
       -5    1    3    3    0  502 -0.11466426281E+03 -0.11854108817E+04 -0.57756323570E+03  0.13236118135E+04  0.46999998093E+01 0.  1.
</event>
<event>
 5   0  0.4959347E-05  0.2092786E+04  0.7818609E-02  0.8564428E-01
        2   -1    0    0  501    0  0.00000000000E+00  0.00000000000E+00  0.91709185281E+03  0.91709185281E+03  0.25500000920E-02 0.  1.
       -2   -1    0    0    0  501  0.00000000000E+00  0.00000000000E+00 -0.11939239873E+04  0.11939239873E+04  0.25500000920E-02 0. -1.
    10030    2    1    2    0    0  0.00000000000E+00  0.00000000000E+00 -0.27683213450E+03  0.21110158401E+04  0.20927856666E+04 0.  0.
        3    1    3    3  502    0  0.73317658479E+03  0.21814559311E+03  0.58180818338E+03  0.96105992359E+03  0.10100000352E+00 0.  1.
       -3    1    3    3    0  502 -0.73317658479E+03 -0.21814559311E+03 -0.85864031788E+03  0.11499559165E+04  0.10100000352E+00 0. -1.
</event>
<event>
 5   0  0.2041718E-05  0.2453139E+04  0.7818609E-02  0.8419873E-01
       -1   -1    0    0    0  501  0.00000000000E+00  0.00000000000E+00  0.15063518900E+04  0.15063518900E+04  0.50400001928E-02 0. -1.
        1   -1    0    0  501    0  0.00000000000E+00  0.00000000000E+00 -0.99875238023E+03  0.99875238024E+03  0.50400001928E-02 0.  1.
    10030    2    1    2    0    0  0.00000000000E+00  0.00000000000E+00  0.50759950975E+03  0.25051042702E+04  0.24531388347E+04 0.  0.
        4    1    3    3  502    0 -0.99612869452E+03 -0.70960909549E+03  0.15880512982E+03  0.12333037447E+04  0.12699999809E+01 0.  1.
       -4    1    3    3    0  502  0.99612869452E+03  0.70960909549E+03  0.34879437994E+03  0.12718005256E+04  0.12699999809E+01 0. -1.
</event>
<event>
 5   0  0.4995256E-05  0.2549780E+04  0.7818609E-02  0.8385463E-01
        2   -1    0    0  501    0  0.00000000000E+00  0.00000000000E+00  0.28341215873E+04  0.28341215873E+04  0.25500000920E-02 0. -1.
       -2   -1    0    0    0  501  0.00000000000E+00  0.00000000000E+00 -0.57349162736E+03  0.57349162737E+03  0.25500000920E-02 0.  1.
    10030    2    1    2    0    0  0.00000000000E+00  0.00000000000E+00  0.22606299599E+04  0.34076132147E+04  0.25497803837E+04 0.  0.
        2    1    3    3  502    0 -0.28208136565E+03 -0.11110866701E+04  0.38470754127E+03  0.12091663979E+04  0.25500000920E-02 0.  1.
       -2    1    3    3    0  502  0.28208136565E+03  0.11110866701E+04  0.18759224187E+04  0.21984468168E+04  0.25500000920E-02 0. -1.
</event>
<event>
 5   0  0.2081874E-05  0.2563126E+04  0.7818609E-02  0.8380835E-01
        1   -1    0    0  501    0  0.00000000000E+00  0.00000000000E+00  0.16468587819E+04  0.16468587819E+04  0.50400001928E-02 0. -1.
       -1   -1    0    0    0  501  0.00000000000E+00  0.00000000000E+00 -0.99729488777E+03  0.99729488778E+03  0.50400001928E-02 0.  1.
    10030    2    1    2    0    0  0.00000000000E+00  0.00000000000E+00  0.64956389410E+03  0.26441536697E+04  0.25631260945E+04 0.  0.
        1    1    3    3  502    0 -0.73341651251E+03  0.53497249321E+03 -0.60841916796E+03  0.10928262594E+04  0.50400001928E-02 0.  1.
       -1    1    3    3    0  502  0.73341651251E+03 -0.53497249321E+03  0.12579830621E+04  0.15513274102E+04  0.50400001928E-02 0. -1.
</event>
<event>
 5   0  0.2081874E-05  0.2455764E+04  0.7818609E-02  0.8418916E-01
        1   -1    0    0  501    0  0.00000000000E+00  0.00000000000E+00  0.11063414415E+04  0.11063414415E+04  0.50400001928E-02 0. -1.
       -1   -1    0    0    0  501  0.00000000000E+00  0.00000000000E+00 -0.13627749878E+04  0.13627749878E+04  0.50400001928E-02 0.  1.
    10030    2    1    2    0    0  0.00000000000E+00  0.00000000000E+00 -0.25643354633E+03  0.24691164293E+04  0.24557641943E+04 0.  0.
        1    1    3    3  502    0 -0.11758636968E+03 -0.59480881839E+03 -0.12017629600E+04  0.13460528581E+04  0.50400001928E-02 0.  1.
       -1    1    3    3    0  502  0.11758636968E+03  0.59480881839E+03  0.94532941364E+03  0.11230635713E+04  0.50400001928E-02 0. -1.
</event>
<event>
 5   0  0.5024070E-05  0.2455285E+04  0.7818609E-02  0.8419091E-01
        2   -1    0    0  501    0  0.00000000000E+00  0.00000000000E+00  0.11434619122E+04  0.11434619122E+04  0.25500000920E-02 0. -1.
       -2   -1    0    0    0  501  0.00000000000E+00  0.00000000000E+00 -0.13180208194E+04  0.13180208194E+04  0.25500000920E-02 0.  1.
    10030    2    1    2    0    0  0.00000000000E+00  0.00000000000E+00 -0.17455890718E+03  0.24614827316E+04  0.24552854062E+04 0.  0.
        5    1    3    3  502    0  0.84499135484E+03  0.83694126670E+03  0.21779678107E+03  0.12091065303E+04  0.46999998093E+01 0. -1.
       -5    1    3    3    0  502 -0.84499135484E+03 -0.83694126670E+03 -0.39235568826E+03  0.12523762014E+04  0.46999998093E+01 0.  1.
</event>
<event>
 5   0  0.2063930E-05  0.2417670E+04  0.7818609E-02  0.8432918E-01
       -1   -1    0    0    0  501  0.00000000000E+00  0.00000000000E+00  0.15379911942E+04  0.15379911942E+04  0.50400001928E-02 0.  1.
        1   -1    0    0  501    0  0.00000000000E+00  0.00000000000E+00 -0.95012343120E+03  0.95012343121E+03  0.50400001928E-02 0. -1.
    10030    2    1    2    0    0  0.00000000000E+00  0.00000000000E+00  0.58786776299E+03  0.24881146254E+04  0.24176695147E+04 0.  0.
        3    1    3    3  502    0 -0.49316482125E+03 -0.10760113937E+04  0.41282379778E+02  0.11843632489E+04  0.10100000352E+00 0. -1.
       -3    1    3    3    0  502  0.49316482125E+03  0.10760113937E+04  0.54658538321E+03  0.13037513765E+04  0.10100000352E+00 0.  1.
</event>
<event>
 5   0  0.2066170E-05  0.2372519E+04  0.7818609E-02  0.8449864E-01
        1   -1    0    0  501    0  0.00000000000E+00  0.00000000000E+00  0.47239671794E+03  0.47239671796E+03  0.50400001928E-02 0.  1.
       -1   -1    0    0    0  501  0.00000000000E+00  0.00000000000E+00 -0.29788762041E+04  0.29788762041E+04  0.50400001928E-02 0. -1.
    10030    2    1    2    0    0  0.00000000000E+00  0.00000000000E+00 -0.25064794861E+04  0.34512729220E+04  0.23725187814E+04 0.  0.
        5    1    3    3  502    0  0.75608944752E+03 -0.71970017265E+03 -0.43350098094E+03  0.11303029601E+04  0.46999998093E+01 0.  1.
       -5    1    3    3    0  502 -0.75608944752E+03  0.71970017265E+03 -0.20729785052E+04  0.23209699619E+04  0.46999998093E+01 0. -1.
</event>
<event>
 5   0  0.4995256E-05  0.2503741E+04  0.7818609E-02  0.8401654E-01
        2   -1    0    0  501    0  0.00000000000E+00  0.00000000000E+00  0.22181048643E+04  0.22181048643E+04  0.25500000920E-02 0. -1.
       -2   -1    0    0    0  501  0.00000000000E+00  0.00000000000E+00 -0.70654006579E+03  0.70654006579E+03  0.25500000920E-02 0.  1.
    10030    2    1    2    0    0  0.00000000000E+00  0.00000000000E+00  0.15115647985E+04  0.29246449301E+04  0.25037411661E+04 0.  0.
        2    1    3    3  502    0  0.38875027336E+02 -0.12511123908E+04  0.77874622386E+03  0.14741910199E+04  0.25500000920E-02 0.  1.
       -2    1    3    3    0  502 -0.38875027336E+02  0.12511123908E+04  0.73281857464E+03  0.14504539101E+04  0.25500000920E-02 0. -1.
</event>
<event>
 5   0  0.4959042E-05  0.2301343E+04  0.7818609E-02  0.8477392E-01
        2   -1    0    0  501    0  0.00000000000E+00  0.00000000000E+00  0.21867211887E+04  0.21867211887E+04  0.25500000920E-02 0.  1.
       -2   -1    0    0    0  501  0.00000000000E+00  0.00000000000E+00 -0.60549315362E+03  0.60549315363E+03  0.25500000920E-02 0. -1.
    10030    2    1    2    0    0  0.00000000000E+00  0.00000000000E+00  0.15812280351E+04  0.27922143423E+04  0.23013428329E+04 0.  0.
        4    1    3    3  502    0  0.48929629694E+03 -0.50423623171E+03  0.18962326874E+04  0.20222178570E+04  0.12699999809E+01 0.  1.
       -4    1    3    3    0  502 -0.48929629694E+03  0.50423623171E+03 -0.31500465229E+03  0.76999648534E+03  0.12699999809E+01 0. -1.
</event>
<event>
 5   0  0.2063930E-05  0.2444561E+04  0.7818609E-02  0.8423006E-01
        1   -1    0    0  501    0  0.00000000000E+00  0.00000000000E+00  0.21982313987E+04  0.21982313987E+04  0.50400001928E-02 0.  1.
       -1   -1    0    0    0  501  0.00000000000E+00  0.00000000000E+00 -0.67962365240E+03  0.67962365242E+03  0.50400001928E-02 0. -1.
    10030    2    1    2    0    0  0.00000000000E+00  0.00000000000E+00  0.15186077463E+04  0.28778550511E+04  0.24445613529E+04 0.  0.
        3    1    3    3  502    0 -0.76375935557E+03 -0.13567892266E+03 -0.35270203753E+03  0.85213605765E+03  0.10100000352E+00 0. -1.
       -3    1    3    3    0  502  0.76375935557E+03  0.13567892266E+03  0.18713097838E+04  0.20257189935E+04  0.10100000352E+00 0.  1.
</event>
<event>
 5   0  0.4995256E-05  0.2478289E+04  0.7818609E-02  0.8410761E-01
        2   -1    0    0  501    0  0.00000000000E+00  0.00000000000E+00  0.55508784214E+03  0.55508784215E+03  0.25500000920E-02 0. -1.
       -2   -1    0    0    0  501  0.00000000000E+00  0.00000000000E+00 -0.27661908970E+04  0.27661908970E+04  0.25500000920E-02 0.  1.
    10030    2    1    2    0    0  0.00000000000E+00  0.00000000000E+00 -0.22111030548E+04  0.33212787391E+04  0.24782888742E+04 0.  0.
        2    1    3    3  502    0  0.86376624812E+03  0.72375599043E+03 -0.17961697874E+04  0.21204105192E+04  0.25500000920E-02 0. -1.
       -2    1    3    3    0  502 -0.86376624812E+03 -0.72375599043E+03 -0.41493326747E+03  0.12008682199E+04  0.25500000920E-02 0.  1.
</event>
<event>
 5   0  0.4959042E-05  0.2512540E+04  0.7818609E-02  0.8398532E-01
        2   -1    0    0  501    0  0.00000000000E+00  0.00000000000E+00  0.10811583612E+04  0.10811583612E+04  0.25500000920E-02 0. -1.
       -2   -1    0    0    0  501  0.00000000000E+00  0.00000000000E+00 -0.14597441965E+04  0.14597441965E+04  0.25500000920E-02 0.  1.
    10030    2    1    2    0    0  0.00000000000E+00  0.00000000000E+00 -0.37858583532E+03  0.25409025577E+04  0.25125402630E+04 0.  0.
        4    1    3    3  502    0 -0.47772355334E+03 -0.11213487128E+04  0.11839526672E+03  0.12246067863E+04  0.12699999809E+01 0. -1.
       -4    1    3    3    0  502  0.47772355334E+03  0.11213487128E+04 -0.49698110204E+03  0.13162957714E+04  0.12699999809E+01 0.  1.
</event>
<event>
 5   0  0.4959347E-05  0.1876771E+04  0.7818609E-02  0.8666506E-01
        2   -1    0    0  501    0  0.00000000000E+00  0.00000000000E+00  0.18432897601E+04  0.18432897601E+04  0.25500000920E-02 0. -1.
       -2   -1    0    0    0  501  0.00000000000E+00  0.00000000000E+00 -0.47771534328E+03  0.47771534329E+03  0.25500000920E-02 0.  1.
    10030    2    1    2    0    0  0.00000000000E+00  0.00000000000E+00  0.13655744168E+04  0.23210051034E+04  0.18767714837E+04 0.  0.
        3    1    3    3  502    0  0.25804387620E+03  0.82370388116E+03  0.22756521939E+03  0.89267052441E+03  0.10100000352E+00 0.  1.
       -3    1    3    3    0  502 -0.25804387620E+03 -0.82370388116E+03  0.11380091975E+04  0.14283345790E+04  0.10100000352E+00 0. -1.
</event>
<event>
 5   0  0.2066170E-05  0.2507540E+04  0.7818609E-02  0.8400304E-01
        1   -1    0    0  501    0  0.00000000000E+00  0.00000000000E+00  0.11058329815E+04  0.11058329815E+04  0.50400001928E-02 0. -1.
       -1   -1    0    0    0  501  0.00000000000E+00  0.00000000000E+00 -0.14214979049E+04  0.14214979049E+04  0.50400001928E-02 0.  1.
    10030    2    1    2    0    0  0.00000000000E+00  0.00000000000E+00 -0.31566492343E+03  0.25273308865E+04  0.25075400427E+04 0.  0.
        5    1    3    3  502    0 -0.10442999186E+04 -0.67392817692E+03 -0.32398399296E+03  0.12844178547E+04  0.46999998093E+01 0.  1.
       -5    1    3    3    0  502  0.10442999186E+04  0.67392817692E+03  0.83190695274E+01  0.12429130318E+04  0.46999998093E+01 0. -1.
</event>
<event>
 5   0  0.4995256E-05  0.2324469E+04  0.7818609E-02  0.8468335E-01
        2   -1    0    0  501    0  0.00000000000E+00  0.00000000000E+00  0.17873804725E+04  0.17873804725E+04  0.25500000920E-02 0. -1.
       -2   -1    0    0    0  501  0.00000000000E+00  0.00000000000E+00 -0.75573700886E+03  0.75573700887E+03  0.25500000920E-02 0.  1.
    10030    2    1    2    0    0  0.00000000000E+00  0.00000000000E+00  0.10316434636E+04  0.25431174814E+04  0.23244694638E+04 0.  0.
        2    1    3    3  502    0 -0.83712761359E+03 -0.70148459117E+03  0.95060198058E+03  0.14479321112E+04  0.25500000920E-02 0. -1.
       -2    1    3    3    0  502  0.83712761359E+03  0.70148459117E+03  0.81041483054E+02  0.10951853702E+04  0.25500000920E-02 0.  1.
</event>
<event>
 5   0  0.1692125E-05  0.2496649E+04  0.7818609E-02  0.8404180E-01
       -3   -1    0    0    0  501  0.00000000000E+00  0.00000000000E+00  0.82478522343E+03  0.82478522961E+03  0.10100000352E+00 0. -1.
        3   -1    0    0  501    0  0.00000000000E+00  0.00000000000E+00 -0.18893568951E+04  0.18893568978E+04  0.10100000352E+00 0.  1.
    10030    2    1    2    0    0  0.00000000000E+00  0.00000000000E+00 -0.10645716716E+04  0.27141421274E+04  0.24966486824E+04 0.  0.
        1    1    3    3  502    0 -0.24092655800E+03 -0.11921708571E+04 -0.83783396690E+03  0.14769166242E+04  0.50400001928E-02 0.  1.
       -1    1    3    3    0  502  0.24092655800E+03  0.11921708571E+04 -0.22673770474E+03  0.12372255031E+04  0.50400001928E-02 0. -1.
</event>
<event>
 5   0  0.2041718E-05  0.2467891E+04  0.7818609E-02  0.8414514E-01
        1   -1    0    0  501    0  0.00000000000E+00  0.00000000000E+00  0.17786097218E+04  0.17786097218E+04  0.50400001928E-02 0. -1.
       -1   -1    0    0    0  501  0.00000000000E+00  0.00000000000E+00 -0.85607421237E+03  0.85607421238E+03  0.50400001928E-02 0.  1.
    10030    2    1    2    0    0  0.00000000000E+00  0.00000000000E+00  0.92253550946E+03  0.26346839342E+04  0.24678913402E+04 0.  0.
        4    1    3    3  502    0 -0.10314906671E+04  0.78851972462E+02 -0.25682084169E+03  0.10659029916E+04  0.12699999809E+01 0.  1.
       -4    1    3    3    0  502  0.10314906671E+04 -0.78851972462E+02  0.11793563512E+04  0.15687809426E+04  0.12699999809E+01 0. -1.
</event>
<event>
 5   0  0.4995256E-05  0.1603493E+04  0.7818609E-02  0.8818405E-01
        2   -1    0    0  501    0  0.00000000000E+00  0.00000000000E+00  0.12166907239E+04  0.12166907239E+04  0.25500000920E-02 0. -1.
       -2   -1    0    0    0  501  0.00000000000E+00  0.00000000000E+00 -0.52831634129E+03  0.52831634130E+03  0.25500000920E-02 0.  1.
    10030    2    1    2    0    0  0.00000000000E+00  0.00000000000E+00  0.68837438263E+03  0.17450070652E+04  0.16034931765E+04 0.  0.
        2    1    3    3  502    0 -0.45871560895E+02 -0.40489988339E+03  0.10955941034E+04  0.11689202518E+04  0.25500000920E-02 0. -1.
       -2    1    3    3    0  502  0.45871560895E+02  0.40489988339E+03 -0.40721972074E+03  0.57608681345E+03  0.25500000920E-02 0.  1.
</event>
<event>
 5   0  0.2066170E-05  0.1615408E+04  0.7818609E-02  0.8811138E-01
       -1   -1    0    0    0  501  0.00000000000E+00  0.00000000000E+00  0.77147201811E+03  0.77147201812E+03  0.50400001928E-02 0.  1.
        1   -1    0    0  501    0  0.00000000000E+00  0.00000000000E+00 -0.84563801755E+03  0.84563801756E+03  0.50400001928E-02 0. -1.
    10030    2    1    2    0    0  0.00000000000E+00  0.00000000000E+00 -0.74165999444E+02  0.16171100357E+04  0.16154083917E+04 0.  0.
        5    1    3    3  502    0  0.32777180261E+03  0.77752417814E+02  0.69777758974E+03  0.77485188765E+03  0.46999998093E+01 0.  1.
       -5    1    3    3    0  502 -0.32777180261E+03 -0.77752417814E+02 -0.77194358918E+03  0.84225814804E+03  0.46999998093E+01 0. -1.
</event>
<event>
 5   0  0.2066170E-05  0.2499632E+04  0.7818609E-02  0.8403117E-01
        1   -1    0    0  501    0  0.00000000000E+00  0.00000000000E+00  0.15798176367E+04  0.15798176367E+04  0.50400001928E-02 0.  1.
       -1   -1    0    0    0  501  0.00000000000E+00  0.00000000000E+00 -0.98874672998E+03  0.98874672999E+03  0.50400001928E-02 0. -1.
    10030    2    1    2    0    0  0.00000000000E+00  0.00000000000E+00  0.59107090670E+03  0.25685643667E+04  0.24996315907E+04 0.  0.
        5    1    3    3  502    0 -0.32107194644E+03  0.70182769055E+03 -0.71461426745E+03  0.10518293318E+04  0.46999998093E+01 0. -1.
       -5    1    3    3    0  502  0.32107194644E+03 -0.70182769055E+03  0.13056851741E+04  0.15167350349E+04  0.46999998093E+01 0.  1.
</event>
<event>
 5   0  0.2063930E-05  0.2540522E+04  0.7818609E-02  0.8388690E-01
       -1   -1    0    0    0  501  0.00000000000E+00  0.00000000000E+00  0.13319089925E+04  0.13319089925E+04  0.50400001928E-02 0.  1.
        1   -1    0    0  501    0  0.00000000000E+00  0.00000000000E+00 -0.12114667460E+04  0.12114667461E+04  0.50400001928E-02 0. -1.
    10030    2    1    2    0    0  0.00000000000E+00  0.00000000000E+00  0.12044224643E+03  0.25433757385E+04  0.25405223504E+04 0.  0.
        3    1    3    3  502    0 -0.83060412570E+03 -0.94277344433E+03 -0.12663915510E+03  0.12628390502E+04  0.10100000352E+00 0. -1.
       -3    1    3    3    0  502  0.83060412570E+03  0.94277344433E+03  0.24708140153E+03  0.12805366883E+04  0.10100000352E+00 0.  1.
</event>
<event>
 5   0  0.2036578E-05  0.1631457E+04  0.7818609E-02  0.8801453E-01
       -1   -1    0    0    0  501  0.00000000000E+00  0.00000000000E+00  0.58050448774E+03  0.58050448776E+03  0.50400001928E-02 0. -1.
        1   -1    0    0  501    0  0.00000000000E+00  0.00000000000E+00 -0.11462661268E+04  0.11462661268E+04  0.50400001928E-02 0.  1.
    10030    2    1    2    0    0  0.00000000000E+00  0.00000000000E+00 -0.56576163904E+03  0.17267706146E+04  0.16314565649E+04 0.  0.
        2    1    3    3  502    0  0.31685381842E+03  0.37154070282E+02  0.51173726182E+03  0.60303548182E+03  0.25500000920E-02 0. -1.
       -2    1    3    3    0  502 -0.31685381842E+03 -0.37154070282E+02 -0.10774989009E+04  0.11237351327E+04  0.25500000920E-02 0.  1.
</event>
<event>
 5   0  0.5024070E-05  0.2498752E+04  0.7818609E-02  0.8403430E-01
       -2   -1    0    0    0  501  0.00000000000E+00  0.00000000000E+00  0.47301124809E+03  0.47301124810E+03  0.25500000920E-02 0.  1.
        2   -1    0    0  501    0  0.00000000000E+00  0.00000000000E+00 -0.33000071543E+04  0.33000071543E+04  0.25500000920E-02 0. -1.
    10030    2    1    2    0    0  0.00000000000E+00  0.00000000000E+00 -0.28269959062E+04  0.37730184024E+04  0.24987520908E+04 0.  0.
        5    1    3    3  502    0  0.77619817300E+03  0.20041888847E+03 -0.28604370780E+04  0.29706520668E+04  0.46999998093E+01 0. -1.
       -5    1    3    3    0  502 -0.77619817300E+03 -0.20041888847E+03  0.33441171774E+02  0.80236633565E+03  0.46999998093E+01 0.  1.
</event>
<event>
 5   0  0.2041718E-05  0.2506944E+04  0.7818609E-02  0.8400516E-01
        1   -1    0    0  501    0  0.00000000000E+00  0.00000000000E+00  0.11419968635E+04  0.11419968635E+04  0.50400001928E-02 0. -1.
       -1   -1    0    0    0  501  0.00000000000E+00  0.00000000000E+00 -0.13758285682E+04  0.13758285682E+04  0.50400001928E-02 0.  1.
    10030    2    1    2    0    0  0.00000000000E+00  0.00000000000E+00 -0.23383170462E+03  0.25178254317E+04  0.25069438842E+04 0.  0.
        4    1    3    3  502    0 -0.17504167516E+03 -0.66272735967E+03  0.93708832399E+03  0.11610268219E+04  0.12699999809E+01 0. -1.
       -4    1    3    3    0  502  0.17504167516E+03  0.66272735967E+03 -0.11709200286E+04  0.13567986098E+04  0.12699999809E+01 0.  1.
</event>
<event>
 5   0  0.2066170E-05  0.2523665E+04  0.7818609E-02  0.8394603E-01
        1   -1    0    0  501    0  0.00000000000E+00  0.00000000000E+00  0.15091114769E+04  0.15091114769E+04  0.50400001928E-02 0.  1.
       -1   -1    0    0    0  501  0.00000000000E+00  0.00000000000E+00 -0.10550722235E+04  0.10550722235E+04  0.50400001928E-02 0. -1.
    10030    2    1    2    0    0  0.00000000000E+00  0.00000000000E+00  0.45403925340E+03  0.25641837003E+04  0.25236652721E+04 0.  0.
        5    1    3    3  502    0 -0.22362357150E+03 -0.10168287390E+04  0.95138326861E+03  0.14103547071E+04  0.46999998093E+01 0.  1.
       -5    1    3    3    0  502  0.22362357150E+03  0.10168287390E+04 -0.49734401521E+03  0.11538289932E+04  0.46999998093E+01 0. -1.
</event>
<event>
 5   0  0.4995256E-05  0.2514836E+04  0.7818609E-02  0.8397719E-01
        2   -1    0    0  501    0  0.00000000000E+00  0.00000000000E+00  0.24610066950E+04  0.24610066950E+04  0.25500000920E-02 0. -1.
       -2   -1    0    0    0  501  0.00000000000E+00  0.00000000000E+00 -0.64246058578E+03  0.64246058579E+03  0.25500000920E-02 0.  1.
    10030    2    1    2    0    0  0.00000000000E+00  0.00000000000E+00  0.18185461092E+04  0.31034672808E+04  0.25148358220E+04 0.  0.
        2    1    3    3  502    0  0.98233025403E+02 -0.59355698691E+03 -0.45331430369E+03  0.75329508290E+03  0.25500000920E-02 0.  1.
       -2    1    3    3    0  502 -0.98233025403E+02  0.59355698691E+03  0.22718604129E+04  0.23501721979E+04  0.25500000920E-02 0. -1.
</event>
<event>
 5   0  0.2036578E-05  0.2514078E+04  0.7818609E-02  0.8397987E-01
       -1   -1    0    0    0  501  0.00000000000E+00  0.00000000000E+00  0.83215674126E+03  0.83215674128E+03  0.50400001928E-02 0. -1.
        1   -1    0    0  501    0  0.00000000000E+00  0.00000000000E+00 -0.18988570608E+04  0.18988570608E+04  0.50400001928E-02 0.  1.
    10030    2    1    2    0    0  0.00000000000E+00  0.00000000000E+00 -0.10667003196E+04  0.27310138021E+04  0.25140777266E+04 0.  0.
        2    1    3    3  502    0  0.39037282419E+03  0.22069098674E+03 -0.18090115106E+04  0.18637644967E+04  0.25500000920E-02 0.  1.
       -2    1    3    3    0  502 -0.39037282419E+03 -0.22069098674E+03  0.74231119103E+03  0.86724930546E+03  0.25500000920E-02 0. -1.
</event>
<event>
 5   0  0.5024070E-05  0.2557158E+04  0.7818609E-02  0.8382901E-01
       -2   -1    0    0    0  501  0.00000000000E+00  0.00000000000E+00  0.12912670554E+04  0.12912670554E+04  0.25500000920E-02 0. -1.
        2   -1    0    0  501    0  0.00000000000E+00  0.00000000000E+00 -0.12660155127E+04  0.12660155127E+04  0.25500000920E-02 0.  1.
    10030    2    1    2    0    0  0.00000000000E+00  0.00000000000E+00  0.25251542693E+02  0.25572825681E+04  0.25571578936E+04 0.  0.
        5    1    3    3  502    0 -0.11824036942E+03  0.25171835458E+03  0.12606445950E+04  0.12909646780E+04  0.46999998093E+01 0. -1.
       -5    1    3    3    0  502  0.11824036942E+03 -0.25171835458E+03 -0.12353930523E+04  0.12663178901E+04  0.46999998093E+01 0.  1.
</event>
<event>
 5   0  0.2081874E-05  0.2223966E+04  0.7818609E-02  0.8508519E-01
       -1   -1    0    0    0  501  0.00000000000E+00  0.00000000000E+00  0.10078416444E+04  0.10078416444E+04  0.50400001928E-02 0. -1.
        1   -1    0    0  501    0  0.00000000000E+00  0.00000000000E+00 -0.12268851020E+04  0.12268851020E+04  0.50400001928E-02 0.  1.
    10030    2    1    2    0    0  0.00000000000E+00  0.00000000000E+00 -0.21904345758E+03  0.22347267464E+04  0.22239657360E+04 0.  0.
        1    1    3    3  502    0  0.87833732021E+03  0.48609334842E+03  0.37106299667E+03  0.10702574172E+04  0.50400001928E-02 0.  1.
       -1    1    3    3    0  502 -0.87833732021E+03 -0.48609334842E+03 -0.59010645425E+03  0.11644693293E+04  0.50400001928E-02 0. -1.
</event>
<event>
 5   0  0.4959347E-05  0.1890375E+04  0.7818609E-02  0.8659662E-01
       -2   -1    0    0    0  501  0.00000000000E+00  0.00000000000E+00  0.13250697919E+04  0.13250697919E+04  0.25500000920E-02 0.  1.
        2   -1    0    0  501    0  0.00000000000E+00  0.00000000000E+00 -0.67421290909E+03  0.67421290909E+03  0.25500000920E-02 0. -1.
    10030    2    1    2    0    0  0.00000000000E+00  0.00000000000E+00  0.65085688281E+03  0.19992827010E+04  0.18903747344E+04 0.  0.
        3    1    3    3  502    0 -0.40649017558E+03 -0.82193590463E+03  0.56791061808E+03  0.10785802587E+04  0.10100000352E+00 0.  1.
       -3    1    3    3    0  502  0.40649017558E+03  0.82193590463E+03  0.82946264723E+02  0.92070244227E+03  0.10100000352E+00 0. -1.
</event>
<event>
 5   0  0.5024070E-05  0.2277150E+04  0.7818609E-02  0.8486985E-01
       -2   -1    0    0    0  501  0.00000000000E+00  0.00000000000E+00  0.16085772992E+04  0.16085772992E+04  0.25500000920E-02 0. -1.
        2   -1    0    0  501    0  0.00000000000E+00  0.00000000000E+00 -0.80590063166E+03  0.80590063167E+03  0.25500000920E-02 0.  1.
    10030    2    1    2    0    0  0.00000000000E+00  0.00000000000E+00  0.80267666756E+03  0.24144779309E+04  0.22771503785E+04 0.  0.
        5    1    3    3  502    0 -0.73277944249E+03 -0.29934448648E+03 -0.46640374559E+03  0.91876404851E+03  0.46999998093E+01 0.  1.
       -5    1    3    3    0  502  0.73277944249E+03  0.29934448648E+03  0.12690804132E+04  0.14957138824E+04  0.46999998093E+01 0. -1.
</event>
<event>
 5   0  0.2081874E-05  0.2486334E+04  0.7818609E-02  0.8407870E-01
       -1   -1    0    0    0  501  0.00000000000E+00  0.00000000000E+00  0.70171620729E+03  0.70171620731E+03  0.50400001928E-02 0.  1.
        1   -1    0    0  501    0  0.00000000000E+00  0.00000000000E+00 -0.22024065664E+04  0.22024065664E+04  0.50400001928E-02 0. -1.
    10030    2    1    2    0    0  0.00000000000E+00  0.00000000000E+00 -0.15006903591E+04  0.29041227737E+04  0.24863341551E+04 0.  0.
        1    1    3    3  502    0 -0.30052453419E+03  0.42645279927E+03 -0.20683551535E+04  0.21331361951E+04  0.50400001928E-02 0. -1.
       -1    1    3    3    0  502  0.30052453419E+03 -0.42645279927E+03  0.56766479439E+03  0.77098657866E+03  0.50400001928E-02 0.  1.
</event>
<event>
 5   0  0.4995256E-05  0.2402491E+04  0.7818609E-02  0.8438572E-01
       -2   -1    0    0    0  501  0.00000000000E+00  0.00000000000E+00  0.12982555310E+04  0.12982555310E+04  0.25500000920E-02 0.  1.
        2   -1    0    0  501    0  0.00000000000E+00  0.00000000000E+00 -0.11114839793E+04  0.11114839793E+04  0.25500000920E-02 0. -1.
    10030    2    1    2    0    0  0.00000000000E+00  0.00000000000E+00  0.18677155175E+03  0.24097395103E+04  0.24024905608E+04 0.  0.
        2    1    3    3  502    0  0.85158315622E+03  0.77405242496E+03 -0.25209390064E+03  0.11780926803E+04  0.25500000920E-02 0.  1.
       -2    1    3    3    0  502 -0.85158315622E+03 -0.77405242496E+03  0.43886545240E+03  0.12316468300E+04  0.25500000920E-02 0. -1.
</event>
<event>
 5   0  0.5024070E-05  0.2376509E+04  0.7818609E-02  0.8448351E-01
       -2   -1    0    0    0  501  0.00000000000E+00  0.00000000000E+00  0.84915597991E+03  0.84915597991E+03  0.25500000920E-02 0.  1.
        2   -1    0    0  501    0  0.00000000000E+00  0.00000000000E+00 -0.16627678761E+04  0.16627678761E+04  0.25500000920E-02 0. -1.
    10030    2    1    2    0    0  0.00000000000E+00  0.00000000000E+00 -0.81361189621E+03  0.25119238560E+04  0.23765094447E+04 0.  0.
        5    1    3    3  502    0 -0.28993297703E+03  0.10804535696E+04 -0.83023992400E+03  0.13931121522E+04  0.46999998093E+01 0. -1.
       -5    1    3    3    0  502  0.28993297703E+03 -0.10804535696E+04  0.16628027792E+02  0.11188117038E+04  0.46999998093E+01 0.  1.
</event>
<event>
 5   0  0.2036578E-05  0.2469847E+04  0.7818609E-02  0.8413807E-01
       -1   -1    0    0    0  501  0.00000000000E+00  0.00000000000E+00  0.11750388480E+04  0.11750388480E+04  0.50400001928E-02 0.  1.
        1   -1    0    0  501    0  0.00000000000E+00  0.00000000000E+00 -0.12978599024E+04  0.12978599024E+04  0.50400001928E-02 0. -1.
    10030    2    1    2    0    0  0.00000000000E+00  0.00000000000E+00 -0.12282105441E+03  0.24728987503E+04  0.24698468005E+04 0.  0.
        2    1    3    3  502    0  0.95998235258E+03  0.50062890633E+03 -0.65614821937E+03  0.12659881140E+04  0.25500000920E-02 0. -1.
       -2    1    3    3    0  502 -0.95998235258E+03 -0.50062890633E+03  0.53332716496E+03  0.12069106363E+04  0.25500000920E-02 0.  1.
</event>
<event>
 5   0  0.5024070E-05  0.2490097E+04  0.7818609E-02  0.8406522E-01
       -2   -1    0    0    0  501  0.00000000000E+00  0.00000000000E+00  0.13428303504E+04  0.13428303504E+04  0.25500000920E-02 0.  1.
        2   -1    0    0  501    0  0.00000000000E+00  0.00000000000E+00 -0.11543868820E+04  0.11543868820E+04  0.25500000920E-02 0. -1.
    10030    2    1    2    0    0  0.00000000000E+00  0.00000000000E+00  0.18844346836E+03  0.24972172324E+04  0.24900969790E+04 0.  0.
        5    1    3    3  502    0  0.46295229527E+03 -0.10910962119E+04 -0.28806096610E+03  0.12197610346E+04  0.46999998093E+01 0.  1.
       -5    1    3    3    0  502 -0.46295229527E+03  0.10910962119E+04  0.47650443446E+03  0.12774561978E+04  0.46999998093E+01 0. -1.
</event>
<event>
 5   0  0.2041718E-05  0.1659147E+04  0.7818609E-02  0.8785013E-01
        1   -1    0    0  501    0  0.00000000000E+00  0.00000000000E+00  0.73759049665E+03  0.73759049667E+03  0.50400001928E-02 0.  1.
       -1   -1    0    0    0  501  0.00000000000E+00  0.00000000000E+00 -0.93302758283E+03  0.93302758284E+03  0.50400001928E-02 0. -1.
    10030    2    1    2    0    0  0.00000000000E+00  0.00000000000E+00 -0.19543708617E+03  0.16706180795E+04  0.16591471041E+04 0.  0.
        4    1    3    3  502    0  0.48554294230E+03  0.58039715642E+03  0.24459935213E+03  0.79526301559E+03  0.12699999809E+01 0. -1.
       -4    1    3    3    0  502 -0.48554294230E+03 -0.58039715642E+03 -0.44003643831E+03  0.87535506392E+03  0.12699999809E+01 0.  1.
</event>
<event>
 5   0  0.2066170E-05  0.2730459E+04  0.7818609E-02  0.8325189E-01
        1   -1    0    0  501    0  0.00000000000E+00  0.00000000000E+00  0.19640367871E+04  0.19640367871E+04  0.50400001928E-02 0.  1.
       -1   -1    0    0    0  501  0.00000000000E+00  0.00000000000E+00 -0.94899008184E+03  0.94899008186E+03  0.50400001928E-02 0. -1.
    10030    2    1    2    0    0  0.00000000000E+00  0.00000000000E+00  0.10150467052E+04  0.29130268689E+04  0.27304588855E+04 0.  0.
        5    1    3    3  502    0 -0.10082738686E+04 -0.31016727205E+03  0.14320757701E+04  0.17786745155E+04  0.46999998093E+01 0.  1.
       -5    1    3    3    0  502  0.10082738686E+04  0.31016727205E+03 -0.41702906489E+03  0.11343523534E+04  0.46999998093E+01 0. -1.
</event>
<event>
 5   0  0.2066170E-05  0.2511730E+04  0.7818609E-02  0.8398819E-01
       -1   -1    0    0    0  501  0.00000000000E+00  0.00000000000E+00  0.16061694566E+04  0.16061694566E+04  0.50400001928E-02 0.  1.
        1   -1    0    0  501    0  0.00000000000E+00  0.00000000000E+00 -0.98196174333E+03  0.98196174334E+03  0.50400001928E-02 0. -1.
    10030    2    1    2    0    0  0.00000000000E+00  0.00000000000E+00  0.62420771325E+03  0.25881311999E+04  0.25117300489E+04 0.  0.
        5    1    3    3  502    0  0.22226916128E+03 -0.12228220327E+04  0.12640678097E+03  0.12492790192E+04  0.46999998093E+01 0. -1.
       -5    1    3    3    0  502 -0.22226916128E+03  0.12228220327E+04  0.49780093228E+03  0.13388521807E+04  0.46999998093E+01 0.  1.
</event>
<event>
 5   0  0.1692125E-05  0.2484565E+04  0.7818609E-02  0.8408505E-01
        3   -1    0    0  501    0  0.00000000000E+00  0.00000000000E+00  0.12778152315E+04  0.12778152355E+04  0.10100000352E+00 0.  1.
       -3   -1    0    0    0  501  0.00000000000E+00  0.00000000000E+00 -0.12077379842E+04  0.12077379885E+04  0.10100000352E+00 0. -1.
    10030    2    1    2    0    0  0.00000000000E+00  0.00000000000E+00  0.70077247264E+02  0.24855532240E+04  0.24845651548E+04 0.  0.
        3    1    3    3  502    0 -0.94653797322E+03 -0.75774949849E+02 -0.76627306006E+03  0.12201845723E+04  0.10100000352E+00 0. -1.
       -3    1    3    3    0  502  0.94653797322E+03  0.75774949849E+02  0.83635030732E+03  0.12653686516E+04  0.10100000352E+00 0.  1.
</event>
<event>
 5   0  0.4959347E-05  0.2469533E+04  0.7818609E-02  0.8413921E-01
       -2   -1    0    0    0  501  0.00000000000E+00  0.00000000000E+00  0.10124850890E+04  0.10124850890E+04  0.25500000920E-02 0.  1.
        2   -1    0    0  501    0  0.00000000000E+00  0.00000000000E+00 -0.15058472954E+04  0.15058472954E+04  0.25500000920E-02 0. -1.
    10030    2    1    2    0    0  0.00000000000E+00  0.00000000000E+00 -0.49336220644E+03  0.25183323844E+04  0.24695326950E+04 0.  0.
        3    1    3    3  502    0 -0.12531638635E+03  0.28262927971E+03  0.97237634621E+03  0.10203427244E+04  0.10100000352E+00 0.  1.
       -3    1    3    3    0  502  0.12531638635E+03 -0.28262927971E+03 -0.14657385526E+04  0.14979896600E+04  0.10100000352E+00 0. -1.
</event>
<event>
 5   0  0.2066170E-05  0.2499827E+04  0.7818609E-02  0.8403047E-01
        1   -1    0    0  501    0  0.00000000000E+00  0.00000000000E+00  0.17584947490E+04  0.17584947490E+04  0.50400001928E-02 0. -1.
       -1   -1    0    0    0  501  0.00000000000E+00  0.00000000000E+00 -0.88842120305E+03  0.88842120307E+03  0.50400001928E-02 0.  1.
    10030    2    1    2    0    0  0.00000000000E+00  0.00000000000E+00  0.87007354594E+03  0.26469159521E+04  0.24998272104E+04 0.  0.
        5    1    3    3  502    0  0.48017714690E+03 -0.39967449854E+03  0.15813019455E+04  0.17002493141E+04  0.46999998093E+01 0. -1.
       -5    1    3    3    0  502 -0.48017714690E+03  0.39967449854E+03 -0.71122839954E+03  0.94666663800E+03  0.46999998093E+01 0.  1.
</event>
<event>
 5   0  0.2066170E-05  0.2582071E+04  0.7818609E-02  0.8374317E-01
        1   -1    0    0  501    0  0.00000000000E+00  0.00000000000E+00  0.11731848081E+04  0.11731848081E+04  0.50400001928E-02 0.  1.
       -1   -1    0    0    0  501  0.00000000000E+00  0.00000000000E+00 -0.14207242804E+04  0.14207242804E+04  0.50400001928E-02 0. -1.
    10030    2    1    2    0    0  0.00000000000E+00  0.00000000000E+00 -0.24753947231E+03  0.25939090886E+04  0.25820705973E+04 0.  0.
        5    1    3    3  502    0  0.93094406241E+03 -0.30131631808E+03  0.72229215407E+03  0.12162139683E+04  0.46999998093E+01 0.  1.
       -5    1    3    3    0  502 -0.93094406241E+03  0.30131631808E+03 -0.96983162638E+03  0.13776951203E+04  0.46999998093E+01 0. -1.
</event>
<event>
 5   0  0.4959347E-05  0.2368590E+04  0.7818609E-02  0.8451357E-01
        2   -1    0    0  501    0  0.00000000000E+00  0.00000000000E+00  0.23059862441E+04  0.23059862441E+04  0.25500000920E-02 0.  1.
       -2   -1    0    0    0  501  0.00000000000E+00  0.00000000000E+00 -0.60822351404E+03  0.60822351405E+03  0.25500000920E-02 0. -1.
    10030    2    1    2    0    0  0.00000000000E+00  0.00000000000E+00  0.16977627301E+04  0.29142097582E+04  0.23685903460E+04 0.  0.
        3    1    3    3  502    0 -0.98755202675E+03 -0.13672087865E+03  0.62411903329E+02  0.99892284991E+03  0.10100000352E+00 0. -1.
       -3    1    3    3    0  502  0.98755202675E+03  0.13672087865E+03  0.16353508268E+04  0.19152869083E+04  0.10100000352E+00 0.  1.
</event>
<event>
 5   0  0.5219468E-05  0.2497080E+04  0.7818609E-02  0.8404026E-01
        2   -1    0    0  501    0  0.00000000000E+00  0.00000000000E+00  0.13035259763E+04  0.13035259763E+04  0.25500000920E-02 0. -1.
       -2   -1    0    0    0  501  0.00000000000E+00  0.00000000000E+00 -0.11958738625E+04  0.11958738625E+04  0.25500000920E-02 0.  1.
    10030    2    1    2    0    0  0.00000000000E+00  0.00000000000E+00  0.10765211380E+03  0.24993998388E+04  0.24970804105E+04 0.  0.
        1    1    3    3  502    0  0.10676562863E+04  0.22441761321E+03 -0.55386177663E+03  0.12235260841E+04  0.50400001928E-02 0.  1.
       -1    1    3    3    0  502 -0.10676562863E+04 -0.22441761321E+03  0.66151389044E+03  0.12758737547E+04  0.50400001928E-02 0. -1.
</event>
<event>
 5   0  0.4959042E-05  0.2469801E+04  0.7818609E-02  0.8413824E-01
        2   -1    0    0  501    0  0.00000000000E+00  0.00000000000E+00  0.17116986147E+04  0.17116986147E+04  0.25500000920E-02 0. -1.
       -2   -1    0    0    0  501  0.00000000000E+00  0.00000000000E+00 -0.89091587987E+03  0.89091587987E+03  0.25500000920E-02 0.  1.
    10030    2    1    2    0    0  0.00000000000E+00  0.00000000000E+00  0.82078273486E+03  0.26026144946E+04  0.24698011883E+04 0.  0.
        4    1    3    3  502    0 -0.10658452615E+04  0.13761789261E+03  0.10513889251E+04  0.15034577116E+04  0.12699999809E+01 0. -1.
       -4    1    3    3    0  502  0.10658452615E+04 -0.13761789261E+03 -0.23060619019E+03  0.10991567830E+04  0.12699999809E+01 0.  1.
</event>
<event>
 5   0  0.2036578E-05  0.2475318E+04  0.7818609E-02  0.8411832E-01
       -1   -1    0    0    0  501  0.00000000000E+00  0.00000000000E+00  0.10653034103E+04  0.10653034103E+04  0.50400001928E-02 0.  1.
        1   -1    0    0  501    0  0.00000000000E+00  0.00000000000E+00 -0.14378995666E+04  0.14378995666E+04  0.50400001928E-02 0. -1.
    10030    2    1    2    0    0  0.00000000000E+00  0.00000000000E+00 -0.37259615625E+03  0.25032029769E+04  0.24753176055E+04 0.  0.
        2    1    3    3  502    0 -0.71757834848E+03  0.48636988402E+03 -0.10796094976E+04  0.13845688924E+04  0.25500000920E-02 0. -1.
       -2    1    3    3    0  502  0.71757834848E+03 -0.48636988402E+03  0.70701334138E+03  0.11186340846E+04  0.25500000920E-02 0.  1.
</event>
<event>
 5   0  0.1692125E-05  0.2476054E+04  0.7818609E-02  0.8411566E-01
        4   -1    0    0  501    0  0.00000000000E+00  0.00000000000E+00  0.13930909182E+04  0.13930914971E+04  0.12699999809E+01 0.  1.
       -4   -1    0    0    0  501  0.00000000000E+00  0.00000000000E+00 -0.11002218710E+04  0.11002226040E+04  0.12699999809E+01 0. -1.
    10030    2    1    2    0    0  0.00000000000E+00  0.00000000000E+00  0.29286904723E+03  0.24933141010E+04  0.24760539024E+04 0.  0.
        2    1    3    3  502    0 -0.42629660027E+03  0.51980167292E+03 -0.90042205806E+03  0.11236914404E+04  0.25500000920E-02 0. -1.
       -2    1    3    3    0  502  0.42629660027E+03 -0.51980167292E+03  0.11932911053E+04  0.13696226606E+04  0.25500000920E-02 0.  1.
</event>
<event>
 5   0  0.2041718E-05  0.2531220E+04  0.7818609E-02  0.8391947E-01
        1   -1    0    0  501    0  0.00000000000E+00  0.00000000000E+00  0.19093911711E+04  0.19093911711E+04  0.50400001928E-02 0. -1.
       -1   -1    0    0    0  501  0.00000000000E+00  0.00000000000E+00 -0.83888982707E+03  0.83888982708E+03  0.50400001928E-02 0.  1.
    10030    2    1    2    0    0  0.00000000000E+00  0.00000000000E+00  0.10705013440E+04  0.27482809982E+04  0.25312201243E+04 0.  0.
        4    1    3    3  502    0  0.10899303606E+04 -0.61774016247E+03  0.34037042619E+03  0.12982313889E+04  0.12699999809E+01 0. -1.
       -4    1    3    3    0  502 -0.10899303606E+04  0.61774016247E+03  0.73013091784E+03  0.14500496093E+04  0.12699999809E+01 0.  1.
</event>
<event>
 5   0  0.5219468E-05  0.2544882E+04  0.7818609E-02  0.8387168E-01
        2   -1    0    0  501    0  0.00000000000E+00  0.00000000000E+00  0.13076031846E+04  0.13076031846E+04  0.25500000920E-02 0.  1.
       -2   -1    0    0    0  501  0.00000000000E+00  0.00000000000E+00 -0.12382242788E+04  0.12382242788E+04  0.25500000920E-02 0. -1.
    10030    2    1    2    0    0  0.00000000000E+00  0.00000000000E+00  0.69378905815E+02  0.25458274634E+04  0.25448819306E+04 0.  0.
        1    1    3    3  502    0  0.55215757677E+03  0.25682647656E+01 -0.11121314508E+04  0.12416605613E+04  0.50400001928E-02 0. -1.
       -1    1    3    3    0  502 -0.55215757677E+03 -0.25682647656E+01  0.11815103566E+04  0.13041669021E+04  0.50400001928E-02 0.  1.
</event>
<event>
 5   0  0.1692125E-05  0.2449777E+04  0.7818609E-02  0.8421100E-01
        4   -1    0    0  501    0  0.00000000000E+00  0.00000000000E+00  0.15005358297E+04  0.15005363672E+04  0.12699999809E+01 0. -1.
       -4   -1    0    0    0  501  0.00000000000E+00  0.00000000000E+00 -0.99987595314E+03  0.99987675969E+03  0.12699999809E+01 0.  1.
    10030    2    1    2    0    0  0.00000000000E+00  0.00000000000E+00  0.50065987657E+03  0.25004131268E+04  0.24497766210E+04 0.  0.
        1    1    3    3  502    0 -0.87100622220E+03  0.77747394470E+03 -0.12777802852E+03  0.11744976792E+04  0.50400001928E-02 0.  1.
       -1    1    3    3    0  502  0.87100622220E+03 -0.77747394470E+03  0.62843790509E+03  0.13259154477E+04  0.50400001928E-02 0. -1.
</event>
<event>
 5   0  0.4995256E-05  0.2364460E+04  0.7818609E-02  0.8452930E-01
        2   -1    0    0  501    0  0.00000000000E+00  0.00000000000E+00  0.13947846699E+04  0.13947846699E+04  0.25500000920E-02 0.  1.
       -2   -1    0    0    0  501  0.00000000000E+00  0.00000000000E+00 -0.10020672411E+04  0.10020672411E+04  0.25500000920E-02 0. -1.
    10030    2    1    2    0    0  0.00000000000E+00  0.00000000000E+00  0.39271742880E+03  0.23968519111E+04  0.23644602142E+04 0.  0.
        2    1    3    3  502    0  0.12586514896E+03  0.95080729739E+02 -0.99135167648E+03  0.10038229562E+04  0.25500000920E-02 0. -1.
       -2    1    3    3    0  502 -0.12586514896E+03 -0.95080729739E+02  0.13840691053E+04  0.13930289549E+04  0.25500000920E-02 0.  1.
</event>
<event>
 5   0  0.2081874E-05  0.2437671E+04  0.7818609E-02  0.8425533E-01
       -1   -1    0    0    0  501  0.00000000000E+00  0.00000000000E+00  0.14812035576E+04  0.14812035576E+04  0.50400001928E-02 0.  1.
        1   -1    0    0  501    0  0.00000000000E+00  0.00000000000E+00 -0.10029410024E+04  0.10029410024E+04  0.50400001928E-02 0. -1.
    10030    2    1    2    0    0  0.00000000000E+00  0.00000000000E+00  0.47826255520E+03  0.24841445600E+04  0.24376708398E+04 0.  0.
        1    1    3    3  502    0  0.72032362173E+03  0.43035331302E+03 -0.66174142697E+03  0.10686308110E+04  0.50400001928E-02 0. -1.
       -1    1    3    3    0  502 -0.72032362173E+03 -0.43035331302E+03  0.11400039822E+04  0.14155137489E+04  0.50400001928E-02 0.  1.
</event>
<event>
 5   0  0.2041718E-05  0.2486262E+04  0.7818609E-02  0.8407896E-01
       -1   -1    0    0    0  501  0.00000000000E+00  0.00000000000E+00  0.92893946426E+03  0.92893946428E+03  0.50400001928E-02 0.  1.
        1   -1    0    0  501    0  0.00000000000E+00  0.00000000000E+00 -0.16635899196E+04  0.16635899196E+04  0.50400001928E-02 0. -1.
    10030    2    1    2    0    0  0.00000000000E+00  0.00000000000E+00 -0.73465045530E+03  0.25925293839E+04  0.24862617148E+04 0.  0.
        4    1    3    3  502    0  0.30036286332E+01 -0.95701765402E+03 -0.11946349438E+04  0.15307011706E+04  0.12699999809E+01 0. -1.
       -4    1    3    3    0  502 -0.30036286332E+01  0.95701765402E+03  0.45998448849E+03  0.10618282132E+04  0.12699999809E+01 0.  1.
</event>
<event>
 5   0  0.4995256E-05  0.2151669E+04  0.7818609E-02  0.8538818E-01
       -2   -1    0    0    0  501  0.00000000000E+00  0.00000000000E+00  0.12346700664E+04  0.12346700664E+04  0.25500000920E-02 0.  1.
        2   -1    0    0  501    0  0.00000000000E+00  0.00000000000E+00 -0.93743278825E+03  0.93743278825E+03  0.25500000920E-02 0. -1.
    10030    2    1    2    0    0  0.00000000000E+00  0.00000000000E+00  0.29723727816E+03  0.21721028547E+04  0.21516693082E+04 0.  0.
        2    1    3    3  502    0 -0.87512298571E+03  0.24712141920E+03  0.72897907562E+03  0.11654697459E+04  0.25500000920E-02 0.  1.
       -2    1    3    3    0  502  0.87512298571E+03 -0.24712141920E+03 -0.43174179746E+03  0.10066331087E+04  0.25500000920E-02 0. -1.
</event>
<event>
 5   0  0.5024070E-05  0.2515120E+04  0.7818609E-02  0.8397619E-01
       -2   -1    0    0    0  501  0.00000000000E+00  0.00000000000E+00  0.10861756690E+04  0.10861756690E+04  0.25500000920E-02 0.  1.
        2   -1    0    0  501    0  0.00000000000E+00  0.00000000000E+00 -0.14559864820E+04  0.14559864820E+04  0.25500000920E-02 0. -1.
    10030    2    1    2    0    0  0.00000000000E+00  0.00000000000E+00 -0.36981081294E+03  0.25421621510E+04  0.25151199503E+04 0.  0.
        5    1    3    3  502    0  0.47929408455E+03  0.86225426065E+03  0.60337073738E+03  0.11564097744E+04  0.46999998093E+01 0.  1.
       -5    1    3    3    0  502 -0.47929408455E+03 -0.86225426065E+03 -0.97318155032E+03  0.13857523766E+04  0.46999998093E+01 0. -1.
</event>
<event>
 5   0  0.2081874E-05  0.2683219E+04  0.7818609E-02  0.8340470E-01
       -1   -1    0    0    0  501  0.00000000000E+00  0.00000000000E+00  0.69406771024E+03  0.69406771026E+03  0.50400001928E-02 0. -1.
        1   -1    0    0  501    0  0.00000000000E+00  0.00000000000E+00 -0.25932867229E+04  0.25932867230E+04  0.50400001928E-02 0.  1.
    10030    2    1    2    0    0  0.00000000000E+00  0.00000000000E+00 -0.18992190127E+04  0.32873544332E+04  0.26832193931E+04 0.  0.
        1    1    3    3  502    0 -0.31097606714E+03 -0.29973573359E+03 -0.25057800649E+04  0.25427310825E+04  0.50400001928E-02 0.  1.
       -1    1    3    3    0  502  0.31097606714E+03  0.29973573359E+03  0.60656105220E+03  0.74462335069E+03  0.50400001928E-02 0. -1.
</event>
<event>
 5   0  0.2036578E-05  0.2451522E+04  0.7818609E-02  0.8420462E-01
       -1   -1    0    0    0  501  0.00000000000E+00  0.00000000000E+00  0.84892539949E+03  0.84892539951E+03  0.50400001928E-02 0. -1.
        1   -1    0    0  501    0  0.00000000000E+00  0.00000000000E+00 -0.17698732925E+04  0.17698732925E+04  0.50400001928E-02 0.  1.
    10030    2    1    2    0    0  0.00000000000E+00  0.00000000000E+00 -0.92094789297E+03  0.26187986920E+04  0.24515222960E+04 0.  0.
        2    1    3    3  502    0 -0.10113762412E+04  0.67949895699E+03 -0.60335257966E+03  0.13596451998E+04  0.25500000920E-02 0.  1.
       -2    1    3    3    0  502  0.10113762412E+04 -0.67949895699E+03 -0.31759531331E+03  0.12591534922E+04  0.25500000920E-02 0. -1.
</event>
<event>
 5   0  0.4959042E-05  0.2434302E+04  0.7818609E-02  0.8426772E-01
        2   -1    0    0  501    0  0.00000000000E+00  0.00000000000E+00  0.11017421443E+04  0.11017421443E+04  0.25500000920E-02 0.  1.
       -2   -1    0    0    0  501  0.00000000000E+00  0.00000000000E+00 -0.13446495790E+04  0.13446495790E+04  0.25500000920E-02 0. -1.
    10030    2    1    2    0    0  0.00000000000E+00  0.00000000000E+00 -0.24290743465E+03  0.24463917233E+04  0.24343024549E+04 0.  0.
        4    1    3    3  502    0  0.94967293674E+03  0.62258807219E+03 -0.56176301274E+03  0.12669151076E+04  0.12699999809E+01 0.  1.
       -4    1    3    3    0  502 -0.94967293674E+03 -0.62258807219E+03  0.31885557809E+03  0.11794766157E+04  0.12699999809E+01 0. -1.
</event>
<event>
 5   0  0.1692125E-05  0.2451988E+04  0.7818609E-02  0.8420293E-01
       -3   -1    0    0    0  501  0.00000000000E+00  0.00000000000E+00  0.69298422284E+03  0.69298423020E+03  0.10100000352E+00 0.  1.
        3   -1    0    0  501    0  0.00000000000E+00  0.00000000000E+00 -0.21689683714E+04  0.21689683738E+04  0.10100000352E+00 0. -1.
    10030    2    1    2    0    0  0.00000000000E+00  0.00000000000E+00 -0.14759841486E+04  0.28619526040E+04  0.24519876632E+04 0.  0.
        4    1    3    3  502    0  0.41793562686E+03  0.94834786442E+03  0.26522308149E+02  0.10366961492E+04  0.12699999809E+01 0.  1.
       -4    1    3    3    0  502 -0.41793562686E+03 -0.94834786442E+03 -0.15025064568E+04  0.18252564548E+04  0.12699999809E+01 0. -1.
</event>
<event>
 5   0  0.4959042E-05  0.2519415E+04  0.7818609E-02  0.8396101E-01
        2   -1    0    0  501    0  0.00000000000E+00  0.00000000000E+00  0.60360727997E+03  0.60360727998E+03  0.25500000920E-02 0. -1.
       -2   -1    0    0    0  501  0.00000000000E+00  0.00000000000E+00 -0.26289666772E+04  0.26289666772E+04  0.25500000920E-02 0.  1.
    10030    2    1    2    0    0  0.00000000000E+00  0.00000000000E+00 -0.20253593972E+04  0.32325739572E+04  0.25194153490E+04 0.  0.
        4    1    3    3  502    0  0.66635863240E+03 -0.91368071155E+03 -0.17247699082E+04  0.20624449372E+04  0.12699999809E+01 0.  1.
       -4    1    3    3    0  502 -0.66635863240E+03  0.91368071155E+03 -0.30058948896E+03  0.11701290200E+04  0.12699999809E+01 0. -1.
</event>
<event>
 5   0  0.4959042E-05  0.2460655E+04  0.7818609E-02  0.8417138E-01
       -2   -1    0    0    0  501  0.00000000000E+00  0.00000000000E+00  0.12482093469E+04  0.12482093469E+04  0.25500000920E-02 0. -1.
        2   -1    0    0  501    0  0.00000000000E+00  0.00000000000E+00 -0.12127015228E+04  0.12127015228E+04  0.25500000920E-02 0.  1.
    10030    2    1    2    0    0  0.00000000000E+00  0.00000000000E+00  0.35507824177E+02  0.24609108697E+04  0.24606546899E+04 0.  0.
        4    1    3    3  502    0 -0.36583470804E+03 -0.70516355900E+03  0.95732661938E+03  0.12440122779E+04  0.12699999809E+01 0. -1.
       -4    1    3    3    0  502  0.36583470804E+03  0.70516355900E+03 -0.92181879520E+03  0.12168985918E+04  0.12699999809E+01 0.  1.
</event>
<event>
 5   0  0.5024070E-05  0.2491781E+04  0.7818609E-02  0.8405919E-01
       -2   -1    0    0    0  501  0.00000000000E+00  0.00000000000E+00  0.10322400893E+04  0.10322400893E+04  0.25500000920E-02 0.  1.
        2   -1    0    0  501    0  0.00000000000E+00  0.00000000000E+00 -0.15037620092E+04  0.15037620092E+04  0.25500000920E-02 0. -1.
    10030    2    1    2    0    0  0.00000000000E+00  0.00000000000E+00 -0.47152191995E+03  0.25360020985E+04  0.24917812349E+04 0.  0.
        5    1    3    3  502    0  0.54557231097E+03  0.82071764369E+03  0.53999621171E+03  0.11237635854E+04  0.46999998093E+01 0.  1.
       -5    1    3    3    0  502 -0.54557231097E+03 -0.82071764369E+03 -0.10115181317E+04  0.14122385131E+04  0.46999998093E+01 0. -1.
</event>
<event>
 5   0  0.2036578E-05  0.2501866E+04  0.7818609E-02  0.8402321E-01
        1   -1    0    0  501    0  0.00000000000E+00  0.00000000000E+00  0.11210676350E+04  0.11210676350E+04  0.50400001928E-02 0.  1.
       -1   -1    0    0    0  501  0.00000000000E+00  0.00000000000E+00 -0.13958420624E+04  0.13958420624E+04  0.50400001928E-02 0. -1.
    10030    2    1    2    0    0  0.00000000000E+00  0.00000000000E+00 -0.27477442736E+03  0.25169096975E+04  0.25018659915E+04 0.  0.
        2    1    3    3  502    0 -0.45173045946E+03  0.11500133874E+04 -0.33411912011E+03  0.12799323364E+04  0.25500000920E-02 0. -1.
       -2    1    3    3    0  502  0.45173045946E+03 -0.11500133874E+04  0.59344692745E+02  0.12369773611E+04  0.25500000920E-02 0.  1.
</event>
<event>
 5   0  0.2081874E-05  0.2375554E+04  0.7818609E-02  0.8448713E-01
       -1   -1    0    0    0  501  0.00000000000E+00  0.00000000000E+00  0.96343816324E+03  0.96343816326E+03  0.50400001928E-02 0.  1.
        1   -1    0    0  501    0  0.00000000000E+00  0.00000000000E+00 -0.14643540246E+04  0.14643540246E+04  0.50400001928E-02 0. -1.
    10030    2    1    2    0    0  0.00000000000E+00  0.00000000000E+00 -0.50091586136E+03  0.24277921879E+04  0.23755542948E+04 0.  0.
        1    1    3    3  502    0 -0.89326233699E+03 -0.17963998190E+03 -0.10292023505E+04  0.13745710618E+04  0.50400001928E-02 0. -1.
       -1    1    3    3    0  502  0.89326233699E+03  0.17963998190E+03  0.52828648909E+03  0.10532211261E+04  0.50400001928E-02 0.  1.
</event>
<event>
 5   0  0.2066170E-05  0.1865064E+04  0.7818609E-02  0.8672444E-01
        1   -1    0    0  501    0  0.00000000000E+00  0.00000000000E+00  0.19484459033E+04  0.19484459033E+04  0.50400001928E-02 0. -1.
       -1   -1    0    0    0  501  0.00000000000E+00  0.00000000000E+00 -0.44631244636E+03  0.44631244638E+03  0.50400001928E-02 0.  1.
    10030    2    1    2    0    0  0.00000000000E+00  0.00000000000E+00  0.15021334569E+04  0.23947583497E+04  0.18650637069E+04 0.  0.
        5    1    3    3  502    0  0.78516296936E+03  0.49310953149E+03  0.62295076283E+03  0.11170172968E+04  0.46999998093E+01 0.  1.
       -5    1    3    3    0  502 -0.78516296936E+03 -0.49310953149E+03  0.87918269409E+03  0.12777410528E+04  0.46999998093E+01 0. -1.
</event>
<event>
 5   0  0.5219468E-05  0.2499307E+04  0.7818609E-02  0.8403232E-01
       -2   -1    0    0    0  501  0.00000000000E+00  0.00000000000E+00  0.15153988063E+04  0.15153988063E+04  0.25500000920E-02 0.  1.
        2   -1    0    0  501    0  0.00000000000E+00  0.00000000000E+00 -0.10305102938E+04  0.10305102938E+04  0.25500000920E-02 0. -1.
    10030    2    1    2    0    0  0.00000000000E+00  0.00000000000E+00  0.48488851255E+03  0.25459091001E+04  0.24993071593E+04 0.  0.
        1    1    3    3  502    0  0.25232907404E+03  0.35461767942E+03 -0.95081171097E+03  0.10456895189E+04  0.50400001928E-02 0. -1.
       -1    1    3    3    0  502 -0.25232907404E+03 -0.35461767942E+03  0.14357002235E+04  0.15002195813E+04  0.50400001928E-02 0.  1.
</event>
<event>
 5   0  0.1692125E-05  0.2404991E+04  0.7818609E-02  0.8437638E-01
       -4   -1    0    0    0  501  0.00000000000E+00  0.00000000000E+00  0.78307466812E+03  0.78307569797E+03  0.12699999809E+01 0. -1.
        4   -1    0    0  501    0  0.00000000000E+00  0.00000000000E+00 -0.18465581855E+04  0.18465586222E+04  0.12699999809E+01 0.  1.
    10030    2    1    2    0    0  0.00000000000E+00  0.00000000000E+00 -0.10634835173E+04  0.26296343202E+04  0.24049905335E+04 0.  0.
        4    1    3    3  502    0 -0.26310747930E+02 -0.10673315011E+04  0.73204534825E+02  0.10701632144E+04  0.12699999809E+01 0. -1.
       -4    1    3    3    0  502  0.26310747930E+02  0.10673315011E+04 -0.11366880522E+04  0.15594711057E+04  0.12699999809E+01 0.  1.
</event>
<event>
 5   0  0.4959042E-05  0.2473987E+04  0.7818609E-02  0.8412312E-01
       -2   -1    0    0    0  501  0.00000000000E+00  0.00000000000E+00  0.89346534867E+03  0.89346534867E+03  0.25500000920E-02 0.  1.
        2   -1    0    0  501    0  0.00000000000E+00  0.00000000000E+00 -0.17126051161E+04  0.17126051161E+04  0.25500000920E-02 0. -1.
    10030    2    1    2    0    0  0.00000000000E+00  0.00000000000E+00 -0.81913976745E+03  0.26060704648E+04  0.24739873300E+04 0.  0.
        4    1    3    3  502    0 -0.17756068140E+03 -0.95093978619E+03  0.40252210919E+03  0.10477785710E+04  0.12699999809E+01 0.  1.
       -4    1    3    3    0  502  0.17756068140E+03  0.95093978619E+03 -0.12216618766E+04  0.15582918938E+04  0.12699999809E+01 0. -1.
</event>
<event>
 5   0  0.2066170E-05  0.2465101E+04  0.7818609E-02  0.8415525E-01
       -1   -1    0    0    0  501  0.00000000000E+00  0.00000000000E+00  0.89661233784E+03  0.89661233785E+03  0.50400001928E-02 0.  1.
        1   -1    0    0  501    0  0.00000000000E+00  0.00000000000E+00 -0.16943561082E+04  0.16943561083E+04  0.50400001928E-02 0. -1.
    10030    2    1    2    0    0  0.00000000000E+00  0.00000000000E+00 -0.79774377041E+03  0.25909684461E+04  0.24651008834E+04 0.  0.
        5    1    3    3  502    0 -0.69311090312E+03  0.10157514618E+04 -0.48683965806E+03  0.13225689770E+04  0.46999998093E+01 0.  1.
       -5    1    3    3    0  502  0.69311090312E+03 -0.10157514618E+04 -0.31090411236E+03  0.12683994691E+04  0.46999998093E+01 0. -1.
</event>
<event>
 5   0  0.2063930E-05  0.1832397E+04  0.7818609E-02  0.8689259E-01
       -1   -1    0    0    0  501  0.00000000000E+00  0.00000000000E+00  0.34643993054E+03  0.34643993058E+03  0.50400001928E-02 0. -1.
        1   -1    0    0  501    0  0.00000000000E+00  0.00000000000E+00 -0.24229864707E+04  0.24229864707E+04  0.50400001928E-02 0.  1.
    10030    2    1    2    0    0  0.00000000000E+00  0.00000000000E+00 -0.20765465401E+04  0.27694264013E+04  0.18323965342E+04 0.  0.
        3    1    3    3  502    0 -0.45060776343E+03  0.55644055498E+03 -0.17434959066E+03  0.73693367249E+03  0.10100000352E+00 0. -1.
       -3    1    3    3    0  502  0.45060776343E+03 -0.55644055498E+03 -0.19021969495E+04  0.20324927288E+04  0.10100000352E+00 0.  1.
</event>
<event>
 5   0  0.2036578E-05  0.2427919E+04  0.7818609E-02  0.8429125E-01
        1   -1    0    0  501    0  0.00000000000E+00  0.00000000000E+00  0.15319392832E+04  0.15319392832E+04  0.50400001928E-02 0. -1.
       -1   -1    0    0    0  501  0.00000000000E+00  0.00000000000E+00 -0.96198164763E+03  0.96198164764E+03  0.50400001928E-02 0.  1.
    10030    2    1    2    0    0  0.00000000000E+00  0.00000000000E+00  0.56995763560E+03  0.24939209309E+04  0.24279188419E+04 0.  0.
        2    1    3    3  502    0  0.58558510659E+03 -0.60131016802E+03  0.11858693094E+04  0.14528488752E+04  0.25500000920E-02 0. -1.
       -2    1    3    3    0  502 -0.58558510659E+03  0.60131016802E+03 -0.61591167377E+03  0.10410720557E+04  0.25500000920E-02 0.  1.
</event>
<event>
 5   0  0.2036578E-05  0.2368944E+04  0.7818609E-02  0.8451223E-01
        1   -1    0    0  501    0  0.00000000000E+00  0.00000000000E+00  0.12676192216E+04  0.12676192217E+04  0.50400001928E-02 0.  1.
       -1   -1    0    0    0  501  0.00000000000E+00  0.00000000000E+00 -0.11067783881E+04  0.11067783881E+04  0.50400001928E-02 0. -1.
    10030    2    1    2    0    0  0.00000000000E+00  0.00000000000E+00  0.16084083358E+03  0.23743976097E+04  0.23689436961E+04 0.  0.
        2    1    3    3  502    0  0.22769357380E+03 -0.11055306274E+04 -0.27947620147E+03  0.11628195384E+04  0.25500000920E-02 0. -1.
       -2    1    3    3    0  502 -0.22769357380E+03  0.11055306274E+04  0.44031703505E+03  0.12115780714E+04  0.25500000920E-02 0.  1.
</event>
<event>
 5   0  0.2066170E-05  0.2532136E+04  0.7818609E-02  0.8391626E-01
        1   -1    0    0  501    0  0.00000000000E+00  0.00000000000E+00  0.15277426892E+04  0.15277426892E+04  0.50400001928E-02 0.  1.
       -1   -1    0    0    0  501  0.00000000000E+00  0.00000000000E+00 -0.10492135780E+04  0.10492135780E+04  0.50400001928E-02 0. -1.
    10030    2    1    2    0    0  0.00000000000E+00  0.00000000000E+00  0.47852911117E+03  0.25769562673E+04  0.25321361522E+04 0.  0.
        5    1    3    3  502    0 -0.15909948035E+03  0.24689226872E+02 -0.10387436701E+04  0.10511577925E+04  0.46999998093E+01 0. -1.
       -5    1    3    3    0  502  0.15909948035E+03 -0.24689226872E+02  0.15172727813E+04  0.15257984747E+04  0.46999998093E+01 0.  1.
</event>
<event>
 5   0  0.5219468E-05  0.2491996E+04  0.7818609E-02  0.8405842E-01
        2   -1    0    0  501    0  0.00000000000E+00  0.00000000000E+00  0.12199904271E+04  0.12199904271E+04  0.25500000920E-02 0. -1.
       -2   -1    0    0    0  501  0.00000000000E+00  0.00000000000E+00 -0.12725603406E+04  0.12725603406E+04  0.25500000920E-02 0.  1.
    10030    2    1    2    0    0  0.00000000000E+00  0.00000000000E+00 -0.52569913476E+02  0.24925507677E+04  0.24919963350E+04 0.  0.
        1    1    3    3  502    0  0.11256514005E+04 -0.50313779016E+03  0.15340111409E+03  0.12424856592E+04  0.50400001928E-02 0.  1.
       -1    1    3    3    0  502 -0.11256514005E+04  0.50313779016E+03 -0.20597102756E+03  0.12500651086E+04  0.50400001928E-02 0. -1.
</event>
<event>
 5   0  0.2041718E-05  0.2552458E+04  0.7818609E-02  0.8384532E-01
        1   -1    0    0  501    0  0.00000000000E+00  0.00000000000E+00  0.14437657183E+04  0.14437657183E+04  0.50400001928E-02 0. -1.
       -1   -1    0    0    0  501  0.00000000000E+00  0.00000000000E+00 -0.11281330713E+04  0.11281330713E+04  0.50400001928E-02 0.  1.
    10030    2    1    2    0    0  0.00000000000E+00  0.00000000000E+00  0.31563264694E+03  0.25718987896E+04  0.25524575249E+04 0.  0.
        4    1    3    3  502    0 -0.54527970539E+03  0.61653702657E+03 -0.82496403397E+03  0.11653390633E+04  0.12699999809E+01 0.  1.
       -4    1    3    3    0  502  0.54527970539E+03 -0.61653702657E+03  0.11405966809E+04  0.14065597263E+04  0.12699999809E+01 0. -1.
</event>
<event>
 5   0  0.2081874E-05  0.2507576E+04  0.7818609E-02  0.8400292E-01
       -1   -1    0    0    0  501  0.00000000000E+00  0.00000000000E+00  0.11533450177E+04  0.11533450177E+04  0.50400001928E-02 0.  1.
        1   -1    0    0  501    0  0.00000000000E+00  0.00000000000E+00 -0.13629784456E+04  0.13629784456E+04  0.50400001928E-02 0. -1.
    10030    2    1    2    0    0  0.00000000000E+00  0.00000000000E+00 -0.20963342787E+03  0.25163234633E+04  0.25075760403E+04 0.  0.
        1    1    3    3  502    0  0.25472498175E+03 -0.19941338581E+03 -0.13203779133E+04  0.13594294203E+04  0.50400001928E-02 0. -1.
       -1    1    3    3    0  502 -0.25472498175E+03  0.19941338581E+03  0.11107444854E+04  0.11568940430E+04  0.50400001928E-02 0.  1.
</event>
<event>
 5   0  0.4959042E-05  0.2465094E+04  0.7818609E-02  0.8415528E-01
       -2   -1    0    0    0  501  0.00000000000E+00  0.00000000000E+00  0.14126783298E+04  0.14126783298E+04  0.25500000920E-02 0.  1.
        2   -1    0    0  501    0  0.00000000000E+00  0.00000000000E+00 -0.10753840035E+04  0.10753840035E+04  0.25500000920E-02 0. -1.
    10030    2    1    2    0    0  0.00000000000E+00  0.00000000000E+00  0.33729432632E+03  0.24880623333E+04  0.24650936517E+04 0.  0.
        4    1    3    3  502    0 -0.73711449017E+03  0.94978805295E+01 -0.82835328030E+03  0.11088727390E+04  0.12699999809E+01 0. -1.
       -4    1    3    3    0  502  0.73711449017E+03 -0.94978805295E+01  0.11656476066E+04  0.13791895943E+04  0.12699999809E+01 0.  1.
</event>
<event>
 5   0  0.2066170E-05  0.2531769E+04  0.7818609E-02  0.8391754E-01
        1   -1    0    0  501    0  0.00000000000E+00  0.00000000000E+00  0.18345170924E+04  0.18345170924E+04  0.50400001928E-02 0.  1.
       -1   -1    0    0    0  501  0.00000000000E+00  0.00000000000E+00 -0.87350707218E+03  0.87350707220E+03  0.50400001928E-02 0. -1.
    10030    2    1    2    0    0  0.00000000000E+00  0.00000000000E+00  0.96101002024E+03  0.27080241646E+04  0.25317690687E+04 0.  0.
        5    1    3    3  502    0  0.11818694929E+04  0.43385146897E+03  0.33941696991E+03  0.13039434669E+04  0.46999998093E+01 0.  1.
       -5    1    3    3    0  502 -0.11818694929E+04 -0.43385146897E+03  0.62159305033E+03  0.14040806977E+04  0.46999998093E+01 0. -1.
</event>
<event>
 5   0  0.2066170E-05  0.1785166E+04  0.7818609E-02  0.8714228E-01
       -1   -1    0    0    0  501  0.00000000000E+00  0.00000000000E+00  0.50949260711E+03  0.50949260713E+03  0.50400001928E-02 0. -1.
        1   -1    0    0  501    0  0.00000000000E+00  0.00000000000E+00 -0.15637207362E+04  0.15637207362E+04  0.50400001928E-02 0.  1.
    10030    2    1    2    0    0  0.00000000000E+00  0.00000000000E+00 -0.10542281291E+04  0.20732133433E+04  0.17851657118E+04 0.  0.
        5    1    3    3  502    0  0.81470902894E+03  0.32008479676E+03 -0.72985967700E+03  0.11397027319E+04  0.46999998093E+01 0.  1.
       -5    1    3    3    0  502 -0.81470902894E+03 -0.32008479676E+03 -0.32436845206E+03  0.93351061142E+03  0.46999998093E+01 0. -1.
</event>
<event>
 5   0  0.2041718E-05  0.2261919E+04  0.7818609E-02  0.8493089E-01
        1   -1    0    0  501    0  0.00000000000E+00  0.00000000000E+00  0.12895528312E+04  0.12895528312E+04  0.50400001928E-02 0. -1.
       -1   -1    0    0    0  501  0.00000000000E+00  0.00000000000E+00 -0.99187088857E+03  0.99187088859E+03  0.50400001928E-02 0.  1.
    10030    2    1    2    0    0  0.00000000000E+00  0.00000000000E+00  0.29768194262E+03  0.22814237198E+04  0.22619194615E+04 0.  0.
        4    1    3    3  502    0  0.60092543168E+03  0.51563877658E+03 -0.66563282508E+03  0.10344386850E+04  0.12699999809E+01 0.  1.
       -4    1    3    3    0  502 -0.60092543168E+03 -0.51563877658E+03  0.96331476770E+03  0.12469850348E+04  0.12699999809E+01 0. -1.
</event>
<event>
 5   0  0.5219468E-05  0.2409627E+04  0.7818609E-02  0.8435908E-01
        2   -1    0    0  501    0  0.00000000000E+00  0.00000000000E+00  0.19127504570E+04  0.19127504570E+04  0.25500000920E-02 0.  1.
       -2   -1    0    0    0  501  0.00000000000E+00  0.00000000000E+00 -0.75889444947E+03  0.75889444947E+03  0.25500000920E-02 0. -1.
    10030    2    1    2    0    0  0.00000000000E+00  0.00000000000E+00  0.11538560075E+04  0.26716449064E+04  0.24096271122E+04 0.  0.
        1    1    3    3  502    0  0.67068997999E+03 -0.42120850316E+03  0.15835826768E+04  0.17705862720E+04  0.50400001928E-02 0.  1.
       -1    1    3    3    0  502 -0.67068997999E+03  0.42120850316E+03 -0.42972666927E+03  0.90105863444E+03  0.50400001928E-02 0. -1.
</event>
<event>
 5   0  0.2041718E-05  0.2528387E+04  0.7818609E-02  0.8392942E-01
       -1   -1    0    0    0  501  0.00000000000E+00  0.00000000000E+00  0.77548183880E+03  0.77548183882E+03  0.50400001928E-02 0.  1.
        1   -1    0    0  501    0  0.00000000000E+00  0.00000000000E+00 -0.20608933145E+04  0.20608933145E+04  0.50400001928E-02 0. -1.
    10030    2    1    2    0    0  0.00000000000E+00  0.00000000000E+00 -0.12854114757E+04  0.28363751533E+04  0.25283871042E+04 0.  0.
        4    1    3    3  502    0  0.99980733357E+03 -0.47682816583E+03 -0.13261866380E+04  0.17279329894E+04  0.12699999809E+01 0. -1.
       -4    1    3    3    0  502 -0.99980733357E+03  0.47682816583E+03  0.40775162346E+02  0.11084421639E+04  0.12699999809E+01 0.  1.
</event>
<event>
 5   0  0.5219468E-05  0.2469751E+04  0.7818609E-02  0.8413842E-01
       -2   -1    0    0    0  501  0.00000000000E+00  0.00000000000E+00  0.97819743602E+03  0.97819743602E+03  0.25500000920E-02 0. -1.
        2   -1    0    0  501    0  0.00000000000E+00  0.00000000000E+00 -0.15589050556E+04  0.15589050556E+04  0.25500000920E-02 0.  1.
    10030    2    1    2    0    0  0.00000000000E+00  0.00000000000E+00 -0.58070761954E+03  0.25371024916E+04  0.24697505367E+04 0.  0.
        1    1    3    3  502    0  0.88014653423E+03  0.82094775480E+03 -0.65893640260E+01  0.12036014945E+04  0.50400001928E-02 0. -1.
       -1    1    3    3    0  502 -0.88014653423E+03 -0.82094775480E+03 -0.57411825551E+03  0.13335009971E+04  0.50400001928E-02 0.  1.
</event>
<event>
 5   0  0.4959347E-05  0.2494344E+04  0.7818609E-02  0.8405003E-01
       -2   -1    0    0    0  501  0.00000000000E+00  0.00000000000E+00  0.14308675718E+04  0.14308675718E+04  0.25500000920E-02 0.  1.
        2   -1    0    0  501    0  0.00000000000E+00  0.00000000000E+00 -0.10870593631E+04  0.10870593631E+04  0.25500000920E-02 0. -1.
    10030    2    1    2    0    0  0.00000000000E+00  0.00000000000E+00  0.34380820869E+03  0.25179269350E+04  0.24943439950E+04 0.  0.
        3    1    3    3  502    0  0.92174304762E+03 -0.76632803860E+03  0.51949827805E+03  0.13064254206E+04  0.10100000352E+00 0.  1.
       -3    1    3    3    0  502 -0.92174304762E+03  0.76632803860E+03 -0.17569006936E+03  0.12115015143E+04  0.10100000352E+00 0. -1.
</event>
<event>
 5   0  0.4959347E-05  0.2505674E+04  0.7818609E-02  0.8400967E-01
        2   -1    0    0  501    0  0.00000000000E+00  0.00000000000E+00  0.24125160942E+04  0.24125160942E+04  0.25500000920E-02 0. -1.
       -2   -1    0    0    0  501  0.00000000000E+00  0.00000000000E+00 -0.65060715438E+03  0.65060715438E+03  0.25500000920E-02 0.  1.
    10030    2    1    2    0    0  0.00000000000E+00  0.00000000000E+00  0.17619089399E+04  0.30631232486E+04  0.25056737465E+04 0.  0.
        3    1    3    3  502    0  0.26368346230E+03  0.37551482351E+03 -0.54419115313E+03  0.71181765384E+03  0.10100000352E+00 0.  1.
       -3    1    3    3    0  502 -0.26368346230E+03 -0.37551482351E+03  0.23061000930E+04  0.23513055948E+04  0.10100000352E+00 0. -1.
</event>
<event>
 5   0  0.2081874E-05  0.2514279E+04  0.7818609E-02  0.8397916E-01
        1   -1    0    0  501    0  0.00000000000E+00  0.00000000000E+00  0.17100619598E+04  0.17100619598E+04  0.50400001928E-02 0.  1.
       -1   -1    0    0    0  501  0.00000000000E+00  0.00000000000E+00 -0.92417654008E+03  0.92417654009E+03  0.50400001928E-02 0. -1.
    10030    2    1    2    0    0  0.00000000000E+00  0.00000000000E+00  0.78588541975E+03  0.26342384999E+04  0.25142785410E+04 0.  0.
        1    1    3    3  502    0  0.54882091847E+03 -0.64551748962E+03 -0.58007722522E+03  0.10268333931E+04  0.50400001928E-02 0. -1.
       -1    1    3    3    0  502 -0.54882091847E+03  0.64551748962E+03  0.13659626450E+04  0.16074051068E+04  0.50400001928E-02 0.  1.
</event>
<event>
 5   0  0.2066170E-05  0.2512778E+04  0.7818609E-02  0.8398447E-01
       -1   -1    0    0    0  501  0.00000000000E+00  0.00000000000E+00  0.12658013785E+04  0.12658013785E+04  0.50400001928E-02 0.  1.
        1   -1    0    0  501    0  0.00000000000E+00  0.00000000000E+00 -0.12470470022E+04  0.12470470022E+04  0.50400001928E-02 0. -1.
    10030    2    1    2    0    0  0.00000000000E+00  0.00000000000E+00  0.18754376330E+02  0.25128483807E+04  0.25127783941E+04 0.  0.
        5    1    3    3  502    0 -0.56468788385E+03 -0.67634085084E+03  0.90504847701E+03  0.12631089377E+04  0.46999998093E+01 0.  1.
       -5    1    3    3    0  502  0.56468788385E+03  0.67634085084E+03 -0.88629410068E+03  0.12497394431E+04  0.46999998093E+01 0. -1.
</event>
<event>
 5   0  0.4959347E-05  0.2417199E+04  0.7818609E-02  0.8433092E-01
        2   -1    0    0  501    0  0.00000000000E+00  0.00000000000E+00  0.10380797944E+04  0.10380797944E+04  0.25500000920E-02 0.  1.
       -2   -1    0    0    0  501  0.00000000000E+00  0.00000000000E+00 -0.14071301027E+04  0.14071301027E+04  0.25500000920E-02 0. -1.
    10030    2    1    2    0    0  0.00000000000E+00  0.00000000000E+00 -0.36905030825E+03  0.24452098971E+04  0.24171994768E+04 0.  0.
        3    1    3    3  502    0 -0.11066421931E+03  0.48683007282E+03 -0.12979445221E+04  0.13906509561E+04  0.10100000352E+00 0. -1.
       -3    1    3    3    0  502  0.11066421931E+03 -0.48683007282E+03  0.92889421383E+03  0.10545589409E+04  0.10100000352E+00 0.  1.
</event>
<event>
 5   0  0.2066170E-05  0.2544013E+04  0.7818609E-02  0.8387471E-01
       -1   -1    0    0    0  501  0.00000000000E+00  0.00000000000E+00  0.82685647820E+03  0.82685647821E+03  0.50400001928E-02 0.  1.
        1   -1    0    0  501    0  0.00000000000E+00  0.00000000000E+00 -0.19568093340E+04  0.19568093341E+04  0.50400001928E-02 0. -1.
    10030    2    1    2    0    0  0.00000000000E+00  0.00000000000E+00 -0.11299528558E+04  0.27836658123E+04  0.25440129516E+04 0.  0.
        5    1    3    3  502    0 -0.52248998355E+03 -0.54328932422E+03 -0.16861040595E+04  0.18469239460E+04  0.46999998093E+01 0. -1.
       -5    1    3    3    0  502  0.52248998355E+03  0.54328932422E+03  0.55615120367E+03  0.93674186629E+03  0.46999998093E+01 0.  1.
</event>
<event>
 5   0  0.4995256E-05  0.2502865E+04  0.7818609E-02  0.8401966E-01
       -2   -1    0    0    0  501  0.00000000000E+00  0.00000000000E+00  0.88885408689E+03  0.88885408689E+03  0.25500000920E-02 0.  1.
        2   -1    0    0  501    0  0.00000000000E+00  0.00000000000E+00 -0.17619127121E+04  0.17619127121E+04  0.25500000920E-02 0. -1.
    10030    2    1    2    0    0  0.00000000000E+00  0.00000000000E+00 -0.87305862524E+03  0.26507667990E+04  0.25028650103E+04 0.  0.
        2    1    3    3  502    0 -0.10124012954E+03 -0.11292296464E+04 -0.99762290453E+03  0.15101856236E+04  0.25500000920E-02 0.  1.
       -2    1    3    3    0  502  0.10124012954E+03  0.11292296464E+04  0.12456427929E+03  0.11405811754E+04  0.25500000920E-02 0. -1.
</event>
<event>
 5   0  0.2063930E-05  0.2477739E+04  0.7818609E-02  0.8410959E-01
       -1   -1    0    0    0  501  0.00000000000E+00  0.00000000000E+00  0.23915445497E+04  0.23915445497E+04  0.50400001928E-02 0. -1.
        1   -1    0    0  501    0  0.00000000000E+00  0.00000000000E+00 -0.64175991149E+03  0.64175991151E+03  0.50400001928E-02 0.  1.
    10030    2    1    2    0    0  0.00000000000E+00  0.00000000000E+00  0.17497846382E+04  0.30333044612E+04  0.24777388229E+04 0.  0.
        3    1    3    3  502    0 -0.74228416659E+03 -0.30824672170E+03  0.20290401029E+04  0.21824311157E+04  0.10100000352E+00 0. -1.
       -3    1    3    3    0  502  0.74228416659E+03  0.30824672170E+03 -0.27925546466E+03  0.85087334554E+03  0.10100000352E+00 0.  1.
</event>
<event>
 5   0  0.2081874E-05  0.2318238E+04  0.7818609E-02  0.8470765E-01
       -1   -1    0    0    0  501  0.00000000000E+00  0.00000000000E+00  0.96028862697E+03  0.96028862699E+03  0.50400001928E-02 0.  1.
        1   -1    0    0  501    0  0.00000000000E+00  0.00000000000E+00 -0.13991173070E+04  0.13991173071E+04  0.50400001928E-02 0. -1.
    10030    2    1    2    0    0  0.00000000000E+00  0.00000000000E+00 -0.43882868008E+03  0.23594059340E+04  0.23182376391E+04 0.  0.
        1    1    3    3  502    0  0.56185914562E+03  0.12728617778E+03  0.80426497712E+03  0.98930764882E+03  0.50400001928E-02 0.  1.
       -1    1    3    3    0  502 -0.56185914562E+03 -0.12728617778E+03 -0.12430936572E+04  0.13700982852E+04  0.50400001928E-02 0. -1.
</event>
<event>
 5   0  0.2041718E-05  0.2378527E+04  0.7818609E-02  0.8447587E-01
       -1   -1    0    0    0  501  0.00000000000E+00  0.00000000000E+00  0.94718157528E+03  0.94718157530E+03  0.50400001928E-02 0.  1.
        1   -1    0    0  501    0  0.00000000000E+00  0.00000000000E+00 -0.14932166172E+04  0.14932166172E+04  0.50400001928E-02 0. -1.
    10030    2    1    2    0    0  0.00000000000E+00  0.00000000000E+00 -0.54603504187E+03  0.24403981925E+04  0.23785266597E+04 0.  0.
        4    1    3    3  502    0 -0.21369339533E+03  0.85883410641E+03  0.54205550193E+03  0.10378278613E+04  0.12699999809E+01 0.  1.
       -4    1    3    3    0  502  0.21369339533E+03 -0.85883410641E+03 -0.10880905438E+04  0.14025703312E+04  0.12699999809E+01 0. -1.
</event>
<event>
 5   0  0.4959042E-05  0.2095117E+04  0.7818609E-02  0.8563397E-01
       -2   -1    0    0    0  501  0.00000000000E+00  0.00000000000E+00  0.42835205023E+03  0.42835205024E+03  0.25500000920E-02 0. -1.
        2   -1    0    0  501    0  0.00000000000E+00  0.00000000000E+00 -0.25618621394E+04  0.25618621394E+04  0.25500000920E-02 0.  1.
    10030    2    1    2    0    0  0.00000000000E+00  0.00000000000E+00 -0.21335100892E+04  0.29902141896E+04  0.20951170849E+04 0.  0.
        4    1    3    3  502    0 -0.41830308199E+03 -0.55942559702E+03  0.47438100211E+02  0.70013316823E+03  0.12699999809E+01 0. -1.
       -4    1    3    3    0  502  0.41830308199E+03  0.55942559702E+03 -0.21809481894E+04  0.22900810214E+04  0.12699999809E+01 0.  1.
</event>
<event>
 5   0  0.2063930E-05  0.2512642E+04  0.7818609E-02  0.8398495E-01
       -1   -1    0    0    0  501  0.00000000000E+00  0.00000000000E+00  0.12662932820E+04  0.12662932820E+04  0.50400001928E-02 0.  1.
        1   -1    0    0  501    0  0.00000000000E+00  0.00000000000E+00 -0.12464276537E+04  0.12464276537E+04  0.50400001928E-02 0. -1.
    10030    2    1    2    0    0  0.00000000000E+00  0.00000000000E+00  0.19865628233E+02  0.25127209357E+04  0.25126424054E+04 0.  0.
        3    1    3    3  502    0  0.62413362335E+02 -0.10362037468E+04  0.71757723156E+03  0.12619551205E+04  0.10100000352E+00 0.  1.
       -3    1    3    3    0  502 -0.62413362335E+02  0.10362037468E+04 -0.69771160333E+03  0.12507658152E+04  0.10100000352E+00 0. -1.
</event>
<event>
 5   0  0.2066170E-05  0.2494941E+04  0.7818609E-02  0.8404790E-01
       -1   -1    0    0    0  501  0.00000000000E+00  0.00000000000E+00  0.13723930784E+04  0.13723930784E+04  0.50400001928E-02 0.  1.
        1   -1    0    0  501    0  0.00000000000E+00  0.00000000000E+00 -0.11339194527E+04  0.11339194527E+04  0.50400001928E-02 0. -1.
    10030    2    1    2    0    0  0.00000000000E+00  0.00000000000E+00  0.23847362572E+03  0.25063125311E+04  0.24949414489E+04 0.  0.
        5    1    3    3  502    0  0.86414591374E+03  0.58095529935E+03 -0.57084669733E+03  0.11874953734E+04  0.46999998093E+01 0. -1.
       -5    1    3    3    0  502 -0.86414591374E+03 -0.58095529935E+03  0.80932032304E+03  0.13188171577E+04  0.46999998093E+01 0.  1.
</event>
<event>
 5   0  0.2041718E-05  0.2471904E+04  0.7818609E-02  0.8413064E-01
       -1   -1    0    0    0  501  0.00000000000E+00  0.00000000000E+00  0.77729686735E+03  0.77729686737E+03  0.50400001928E-02 0. -1.
        1   -1    0    0  501    0  0.00000000000E+00  0.00000000000E+00 -0.19652433541E+04  0.19652433541E+04  0.50400001928E-02 0.  1.
    10030    2    1    2    0    0  0.00000000000E+00  0.00000000000E+00 -0.11879464868E+04  0.27425402215E+04  0.24719041266E+04 0.  0.
        4    1    3    3  502    0  0.50590523114E+03 -0.10160876286E+04 -0.11366029056E+04  0.16063131544E+04  0.12699999809E+01 0. -1.
       -4    1    3    3    0  502 -0.50590523114E+03  0.10160876286E+04 -0.51343581121E+02  0.11362270671E+04  0.12699999809E+01 0.  1.
</event>
<event>
 5   0  0.4995256E-05  0.2510389E+04  0.7818609E-02  0.8399294E-01
       -2   -1    0    0    0  501  0.00000000000E+00  0.00000000000E+00  0.85596796732E+03  0.85596796732E+03  0.25500000920E-02 0. -1.
        2   -1    0    0  501    0  0.00000000000E+00  0.00000000000E+00 -0.18406221830E+04  0.18406221830E+04  0.25500000920E-02 0.  1.
    10030    2    1    2    0    0  0.00000000000E+00  0.00000000000E+00 -0.98465421564E+03  0.26965901503E+04  0.25103893153E+04 0.  0.
        2    1    3    3  502    0 -0.66153985314E+03 -0.19960265172E+03 -0.16179228430E+04  0.17593039879E+04  0.25500000920E-02 0.  1.
       -2    1    3    3    0  502  0.66153985314E+03  0.19960265172E+03  0.63326862734E+03  0.93728616241E+03  0.25500000920E-02 0. -1.
</event>
<event>
 5   0  0.4959042E-05  0.2450092E+04  0.7818609E-02  0.8420984E-01
       -2   -1    0    0    0  501  0.00000000000E+00  0.00000000000E+00  0.12517137703E+04  0.12517137703E+04  0.25500000920E-02 0.  1.
        2   -1    0    0  501    0  0.00000000000E+00  0.00000000000E+00 -0.11989461594E+04  0.11989461594E+04  0.25500000920E-02 0. -1.
    10030    2    1    2    0    0  0.00000000000E+00  0.00000000000E+00  0.52767610912E+02  0.24506599298E+04  0.24500917678E+04 0.  0.
        4    1    3    3  502    0  0.10310054445E+04  0.55988488276E+03 -0.32624935857E+03  0.12177370674E+04  0.12699999809E+01 0. -1.
       -4    1    3    3    0  502 -0.10310054445E+04 -0.55988488276E+03  0.37901696948E+03  0.12329228624E+04  0.12699999809E+01 0.  1.
</event>
<event>
 5   0  0.4959042E-05  0.2543479E+04  0.7818609E-02  0.8387658E-01
       -2   -1    0    0    0  501  0.00000000000E+00  0.00000000000E+00  0.56713914997E+03  0.56713914998E+03  0.25500000920E-02 0. -1.
        2   -1    0    0  501    0  0.00000000000E+00  0.00000000000E+00 -0.28517187568E+04  0.28517187568E+04  0.25500000920E-02 0.  1.
    10030    2    1    2    0    0  0.00000000000E+00  0.00000000000E+00 -0.22845796069E+04  0.34188579068E+04  0.25434789968E+04 0.  0.
        4    1    3    3  502    0  0.33865468867E+03  0.61720495341E+03 -0.25658946955E+04  0.26607228630E+04  0.12699999809E+01 0.  1.
       -4    1    3    3    0  502 -0.33865468867E+03 -0.61720495341E+03  0.28131508860E+03  0.75813504380E+03  0.12699999809E+01 0. -1.
</event>
<event>
 5   0  0.2041718E-05  0.2502774E+04  0.7818609E-02  0.8401998E-01
        1   -1    0    0  501    0  0.00000000000E+00  0.00000000000E+00  0.19720038834E+04  0.19720038834E+04  0.50400001928E-02 0. -1.
       -1   -1    0    0    0  501  0.00000000000E+00  0.00000000000E+00 -0.79410085588E+03  0.79410085590E+03  0.50400001928E-02 0.  1.
    10030    2    1    2    0    0  0.00000000000E+00  0.00000000000E+00  0.11779030275E+04  0.27661047393E+04  0.25027744378E+04 0.  0.
        4    1    3    3  502    0  0.26900950153E+03 -0.76984418574E+03  0.16379995359E+04  0.18297732851E+04  0.12699999809E+01 0. -1.
       -4    1    3    3    0  502 -0.26900950153E+03  0.76984418574E+03 -0.46009650840E+03  0.93633145422E+03  0.12699999809E+01 0.  1.
</event>
<event>
 5   0  0.4995256E-05  0.2469047E+04  0.7818609E-02  0.8414096E-01
       -2   -1    0    0    0  501  0.00000000000E+00  0.00000000000E+00  0.16248111866E+04  0.16248111866E+04  0.25500000920E-02 0.  1.
        2   -1    0    0  501    0  0.00000000000E+00  0.00000000000E+00 -0.93798474679E+03  0.93798474679E+03  0.25500000920E-02 0. -1.
    10030    2    1    2    0    0  0.00000000000E+00  0.00000000000E+00  0.68682643985E+03  0.25627959334E+04  0.24690468683E+04 0.  0.
        2    1    3    3  502    0 -0.64844892884E+03  0.66060770004E+01  0.14337847232E+04  0.15736163084E+04  0.25500000920E-02 0.  1.
       -2    1    3    3    0  502  0.64844892884E+03 -0.66060770004E+01 -0.74695828334E+03  0.98917962505E+03  0.25500000920E-02 0. -1.
</event>
<event>
 5   0  0.4959042E-05  0.2128614E+04  0.7818609E-02  0.8548743E-01
        2   -1    0    0  501    0  0.00000000000E+00  0.00000000000E+00  0.12050862240E+04  0.12050862240E+04  0.25500000920E-02 0. -1.
       -2   -1    0    0    0  501  0.00000000000E+00  0.00000000000E+00 -0.93997343827E+03  0.93997343828E+03  0.25500000920E-02 0.  1.
    10030    2    1    2    0    0  0.00000000000E+00  0.00000000000E+00  0.26511278574E+03  0.21450596623E+04  0.21286136722E+04 0.  0.
        4    1    3    3  502    0  0.34944957098E+02  0.10578294513E+04  0.19784990608E+02  0.10585921579E+04  0.12699999809E+01 0.  1.
       -4    1    3    3    0  502 -0.34944957098E+02 -0.10578294513E+04  0.24532779513E+03  0.10864675044E+04  0.12699999809E+01 0. -1.
</event>
<event>
 5   0  0.5024070E-05  0.2367719E+04  0.7818609E-02  0.8451689E-01
        2   -1    0    0  501    0  0.00000000000E+00  0.00000000000E+00  0.10844958687E+04  0.10844958687E+04  0.25500000920E-02 0.  1.
       -2   -1    0    0    0  501  0.00000000000E+00  0.00000000000E+00 -0.12923268731E+04  0.12923268731E+04  0.25500000920E-02 0. -1.
    10030    2    1    2    0    0  0.00000000000E+00  0.00000000000E+00 -0.20783100445E+03  0.23768227418E+04  0.23677188641E+04 0.  0.
        5    1    3    3  502    0 -0.19018232827E+03  0.68405106838E+03 -0.10548730198E+04  0.12715637459E+04  0.46999998093E+01 0. -1.
       -5    1    3    3    0  502  0.19018232827E+03 -0.68405106838E+03  0.84704201534E+03  0.11052589958E+04  0.46999998093E+01 0.  1.
</event>
<event>
 5   0  0.2036578E-05  0.2503459E+04  0.7818609E-02  0.8401754E-01
        1   -1    0    0  501    0  0.00000000000E+00  0.00000000000E+00  0.17951714270E+04  0.17951714270E+04  0.50400001928E-02 0.  1.
       -1   -1    0    0    0  501  0.00000000000E+00  0.00000000000E+00 -0.87280030875E+03  0.87280030876E+03  0.50400001928E-02 0. -1.
    10030    2    1    2    0    0  0.00000000000E+00  0.00000000000E+00  0.92237111828E+03  0.26679717358E+04  0.25034585483E+04 0.  0.
        2    1    3    3  502    0  0.85434036211E+03 -0.32923985117E+03 -0.44844384890E+03  0.10195088129E+04  0.25500000920E-02 0. -1.
       -2    1    3    3    0  502 -0.85434036211E+03  0.32923985117E+03  0.13708149672E+04  0.16484629229E+04  0.25500000920E-02 0.  1.
</event>
<event>
 5   0  0.5024070E-05  0.2478555E+04  0.7818609E-02  0.8410666E-01
        2   -1    0    0  501    0  0.00000000000E+00  0.00000000000E+00  0.15212037514E+04  0.15212037515E+04  0.25500000920E-02 0.  1.
       -2   -1    0    0    0  501  0.00000000000E+00  0.00000000000E+00 -0.10096005570E+04  0.10096005570E+04  0.25500000920E-02 0. -1.
    10030    2    1    2    0    0  0.00000000000E+00  0.00000000000E+00  0.51160319441E+03  0.25308043085E+04  0.24785545423E+04 0.  0.
        5    1    3    3  502    0  0.11770262936E+04 -0.38590145207E+03  0.21658308003E+03  0.12574741139E+04  0.46999998093E+01 0.  1.
       -5    1    3    3    0  502 -0.11770262936E+04  0.38590145207E+03  0.29502011438E+03  0.12733301946E+04  0.46999998093E+01 0. -1.
</event>
<event>
 5   0  0.1692125E-05  0.2511540E+04  0.7818609E-02  0.8398886E-01
       -3   -1    0    0    0  501  0.00000000000E+00  0.00000000000E+00  0.20445873986E+04  0.20445874011E+04  0.10100000352E+00 0. -1.
        3   -1    0    0  501    0  0.00000000000E+00  0.00000000000E+00 -0.77128448437E+03  0.77128449099E+03  0.10100000352E+00 0.  1.
    10030    2    1    2    0    0  0.00000000000E+00  0.00000000000E+00  0.12733029143E+04  0.28158718921E+04  0.25115402050E+04 0.  0.
        2    1    3    3  502    0 -0.12289185974E+03 -0.46660180989E+03  0.19365062254E+04  0.19957144133E+04  0.25500000920E-02 0. -1.
       -2    1    3    3    0  502  0.12289185974E+03  0.46660180989E+03 -0.66320331116E+03  0.82015747886E+03  0.25500000920E-02 0.  1.
</event>
<event>
 5   0  0.2036578E-05  0.2279282E+04  0.7818609E-02  0.8486135E-01
       -1   -1    0    0    0  501  0.00000000000E+00  0.00000000000E+00  0.61722112304E+03  0.61722112306E+03  0.50400001928E-02 0. -1.
        1   -1    0    0  501    0  0.00000000000E+00  0.00000000000E+00 -0.21042400151E+04  0.21042400151E+04  0.50400001928E-02 0.  1.
    10030    2    1    2    0    0  0.00000000000E+00  0.00000000000E+00 -0.14870188921E+04  0.27214611382E+04  0.22792818038E+04 0.  0.
        2    1    3    3  502    0 -0.83446687390E+03 -0.59156544668E+03 -0.13434828578E+04  0.16885588028E+04  0.25500000920E-02 0.  1.
       -2    1    3    3    0  502  0.83446687390E+03  0.59156544668E+03 -0.14353603431E+03  0.10329023354E+04  0.25500000920E-02 0. -1.
</event>
<event>
 5   0  0.5219468E-05  0.2485097E+04  0.7818609E-02  0.8408314E-01
        2   -1    0    0  501    0  0.00000000000E+00  0.00000000000E+00  0.27298832326E+04  0.27298832326E+04  0.25500000920E-02 0.  1.
       -2   -1    0    0    0  501  0.00000000000E+00  0.00000000000E+00 -0.56556517129E+03  0.56556517130E+03  0.25500000920E-02 0. -1.
    10030    2    1    2    0    0  0.00000000000E+00  0.00000000000E+00  0.21643180613E+04  0.32954484039E+04  0.24850970831E+04 0.  0.
        1    1    3    3  502    0  0.66691139412E+03 -0.59036835110E+03  0.22310573474E+04  0.24022744400E+04  0.50400001928E-02 0.  1.
       -1    1    3    3    0  502 -0.66691139412E+03  0.59036835110E+03 -0.66739286029E+02  0.89317396397E+03  0.50400001928E-02 0. -1.
</event>
<event>
 5   0  0.2041718E-05  0.2496119E+04  0.7818609E-02  0.8404370E-01
        1   -1    0    0  501    0  0.00000000000E+00  0.00000000000E+00  0.11089413584E+04  0.11089413584E+04  0.50400001928E-02 0. -1.
       -1   -1    0    0    0  501  0.00000000000E+00  0.00000000000E+00 -0.14046299181E+04  0.14046299181E+04  0.50400001928E-02 0.  1.
    10030    2    1    2    0    0  0.00000000000E+00  0.00000000000E+00 -0.29568855978E+03  0.25135712765E+04  0.24961187547E+04 0.  0.
        4    1    3    3  502    0  0.64612198630E+03 -0.71514992138E+03 -0.94631807182E+03  0.13507155649E+04  0.12699999809E+01 0.  1.
       -4    1    3    3    0  502 -0.64612198630E+03  0.71514992138E+03  0.65062951204E+03  0.11628557116E+04  0.12699999809E+01 0. -1.
</event>
<event>
 5   0  0.4959347E-05  0.2542773E+04  0.7818609E-02  0.8387904E-01
       -2   -1    0    0    0  501  0.00000000000E+00  0.00000000000E+00  0.13324804851E+04  0.13324804851E+04  0.25500000920E-02 0. -1.
        2   -1    0    0  501    0  0.00000000000E+00  0.00000000000E+00 -0.12130932290E+04  0.12130932290E+04  0.25500000920E-02 0.  1.
    10030    2    1    2    0    0  0.00000000000E+00  0.00000000000E+00  0.11938725606E+03  0.25455737141E+04  0.25427725452E+04 0.  0.
        3    1    3    3  502    0 -0.55196597400E+03 -0.10382682971E+04 -0.42432171668E+03  0.12500865661E+04  0.10100000352E+00 0.  1.
       -3    1    3    3    0  502  0.55196597400E+03  0.10382682971E+04  0.54370897274E+03  0.12954871480E+04  0.10100000352E+00 0. -1.
</event>
<event>
 5   0  0.2066170E-05  0.2533888E+04  0.7818609E-02  0.8391011E-01
       -1   -1    0    0    0  501  0.00000000000E+00  0.00000000000E+00  0.15830890842E+04  0.15830890842E+04  0.50400001928E-02 0. -1.
        1   -1    0    0  501    0  0.00000000000E+00  0.00000000000E+00 -0.10139336199E+04  0.10139336199E+04  0.50400001928E-02 0.  1.
    10030    2    1    2    0    0  0.00000000000E+00  0.00000000000E+00  0.56915546431E+03  0.25970227042E+04  0.25338881158E+04 0.  0.
        5    1    3    3  502    0 -0.65788848763E+03  0.86493597865E+03  0.95210712206E+03  0.14448050288E+04  0.46999998093E+01 0. -1.
       -5    1    3    3    0  502  0.65788848763E+03 -0.86493597865E+03 -0.38295165775E+03  0.11522176754E+04  0.46999998093E+01 0.  1.
</event>
<event>
 5   0  0.2063930E-05  0.2499919E+04  0.7818609E-02  0.8403014E-01
        1   -1    0    0  501    0  0.00000000000E+00  0.00000000000E+00  0.10240039478E+04  0.10240039478E+04  0.50400001928E-02 0. -1.
       -1   -1    0    0    0  501  0.00000000000E+00  0.00000000000E+00 -0.15257742761E+04  0.15257742761E+04  0.50400001928E-02 0.  1.
    10030    2    1    2    0    0  0.00000000000E+00  0.00000000000E+00 -0.50177032824E+03  0.25497782239E+04  0.24999191045E+04 0.  0.
        3    1    3    3  502    0 -0.42381084014E+03  0.75569204291E+03  0.66803470957E+03  0.10940550605E+04  0.10100000352E+00 0. -1.
       -3    1    3    3    0  502  0.42381084014E+03 -0.75569204291E+03 -0.11698050378E+04  0.14557231635E+04  0.10100000352E+00 0.  1.
</event>
<event>
 5   0  0.1692125E-05  0.2475120E+04  0.7818609E-02  0.8411903E-01
       -3   -1    0    0    0  501  0.00000000000E+00  0.00000000000E+00  0.11431258794E+04  0.11431258839E+04  0.10100000352E+00 0.  1.
        3   -1    0    0  501    0  0.00000000000E+00  0.00000000000E+00 -0.13397948850E+04  0.13397948889E+04  0.10100000352E+00 0. -1.
    10030    2    1    2    0    0  0.00000000000E+00  0.00000000000E+00 -0.19666900563E+03  0.24829207727E+04  0.24751195660E+04 0.  0.
        5    1    3    3  502    0 -0.45277707229E+02  0.21604964562E+03 -0.13198771724E+04  0.13382172321E+04  0.46999998093E+01 0. -1.
       -5    1    3    3    0  502  0.45277707229E+02 -0.21604964562E+03  0.11232081667E+04  0.11447035406E+04  0.46999998093E+01 0.  1.
</event>
<event>
 5   0  0.4995256E-05  0.2337030E+04  0.7818609E-02  0.8463462E-01
        2   -1    0    0  501    0  0.00000000000E+00  0.00000000000E+00  0.21327457392E+04  0.21327457392E+04  0.25500000920E-02 0. -1.
       -2   -1    0    0    0  501  0.00000000000E+00  0.00000000000E+00 -0.64022059809E+03  0.64022059809E+03  0.25500000920E-02 0.  1.
    10030    2    1    2    0    0  0.00000000000E+00  0.00000000000E+00  0.14925251412E+04  0.27729663373E+04  0.23370303830E+04 0.  0.
        2    1    3    3  502    0  0.87631589321E+03 -0.64337968227E+03  0.23790394024E+03  0.11128635339E+04  0.25500000920E-02 0.  1.
       -2    1    3    3    0  502 -0.87631589321E+03  0.64337968227E+03  0.12546212009E+04  0.16601028035E+04  0.25500000920E-02 0. -1.
</event>
<event>
 5   0  0.5024070E-05  0.1624969E+04  0.7818609E-02  0.8805354E-01
       -2   -1    0    0    0  501  0.00000000000E+00  0.00000000000E+00  0.61981339048E+03  0.61981339049E+03  0.25500000920E-02 0.  1.
        2   -1    0    0  501    0  0.00000000000E+00  0.00000000000E+00 -0.10650475533E+04  0.10650475533E+04  0.25500000920E-02 0. -1.
    10030    2    1    2    0    0  0.00000000000E+00  0.00000000000E+00 -0.44523416279E+03  0.16848609438E+04  0.16249685967E+04 0.  0.
        5    1    3    3  502    0  0.38695722217E+02 -0.49084536570E+03 -0.89272080220E+03  0.10195092214E+04  0.46999998093E+01 0. -1.
       -5    1    3    3    0  502 -0.38695722217E+02  0.49084536570E+03  0.44748663941E+03  0.66535172232E+03  0.46999998093E+01 0.  1.
</event>
<event>
 5   0  0.2041718E-05  0.2544705E+04  0.7818609E-02  0.8387230E-01
        1   -1    0    0  501    0  0.00000000000E+00  0.00000000000E+00  0.13458527827E+04  0.13458527827E+04  0.50400001928E-02 0. -1.
       -1   -1    0    0    0  501  0.00000000000E+00  0.00000000000E+00 -0.12028659323E+04  0.12028659323E+04  0.50400001928E-02 0.  1.
    10030    2    1    2    0    0  0.00000000000E+00  0.00000000000E+00  0.14298685041E+03  0.25487187150E+04  0.25447046682E+04 0.  0.
        4    1    3    3  502    0  0.88586825147E+03  0.65582410534E+02  0.98387230641E+03  0.13255451481E+04  0.12699999809E+01 0. -1.
       -4    1    3    3    0  502 -0.88586825147E+03 -0.65582410534E+02 -0.84088545600E+03  0.12231735668E+04  0.12699999809E+01 0.  1.
</event>
<event>
 5   0  0.4959042E-05  0.2585629E+04  0.7818609E-02  0.8373099E-01
       -2   -1    0    0    0  501  0.00000000000E+00  0.00000000000E+00  0.64582771617E+03  0.64582771617E+03  0.25500000920E-02 0. -1.
        2   -1    0    0  501    0  0.00000000000E+00  0.00000000000E+00 -0.25879500167E+04  0.25879500167E+04  0.25500000920E-02 0.  1.
    10030    2    1    2    0    0  0.00000000000E+00  0.00000000000E+00 -0.19421223005E+04  0.32337777329E+04  0.25856294002E+04 0.  0.
        4    1    3    3  502    0  0.58005209880E+03  0.20945078316E+03  0.45000217016E+03  0.76343541569E+03  0.12699999809E+01 0. -1.
       -4    1    3    3    0  502 -0.58005209880E+03 -0.20945078316E+03 -0.23921244707E+04  0.24703423172E+04  0.12699999809E+01 0.  1.
</event>
<event>
 5   0  0.2066170E-05  0.2508860E+04  0.7818609E-02  0.8399836E-01
       -1   -1    0    0    0  501  0.00000000000E+00  0.00000000000E+00  0.91280937921E+03  0.91280937923E+03  0.50400001928E-02 0. -1.
        1   -1    0    0  501    0  0.00000000000E+00  0.00000000000E+00 -0.17239028613E+04  0.17239028613E+04  0.50400001928E-02 0.  1.
    10030    2    1    2    0    0  0.00000000000E+00  0.00000000000E+00 -0.81109348205E+03  0.26367122405E+04  0.25088600604E+04 0.  0.
        5    1    3    3  502    0  0.44978386812E+03  0.24528198227E+03  0.79783894350E+03  0.94817606414E+03  0.46999998093E+01 0. -1.
       -5    1    3    3    0  502 -0.44978386812E+03 -0.24528198227E+03 -0.16089324256E+04  0.16885361764E+04  0.46999998093E+01 0.  1.
</event>
<event>
 5   0  0.4995256E-05  0.2488969E+04  0.7818609E-02  0.8406926E-01
       -2   -1    0    0    0  501  0.00000000000E+00  0.00000000000E+00  0.49669909720E+03  0.49669909721E+03  0.25500000920E-02 0.  1.
        2   -1    0    0  501    0  0.00000000000E+00  0.00000000000E+00 -0.31180673945E+04  0.31180673945E+04  0.25500000920E-02 0. -1.
    10030    2    1    2    0    0  0.00000000000E+00  0.00000000000E+00 -0.26213682973E+04  0.36147664917E+04  0.24889686698E+04 0.  0.
        2    1    3    3  502    0 -0.42778179636E+03  0.86097706551E+03 -0.16302216690E+03  0.97511794134E+03  0.25500000920E-02 0.  1.
       -2    1    3    3    0  502  0.42778179636E+03 -0.86097706551E+03 -0.24583461304E+04  0.26396485503E+04  0.25500000920E-02 0. -1.
</event>
<event>
 5   0  0.4959347E-05  0.2468949E+04  0.7818609E-02  0.8414132E-01
       -2   -1    0    0    0  501  0.00000000000E+00  0.00000000000E+00  0.74546260685E+03  0.74546260685E+03  0.25500000920E-02 0.  1.
        2   -1    0    0  501    0  0.00000000000E+00  0.00000000000E+00 -0.20442706640E+04  0.20442706640E+04  0.25500000920E-02 0. -1.
    10030    2    1    2    0    0  0.00000000000E+00  0.00000000000E+00 -0.12988080572E+04  0.27897332709E+04  0.24689490382E+04 0.  0.
        3    1    3    3  502    0  0.27479022057E+03 -0.90701759229E+03 -0.15432164531E+04  0.18109963030E+04  0.10100000352E+00 0. -1.
       -3    1    3    3    0  502 -0.27479022057E+03  0.90701759229E+03  0.24440839597E+03  0.97873696787E+03  0.10100000352E+00 0.  1.
</event>
<event>
 5   0  0.2036578E-05  0.2749227E+04  0.7818609E-02  0.8319207E-01
       -1   -1    0    0    0  501  0.00000000000E+00  0.00000000000E+00  0.14053963544E+04  0.14053963544E+04  0.50400001928E-02 0. -1.
        1   -1    0    0  501    0  0.00000000000E+00  0.00000000000E+00 -0.13445046981E+04  0.13445046981E+04  0.50400001928E-02 0.  1.
    10030    2    1    2    0    0  0.00000000000E+00  0.00000000000E+00  0.60891656259E+02  0.27499010526E+04  0.27492268013E+04 0.  0.
        2    1    3    3  502    0  0.12919514084E+04 -0.19244217882E+03  0.45879093600E+03  0.13844354650E+04  0.25500000920E-02 0. -1.
       -2    1    3    3    0  502 -0.12919514084E+04  0.19244217882E+03 -0.39789927974E+03  0.13654655875E+04  0.25500000920E-02 0.  1.
</event>
<event>
 5   0  0.2066170E-05  0.2416586E+04  0.7818609E-02  0.8433320E-01
       -1   -1    0    0    0  501  0.00000000000E+00  0.00000000000E+00  0.11002523017E+04  0.11002523017E+04  0.50400001928E-02 0. -1.
        1   -1    0    0  501    0  0.00000000000E+00  0.00000000000E+00 -0.13269430789E+04  0.13269430789E+04  0.50400001928E-02 0.  1.
    10030    2    1    2    0    0  0.00000000000E+00  0.00000000000E+00 -0.22669077721E+03  0.24271953805E+04  0.24165861679E+04 0.  0.
        5    1    3    3  502    0  0.26199441285E+03  0.11697533760E+04  0.38931733557E+02  0.11993755887E+04  0.46999998093E+01 0.  1.
       -5    1    3    3    0  502 -0.26199441285E+03 -0.11697533760E+04 -0.26562251077E+03  0.12278197918E+04  0.46999998093E+01 0. -1.
</event>
<event>
 5   0  0.4959347E-05  0.2493392E+04  0.7818609E-02  0.8405344E-01
        2   -1    0    0  501    0  0.00000000000E+00  0.00000000000E+00  0.16884299383E+04  0.16884299383E+04  0.25500000920E-02 0.  1.
       -2   -1    0    0    0  501  0.00000000000E+00  0.00000000000E+00 -0.92053006276E+03  0.92053006276E+03  0.25500000920E-02 0. -1.
    10030    2    1    2    0    0  0.00000000000E+00  0.00000000000E+00  0.76789987554E+03  0.26089600011E+04  0.24933916797E+04 0.  0.
        3    1    3    3  502    0  0.43872329679E+03  0.72662730765E+03  0.13393911890E+04  0.15856967373E+04  0.10100000352E+00 0.  1.
       -3    1    3    3    0  502 -0.43872329679E+03 -0.72662730765E+03 -0.57149131346E+03  0.10232632637E+04  0.10100000352E+00 0. -1.
</event>
<event>
 5   0  0.4959347E-05  0.2391971E+04  0.7818609E-02  0.8442516E-01
        2   -1    0    0  501    0  0.00000000000E+00  0.00000000000E+00  0.16878571582E+04  0.16878571582E+04  0.25500000920E-02 0.  1.
       -2   -1    0    0    0  501  0.00000000000E+00  0.00000000000E+00 -0.84745397867E+03  0.84745397868E+03  0.25500000920E-02 0. -1.
    10030    2    1    2    0    0  0.00000000000E+00  0.00000000000E+00  0.84040317953E+03  0.25353111369E+04  0.23919709565E+04 0.  0.
        3    1    3    3  502    0  0.11898782723E+04  0.10663034351E+03  0.48016866105E+03  0.12875334117E+04  0.10100000352E+00 0.  1.
       -3    1    3    3    0  502 -0.11898782723E+04 -0.10663034351E+03  0.36023451848E+03  0.12477777252E+04  0.10100000352E+00 0. -1.
</event>
<event>
 5   0  0.4995256E-05  0.2495158E+04  0.7818609E-02  0.8404713E-01
       -2   -1    0    0    0  501  0.00000000000E+00  0.00000000000E+00  0.14809385811E+04  0.14809385811E+04  0.25500000920E-02 0. -1.
        2   -1    0    0  501    0  0.00000000000E+00  0.00000000000E+00 -0.10509910959E+04  0.10509910959E+04  0.25500000920E-02 0.  1.
    10030    2    1    2    0    0  0.00000000000E+00  0.00000000000E+00  0.42994748516E+03  0.25319296770E+04  0.24951579208E+04 0.  0.
        2    1    3    3  502    0  0.11573806268E+04 -0.21763845521E+03 -0.20286746825E+03  0.11950111389E+04  0.25500000920E-02 0. -1.
       -2    1    3    3    0  502 -0.11573806268E+04  0.21763845521E+03  0.63281495341E+03  0.13369185382E+04  0.25500000920E-02 0.  1.
</event>
<event>
 5   0  0.2081874E-05  0.2467849E+04  0.7818609E-02  0.8414530E-01
        1   -1    0    0  501    0  0.00000000000E+00  0.00000000000E+00  0.18904250285E+04  0.18904250285E+04  0.50400001928E-02 0. -1.
       -1   -1    0    0    0  501  0.00000000000E+00  0.00000000000E+00 -0.80541134546E+03  0.80541134547E+03  0.50400001928E-02 0.  1.
    10030    2    1    2    0    0  0.00000000000E+00  0.00000000000E+00  0.10850136830E+04  0.26958363740E+04  0.24678490762E+04 0.  0.
        1    1    3    3  502    0 -0.75001744585E+03  0.43654146527E+02  0.16117806887E+04  0.17782769307E+04  0.50400001928E-02 0. -1.
       -1    1    3    3    0  502  0.75001744585E+03 -0.43654146527E+02 -0.52676700572E+03  0.91755944327E+03  0.50400001928E-02 0.  1.
</event>
<event>
 5   0  0.4959042E-05  0.2542212E+04  0.7818609E-02  0.8388100E-01
        2   -1    0    0  501    0  0.00000000000E+00  0.00000000000E+00  0.13928166105E+04  0.13928166105E+04  0.25500000920E-02 0.  1.
       -2   -1    0    0    0  501  0.00000000000E+00  0.00000000000E+00 -0.11600308992E+04  0.11600308992E+04  0.25500000920E-02 0. -1.
    10030    2    1    2    0    0  0.00000000000E+00  0.00000000000E+00  0.23278571124E+03  0.25528475097E+04  0.25422118756E+04 0.  0.
        4    1    3    3  502    0 -0.11468022158E+04  0.54779158181E+03  0.13834186086E+03  0.12784252120E+04  0.12699999809E+01 0.  1.
       -4    1    3    3    0  502  0.11468022158E+04 -0.54779158181E+03  0.94443850378E+02  0.12744222977E+04  0.12699999809E+01 0. -1.
</event>
<event>
 5   0  0.4959347E-05  0.2530718E+04  0.7818609E-02  0.8392123E-01
       -2   -1    0    0    0  501  0.00000000000E+00  0.00000000000E+00  0.11318936631E+04  0.11318936631E+04  0.25500000920E-02 0.  1.
        2   -1    0    0  501    0  0.00000000000E+00  0.00000000000E+00 -0.14145620988E+04  0.14145620988E+04  0.25500000920E-02 0. -1.
    10030    2    1    2    0    0  0.00000000000E+00  0.00000000000E+00 -0.28266843575E+03  0.25464557619E+04  0.25307183768E+04 0.  0.
        3    1    3    3  502    0  0.82845358663E+03 -0.50972496262E+03  0.67300621648E+03  0.11828323044E+04  0.10100000352E+00 0.  1.
       -3    1    3    3    0  502 -0.82845358663E+03  0.50972496262E+03 -0.95567465223E+03  0.13636234575E+04  0.10100000352E+00 0. -1.
</event>
<event>
 5   0  0.2036578E-05  0.2481030E+04  0.7818609E-02  0.8409775E-01
       -1   -1    0    0    0  501  0.00000000000E+00  0.00000000000E+00  0.86695251166E+03  0.86695251168E+03  0.50400001928E-02 0. -1.
        1   -1    0    0  501    0  0.00000000000E+00  0.00000000000E+00 -0.17750425885E+04  0.17750425885E+04  0.50400001928E-02 0.  1.
    10030    2    1    2    0    0  0.00000000000E+00  0.00000000000E+00 -0.90809007683E+03  0.26419951002E+04  0.24810301332E+04 0.  0.
        2    1    3    3  502    0  0.87868286677E+03 -0.61208437672E+03 -0.11208890994E+04  0.15502010314E+04  0.25500000920E-02 0.  1.
       -2    1    3    3    0  502 -0.87868286677E+03  0.61208437672E+03  0.21279902259E+03  0.10917940688E+04  0.25500000920E-02 0. -1.
</event>
<event>
 5   0  0.2081874E-05  0.2429089E+04  0.7818609E-02  0.8428693E-01
        1   -1    0    0  501    0  0.00000000000E+00  0.00000000000E+00  0.29390296342E+04  0.29390296342E+04  0.50400001928E-02 0.  1.
       -1   -1    0    0    0  501  0.00000000000E+00  0.00000000000E+00 -0.50190664308E+03  0.50190664311E+03  0.50400001928E-02 0. -1.
    10030    2    1    2    0    0  0.00000000000E+00  0.00000000000E+00  0.24371229911E+04  0.34409362773E+04  0.24290891278E+04 0.  0.
        1    1    3    3  502    0 -0.22401500168E+03  0.72299733600E+03 -0.12694918468E+03  0.76747896672E+03  0.50400001928E-02 0. -1.
       -1    1    3    3    0  502  0.22401500168E+03 -0.72299733600E+03  0.25640721758E+04  0.26734573106E+04  0.50400001928E-02 0.  1.
</event>
<event>
 5   0  0.5219468E-05  0.2471450E+04  0.7818609E-02  0.8413228E-01
        2   -1    0    0  501    0  0.00000000000E+00  0.00000000000E+00  0.25231206059E+04  0.25231206059E+04  0.25500000920E-02 0.  1.
       -2   -1    0    0    0  501  0.00000000000E+00  0.00000000000E+00 -0.60520961524E+03  0.60520961525E+03  0.25500000920E-02 0. -1.
    10030    2    1    2    0    0  0.00000000000E+00  0.00000000000E+00  0.19179109906E+04  0.31283302211E+04  0.24714504657E+04 0.  0.
        1    1    3    3  502    0  0.88671341632E+03 -0.15473810999E+03  0.20306312361E+04  0.22211861206E+04  0.50400001928E-02 0.  1.
       -1    1    3    3    0  502 -0.88671341632E+03  0.15473810999E+03 -0.11272024544E+03  0.90714410053E+03  0.50400001928E-02 0. -1.
</event>
<event>
 5   0  0.2066170E-05  0.2359970E+04  0.7818609E-02  0.8454644E-01
        1   -1    0    0  501    0  0.00000000000E+00  0.00000000000E+00  0.14432761267E+04  0.14432761267E+04  0.50400001928E-02 0. -1.
       -1   -1    0    0    0  501  0.00000000000E+00  0.00000000000E+00 -0.96472530779E+03  0.96472530780E+03  0.50400001928E-02 0.  1.
    10030    2    1    2    0    0  0.00000000000E+00  0.00000000000E+00  0.47855081892E+03  0.24080014345E+04  0.23599703435E+04 0.  0.
        5    1    3    3  502    0  0.49524847145E+03  0.88036250678E+03  0.86163494848E+03  0.13276844754E+04  0.46999998093E+01 0. -1.
       -5    1    3    3    0  502 -0.49524847145E+03 -0.88036250678E+03 -0.38308412956E+03  0.10803169591E+04  0.46999998093E+01 0.  1.
</event>
<event>
 5   0  0.2081874E-05  0.2215529E+04  0.7818609E-02  0.8511992E-01
        1   -1    0    0  501    0  0.00000000000E+00  0.00000000000E+00  0.99103467886E+03  0.99103467887E+03  0.50400001928E-02 0. -1.
       -1   -1    0    0    0  501  0.00000000000E+00  0.00000000000E+00 -0.12382436475E+04  0.12382436475E+04  0.50400001928E-02 0.  1.
    10030    2    1    2    0    0  0.00000000000E+00  0.00000000000E+00 -0.24720896862E+03  0.22292783264E+04  0.22155291879E+04 0.  0.
        1    1    3    3  502    0 -0.74501048138E+03  0.81317704705E+03 -0.18819522476E+02  0.11030193569E+04  0.50400001928E-02 0.  1.
       -1    1    3    3    0  502  0.74501048138E+03 -0.81317704705E+03 -0.22838944615E+03  0.11262589695E+04  0.50400001928E-02 0. -1.
</event>
<event>
 5   0  0.4959347E-05  0.2560531E+04  0.7818609E-02  0.8381733E-01
       -2   -1    0    0    0  501  0.00000000000E+00  0.00000000000E+00  0.95035971183E+03  0.95035971183E+03  0.25500000920E-02 0.  1.
        2   -1    0    0  501    0  0.00000000000E+00  0.00000000000E+00 -0.17246942449E+04  0.17246942449E+04  0.25500000920E-02 0. -1.
    10030    2    1    2    0    0  0.00000000000E+00  0.00000000000E+00 -0.77433453306E+03  0.26750539567E+04  0.25605311368E+04 0.  0.
        3    1    3    3  502    0 -0.10375374795E+04  0.43558334354E+03 -0.10251033324E+04  0.15221871511E+04  0.10100000352E+00 0. -1.
       -3    1    3    3    0  502  0.10375374795E+04 -0.43558334354E+03  0.25076879936E+03  0.11528668056E+04  0.10100000352E+00 0.  1.
</event>
<event>
 5   0  0.2081874E-05  0.2526112E+04  0.7818609E-02  0.8393742E-01
       -1   -1    0    0    0  501  0.00000000000E+00  0.00000000000E+00  0.10999656456E+04  0.10999656456E+04  0.50400001928E-02 0.  1.
        1   -1    0    0  501    0  0.00000000000E+00  0.00000000000E+00 -0.14503276978E+04  0.14503276978E+04  0.50400001928E-02 0. -1.
    10030    2    1    2    0    0  0.00000000000E+00  0.00000000000E+00 -0.35036205217E+03  0.25502933435E+04  0.25261121452E+04 0.  0.
        1    1    3    3  502    0  0.21384521353E+03  0.81235620638E+03 -0.11274269413E+04  0.14059672434E+04  0.50400001928E-02 0. -1.
       -1    1    3    3    0  502 -0.21384521353E+03 -0.81235620638E+03  0.77706488914E+03  0.11443261001E+04  0.50400001928E-02 0.  1.
</event>
<event>
 5   0  0.2081874E-05  0.2495361E+04  0.7818609E-02  0.8404640E-01
        1   -1    0    0  501    0  0.00000000000E+00  0.00000000000E+00  0.12183889269E+04  0.12183889270E+04  0.50400001928E-02 0.  1.
       -1   -1    0    0    0  501  0.00000000000E+00  0.00000000000E+00 -0.12776760064E+04  0.12776760065E+04  0.50400001928E-02 0. -1.
    10030    2    1    2    0    0  0.00000000000E+00  0.00000000000E+00 -0.59287079498E+02  0.24960649334E+04  0.24953607342E+04 0.  0.
        1    1    3    3  502    0  0.90761552403E+03  0.47646147022E+03  0.68184111509E+03  0.12311331278E+04  0.50400001928E-02 0.  1.
       -1    1    3    3    0  502 -0.90761552403E+03 -0.47646147022E+03 -0.74112819459E+03  0.12649318056E+04  0.50400001928E-02 0. -1.
</event>
<event>
 5   0  0.2036578E-05  0.2480509E+04  0.7818609E-02  0.8409963E-01
       -1   -1    0    0    0  501  0.00000000000E+00  0.00000000000E+00  0.10020875075E+04  0.10020875076E+04  0.50400001928E-02 0.  1.
        1   -1    0    0  501    0  0.00000000000E+00  0.00000000000E+00 -0.15350262655E+04  0.15350262655E+04  0.50400001928E-02 0. -1.
    10030    2    1    2    0    0  0.00000000000E+00  0.00000000000E+00 -0.53293875791E+03  0.25371137730E+04  0.24805085321E+04 0.  0.
        2    1    3    3  502    0 -0.12162034738E+04 -0.17034107231E+03 -0.89123850169E+02  0.12313041993E+04  0.25500000920E-02 0.  1.
       -2    1    3    3    0  502  0.12162034738E+04  0.17034107231E+03 -0.44381490774E+03  0.13058095737E+04  0.25500000920E-02 0. -1.
</event>
<event>
 5   0  0.5219468E-05  0.2071167E+04  0.7818609E-02  0.8574052E-01
       -2   -1    0    0    0  501  0.00000000000E+00  0.00000000000E+00  0.15814979887E+04  0.15814979887E+04  0.25500000920E-02 0.  1.
        2   -1    0    0  501    0  0.00000000000E+00  0.00000000000E+00 -0.67811225463E+03  0.67811225463E+03  0.25500000920E-02 0. -1.
    10030    2    1    2    0    0  0.00000000000E+00  0.00000000000E+00  0.90338573406E+03  0.22596102433E+04  0.20711669820E+04 0.  0.
        1    1    3    3  502    0  0.97188091751E+03 -0.35461418042E+03  0.50203716739E+03  0.11499326294E+04  0.50400001928E-02 0.  1.
       -1    1    3    3    0  502 -0.97188091751E+03  0.35461418042E+03  0.40134856667E+03  0.11096776139E+04  0.50400001928E-02 0. -1.
</event>
<event>
 5   0  0.1692125E-05  0.1671647E+04  0.7818609E-02  0.8777702E-01
       -3   -1    0    0    0  501  0.00000000000E+00  0.00000000000E+00  0.74346883964E+03  0.74346884650E+03  0.10100000352E+00 0.  1.
        3   -1    0    0  501    0  0.00000000000E+00  0.00000000000E+00 -0.93965089167E+03  0.93965089710E+03  0.10100000352E+00 0. -1.
    10030    2    1    2    0    0  0.00000000000E+00  0.00000000000E+00 -0.19618205203E+03  0.16831197436E+04  0.16716472935E+04 0.  0.
        3    1    3    3  502    0 -0.73804899935E+03 -0.32500344730E+03 -0.31927476169E+03  0.86734073458E+03  0.10100000352E+00 0. -1.
       -3    1    3    3    0  502  0.73804899935E+03  0.32500344730E+03  0.12309270966E+03  0.81577900903E+03  0.10100000352E+00 0.  1.
</event>
<event>
 5   0  0.4959347E-05  0.2495335E+04  0.7818609E-02  0.8404649E-01
       -2   -1    0    0    0  501  0.00000000000E+00  0.00000000000E+00  0.11147887483E+04  0.11147887483E+04  0.25500000920E-02 0. -1.
        2   -1    0    0  501    0  0.00000000000E+00  0.00000000000E+00 -0.13963847636E+04  0.13963847636E+04  0.25500000920E-02 0.  1.
    10030    2    1    2    0    0  0.00000000000E+00  0.00000000000E+00 -0.28159601536E+03  0.25111735119E+04  0.24953348655E+04 0.  0.
        3    1    3    3  502    0  0.26717542921E+03  0.22447229475E+03  0.10646798376E+04  0.11204078222E+04  0.10100000352E+00 0. -1.
       -3    1    3    3    0  502 -0.26717542921E+03 -0.22447229475E+03 -0.13462758530E+04  0.13907656897E+04  0.10100000352E+00 0.  1.
</event>
<event>
 5   0  0.4995256E-05  0.2438334E+04  0.7818609E-02  0.8425290E-01
       -2   -1    0    0    0  501  0.00000000000E+00  0.00000000000E+00  0.92305109269E+03  0.92305109269E+03  0.25500000920E-02 0. -1.
        2   -1    0    0  501    0  0.00000000000E+00  0.00000000000E+00 -0.16102775223E+04  0.16102775223E+04  0.25500000920E-02 0.  1.
    10030    2    1    2    0    0  0.00000000000E+00  0.00000000000E+00 -0.68722642958E+03  0.25333286150E+04  0.24383342072E+04 0.  0.
        2    1    3    3  502    0  0.98569553989E+03  0.42122476062E+03  0.25982635055E+03  0.11029667850E+04  0.25500000920E-02 0. -1.
       -2    1    3    3    0  502 -0.98569553989E+03 -0.42122476062E+03 -0.94705278013E+03  0.14303618300E+04  0.25500000920E-02 0.  1.
</event>
<event>
 5   0  0.5219468E-05  0.2246442E+04  0.7818609E-02  0.8499343E-01
        2   -1    0    0  501    0  0.00000000000E+00  0.00000000000E+00  0.13407423548E+04  0.13407423548E+04  0.25500000920E-02 0. -1.
       -2   -1    0    0    0  501  0.00000000000E+00  0.00000000000E+00 -0.94099002541E+03  0.94099002541E+03  0.25500000920E-02 0.  1.
    10030    2    1    2    0    0  0.00000000000E+00  0.00000000000E+00  0.39975232938E+03  0.22817323802E+04  0.22464417931E+04 0.  0.
        1    1    3    3  502    0  0.35092879963E+03 -0.16406749268E+03  0.12707423682E+04  0.13284785775E+04  0.50400001928E-02 0. -1.
       -1    1    3    3    0  502 -0.35092879963E+03  0.16406749268E+03 -0.87099003882E+03  0.95325380268E+03  0.50400001928E-02 0.  1.
</event>
<event>
 5   0  0.4959347E-05  0.1704049E+04  0.7818609E-02  0.8759058E-01
       -2   -1    0    0    0  501  0.00000000000E+00  0.00000000000E+00  0.10712330250E+04  0.10712330250E+04  0.25500000920E-02 0. -1.
        2   -1    0    0  501    0  0.00000000000E+00  0.00000000000E+00 -0.67767330446E+03  0.67767330446E+03  0.25500000920E-02 0.  1.
    10030    2    1    2    0    0  0.00000000000E+00  0.00000000000E+00  0.39355972053E+03  0.17489063295E+04  0.17040493231E+04 0.  0.
        3    1    3    3  502    0 -0.71797823398E+03  0.23771116091E+03  0.59946865265E+03  0.96507099024E+03  0.10100000352E+00 0. -1.
       -3    1    3    3    0  502  0.71797823398E+03 -0.23771116091E+03 -0.20590893211E+03  0.78383533922E+03  0.10100000352E+00 0.  1.
</event>
<event>
 5   0  0.2081874E-05  0.2514570E+04  0.7818609E-02  0.8397813E-01
        1   -1    0    0  501    0  0.00000000000E+00  0.00000000000E+00  0.23426212705E+04  0.23426212705E+04  0.50400001928E-02 0.  1.
       -1   -1    0    0    0  501  0.00000000000E+00  0.00000000000E+00 -0.67478481222E+03  0.67478481224E+03  0.50400001928E-02 0. -1.
    10030    2    1    2    0    0  0.00000000000E+00  0.00000000000E+00  0.16678364583E+04  0.30174060828E+04  0.25145697478E+04 0.  0.
        1    1    3    3  502    0 -0.29718314961E+03  0.85433481039E+03 -0.21395062530E+03  0.92950560125E+03  0.50400001928E-02 0. -1.
       -1    1    3    3    0  502  0.29718314961E+03 -0.85433481039E+03  0.18817870836E+04  0.20879004815E+04  0.50400001928E-02 0.  1.
</event>
<event>
 5   0  0.1692125E-05  0.2530665E+04  0.7818609E-02  0.8392142E-01
       -3   -1    0    0    0  501  0.00000000000E+00  0.00000000000E+00  0.83853928453E+03  0.83853929061E+03  0.10100000352E+00 0. -1.
        3   -1    0    0  501    0  0.00000000000E+00  0.00000000000E+00 -0.19093521982E+04  0.19093522009E+04  0.10100000352E+00 0.  1.
    10030    2    1    2    0    0  0.00000000000E+00  0.00000000000E+00 -0.10708129137E+04  0.27478914915E+04  0.25306653972E+04 0.  0.
        3    1    3    3  502    0 -0.68735776844E+03 -0.70536281086E+03  0.32718156737E+03  0.10378078748E+04  0.10100000352E+00 0. -1.
       -3    1    3    3    0  502  0.68735776844E+03  0.70536281086E+03 -0.13979944810E+04  0.17100836167E+04  0.10100000352E+00 0.  1.
</event>
<event>
 5   0  0.4959042E-05  0.2571364E+04  0.7818609E-02  0.8377994E-01
       -2   -1    0    0    0  501  0.00000000000E+00  0.00000000000E+00  0.11506289719E+04  0.11506289719E+04  0.25500000920E-02 0.  1.
        2   -1    0    0  501    0  0.00000000000E+00  0.00000000000E+00 -0.14365861932E+04  0.14365861932E+04  0.25500000920E-02 0. -1.
    10030    2    1    2    0    0  0.00000000000E+00  0.00000000000E+00 -0.28595722133E+03  0.25872151651E+04  0.25713636028E+04 0.  0.
        4    1    3    3  502    0  0.65129565197E+03 -0.97652793121E+03  0.38483435884E+03  0.12352699799E+04  0.12699999809E+01 0.  1.
       -4    1    3    3    0  502 -0.65129565197E+03  0.97652793121E+03 -0.67079158017E+03  0.13519451851E+04  0.12699999809E+01 0. -1.
</event>
<event>
 5   0  0.4995256E-05  0.2407641E+04  0.7818609E-02  0.8436648E-01
        2   -1    0    0  501    0  0.00000000000E+00  0.00000000000E+00  0.17411402014E+04  0.17411402014E+04  0.25500000920E-02 0. -1.
       -2   -1    0    0    0  501  0.00000000000E+00  0.00000000000E+00 -0.83231876631E+03  0.83231876631E+03  0.25500000920E-02 0.  1.
    10030    2    1    2    0    0  0.00000000000E+00  0.00000000000E+00  0.90882143506E+03  0.25734589677E+04  0.24076408905E+04 0.  0.
        2    1    3    3  502    0  0.54703695320E+03  0.29771713266E+03  0.15555553415E+04  0.16756005908E+04  0.25500000920E-02 0. -1.
       -2    1    3    3    0  502 -0.54703695320E+03 -0.29771713266E+03 -0.64673390645E+03  0.89785837692E+03  0.25500000920E-02 0.  1.
</event>
<event>
 5   0  0.2036578E-05  0.2563925E+04  0.7818609E-02  0.8380559E-01
       -1   -1    0    0    0  501  0.00000000000E+00  0.00000000000E+00  0.20848183934E+04  0.20848183934E+04  0.50400001928E-02 0. -1.
        1   -1    0    0  501    0  0.00000000000E+00  0.00000000000E+00 -0.78828356482E+03  0.78828356483E+03  0.50400001928E-02 0.  1.
    10030    2    1    2    0    0  0.00000000000E+00  0.00000000000E+00  0.12965348286E+04  0.28731019583E+04  0.25639251746E+04 0.  0.
        2    1    3    3  502    0  0.10751435666E+04 -0.14178149637E+03 -0.11783443695E+03  0.10908348344E+04  0.25500000920E-02 0.  1.
       -2    1    3    3    0  502 -0.10751435666E+04  0.14178149637E+03  0.14143692655E+04  0.17822671238E+04  0.25500000920E-02 0. -1.
</event>
<event>
 5   0  0.2036578E-05  0.2451817E+04  0.7818609E-02  0.8420355E-01
        1   -1    0    0  501    0  0.00000000000E+00  0.00000000000E+00  0.14170557089E+04  0.14170557089E+04  0.50400001928E-02 0. -1.
       -1   -1    0    0    0  501  0.00000000000E+00  0.00000000000E+00 -0.10605455634E+04  0.10605455634E+04  0.50400001928E-02 0.  1.
    10030    2    1    2    0    0  0.00000000000E+00  0.00000000000E+00  0.35651014555E+03  0.24776012723E+04  0.24518174036E+04 0.  0.
        2    1    3    3  502    0 -0.90215024772E+03  0.82096623852E+03  0.30198250336E+03  0.12566041806E+04  0.25500000920E-02 0. -1.
       -2    1    3    3    0  502  0.90215024772E+03 -0.82096623852E+03  0.54527642189E+02  0.12209970917E+04  0.25500000920E-02 0.  1.
</event>
<event>
 5   0  0.5219468E-05  0.2466181E+04  0.7818609E-02  0.8415134E-01
        2   -1    0    0  501    0  0.00000000000E+00  0.00000000000E+00  0.19523211724E+04  0.19523211724E+04  0.25500000920E-02 0. -1.
       -2   -1    0    0    0  501  0.00000000000E+00  0.00000000000E+00 -0.77882248558E+03  0.77882248558E+03  0.25500000920E-02 0.  1.
    10030    2    1    2    0    0  0.00000000000E+00  0.00000000000E+00  0.11734986869E+04  0.27311436580E+04  0.24661805515E+04 0.  0.
        1    1    3    3  502    0 -0.50150984883E+03  0.11371926037E+02  0.18342140616E+04  0.19015737359E+04  0.50400001928E-02 0. -1.
       -1    1    3    3    0  502  0.50150984883E+03 -0.11371926037E+02 -0.66071537478E+03  0.82956992211E+03  0.50400001928E-02 0.  1.
</event>
<event>
 5   0  0.2081874E-05  0.2396547E+04  0.7818609E-02  0.8440797E-01
       -1   -1    0    0    0  501  0.00000000000E+00  0.00000000000E+00  0.82879320231E+03  0.82879320233E+03  0.50400001928E-02 0. -1.
        1   -1    0    0  501    0  0.00000000000E+00  0.00000000000E+00 -0.17324700213E+04  0.17324700214E+04  0.50400001928E-02 0.  1.
    10030    2    1    2    0    0  0.00000000000E+00  0.00000000000E+00 -0.90367681904E+03  0.25612632237E+04  0.23965469968E+04 0.  0.
        1    1    3    3  502    0 -0.17581528163E+03 -0.43944745260E+03  0.72465604380E+03  0.86553535959E+03  0.50400001928E-02 0. -1.
       -1    1    3    3    0  502  0.17581528163E+03  0.43944745260E+03 -0.16283328628E+04  0.16957278641E+04  0.50400001928E-02 0.  1.
</event>
<event>
 5   0  0.2066170E-05  0.2502465E+04  0.7818609E-02  0.8402108E-01
       -1   -1    0    0    0  501  0.00000000000E+00  0.00000000000E+00  0.11714328869E+04  0.11714328869E+04  0.50400001928E-02 0. -1.
        1   -1    0    0  501    0  0.00000000000E+00  0.00000000000E+00 -0.13364685867E+04  0.13364685867E+04  0.50400001928E-02 0.  1.
    10030    2    1    2    0    0  0.00000000000E+00  0.00000000000E+00 -0.16503569980E+03  0.25079014736E+04  0.25024653881E+04 0.  0.
        5    1    3    3  502    0  0.78292376365E+03  0.23582725611E+02 -0.10603604192E+04  0.13182989316E+04  0.46999998093E+01 0.  1.
       -5    1    3    3    0  502 -0.78292376365E+03 -0.23582725611E+02  0.89532471937E+03  0.11896025419E+04  0.46999998093E+01 0. -1.
</event>
<event>
 5   0  0.2081874E-05  0.2019383E+04  0.7818609E-02  0.8597612E-01
        1   -1    0    0  501    0  0.00000000000E+00  0.00000000000E+00  0.12364143276E+04  0.12364143276E+04  0.50400001928E-02 0. -1.
       -1   -1    0    0    0  501  0.00000000000E+00  0.00000000000E+00 -0.82454323293E+03  0.82454323294E+03  0.50400001928E-02 0.  1.
    10030    2    1    2    0    0  0.00000000000E+00  0.00000000000E+00  0.41187109465E+03  0.20609575605E+04  0.20193831404E+04 0.  0.
        1    1    3    3  502    0 -0.40073023614E+03  0.53196833964E+02  0.11502204463E+04  0.12191889519E+04  0.50400001928E-02 0. -1.
       -1    1    3    3    0  502  0.40073023614E+03 -0.53196833964E+02 -0.73834935168E+03  0.84176860861E+03  0.50400001928E-02 0.  1.
</event>
<event>
 5   0  0.2063930E-05  0.2520637E+04  0.7818609E-02  0.8395670E-01
        1   -1    0    0  501    0  0.00000000000E+00  0.00000000000E+00  0.12362682886E+04  0.12362682886E+04  0.50400001928E-02 0. -1.
       -1   -1    0    0    0  501  0.00000000000E+00  0.00000000000E+00 -0.12848367395E+04  0.12848367395E+04  0.50400001928E-02 0.  1.
    10030    2    1    2    0    0  0.00000000000E+00  0.00000000000E+00 -0.48568450874E+02  0.25211050281E+04  0.25206371553E+04 0.  0.
        3    1    3    3  502    0 -0.10628149990E+04 -0.72912310568E+02 -0.69784146428E+03  0.12735284240E+04  0.10100000352E+00 0.  1.
       -3    1    3    3    0  502  0.10628149990E+04  0.72912310568E+02  0.64927301341E+03  0.12475766042E+04  0.10100000352E+00 0. -1.
</event>
<event>
 5   0  0.4959347E-05  0.2480927E+04  0.7818609E-02  0.8409812E-01
       -2   -1    0    0    0  501  0.00000000000E+00  0.00000000000E+00  0.71993346552E+03  0.71993346552E+03  0.25500000920E-02 0. -1.
        2   -1    0    0  501    0  0.00000000000E+00  0.00000000000E+00 -0.21373506048E+04  0.21373506048E+04  0.25500000920E-02 0.  1.
    10030    2    1    2    0    0  0.00000000000E+00  0.00000000000E+00 -0.14174171392E+04  0.28572840703E+04  0.24809274298E+04 0.  0.
        3    1    3    3  502    0  0.73467494531E+02  0.32029278154E+03  0.66889276660E+03  0.74525330061E+03  0.10100000352E+00 0. -1.
       -3    1    3    3    0  502 -0.73467494531E+02 -0.32029278154E+03 -0.20863099058E+04  0.21120307697E+04  0.10100000352E+00 0.  1.
</event>
<event>
 5   0  0.5219468E-05  0.2626307E+04  0.7818609E-02  0.8359320E-01
       -2   -1    0    0    0  501  0.00000000000E+00  0.00000000000E+00  0.69364375955E+03  0.69364375955E+03  0.25500000920E-02 0. -1.
        2   -1    0    0  501    0  0.00000000000E+00  0.00000000000E+00 -0.24859630536E+04  0.24859630536E+04  0.25500000920E-02 0.  1.
    10030    2    1    2    0    0  0.00000000000E+00  0.00000000000E+00 -0.17923192940E+04  0.31796068132E+04  0.26263074905E+04 0.  0.
        1    1    3    3  502    0  0.12533539109E+04  0.35295199593E+03 -0.11019802987E+04  0.17058228853E+04  0.50400001928E-02 0.  1.
       -1    1    3    3    0  502 -0.12533539109E+04 -0.35295199593E+03 -0.69033899536E+03  0.14737839278E+04  0.50400001928E-02 0. -1.
</event>
<event>
 5   0  0.1692125E-05  0.2485521E+04  0.7818609E-02  0.8408162E-01
        3   -1    0    0  501    0  0.00000000000E+00  0.00000000000E+00  0.87869857712E+03  0.87869858293E+03  0.10100000352E+00 0.  1.
       -3   -1    0    0    0  501  0.00000000000E+00  0.00000000000E+00 -0.17576607216E+04  0.17576607245E+04  0.10100000352E+00 0. -1.
    10030    2    1    2    0    0  0.00000000000E+00  0.00000000000E+00 -0.87896214444E+03  0.26363593074E+04  0.24855212625E+04 0.  0.
        5    1    3    3  502    0 -0.79490988752E+03  0.28142465494E+02 -0.14522886650E+04  0.16558496864E+04  0.46999998093E+01 0. -1.
       -5    1    3    3    0  502  0.79490988752E+03 -0.28142465494E+02  0.57332652054E+03  0.98050962096E+03  0.46999998093E+01 0.  1.
</event>
<event>
 5   0  0.4959042E-05  0.2506488E+04  0.7818609E-02  0.8400678E-01
        2   -1    0    0  501    0  0.00000000000E+00  0.00000000000E+00  0.86947384576E+03  0.86947384576E+03  0.25500000920E-02 0.  1.
       -2   -1    0    0    0  501  0.00000000000E+00  0.00000000000E+00 -0.18064037922E+04  0.18064037922E+04  0.25500000920E-02 0. -1.
    10030    2    1    2    0    0  0.00000000000E+00  0.00000000000E+00 -0.93692994642E+03  0.26758776379E+04  0.25064882622E+04 0.  0.
        4    1    3    3  502    0 -0.12202594806E+04  0.37844800777E+02 -0.16621751206E+03  0.12321101019E+04  0.12699999809E+01 0. -1.
       -4    1    3    3    0  502  0.12202594806E+04 -0.37844800777E+02 -0.77071243436E+03  0.14437675361E+04  0.12699999809E+01 0.  1.
</event>
<event>
 5   0  0.2036578E-05  0.2397044E+04  0.7818609E-02  0.8440611E-01
       -1   -1    0    0    0  501  0.00000000000E+00  0.00000000000E+00  0.14669212807E+04  0.14669212807E+04  0.50400001928E-02 0. -1.
        1   -1    0    0  501    0  0.00000000000E+00  0.00000000000E+00 -0.97923103905E+03  0.97923103907E+03  0.50400001928E-02 0.  1.
    10030    2    1    2    0    0  0.00000000000E+00  0.00000000000E+00  0.48769024160E+03  0.24461523197E+04  0.23970438877E+04 0.  0.
        2    1    3    3  502    0 -0.62502701161E+01  0.48023482837E+03  0.13644265034E+04  0.14464868612E+04  0.25500000920E-02 0. -1.
       -2    1    3    3    0  502  0.62502701161E+01 -0.48023482837E+03 -0.87673626182E+03  0.99966545857E+03  0.25500000920E-02 0.  1.
</event>
<event>
 5   0  0.5024070E-05  0.2502479E+04  0.7818609E-02  0.8402103E-01
        2   -1    0    0  501    0  0.00000000000E+00  0.00000000000E+00  0.17976561890E+04  0.17976561890E+04  0.25500000920E-02 0.  1.
       -2   -1    0    0    0  501  0.00000000000E+00  0.00000000000E+00 -0.87091171965E+03  0.87091171966E+03  0.25500000920E-02 0. -1.
    10030    2    1    2    0    0  0.00000000000E+00  0.00000000000E+00  0.92674446934E+03  0.26685679086E+04  0.25024786456E+04 0.  0.
        5    1    3    3  502    0 -0.42357897971E+03 -0.11323522825E+04  0.11958260043E+03  0.12148921483E+04  0.46999998093E+01 0. -1.
       -5    1    3    3    0  502  0.42357897971E+03  0.11323522825E+04  0.80716186891E+03  0.14536757604E+04  0.46999998093E+01 0.  1.
</event>
<event>
 5   0  0.5024070E-05  0.2351146E+04  0.7818609E-02  0.8458023E-01
       -2   -1    0    0    0  501  0.00000000000E+00  0.00000000000E+00  0.55736743463E+03  0.55736743464E+03  0.25500000920E-02 0.  1.
        2   -1    0    0  501    0  0.00000000000E+00  0.00000000000E+00 -0.24794634467E+04  0.24794634467E+04  0.25500000920E-02 0. -1.
    10030    2    1    2    0    0  0.00000000000E+00  0.00000000000E+00 -0.19220960121E+04  0.30368308814E+04  0.23511462571E+04 0.  0.
        5    1    3    3  502    0 -0.64720151947E+03 -0.43664462733E+03 -0.20962370974E+04  0.22369086695E+04  0.46999998093E+01 0.  1.
       -5    1    3    3    0  502  0.64720151947E+03  0.43664462733E+03  0.17414108530E+03  0.79992221183E+03  0.46999998093E+01 0. -1.
</event>
<event>
 5   0  0.4959347E-05  0.1755747E+04  0.7818609E-02  0.8730193E-01
        2   -1    0    0  501    0  0.00000000000E+00  0.00000000000E+00  0.11273211647E+04  0.11273211647E+04  0.25500000920E-02 0. -1.
       -2   -1    0    0    0  501  0.00000000000E+00  0.00000000000E+00 -0.68362200241E+03  0.68362200241E+03  0.25500000920E-02 0.  1.
    10030    2    1    2    0    0  0.00000000000E+00  0.00000000000E+00  0.44369916228E+03  0.18109431671E+04  0.17557466241E+04 0.  0.
        3    1    3    3  502    0 -0.53138905876E+03  0.64333310175E+03 -0.59507496152E+02  0.83653628963E+03  0.10100000352E+00 0.  1.
       -3    1    3    3    0  502  0.53138905876E+03 -0.64333310175E+03  0.50320665843E+03  0.97440687747E+03  0.10100000352E+00 0. -1.
</event>
<event>
 5   0  0.5024070E-05  0.2504576E+04  0.7818609E-02  0.8401357E-01
       -2   -1    0    0    0  501  0.00000000000E+00  0.00000000000E+00  0.97401978365E+03  0.97401978366E+03  0.25500000920E-02 0. -1.
        2   -1    0    0  501    0  0.00000000000E+00  0.00000000000E+00 -0.16100544927E+04  0.16100544927E+04  0.25500000920E-02 0.  1.
    10030    2    1    2    0    0  0.00000000000E+00  0.00000000000E+00 -0.63603470900E+03  0.25840742763E+04  0.25045757554E+04 0.  0.
        5    1    3    3  502    0  0.66302624434E+03 -0.88469983742E+03 -0.92482268657E+03  0.14413940109E+04  0.46999998093E+01 0.  1.
       -5    1    3    3    0  502 -0.66302624434E+03  0.88469983742E+03  0.28878797756E+03  0.11426802654E+04  0.46999998093E+01 0. -1.
</event>
<event>
 5   0  0.4995256E-05  0.2533704E+04  0.7818609E-02  0.8391076E-01
       -2   -1    0    0    0  501  0.00000000000E+00  0.00000000000E+00  0.15534150542E+04  0.15534150542E+04  0.25500000920E-02 0.  1.
        2   -1    0    0  501    0  0.00000000000E+00  0.00000000000E+00 -0.10331520148E+04  0.10331520148E+04  0.25500000920E-02 0. -1.
    10030    2    1    2    0    0  0.00000000000E+00  0.00000000000E+00  0.52026303939E+03  0.25865670690E+04  0.25337039235E+04 0.  0.
        2    1    3    3  502    0 -0.11429467976E+02  0.11883438537E+04 -0.18791281294E+03  0.12031637347E+04  0.25500000920E-02 0. -1.
       -2    1    3    3    0  502  0.11429467976E+02 -0.11883438537E+04  0.70817585233E+03  0.13834033342E+04  0.25500000920E-02 0.  1.
</event>
<event>
 5   0  0.5024070E-05  0.2380263E+04  0.7818609E-02  0.8446930E-01
        2   -1    0    0  501    0  0.00000000000E+00  0.00000000000E+00  0.15725360533E+04  0.15725360533E+04  0.25500000920E-02 0. -1.
       -2   -1    0    0    0  501  0.00000000000E+00  0.00000000000E+00 -0.90071890645E+03  0.90071890645E+03  0.25500000920E-02 0.  1.
    10030    2    1    2    0    0  0.00000000000E+00  0.00000000000E+00  0.67181714689E+03  0.24732549598E+04  0.23802629723E+04 0.  0.
        5    1    3    3  502    0  0.11261275949E+04  0.33756835702E+03  0.14354033470E+03  0.11843739584E+04  0.46999998093E+01 0.  1.
       -5    1    3    3    0  502 -0.11261275949E+04 -0.33756835702E+03  0.52827681219E+03  0.12888810014E+04  0.46999998093E+01 0. -1.
</event>
<event>
 5   0  0.4995256E-05  0.2310150E+04  0.7818609E-02  0.8473930E-01
        2   -1    0    0  501    0  0.00000000000E+00  0.00000000000E+00  0.13566717907E+04  0.13566717907E+04  0.25500000920E-02 0. -1.
       -2   -1    0    0    0  501  0.00000000000E+00  0.00000000000E+00 -0.98343441040E+03  0.98343441041E+03  0.25500000920E-02 0.  1.
    10030    2    1    2    0    0  0.00000000000E+00  0.00000000000E+00  0.37323738027E+03  0.23401062011E+04  0.23101495385E+04 0.  0.
        2    1    3    3  502    0  0.27168474966E+03 -0.46819534828E+03 -0.84699443339E+03  0.10051960294E+04  0.25500000920E-02 0.  1.
       -2    1    3    3    0  502 -0.27168474966E+03  0.46819534828E+03  0.12202318137E+04  0.13349101717E+04  0.25500000920E-02 0. -1.
</event>
<event>
 5   0  0.4959042E-05  0.2463387E+04  0.7818609E-02  0.8416146E-01
       -2   -1    0    0    0  501  0.00000000000E+00  0.00000000000E+00  0.91248302403E+03  0.91248302403E+03  0.25500000920E-02 0.  1.
        2   -1    0    0  501    0  0.00000000000E+00  0.00000000000E+00 -0.16625726798E+04  0.16625726798E+04  0.25500000920E-02 0. -1.
    10030    2    1    2    0    0  0.00000000000E+00  0.00000000000E+00 -0.75008965579E+03  0.25750557038E+04  0.24633873805E+04 0.  0.
        4    1    3    3  502    0 -0.13924225772E+03 -0.10352373221E+04 -0.10572890427E+04  0.14862592143E+04  0.12699999809E+01 0. -1.
       -4    1    3    3    0  502  0.13924225772E+03  0.10352373221E+04  0.30719938689E+03  0.10887964895E+04  0.12699999809E+01 0.  1.
</event>
<event>
 5   0  0.5219468E-05  0.2498442E+04  0.7818609E-02  0.8403541E-01
       -2   -1    0    0    0  501  0.00000000000E+00  0.00000000000E+00  0.82555330826E+03  0.82555330826E+03  0.25500000920E-02 0.  1.
        2   -1    0    0  501    0  0.00000000000E+00  0.00000000000E+00 -0.18903112184E+04  0.18903112184E+04  0.25500000920E-02 0. -1.
    10030    2    1    2    0    0  0.00000000000E+00  0.00000000000E+00 -0.10647579101E+04  0.27158645267E+04  0.24984416583E+04 0.  0.
        1    1    3    3  502    0  0.65014643123E+03 -0.52216314150E+03 -0.15434906672E+04  0.17543398098E+04  0.50400001928E-02 0. -1.
       -1    1    3    3    0  502 -0.65014643123E+03  0.52216314150E+03  0.47873275710E+03  0.96152471686E+03  0.50400001928E-02 0.  1.
</event>
<event>
 5   0  0.2081874E-05  0.2298841E+04  0.7818609E-02  0.8478378E-01
        1   -1    0    0  501    0  0.00000000000E+00  0.00000000000E+00  0.60578506914E+03  0.60578506916E+03  0.50400001928E-02 0.  1.
       -1   -1    0    0    0  501  0.00000000000E+00  0.00000000000E+00 -0.21809175056E+04  0.21809175056E+04  0.50400001928E-02 0. -1.
    10030    2    1    2    0    0  0.00000000000E+00  0.00000000000E+00 -0.15751324365E+04  0.27867025748E+04  0.22988408053E+04 0.  0.
        1    1    3    3  502    0  0.57308072833E+03  0.72473322934E+03  0.41283905534E+02  0.92485898156E+03  0.50400001928E-02 0.  1.
       -1    1    3    3    0  502 -0.57308072833E+03 -0.72473322934E+03 -0.16164163420E+04  0.18618435932E+04  0.50400001928E-02 0. -1.
</event>
<event>
 5   0  0.2066170E-05  0.2524213E+04  0.7818609E-02  0.8394410E-01
       -1   -1    0    0    0  501  0.00000000000E+00  0.00000000000E+00  0.12001818183E+04  0.12001818183E+04  0.50400001928E-02 0.  1.
        1   -1    0    0  501    0  0.00000000000E+00  0.00000000000E+00 -0.13272262455E+04  0.13272262455E+04  0.50400001928E-02 0. -1.
    10030    2    1    2    0    0  0.00000000000E+00  0.00000000000E+00 -0.12704442722E+03  0.25274080639E+04  0.25242129931E+04 0.  0.
        5    1    3    3  502    0  0.68828394341E+03  0.95874113002E+03  0.38422540849E+03  0.12411972429E+04  0.46999998093E+01 0. -1.
       -5    1    3    3    0  502 -0.68828394341E+03 -0.95874113002E+03 -0.51126983571E+03  0.12862108210E+04  0.46999998093E+01 0.  1.
</event>
<event>
 5   0  0.2036578E-05  0.2509040E+04  0.7818609E-02  0.8399772E-01
        1   -1    0    0  501    0  0.00000000000E+00  0.00000000000E+00  0.92073343612E+03  0.92073343613E+03  0.50400001928E-02 0.  1.
       -1   -1    0    0    0  501  0.00000000000E+00  0.00000000000E+00 -0.17093111883E+04  0.17093111883E+04  0.50400001928E-02 0. -1.
    10030    2    1    2    0    0  0.00000000000E+00  0.00000000000E+00 -0.78857775221E+03  0.26300446245E+04  0.25090396281E+04 0.  0.
        2    1    3    3  502    0  0.23899561186E+03 -0.11932206208E+04 -0.74750289075E+02  0.12192136638E+04  0.25500000920E-02 0.  1.
       -2    1    3    3    0  502 -0.23899561186E+03  0.11932206208E+04 -0.71382746313E+03  0.14108309606E+04  0.25500000920E-02 0. -1.
</event>
<event>
 5   0  0.2066170E-05  0.2477894E+04  0.7818609E-02  0.8410904E-01
        1   -1    0    0  501    0  0.00000000000E+00  0.00000000000E+00  0.14662401003E+04  0.14662401003E+04  0.50400001928E-02 0.  1.
       -1   -1    0    0    0  501  0.00000000000E+00  0.00000000000E+00 -0.10468880129E+04  0.10468880129E+04  0.50400001928E-02 0. -1.
    10030    2    1    2    0    0  0.00000000000E+00  0.00000000000E+00  0.41935208745E+03  0.25131281132E+04  0.24778936095E+04 0.  0.
        5    1    3    3  502    0  0.29025503414E+03  0.82735415001E+03  0.10974537661E+04  0.14047027206E+04  0.46999998093E+01 0.  1.
       -5    1    3    3    0  502 -0.29025503414E+03 -0.82735415001E+03 -0.67810167870E+03  0.11084253926E+04  0.46999998093E+01 0. -1.
</event>
<event>
 5   0  0.4959347E-05  0.2563008E+04  0.7818609E-02  0.8380876E-01
        2   -1    0    0  501    0  0.00000000000E+00  0.00000000000E+00  0.16422565969E+04  0.16422565969E+04  0.25500000920E-02 0.  1.
       -2   -1    0    0    0  501  0.00000000000E+00  0.00000000000E+00 -0.99999772318E+03  0.99999772318E+03  0.25500000920E-02 0. -1.
    10030    2    1    2    0    0  0.00000000000E+00  0.00000000000E+00  0.64225887368E+03  0.26422543200E+04  0.25630082776E+04 0.  0.
        3    1    3    3  502    0 -0.55631503213E+02  0.26255220405E+03 -0.97070083743E+03  0.10071189850E+04  0.10100000352E+00 0. -1.
       -3    1    3    3    0  502  0.55631503213E+02 -0.26255220405E+03  0.16129597111E+04  0.16351353350E+04  0.10100000352E+00 0.  1.
</event>
<event>
 5   0  0.4959042E-05  0.2515061E+04  0.7818609E-02  0.8397640E-01
       -2   -1    0    0    0  501  0.00000000000E+00  0.00000000000E+00  0.58882211621E+03  0.58882211622E+03  0.25500000920E-02 0. -1.
        2   -1    0    0  501    0  0.00000000000E+00  0.00000000000E+00 -0.26856720654E+04  0.26856720655E+04  0.25500000920E-02 0.  1.
    10030    2    1    2    0    0  0.00000000000E+00  0.00000000000E+00 -0.20968499492E+04  0.32744941817E+04  0.25150611198E+04 0.  0.
        4    1    3    3  502    0  0.80614766637E+03  0.94520950915E+03 -0.79433896340E+03  0.14745409719E+04  0.12699999809E+01 0. -1.
       -4    1    3    3    0  502 -0.80614766637E+03 -0.94520950915E+03 -0.13025109858E+04  0.17999532098E+04  0.12699999809E+01 0.  1.
</event>
<event>
 5   0  0.2041718E-05  0.2490227E+04  0.7818609E-02  0.8406476E-01
        1   -1    0    0  501    0  0.00000000000E+00  0.00000000000E+00  0.12965203078E+04  0.12965203078E+04  0.50400001928E-02 0. -1.
       -1   -1    0    0    0  501  0.00000000000E+00  0.00000000000E+00 -0.11957446491E+04  0.11957446491E+04  0.50400001928E-02 0.  1.
    10030    2    1    2    0    0  0.00000000000E+00  0.00000000000E+00  0.10077565870E+03  0.24922649569E+04  0.24902266728E+04 0.  0.
        4    1    3    3  502    0  0.58959496096E+03 -0.91416315837E+03  0.65667994248E+03  0.12706481251E+04  0.12699999809E+01 0. -1.
       -4    1    3    3    0  502 -0.58959496096E+03  0.91416315837E+03 -0.55590428378E+03  0.12216168318E+04  0.12699999809E+01 0.  1.
</event>
<event>
 5   0  0.2036578E-05  0.2372733E+04  0.7818609E-02  0.8449783E-01
       -1   -1    0    0    0  501  0.00000000000E+00  0.00000000000E+00  0.77199625120E+03  0.77199625121E+03  0.50400001928E-02 0.  1.
        1   -1    0    0  501    0  0.00000000000E+00  0.00000000000E+00 -0.18231509897E+04  0.18231509897E+04  0.50400001928E-02 0. -1.
    10030    2    1    2    0    0  0.00000000000E+00  0.00000000000E+00 -0.10511547385E+04  0.25951472409E+04  0.23727332167E+04 0.  0.
        2    1    3    3  502    0 -0.17791649464E+03 -0.11596949399E+04 -0.71789827325E+03  0.13754724874E+04  0.25500000920E-02 0.  1.
       -2    1    3    3    0  502  0.17791649464E+03  0.11596949399E+04 -0.33325646526E+03  0.12196747535E+04  0.25500000920E-02 0. -1.
</event>
<event>
 5   0  0.2036578E-05  0.2442767E+04  0.7818609E-02  0.8423663E-01
       -1   -1    0    0    0  501  0.00000000000E+00  0.00000000000E+00  0.14324289177E+04  0.14324289177E+04  0.50400001928E-02 0.  1.
        1   -1    0    0  501    0  0.00000000000E+00  0.00000000000E+00 -0.10414326114E+04  0.10414326114E+04  0.50400001928E-02 0. -1.
    10030    2    1    2    0    0  0.00000000000E+00  0.00000000000E+00  0.39099630635E+03  0.24738615291E+04  0.24427674375E+04 0.  0.
        2    1    3    3  502    0 -0.51708774737E+02 -0.85205243598E+03 -0.68918372722E+03  0.10971059023E+04  0.25500000920E-02 0. -1.
       -2    1    3    3    0  502  0.51708774737E+02  0.85205243598E+03  0.10801800336E+04  0.13767556268E+04  0.25500000920E-02 0.  1.
</event>
<event>
 5   0  0.4995256E-05  0.2547700E+04  0.7818609E-02  0.8386187E-01
       -2   -1    0    0    0  501  0.00000000000E+00  0.00000000000E+00  0.83881649608E+03  0.83881649609E+03  0.25500000920E-02 0. -1.
        2   -1    0    0  501    0  0.00000000000E+00  0.00000000000E+00 -0.19345040065E+04  0.19345040065E+04  0.25500000920E-02 0.  1.
    10030    2    1    2    0    0  0.00000000000E+00  0.00000000000E+00 -0.10956875104E+04  0.27733205026E+04  0.25477000392E+04 0.  0.
        2    1    3    3  502    0 -0.93751665734E+03 -0.82715947590E+03 -0.81351356515E+03  0.14916214674E+04  0.25500000920E-02 0.  1.
       -2    1    3    3    0  502  0.93751665734E+03  0.82715947590E+03 -0.28217394526E+03  0.12816990352E+04  0.25500000920E-02 0. -1.
</event>
<event>
 5   0  0.2081874E-05  0.2462423E+04  0.7818609E-02  0.8416496E-01
        1   -1    0    0  501    0  0.00000000000E+00  0.00000000000E+00  0.15656251665E+04  0.15656251665E+04  0.50400001928E-02 0.  1.
       -1   -1    0    0    0  501  0.00000000000E+00  0.00000000000E+00 -0.96822798180E+03  0.96822798181E+03  0.50400001928E-02 0. -1.
    10030    2    1    2    0    0  0.00000000000E+00  0.00000000000E+00  0.59739718472E+03  0.25338531483E+04  0.24624232741E+04 0.  0.
        1    1    3    3  502    0 -0.23692987507E+03  0.27898335577E+03 -0.91095031991E+03  0.98173212430E+03  0.50400001928E-02 0. -1.
       -1    1    3    3    0  502  0.23692987507E+03 -0.27898335577E+03  0.15083475046E+04  0.15521210240E+04  0.50400001928E-02 0.  1.
</event>
<event>
 5   0  0.2041718E-05  0.2499831E+04  0.7818609E-02  0.8403046E-01
       -1   -1    0    0    0  501  0.00000000000E+00  0.00000000000E+00  0.15543935197E+04  0.15543935197E+04  0.50400001928E-02 0.  1.
        1   -1    0    0  501    0  0.00000000000E+00  0.00000000000E+00 -0.10050792175E+04  0.10050792175E+04  0.50400001928E-02 0. -1.
    10030    2    1    2    0    0  0.00000000000E+00  0.00000000000E+00  0.54931430222E+03  0.25594727372E+04  0.24998308922E+04 0.  0.
        4    1    3    3  502    0  0.87399743032E+03  0.86811472454E+03  0.57965745457E+02  0.12332300368E+04  0.12699999809E+01 0.  1.
       -4    1    3    3    0  502 -0.87399743032E+03 -0.86811472454E+03  0.49134855676E+03  0.13262427004E+04  0.12699999809E+01 0. -1.
</event>
<event>
 5   0  0.2063930E-05  0.2500077E+04  0.7818609E-02  0.8402958E-01
       -1   -1    0    0    0  501  0.00000000000E+00  0.00000000000E+00  0.11526494612E+04  0.11526494612E+04  0.50400001928E-02 0.  1.
        1   -1    0    0  501    0  0.00000000000E+00  0.00000000000E+00 -0.13556563986E+04  0.13556563986E+04  0.50400001928E-02 0. -1.
    10030    2    1    2    0    0  0.00000000000E+00  0.00000000000E+00 -0.20300693740E+03  0.25083058599E+04  0.25000772928E+04 0.  0.
        3    1    3    3  502    0 -0.27476936760E+03  0.95856427650E+03  0.65480314624E+03  0.11929420975E+04  0.10100000352E+00 0.  1.
       -3    1    3    3    0  502  0.27476936760E+03 -0.95856427650E+03 -0.85781008364E+03  0.13153637624E+04  0.10100000352E+00 0. -1.
</event>
<event>
 5   0  0.2041718E-05  0.2111377E+04  0.7818609E-02  0.8556248E-01
       -1   -1    0    0    0  501  0.00000000000E+00  0.00000000000E+00  0.85691408073E+03  0.85691408075E+03  0.50400001928E-02 0. -1.
        1   -1    0    0  501    0  0.00000000000E+00  0.00000000000E+00 -0.13005717342E+04  0.13005717343E+04  0.50400001928E-02 0.  1.
    10030    2    1    2    0    0  0.00000000000E+00  0.00000000000E+00 -0.44365765352E+03  0.21574858150E+04  0.21113770219E+04 0.  0.
        4    1    3    3  502    0  0.34952352298E+03  0.57587851866E+03 -0.10523978305E+04  0.12495381418E+04  0.12699999809E+01 0.  1.
       -4    1    3    3    0  502 -0.34952352298E+03 -0.57587851866E+03  0.60874017694E+03  0.90794767321E+03  0.12699999809E+01 0. -1.
</event>
<event>
 5   0  0.4959042E-05  0.2511095E+04  0.7818609E-02  0.8399043E-01
        2   -1    0    0  501    0  0.00000000000E+00  0.00000000000E+00  0.11526398950E+04  0.11526398950E+04  0.25500000920E-02 0. -1.
       -2   -1    0    0    0  501  0.00000000000E+00  0.00000000000E+00 -0.13676429706E+04  0.13676429706E+04  0.25500000920E-02 0.  1.
    10030    2    1    2    0    0  0.00000000000E+00  0.00000000000E+00 -0.21500307562E+03  0.25202828656E+04  0.25110952590E+04 0.  0.
        4    1    3    3  502    0  0.11727602931E+04  0.32153320811E+03 -0.42113155005E+03  0.12868969284E+04  0.12699999809E+01 0.  1.
       -4    1    3    3    0  502 -0.11727602931E+04 -0.32153320811E+03  0.20612847443E+03  0.12333859371E+04  0.12699999809E+01 0. -1.
</event>
<event>
 5   0  0.4995256E-05  0.2306935E+04  0.7818609E-02  0.8475192E-01
       -2   -1    0    0    0  501  0.00000000000E+00  0.00000000000E+00  0.45865579357E+03  0.45865579358E+03  0.25500000920E-02 0.  1.
        2   -1    0    0  501    0  0.00000000000E+00  0.00000000000E+00 -0.29008396531E+04  0.29008396531E+04  0.25500000920E-02 0. -1.
    10030    2    1    2    0    0  0.00000000000E+00  0.00000000000E+00 -0.24421838595E+04  0.33594954467E+04  0.23069346875E+04 0.  0.
        2    1    3    3  502    0 -0.91324427264E+02  0.95870302320E+03 -0.21455991072E+04  0.23518178429E+04  0.25500000920E-02 0. -1.
       -2    1    3    3    0  502  0.91324427264E+02 -0.95870302320E+03 -0.29658475235E+03  0.10076776037E+04  0.25500000920E-02 0.  1.
</event>
<event>
 5   0  0.5024070E-05  0.2464943E+04  0.7818609E-02  0.8415582E-01
       -2   -1    0    0    0  501  0.00000000000E+00  0.00000000000E+00  0.64892917747E+03  0.64892917748E+03  0.25500000920E-02 0.  1.
        2   -1    0    0  501    0  0.00000000000E+00  0.00000000000E+00 -0.23407573516E+04  0.23407573516E+04  0.25500000920E-02 0. -1.
    10030    2    1    2    0    0  0.00000000000E+00  0.00000000000E+00 -0.16918281741E+04  0.29896865291E+04  0.24649427927E+04 0.  0.
        5    1    3    3  502    0 -0.43344407065E+03  0.73693960560E+03 -0.19225891372E+04  0.21041209151E+04  0.46999998093E+01 0. -1.
       -5    1    3    3    0  502  0.43344407065E+03 -0.73693960560E+03  0.23076096307E+03  0.88556561403E+03  0.46999998093E+01 0.  1.
</event>
<event>
 5   0  0.4959347E-05  0.2352141E+04  0.7818609E-02  0.8457642E-01
        2   -1    0    0  501    0  0.00000000000E+00  0.00000000000E+00  0.62337320571E+03  0.62337320571E+03  0.25500000920E-02 0.  1.
       -2   -1    0    0    0  501  0.00000000000E+00  0.00000000000E+00 -0.22188014429E+04  0.22188014429E+04  0.25500000920E-02 0. -1.
    10030    2    1    2    0    0  0.00000000000E+00  0.00000000000E+00 -0.15954282372E+04  0.28421746486E+04  0.23521406151E+04 0.  0.
        3    1    3    3  502    0  0.92654369720E+03 -0.34329780162E+02 -0.16719675827E+04  0.19118413544E+04  0.10100000352E+00 0. -1.
       -3    1    3    3    0  502 -0.92654369720E+03  0.34329780162E+02  0.76539345544E+02  0.93033329417E+03  0.10100000352E+00 0.  1.
</event>
<event>
 5   0  0.5219468E-05  0.2482137E+04  0.7818609E-02  0.8409377E-01
       -2   -1    0    0    0  501  0.00000000000E+00  0.00000000000E+00  0.12722426110E+04  0.12722426110E+04  0.25500000920E-02 0. -1.
        2   -1    0    0  501    0  0.00000000000E+00  0.00000000000E+00 -0.12106579751E+04  0.12106579751E+04  0.25500000920E-02 0.  1.
    10030    2    1    2    0    0  0.00000000000E+00  0.00000000000E+00  0.61584635818E+02  0.24829005861E+04  0.24821367112E+04 0.  0.
        1    1    3    3  502    0 -0.91365592702E+03  0.83718111248E+03 -0.37135098185E+02  0.12397654551E+04  0.50400001928E-02 0.  1.
       -1    1    3    3    0  502  0.91365592702E+03 -0.83718111248E+03  0.98719734003E+02  0.12431351310E+04  0.50400001928E-02 0. -1.
</event>
<event>
 5   0  0.2063930E-05  0.2529175E+04  0.7818609E-02  0.8392665E-01
       -1   -1    0    0    0  501  0.00000000000E+00  0.00000000000E+00  0.12429455184E+04  0.12429455184E+04  0.50400001928E-02 0.  1.
        1   -1    0    0  501    0  0.00000000000E+00  0.00000000000E+00 -0.12866064624E+04  0.12866064624E+04  0.50400001928E-02 0. -1.
    10030    2    1    2    0    0  0.00000000000E+00  0.00000000000E+00 -0.43660944060E+02  0.25295519808E+04  0.25291751512E+04 0.  0.
        3    1    3    3  502    0 -0.17137836256E+03 -0.70637888807E+03 -0.10567986690E+04  0.12826399003E+04  0.10100000352E+00 0. -1.
       -3    1    3    3    0  502  0.17137836256E+03  0.70637888807E+03  0.10131377250E+04  0.12469120805E+04  0.10100000352E+00 0.  1.
</event>
<event>
 5   0  0.2063930E-05  0.2526930E+04  0.7818609E-02  0.8393454E-01
        1   -1    0    0  501    0  0.00000000000E+00  0.00000000000E+00  0.16274507196E+04  0.16274507196E+04  0.50400001928E-02 0.  1.
       -1   -1    0    0    0  501  0.00000000000E+00  0.00000000000E+00 -0.98088606163E+03  0.98088606165E+03  0.50400001928E-02 0. -1.
    10030    2    1    2    0    0  0.00000000000E+00  0.00000000000E+00  0.64656465794E+03  0.26083367812E+04  0.25269299372E+04 0.  0.
        3    1    3    3  502    0 -0.40243330411E+03 -0.52096737370E+03 -0.78987708249E+03  0.10282341097E+04  0.10100000352E+00 0. -1.
       -3    1    3    3    0  502  0.40243330411E+03  0.52096737370E+03  0.14364417404E+04  0.15801026715E+04  0.10100000352E+00 0.  1.
</event>
<event>
 5   0  0.5024070E-05  0.2246186E+04  0.7818609E-02  0.8499447E-01
       -2   -1    0    0    0  501  0.00000000000E+00  0.00000000000E+00  0.12249870227E+04  0.12249870227E+04  0.25500000920E-02 0.  1.
        2   -1    0    0  501    0  0.00000000000E+00  0.00000000000E+00 -0.10296741482E+04  0.10296741482E+04  0.25500000920E-02 0. -1.
    10030    2    1    2    0    0  0.00000000000E+00  0.00000000000E+00  0.19531287442E+03  0.22546611709E+04  0.22461856283E+04 0.  0.
        5    1    3    3  502    0 -0.91134858101E+03 -0.63409350919E+03  0.26766068502E+03  0.11420574183E+04  0.46999998093E+01 0. -1.
       -5    1    3    3    0  502  0.91134858101E+03  0.63409350919E+03 -0.72347810605E+02  0.11126037526E+04  0.46999998093E+01 0.  1.
</event>
<event>
 5   0  0.2041718E-05  0.2482955E+04  0.7818609E-02  0.8409083E-01
        1   -1    0    0  501    0  0.00000000000E+00  0.00000000000E+00  0.11519207421E+04  0.11519207421E+04  0.50400001928E-02 0.  1.
       -1   -1    0    0    0  501  0.00000000000E+00  0.00000000000E+00 -0.13379966020E+04  0.13379966020E+04  0.50400001928E-02 0. -1.
    10030    2    1    2    0    0  0.00000000000E+00  0.00000000000E+00 -0.18607585987E+03  0.24899173441E+04  0.24829547227E+04 0.  0.
        4    1    3    3  502    0  0.54156498973E+01  0.21815090377E+03  0.11325369917E+04  0.11533693236E+04  0.12699999809E+01 0.  1.
       -4    1    3    3    0  502 -0.54156498973E+01 -0.21815090377E+03 -0.13186128515E+04  0.13365480206E+04  0.12699999809E+01 0. -1.
</event>
<event>
 5   0  0.5219468E-05  0.2214491E+04  0.7818609E-02  0.8512421E-01
       -2   -1    0    0    0  501  0.00000000000E+00  0.00000000000E+00  0.68199163709E+03  0.68199163710E+03  0.25500000920E-02 0.  1.
        2   -1    0    0  501    0  0.00000000000E+00  0.00000000000E+00 -0.17976656242E+04  0.17976656242E+04  0.25500000920E-02 0. -1.
    10030    2    1    2    0    0  0.00000000000E+00  0.00000000000E+00 -0.11156739871E+04  0.24796572613E+04  0.22144912933E+04 0.  0.
        1    1    3    3  502    0 -0.95221622692E+03  0.31682548307E+03 -0.10817260933E+04  0.14755424326E+04  0.50400001928E-02 0. -1.
       -1    1    3    3    0  502  0.95221622692E+03 -0.31682548307E+03 -0.33947893753E+02  0.10041148286E+04  0.50400001928E-02 0.  1.
</event>
<event>
 5   0  0.4959347E-05  0.2434010E+04  0.7818609E-02  0.8426879E-01
       -2   -1    0    0    0  501  0.00000000000E+00  0.00000000000E+00  0.72516552570E+03  0.72516552570E+03  0.25500000920E-02 0. -1.
        2   -1    0    0  501    0  0.00000000000E+00  0.00000000000E+00 -0.20424318130E+04  0.20424318130E+04  0.25500000920E-02 0.  1.
    10030    2    1    2    0    0  0.00000000000E+00  0.00000000000E+00 -0.13172662873E+04  0.27675973387E+04  0.24340099748E+04 0.  0.
        3    1    3    3  502    0  0.22166968265E+03 -0.40963409195E+03 -0.19370785583E+04  0.19922878528E+04  0.10100000352E+00 0.  1.
       -3    1    3    3    0  502 -0.22166968265E+03  0.40963409195E+03  0.61981227094E+03  0.77530948588E+03  0.10100000352E+00 0. -1.
</event>
<event>
 5   0  0.2063930E-05  0.2591770E+04  0.7818609E-02  0.8371002E-01
       -1   -1    0    0    0  501  0.00000000000E+00  0.00000000000E+00  0.11013254325E+04  0.11013254325E+04  0.50400001928E-02 0.  1.
        1   -1    0    0  501    0  0.00000000000E+00  0.00000000000E+00 -0.15248157957E+04  0.15248157957E+04  0.50400001928E-02 0. -1.
    10030    2    1    2    0    0  0.00000000000E+00  0.00000000000E+00 -0.42349036317E+03  0.26261412282E+04  0.25917703723E+04 0.  0.
        3    1    3    3  502    0 -0.82141518554E+03 -0.79081472127E+03 -0.83570993656E+03  0.14136908922E+04  0.10100000352E+00 0. -1.
       -3    1    3    3    0  502  0.82141518554E+03  0.79081472127E+03  0.41221957339E+03  0.12124503360E+04  0.10100000352E+00 0.  1.
</event>
<event>
 5   0  0.4959347E-05  0.2505045E+04  0.7818609E-02  0.8401190E-01
        2   -1    0    0  501    0  0.00000000000E+00  0.00000000000E+00  0.11290075569E+04  0.11290075569E+04  0.25500000920E-02 0. -1.
       -2   -1    0    0    0  501  0.00000000000E+00  0.00000000000E+00 -0.13895502697E+04  0.13895502697E+04  0.25500000920E-02 0.  1.
    10030    2    1    2    0    0  0.00000000000E+00  0.00000000000E+00 -0.26054271282E+03  0.25185578265E+04  0.25050451135E+04 0.  0.
        3    1    3    3  502    0 -0.40559696301E+03 -0.11184719114E+04 -0.52395018290E+03  0.13000046605E+04  0.10100000352E+00 0.  1.
       -3    1    3    3    0  502  0.40559696301E+03  0.11184719114E+04  0.26340747009E+03  0.12185531660E+04  0.10100000352E+00 0. -1.
</event>
<event>
 5   0  0.5219468E-05  0.2510500E+04  0.7818609E-02  0.8399254E-01
        2   -1    0    0  501    0  0.00000000000E+00  0.00000000000E+00  0.19216451864E+04  0.19216451864E+04  0.25500000920E-02 0.  1.
       -2   -1    0    0    0  501  0.00000000000E+00  0.00000000000E+00 -0.81994971906E+03  0.81994971907E+03  0.25500000920E-02 0. -1.
    10030    2    1    2    0    0  0.00000000000E+00  0.00000000000E+00  0.11016954674E+04  0.27415949055E+04  0.25104998951E+04 0.  0.
        1    1    3    3  502    0 -0.69625156077E+03  0.10098158487E+04  0.25953773518E+03  0.12537360648E+04  0.50400001928E-02 0. -1.
       -1    1    3    3    0  502  0.69625156077E+03 -0.10098158487E+04  0.84215773220E+03  0.14878588407E+04  0.50400001928E-02 0.  1.
</event>
<event>
 5   0  0.2036578E-05  0.2492524E+04  0.7818609E-02  0.8405654E-01
        1   -1    0    0  501    0  0.00000000000E+00  0.00000000000E+00  0.18507531720E+04  0.18507531720E+04  0.50400001928E-02 0. -1.
       -1   -1    0    0    0  501  0.00000000000E+00  0.00000000000E+00 -0.83920931458E+03  0.83920931459E+03  0.50400001928E-02 0.  1.
    10030    2    1    2    0    0  0.00000000000E+00  0.00000000000E+00  0.10115438574E+04  0.26899624866E+04  0.24925242634E+04 0.  0.
        2    1    3    3  502    0 -0.13872206728E+03 -0.31152650569E+03  0.17994213063E+04  0.18314501394E+04  0.25500000920E-02 0. -1.
       -2    1    3    3    0  502  0.13872206728E+03  0.31152650569E+03 -0.78787744889E+03  0.85851234714E+03  0.25500000920E-02 0.  1.
</event>
<event>
 5   0  0.4959042E-05  0.2536869E+04  0.7818609E-02  0.8389967E-01
       -2   -1    0    0    0  501  0.00000000000E+00  0.00000000000E+00  0.13660280942E+04  0.13660280942E+04  0.25500000920E-02 0. -1.
        2   -1    0    0  501    0  0.00000000000E+00  0.00000000000E+00 -0.11778133218E+04  0.11778133218E+04  0.25500000920E-02 0.  1.
    10030    2    1    2    0    0  0.00000000000E+00  0.00000000000E+00  0.18821477233E+03  0.25438414160E+04  0.25368690051E+04 0.  0.
        4    1    3    3  502    0 -0.87924285162E+03 -0.30749277713E+03 -0.76924950664E+03  0.12080423074E+04  0.12699999809E+01 0.  1.
       -4    1    3    3    0  502  0.87924285162E+03  0.30749277713E+03  0.95746427897E+03  0.13357991086E+04  0.12699999809E+01 0. -1.
</event>
<event>
 5   0  0.4995256E-05  0.2561703E+04  0.7818609E-02  0.8381327E-01
       -2   -1    0    0    0  501  0.00000000000E+00  0.00000000000E+00  0.12860457735E+04  0.12860457735E+04  0.25500000920E-02 0.  1.
        2   -1    0    0  501    0  0.00000000000E+00  0.00000000000E+00 -0.12756782615E+04  0.12756782615E+04  0.25500000920E-02 0. -1.
    10030    2    1    2    0    0  0.00000000000E+00  0.00000000000E+00  0.10367511967E+02  0.25617240350E+04  0.25617030558E+04 0.  0.
        2    1    3    3  502    0 -0.70163048899E+03  0.91797190442E+03 -0.54765246030E+03  0.12786246430E+04  0.25500000920E-02 0. -1.
       -2    1    3    3    0  502  0.70163048899E+03 -0.91797190442E+03  0.55801997227E+03  0.12830993920E+04  0.25500000920E-02 0.  1.
</event>
<event>
 5   0  0.2063930E-05  0.2417191E+04  0.7818609E-02  0.8433095E-01
        1   -1    0    0  501    0  0.00000000000E+00  0.00000000000E+00  0.14548305818E+04  0.14548305818E+04  0.50400001928E-02 0.  1.
       -1   -1    0    0    0  501  0.00000000000E+00  0.00000000000E+00 -0.10040367894E+04  0.10040367894E+04  0.50400001928E-02 0. -1.
    10030    2    1    2    0    0  0.00000000000E+00  0.00000000000E+00  0.45079379238E+03  0.24588673712E+04  0.24171912845E+04 0.  0.
        3    1    3    3  502    0  0.33865876318E+03 -0.52554816412E+03 -0.82675387115E+03  0.10365387616E+04  0.10100000352E+00 0. -1.
       -3    1    3    3    0  502 -0.33865876318E+03  0.52554816412E+03  0.12775476635E+04  0.14223286095E+04  0.10100000352E+00 0.  1.
</event>
<event>
 5   0  0.2041718E-05  0.2474355E+04  0.7818609E-02  0.8412179E-01
       -1   -1    0    0    0  501  0.00000000000E+00  0.00000000000E+00  0.12351259057E+04  0.12351259057E+04  0.50400001928E-02 0.  1.
        1   -1    0    0  501    0  0.00000000000E+00  0.00000000000E+00 -0.12392320702E+04  0.12392320702E+04  0.50400001928E-02 0. -1.
    10030    2    1    2    0    0  0.00000000000E+00  0.00000000000E+00 -0.41061645178E+01  0.24743579759E+04  0.24743545689E+04 0.  0.
        4    1    3    3  502    0 -0.64507911346E+03 -0.10446495125E+04  0.15021778645E+03  0.12369262965E+04  0.12699999809E+01 0.  1.
       -4    1    3    3    0  502  0.64507911346E+03  0.10446495125E+04 -0.15432395097E+03  0.12374316795E+04  0.12699999809E+01 0. -1.
</event>
<event>
 5   0  0.2066170E-05  0.2492520E+04  0.7818609E-02  0.8405655E-01
       -1   -1    0    0    0  501  0.00000000000E+00  0.00000000000E+00  0.71989579248E+03  0.71989579250E+03  0.50400001928E-02 0.  1.
        1   -1    0    0  501    0  0.00000000000E+00  0.00000000000E+00 -0.21574841826E+04  0.21574841826E+04  0.50400001928E-02 0. -1.
    10030    2    1    2    0    0  0.00000000000E+00  0.00000000000E+00 -0.14375883902E+04  0.28773799751E+04  0.24925198378E+04 0.  0.
        5    1    3    3  502    0  0.25202590318E+03  0.87624830241E+03  0.26198469389E+03  0.94867603173E+03  0.46999998093E+01 0.  1.
       -5    1    3    3    0  502 -0.25202590318E+03 -0.87624830241E+03 -0.16995730840E+04  0.19287039434E+04  0.46999998093E+01 0. -1.
</event>
<event>
 5   0  0.2041718E-05  0.1885997E+04  0.7818609E-02  0.8661858E-01
       -1   -1    0    0    0  501  0.00000000000E+00  0.00000000000E+00  0.15334743448E+04  0.15334743448E+04  0.50400001928E-02 0. -1.
        1   -1    0    0  501    0  0.00000000000E+00  0.00000000000E+00 -0.57988956166E+03  0.57988956168E+03  0.50400001928E-02 0.  1.
    10030    2    1    2    0    0  0.00000000000E+00  0.00000000000E+00  0.95358478317E+03  0.21133639065E+04  0.18859965702E+04 0.  0.
        4    1    3    3  502    0 -0.87871621865E+03 -0.27079963701E+03  0.71122567039E+03  0.11624621299E+04  0.12699999809E+01 0.  1.
       -4    1    3    3    0  502  0.87871621865E+03  0.27079963701E+03  0.24235911278E+03  0.95090177661E+03  0.12699999809E+01 0. -1.
</event>
<event>
 5   0  0.2081874E-05  0.2499772E+04  0.7818609E-02  0.8403067E-01
       -1   -1    0    0    0  501  0.00000000000E+00  0.00000000000E+00  0.10157676095E+04  0.10157676095E+04  0.50400001928E-02 0. -1.
        1   -1    0    0  501    0  0.00000000000E+00  0.00000000000E+00 -0.15379650170E+04  0.15379650171E+04  0.50400001928E-02 0.  1.
    10030    2    1    2    0    0  0.00000000000E+00  0.00000000000E+00 -0.52219740753E+03  0.25537326266E+04  0.24997720287E+04 0.  0.
        1    1    3    3  502    0  0.10658612065E+03 -0.12161436279E+04 -0.53493168840E+03  0.13328607714E+04  0.50400001928E-02 0.  1.
       -1    1    3    3    0  502 -0.10658612065E+03  0.12161436279E+04  0.12734280873E+02  0.12208718551E+04  0.50400001928E-02 0. -1.
</event>
<event>
 5   0  0.5024070E-05  0.1539020E+04  0.7818609E-02  0.8858912E-01
       -2   -1    0    0    0  501  0.00000000000E+00  0.00000000000E+00  0.25832774461E+03  0.25832774463E+03  0.25500000920E-02 0. -1.
        2   -1    0    0  501    0  0.00000000000E+00  0.00000000000E+00 -0.22922250063E+04  0.22922250063E+04  0.25500000920E-02 0.  1.
    10030    2    1    2    0    0  0.00000000000E+00  0.00000000000E+00 -0.20338972616E+04  0.25505527509E+04  0.15390195789E+04 0.  0.
        5    1    3    3  502    0 -0.12841069956E+03  0.73534222528E+03 -0.70732184263E+03  0.10283694740E+04  0.46999998093E+01 0. -1.
       -5    1    3    3    0  502  0.12841069956E+03 -0.73534222528E+03 -0.13265754190E+04  0.15221832769E+04  0.46999998093E+01 0.  1.
</event>
<event>
 5   0  0.2041718E-05  0.1954001E+04  0.7818609E-02  0.8628434E-01
        1   -1    0    0  501    0  0.00000000000E+00  0.00000000000E+00  0.91139854190E+03  0.91139854191E+03  0.50400001928E-02 0.  1.
       -1   -1    0    0    0  501  0.00000000000E+00  0.00000000000E+00 -0.10473249083E+04  0.10473249083E+04  0.50400001928E-02 0. -1.
    10030    2    1    2    0    0  0.00000000000E+00  0.00000000000E+00 -0.13592636643E+03  0.19587234503E+04  0.19540014272E+04 0.  0.
        4    1    3    3  502    0 -0.51497025976E+03 -0.74174256652E+03  0.30596961765E+03  0.95341251474E+03  0.12699999809E+01 0.  1.
       -4    1    3    3    0  502  0.51497025976E+03  0.74174256652E+03 -0.44189598408E+03  0.10053109355E+04  0.12699999809E+01 0. -1.
</event>
<event>
 5   0  0.2036578E-05  0.2489785E+04  0.7818609E-02  0.8406634E-01
        1   -1    0    0  501    0  0.00000000000E+00  0.00000000000E+00  0.25989653240E+04  0.25989653240E+04  0.50400001928E-02 0.  1.
       -1   -1    0    0    0  501  0.00000000000E+00  0.00000000000E+00 -0.59629794371E+03  0.59629794373E+03  0.50400001928E-02 0. -1.
    10030    2    1    2    0    0  0.00000000000E+00  0.00000000000E+00  0.20026673803E+04  0.31952632678E+04  0.24897852747E+04 0.  0.
        2    1    3    3  502    0 -0.51427205774E+02  0.82245403885E+03 -0.19616377963E+03  0.84708655518E+03  0.25500000920E-02 0. -1.
       -2    1    3    3    0  502  0.51427205774E+02 -0.82245403885E+03  0.21988311600E+04  0.23481767126E+04  0.25500000920E-02 0.  1.
</event>
<event>
 5   0  0.4959347E-05  0.2462955E+04  0.7818609E-02  0.8416303E-01
       -2   -1    0    0    0  501  0.00000000000E+00  0.00000000000E+00  0.10324935513E+04  0.10324935513E+04  0.25500000920E-02 0.  1.
        2   -1    0    0  501    0  0.00000000000E+00  0.00000000000E+00 -0.14688097597E+04  0.14688097597E+04  0.25500000920E-02 0. -1.
    10030    2    1    2    0    0  0.00000000000E+00  0.00000000000E+00 -0.43631620841E+03  0.25013033111E+04  0.24629548149E+04 0.  0.
        3    1    3    3  502    0 -0.11468999291E+04  0.52629623318E+01 -0.67361548595E+03  0.13300996125E+04  0.10100000352E+00 0. -1.
       -3    1    3    3    0  502  0.11468999291E+04 -0.52629623318E+01  0.23729927754E+03  0.11712036985E+04  0.10100000352E+00 0.  1.
</event>
<event>
 5   0  0.4959347E-05  0.2480214E+04  0.7818609E-02  0.8410069E-01
        2   -1    0    0  501    0  0.00000000000E+00  0.00000000000E+00  0.22037052685E+04  0.22037052686E+04  0.25500000920E-02 0.  1.
       -2   -1    0    0    0  501  0.00000000000E+00  0.00000000000E+00 -0.69785420851E+03  0.69785420851E+03  0.25500000920E-02 0. -1.
    10030    2    1    2    0    0  0.00000000000E+00  0.00000000000E+00  0.15058510600E+04  0.29015594771E+04  0.24802136972E+04 0.  0.
        3    1    3    3  502    0  0.10295340084E+04 -0.24748659291E+03  0.15080893048E+04  0.18426945622E+04  0.10100000352E+00 0.  1.
       -3    1    3    3    0  502 -0.10295340084E+04  0.24748659291E+03 -0.22382447498E+01  0.10588649149E+04  0.10100000352E+00 0. -1.
</event>
<event>
 5   0  0.2066170E-05  0.2536095E+04  0.7818609E-02  0.8390238E-01
        1   -1    0    0  501    0  0.00000000000E+00  0.00000000000E+00  0.19458762085E+04  0.19458762085E+04  0.50400001928E-02 0. -1.
       -1   -1    0    0    0  501  0.00000000000E+00  0.00000000000E+00 -0.82633416283E+03  0.82633416285E+03  0.50400001928E-02 0.  1.
    10030    2    1    2    0    0  0.00000000000E+00  0.00000000000E+00  0.11195420457E+04  0.27722103714E+04  0.25360946258E+04 0.  0.
        5    1    3    3  502    0 -0.46559392933E+03  0.35301288700E+03 -0.67040653778E+03  0.88930468418E+03  0.46999998093E+01 0.  1.
       -5    1    3    3    0  502  0.46559392933E+03 -0.35301288700E+03  0.17899485835E+04  0.18829056872E+04  0.46999998093E+01 0. -1.
</event>
<event>
 5   0  0.5024070E-05  0.2761351E+04  0.7818609E-02  0.8315369E-01
       -2   -1    0    0    0  501  0.00000000000E+00  0.00000000000E+00  0.12777399114E+04  0.12777399114E+04  0.25500000920E-02 0. -1.
        2   -1    0    0  501    0  0.00000000000E+00  0.00000000000E+00 -0.14919037619E+04  0.14919037619E+04  0.25500000920E-02 0.  1.
    10030    2    1    2    0    0  0.00000000000E+00  0.00000000000E+00 -0.21416385052E+03  0.27696436733E+04  0.27613511045E+04 0.  0.
        5    1    3    3  502    0 -0.53599765533E+03  0.40156173247E+03  0.11038953253E+04  0.12911825164E+04  0.46999998093E+01 0. -1.
       -5    1    3    3    0  502  0.53599765533E+03 -0.40156173247E+03 -0.13180591758E+04  0.14784611569E+04  0.46999998093E+01 0.  1.
</event>
<event>
 5   0  0.4959347E-05  0.2475609E+04  0.7818609E-02  0.8411727E-01
       -2   -1    0    0    0  501  0.00000000000E+00  0.00000000000E+00  0.10196187083E+04  0.10196187083E+04  0.25500000920E-02 0.  1.
        2   -1    0    0  501    0  0.00000000000E+00  0.00000000000E+00 -0.15026791039E+04  0.15026791039E+04  0.25500000920E-02 0. -1.
    10030    2    1    2    0    0  0.00000000000E+00  0.00000000000E+00 -0.48306039563E+03  0.25222978122E+04  0.24756087953E+04 0.  0.
        3    1    3    3  502    0  0.53693637856E+03 -0.74944690411E+03  0.59999379942E+03  0.10999835936E+04  0.10100000352E+00 0.  1.
       -3    1    3    3    0  502 -0.53693637856E+03  0.74944690411E+03 -0.10830541950E+04  0.14223142186E+04  0.10100000352E+00 0. -1.
</event>
<event>
 5   0  0.2063930E-05  0.2473698E+04  0.7818609E-02  0.8412416E-01
       -1   -1    0    0    0  501  0.00000000000E+00  0.00000000000E+00  0.14753173561E+04  0.14753173561E+04  0.50400001928E-02 0. -1.
        1   -1    0    0  501    0  0.00000000000E+00  0.00000000000E+00 -0.10369261305E+04  0.10369261305E+04  0.50400001928E-02 0.  1.
    10030    2    1    2    0    0  0.00000000000E+00  0.00000000000E+00  0.43839122558E+03  0.25122434866E+04  0.24736977320E+04 0.  0.
        3    1    3    3  502    0  0.20991890662E+03  0.10482325385E+04 -0.41254038364E+03  0.11458826207E+04  0.10100000352E+00 0.  1.
       -3    1    3    3    0  502 -0.20991890662E+03 -0.10482325385E+04  0.85093160922E+03  0.13663608659E+04  0.10100000352E+00 0. -1.
</event>
<event>
 5   0  0.2063930E-05  0.2514152E+04  0.7818609E-02  0.8397961E-01
        1   -1    0    0  501    0  0.00000000000E+00  0.00000000000E+00  0.23219308851E+04  0.23219308851E+04  0.50400001928E-02 0. -1.
       -1   -1    0    0    0  501  0.00000000000E+00  0.00000000000E+00 -0.68057147809E+03  0.68057147811E+03  0.50400001928E-02 0.  1.
    10030    2    1    2    0    0  0.00000000000E+00  0.00000000000E+00  0.16413594070E+04  0.30025023632E+04  0.25141518924E+04 0.  0.
        3    1    3    3  502    0 -0.38177509662E+03 -0.10368702364E+04  0.10474482812E+03  0.11098754888E+04  0.10100000352E+00 0. -1.
       -3    1    3    3    0  502  0.38177509662E+03  0.10368702364E+04  0.15366145789E+04  0.18926268744E+04  0.10100000352E+00 0.  1.
</event>
<event>
 5   0  0.2041718E-05  0.2456551E+04  0.7818609E-02  0.8418630E-01
       -1   -1    0    0    0  501  0.00000000000E+00  0.00000000000E+00  0.92037617981E+03  0.92037617983E+03  0.50400001928E-02 0.  1.
        1   -1    0    0  501    0  0.00000000000E+00  0.00000000000E+00 -0.16391778222E+04  0.16391778222E+04  0.50400001928E-02 0. -1.
    10030    2    1    2    0    0  0.00000000000E+00  0.00000000000E+00 -0.71880164239E+03  0.25595540020E+04  0.24565506077E+04 0.  0.
        4    1    3    3  502    0  0.76496135067E+03  0.71884365259E+03  0.30511581166E+03  0.10931602519E+04  0.12699999809E+01 0.  1.
       -4    1    3    3    0  502 -0.76496135067E+03 -0.71884365259E+03 -0.10239174541E+04  0.14663937502E+04  0.12699999809E+01 0. -1.
</event>
<event>
 5   0  0.4959347E-05  0.2498347E+04  0.7818609E-02  0.8403575E-01
       -2   -1    0    0    0  501  0.00000000000E+00  0.00000000000E+00  0.84478034496E+03  0.84478034496E+03  0.25500000920E-02 0. -1.
        2   -1    0    0  501    0  0.00000000000E+00  0.00000000000E+00 -0.18471481773E+04  0.18471481773E+04  0.25500000920E-02 0.  1.
    10030    2    1    2    0    0  0.00000000000E+00  0.00000000000E+00 -0.10023678323E+04  0.26919285223E+04  0.24983470331E+04 0.  0.
        3    1    3    3  502    0  0.33923889596E+02  0.12198242859E+04 -0.21344863253E+03  0.12388230090E+04  0.10100000352E+00 0. -1.
       -3    1    3    3    0  502 -0.33923889596E+02 -0.12198242859E+04 -0.78891919981E+03  0.14531055133E+04  0.10100000352E+00 0.  1.
</event>
<event>
 5   0  0.1692125E-05  0.2496668E+04  0.7818609E-02  0.8404173E-01
       -4   -1    0    0    0  501  0.00000000000E+00  0.00000000000E+00  0.95815034239E+03  0.95815118406E+03  0.12699999809E+01 0. -1.
        4   -1    0    0  501    0  0.00000000000E+00  0.00000000000E+00 -0.16264007409E+04  0.16264012368E+04  0.12699999809E+01 0.  1.
    10030    2    1    2    0    0  0.00000000000E+00  0.00000000000E+00 -0.66825039853E+03  0.25845524208E+04  0.24966683041E+04 0.  0.
        5    1    3    3  502    0  0.51251980940E+03 -0.86656331111E+03 -0.10981477723E+04  0.14898184946E+04  0.46999998093E+01 0.  1.
       -5    1    3    3    0  502 -0.51251980940E+03  0.86656331111E+03  0.42989737376E+03  0.10947339262E+04  0.46999998093E+01 0. -1.
</event>
<event>
 5   0  0.4995256E-05  0.2452472E+04  0.7818609E-02  0.8420116E-01
        2   -1    0    0  501    0  0.00000000000E+00  0.00000000000E+00  0.87583164131E+03  0.87583164132E+03  0.25500000920E-02 0.  1.
       -2   -1    0    0    0  501  0.00000000000E+00  0.00000000000E+00 -0.17168305308E+04  0.17168305308E+04  0.25500000920E-02 0. -1.
    10030    2    1    2    0    0  0.00000000000E+00  0.00000000000E+00 -0.84099888953E+03  0.25926621722E+04  0.24524718157E+04 0.  0.
        2    1    3    3  502    0 -0.31542971692E+03 -0.56360991252E+03  0.68143881826E+03  0.93888812051E+03  0.25500000920E-02 0.  1.
       -2    1    3    3    0  502  0.31542971692E+03  0.56360991252E+03 -0.15224377078E+04  0.16537740517E+04  0.25500000920E-02 0. -1.
</event>
<event>
 5   0  0.4959347E-05  0.2482109E+04  0.7818609E-02  0.8409387E-01
       -2   -1    0    0    0  501  0.00000000000E+00  0.00000000000E+00  0.76966306588E+03  0.76966306588E+03  0.25500000920E-02 0. -1.
        2   -1    0    0  501    0  0.00000000000E+00  0.00000000000E+00 -0.20011561547E+04  0.20011561547E+04  0.25500000920E-02 0.  1.
    10030    2    1    2    0    0  0.00000000000E+00  0.00000000000E+00 -0.12314930888E+04  0.27708192206E+04  0.24821087658E+04 0.  0.
        3    1    3    3  502    0 -0.43507685522E+03  0.41510996451E+03 -0.18276612132E+04  0.19240461723E+04  0.10100000352E+00 0.  1.
       -3    1    3    3    0  502  0.43507685522E+03 -0.41510996451E+03  0.59616812439E+03  0.84677304830E+03  0.10100000352E+00 0. -1.
</event>
<event>
 5   0  0.2041718E-05  0.2471017E+04  0.7818609E-02  0.8413384E-01
       -1   -1    0    0    0  501  0.00000000000E+00  0.00000000000E+00  0.75037848048E+03  0.75037848050E+03  0.50400001928E-02 0.  1.
        1   -1    0    0  501    0  0.00000000000E+00  0.00000000000E+00 -0.20342810772E+04  0.20342810772E+04  0.50400001928E-02 0. -1.
    10030    2    1    2    0    0  0.00000000000E+00  0.00000000000E+00 -0.12839025967E+04  0.27846595577E+04  0.24710165872E+04 0.  0.
        4    1    3    3  502    0  0.37482064284E+02  0.12339997239E+04 -0.58768400995E+03  0.13673091575E+04  0.12699999809E+01 0.  1.
       -4    1    3    3    0  502 -0.37482064284E+02 -0.12339997239E+04 -0.69621858675E+03  0.14173504002E+04  0.12699999809E+01 0. -1.
</event>
<event>
 5   0  0.2081874E-05  0.2511908E+04  0.7818609E-02  0.8398756E-01
       -1   -1    0    0    0  501  0.00000000000E+00  0.00000000000E+00  0.91245737446E+03  0.91245737448E+03  0.50400001928E-02 0.  1.
        1   -1    0    0  501    0  0.00000000000E+00  0.00000000000E+00 -0.17287602109E+04  0.17287602109E+04  0.50400001928E-02 0. -1.
    10030    2    1    2    0    0  0.00000000000E+00  0.00000000000E+00 -0.81630283643E+03  0.26412175854E+04  0.25119076441E+04 0.  0.
        1    1    3    3  502    0 -0.10797836333E+04  0.21337729640E+03 -0.10442373664E+04  0.15171994737E+04  0.50400001928E-02 0. -1.
       -1    1    3    3    0  502  0.10797836333E+04 -0.21337729640E+03  0.22793452998E+03  0.11240181117E+04  0.50400001928E-02 0.  1.
</event>
<event>
 5   0  0.4959347E-05  0.2792219E+04  0.7818609E-02  0.8305688E-01
        2   -1    0    0  501    0  0.00000000000E+00  0.00000000000E+00  0.16469145326E+04  0.16469145326E+04  0.25500000920E-02 0.  1.
       -2   -1    0    0    0  501  0.00000000000E+00  0.00000000000E+00 -0.11834988697E+04  0.11834988697E+04  0.25500000920E-02 0. -1.
    10030    2    1    2    0    0  0.00000000000E+00  0.00000000000E+00  0.46341566297E+03  0.28304134023E+04  0.27922188222E+04 0.  0.
        3    1    3    3  502    0  0.82550467735E+03 -0.10578322574E+04 -0.15912346713E+03  0.13512169867E+04  0.10100000352E+00 0. -1.
       -3    1    3    3    0  502 -0.82550467735E+03  0.10578322574E+04  0.62253913010E+03  0.14791964156E+04  0.10100000352E+00 0.  1.
</event>
<event>
 5   0  0.5024070E-05  0.1817656E+04  0.7818609E-02  0.8696966E-01
        2   -1    0    0  501    0  0.00000000000E+00  0.00000000000E+00  0.66920206752E+03  0.66920206752E+03  0.25500000920E-02 0. -1.
       -2   -1    0    0    0  501  0.00000000000E+00  0.00000000000E+00 -0.12342589915E+04  0.12342589915E+04  0.25500000920E-02 0.  1.
    10030    2    1    2    0    0  0.00000000000E+00  0.00000000000E+00 -0.56505692397E+03  0.19034610590E+04  0.18176563690E+04 0.  0.
        5    1    3    3  502    0  0.79558380442E+03  0.63648261781E+02 -0.73772226306E+03  0.10868582789E+04  0.46999998093E+01 0.  1.
       -5    1    3    3    0  502 -0.79558380442E+03 -0.63648261781E+02  0.17266533909E+03  0.81660278007E+03  0.46999998093E+01 0. -1.
</event>
<event>
 5   0  0.2063930E-05  0.2652508E+04  0.7818609E-02  0.8350581E-01
        1   -1    0    0  501    0  0.00000000000E+00  0.00000000000E+00  0.24292817668E+04  0.24292817668E+04  0.50400001928E-02 0.  1.
       -1   -1    0    0    0  501  0.00000000000E+00  0.00000000000E+00 -0.72406148311E+03  0.72406148313E+03  0.50400001928E-02 0. -1.
    10030    2    1    2    0    0  0.00000000000E+00  0.00000000000E+00  0.17052202837E+04  0.31533432499E+04  0.26525077636E+04 0.  0.
        3    1    3    3  502    0 -0.10633136384E+04 -0.27673202470E+03  0.17356473461E+04  0.20541879727E+04  0.10100000352E+00 0.  1.
       -3    1    3    3    0  502  0.10633136384E+04  0.27673202470E+03 -0.30427062457E+02  0.10991552772E+04  0.10100000352E+00 0. -1.
</event>
<event>
 5   0  0.2041718E-05  0.2517034E+04  0.7818609E-02  0.8396942E-01
       -1   -1    0    0    0  501  0.00000000000E+00  0.00000000000E+00  0.10146701591E+04  0.10146701591E+04  0.50400001928E-02 0.  1.
        1   -1    0    0  501    0  0.00000000000E+00  0.00000000000E+00 -0.15609648465E+04  0.15609648465E+04  0.50400001928E-02 0. -1.
    10030    2    1    2    0    0  0.00000000000E+00  0.00000000000E+00 -0.54629468736E+03  0.25756350056E+04  0.25170335311E+04 0.  0.
        4    1    3    3  502    0 -0.10238614400E+04 -0.64125160720E+03 -0.63401489653E+03  0.13643578614E+04  0.12699999809E+01 0.  1.
       -4    1    3    3    0  502  0.10238614400E+04  0.64125160720E+03  0.87720209169E+02  0.12112771442E+04  0.12699999809E+01 0. -1.
</event>
<event>
 5   0  0.2036578E-05  0.2485091E+04  0.7818609E-02  0.8408316E-01
       -1   -1    0    0    0  501  0.00000000000E+00  0.00000000000E+00  0.10661821649E+04  0.10661821649E+04  0.50400001928E-02 0.  1.
        1   -1    0    0  501    0  0.00000000000E+00  0.00000000000E+00 -0.14480822921E+04  0.14480822921E+04  0.50400001928E-02 0. -1.
    10030    2    1    2    0    0  0.00000000000E+00  0.00000000000E+00 -0.38190012722E+03  0.25142644570E+04  0.24850911558E+04 0.  0.
        2    1    3    3  502    0 -0.43374133305E+03 -0.59772845054E+03  0.82003456399E+03  0.11035703560E+04  0.25500000920E-02 0.  1.
       -2    1    3    3    0  502  0.43374133305E+03  0.59772845054E+03 -0.12019346912E+04  0.14106941010E+04  0.25500000920E-02 0. -1.
</event>
<event>
 5   0  0.4959042E-05  0.2490053E+04  0.7818609E-02  0.8406538E-01
       -2   -1    0    0    0  501  0.00000000000E+00  0.00000000000E+00  0.84280237929E+03  0.84280237929E+03  0.25500000920E-02 0.  1.
        2   -1    0    0  501    0  0.00000000000E+00  0.00000000000E+00 -0.18392098638E+04  0.18392098638E+04  0.25500000920E-02 0. -1.
    10030    2    1    2    0    0  0.00000000000E+00  0.00000000000E+00 -0.99640748455E+03  0.26820122431E+04  0.24900525691E+04 0.  0.
        4    1    3    3  502    0 -0.78211522856E+03  0.28164627176E+03  0.50010295525E+03  0.97012031826E+03  0.12699999809E+01 0.  1.
       -4    1    3    3    0  502  0.78211522856E+03 -0.28164627176E+03 -0.14965104398E+04  0.17118919249E+04  0.12699999809E+01 0. -1.
</event>
<event>
 5   0  0.2066170E-05  0.2488661E+04  0.7818609E-02  0.8407036E-01
        1   -1    0    0  501    0  0.00000000000E+00  0.00000000000E+00  0.11619335898E+04  0.11619335898E+04  0.50400001928E-02 0.  1.
       -1   -1    0    0    0  501  0.00000000000E+00  0.00000000000E+00 -0.13325707056E+04  0.13325707056E+04  0.50400001928E-02 0. -1.
    10030    2    1    2    0    0  0.00000000000E+00  0.00000000000E+00 -0.17063711585E+03  0.24945042955E+04  0.24886612173E+04 0.  0.
        5    1    3    3  502    0  0.20255880742E+02 -0.10292764403E+04  0.61526186626E+03  0.11993287895E+04  0.46999998093E+01 0.  1.
       -5    1    3    3    0  502 -0.20255880742E+02  0.10292764403E+04 -0.78589898211E+03  0.12951755060E+04  0.46999998093E+01 0. -1.
</event>
<event>
 5   0  0.5024070E-05  0.2488901E+04  0.7818609E-02  0.8406950E-01
        2   -1    0    0  501    0  0.00000000000E+00  0.00000000000E+00  0.94884691623E+03  0.94884691623E+03  0.25500000920E-02 0. -1.
       -2   -1    0    0    0  501  0.00000000000E+00  0.00000000000E+00 -0.16321466449E+04  0.16321466449E+04  0.25500000920E-02 0.  1.
    10030    2    1    2    0    0  0.00000000000E+00  0.00000000000E+00 -0.68329972868E+03  0.25809935611E+04  0.24889012121E+04 0.  0.
        5    1    3    3  502    0  0.35796537646E+03 -0.84448081308E+03  0.53050955986E+03  0.10595987625E+04  0.46999998093E+01 0. -1.
       -5    1    3    3    0  502 -0.35796537646E+03  0.84448081308E+03 -0.12138092885E+04  0.15213947986E+04  0.46999998093E+01 0.  1.
</event>
<event>
 5   0  0.2036578E-05  0.2523869E+04  0.7818609E-02  0.8394531E-01
        1   -1    0    0  501    0  0.00000000000E+00  0.00000000000E+00  0.20173338334E+04  0.20173338334E+04  0.50400001928E-02 0. -1.
       -1   -1    0    0    0  501  0.00000000000E+00  0.00000000000E+00 -0.78939761729E+03  0.78939761731E+03  0.50400001928E-02 0.  1.
    10030    2    1    2    0    0  0.00000000000E+00  0.00000000000E+00  0.12279362161E+04  0.28067314508E+04  0.25238688725E+04 0.  0.
        2    1    3    3  502    0  0.28614807278E+03  0.11364699198E+04  0.93505223104E+02  0.11756648438E+04  0.25500000920E-02 0.  1.
       -2    1    3    3    0  502 -0.28614807278E+03 -0.11364699198E+04  0.11344309930E+04  0.16310666069E+04  0.25500000920E-02 0. -1.
</event>
<event>
 5   0  0.5219468E-05  0.2485041E+04  0.7818609E-02  0.8408334E-01
        2   -1    0    0  501    0  0.00000000000E+00  0.00000000000E+00  0.15731580582E+04  0.15731580582E+04  0.25500000920E-02 0. -1.
       -2   -1    0    0    0  501  0.00000000000E+00  0.00000000000E+00 -0.98137430403E+03  0.98137430404E+03  0.25500000920E-02 0.  1.
    10030    2    1    2    0    0  0.00000000000E+00  0.00000000000E+00  0.59178375413E+03  0.25545323622E+04  0.24850407598E+04 0.  0.
        1    1    3    3  502    0  0.92675587608E+03 -0.41205849875E+03 -0.44194585469E+03  0.11063384648E+04  0.50400001928E-02 0.  1.
       -1    1    3    3    0  502 -0.92675587608E+03  0.41205849875E+03  0.10337296088E+04  0.14481938974E+04  0.50400001928E-02 0. -1.
</event>
<event>
 5   0  0.2066170E-05  0.1848113E+04  0.7818609E-02  0.8681124E-01
        1   -1    0    0  501    0  0.00000000000E+00  0.00000000000E+00  0.13581061267E+04  0.13581061267E+04  0.50400001928E-02 0. -1.
       -1   -1    0    0    0  501  0.00000000000E+00  0.00000000000E+00 -0.62872904592E+03  0.62872904594E+03  0.50400001928E-02 0.  1.
    10030    2    1    2    0    0  0.00000000000E+00  0.00000000000E+00  0.72937708080E+03  0.19868351727E+04  0.18481133832E+04 0.  0.
        5    1    3    3  502    0 -0.63850145699E+03 -0.27936238378E+03 -0.28759220222E+03  0.75396207917E+03  0.46999998093E+01 0.  1.
       -5    1    3    3    0  502  0.63850145699E+03  0.27936238378E+03  0.10169692830E+04  0.12328730935E+04  0.46999998093E+01 0. -1.
</event>
<event>
 5   0  0.2036578E-05  0.2491393E+04  0.7818609E-02  0.8406058E-01
        1   -1    0    0  501    0  0.00000000000E+00  0.00000000000E+00  0.22093770727E+04  0.22093770727E+04  0.50400001928E-02 0.  1.
       -1   -1    0    0    0  501  0.00000000000E+00  0.00000000000E+00 -0.70235175874E+03  0.70235175875E+03  0.50400001928E-02 0. -1.
    10030    2    1    2    0    0  0.00000000000E+00  0.00000000000E+00  0.15070253139E+04  0.29117288314E+04  0.24913930824E+04 0.  0.
        2    1    3    3  502    0 -0.50386531815E+03 -0.35469640770E+02  0.20843202955E+04  0.21446513582E+04  0.25500000920E-02 0.  1.
       -2    1    3    3    0  502  0.50386531815E+03  0.35469640770E+02 -0.57729498151E+03  0.76707747323E+03  0.25500000920E-02 0. -1.
</event>
<event>
 5   0  0.4995256E-05  0.2488437E+04  0.7818609E-02  0.8407117E-01
       -2   -1    0    0    0  501  0.00000000000E+00  0.00000000000E+00  0.76877834243E+03  0.76877834243E+03  0.25500000920E-02 0. -1.
        2   -1    0    0  501    0  0.00000000000E+00  0.00000000000E+00 -0.20136876739E+04  0.20136876739E+04  0.25500000920E-02 0.  1.
    10030    2    1    2    0    0  0.00000000000E+00  0.00000000000E+00 -0.12449093315E+04  0.27824660164E+04  0.24884368364E+04 0.  0.
        2    1    3    3  502    0  0.51575209114E+03  0.98434681426E+03  0.32551070940E+01  0.11112828020E+04  0.25500000920E-02 0. -1.
       -2    1    3    3    0  502 -0.51575209114E+03 -0.98434681426E+03 -0.12481644386E+04  0.16711832144E+04  0.25500000920E-02 0.  1.
</event>
<event>
 5   0  0.4995256E-05  0.2064519E+04  0.7818609E-02  0.8577036E-01
       -2   -1    0    0    0  501  0.00000000000E+00  0.00000000000E+00  0.69922780095E+03  0.69922780095E+03  0.25500000920E-02 0. -1.
        2   -1    0    0  501    0  0.00000000000E+00  0.00000000000E+00 -0.15239098887E+04  0.15239098887E+04  0.25500000920E-02 0.  1.
    10030    2    1    2    0    0  0.00000000000E+00  0.00000000000E+00 -0.82468208777E+03  0.22231376897E+04  0.20645194698E+04 0.  0.
        2    1    3    3  502    0 -0.81295628937E+03  0.20288585799E+02 -0.10969975160E+04  0.13655449847E+04  0.25500000920E-02 0.  1.
       -2    1    3    3    0  502  0.81295628937E+03 -0.20288585799E+02  0.27231542824E+03  0.85759270496E+03  0.25500000920E-02 0. -1.
</event>
<event>
 5   0  0.4959042E-05  0.2549054E+04  0.7818609E-02  0.8385715E-01
       -2   -1    0    0    0  501  0.00000000000E+00  0.00000000000E+00  0.97312275389E+03  0.97312275389E+03  0.25500000920E-02 0. -1.
        2   -1    0    0  501    0  0.00000000000E+00  0.00000000000E+00 -0.16692846943E+04  0.16692846943E+04  0.25500000920E-02 0.  1.
    10030    2    1    2    0    0  0.00000000000E+00  0.00000000000E+00 -0.69616194045E+03  0.26424074482E+04  0.25490538784E+04 0.  0.
        4    1    3    3  502    0  0.69111998392E+03  0.43822222069E+03 -0.13609690369E+04  0.15880566360E+04  0.12699999809E+01 0.  1.
       -4    1    3    3    0  502 -0.69111998392E+03 -0.43822222069E+03  0.66480709643E+03  0.10543508122E+04  0.12699999809E+01 0. -1.
</event>
<event>
 5   0  0.4995256E-05  0.2500119E+04  0.7818609E-02  0.8402943E-01
       -2   -1    0    0    0  501  0.00000000000E+00  0.00000000000E+00  0.76487778814E+03  0.76487778814E+03  0.25500000920E-02 0. -1.
        2   -1    0    0  501    0  0.00000000000E+00  0.00000000000E+00 -0.20430043173E+04  0.20430043174E+04  0.25500000920E-02 0.  1.
    10030    2    1    2    0    0  0.00000000000E+00  0.00000000000E+00 -0.12781265292E+04  0.28078821055E+04  0.25001188959E+04 0.  0.
        2    1    3    3  502    0  0.45021532956E+03 -0.10913333435E+04 -0.17743481408E+03  0.11938113012E+04  0.25500000920E-02 0. -1.
       -2    1    3    3    0  502 -0.45021532956E+03  0.10913333435E+04 -0.11006917151E+04  0.16140708043E+04  0.25500000920E-02 0.  1.
</event>
<event>
 5   0  0.4995256E-05  0.2541091E+04  0.7818609E-02  0.8388491E-01
        2   -1    0    0  501    0  0.00000000000E+00  0.00000000000E+00  0.15567173819E+04  0.15567173819E+04  0.25500000920E-02 0.  1.
       -2   -1    0    0    0  501  0.00000000000E+00  0.00000000000E+00 -0.10369804257E+04  0.10369804257E+04  0.25500000920E-02 0. -1.
    10030    2    1    2    0    0  0.00000000000E+00  0.00000000000E+00  0.51973695616E+03  0.25936978076E+04  0.25410906740E+04 0.  0.
        2    1    3    3  502    0 -0.11897701617E+04 -0.32989305354E+03 -0.46177218810E+02  0.12355220759E+04  0.25500000920E-02 0. -1.
       -2    1    3    3    0  502  0.11897701617E+04  0.32989305354E+03  0.56591417497E+03  0.13581757316E+04  0.25500000920E-02 0.  1.
</event>
<event>
 5   0  0.4959347E-05  0.2515386E+04  0.7818609E-02  0.8397525E-01
        2   -1    0    0  501    0  0.00000000000E+00  0.00000000000E+00  0.11131887714E+04  0.11131887714E+04  0.25500000920E-02 0. -1.
       -2   -1    0    0    0  501  0.00000000000E+00  0.00000000000E+00 -0.14209549900E+04  0.14209549900E+04  0.25500000920E-02 0.  1.
    10030    2    1    2    0    0  0.00000000000E+00  0.00000000000E+00 -0.30776621853E+03  0.25341437614E+04  0.25153855685E+04 0.  0.
        3    1    3    3  502    0 -0.30089939501E+03  0.27254861116E+03 -0.13531247378E+04  0.14127171542E+04  0.10100000352E+00 0.  1.
       -3    1    3    3    0  502  0.30089939501E+03 -0.27254861116E+03  0.10453585193E+04  0.11214266072E+04  0.10100000352E+00 0. -1.
</event>
<event>
 5   0  0.2041718E-05  0.2578043E+04  0.7818609E-02  0.8375698E-01
       -1   -1    0    0    0  501  0.00000000000E+00  0.00000000000E+00  0.15655416108E+04  0.15655416108E+04  0.50400001928E-02 0. -1.
        1   -1    0    0  501    0  0.00000000000E+00  0.00000000000E+00 -0.10613426889E+04  0.10613426889E+04  0.50400001928E-02 0.  1.
    10030    2    1    2    0    0  0.00000000000E+00  0.00000000000E+00  0.50419892189E+03  0.26268842997E+04  0.25780427792E+04 0.  0.
        4    1    3    3  502    0 -0.69410470692E+03 -0.17942705909E+03  0.13436552262E+04  0.15229531817E+04  0.12699999809E+01 0. -1.
       -4    1    3    3    0  502  0.69410470692E+03  0.17942705909E+03 -0.83945630432E+03  0.11039311181E+04  0.12699999809E+01 0.  1.
</event>
<event>
 5   0  0.2081874E-05  0.2527466E+04  0.7818609E-02  0.8393265E-01
       -1   -1    0    0    0  501  0.00000000000E+00  0.00000000000E+00  0.10104625977E+04  0.10104625977E+04  0.50400001928E-02 0. -1.
        1   -1    0    0  501    0  0.00000000000E+00  0.00000000000E+00 -0.15804852770E+04  0.15804852770E+04  0.50400001928E-02 0.  1.
    10030    2    1    2    0    0  0.00000000000E+00  0.00000000000E+00 -0.57002267933E+03  0.25909478748E+04  0.25274661293E+04 0.  0.
        1    1    3    3  502    0  0.64021744148E+03  0.10530917451E+04  0.15462243564E+01  0.12324297087E+04  0.50400001928E-02 0.  1.
       -1    1    3    3    0  502 -0.64021744148E+03 -0.10530917451E+04 -0.57156890369E+03  0.13585181661E+04  0.50400001928E-02 0. -1.
</event>
<event>
 5   0  0.2063930E-05  0.2535330E+04  0.7818609E-02  0.8390506E-01
        1   -1    0    0  501    0  0.00000000000E+00  0.00000000000E+00  0.10205910671E+04  0.10205910671E+04  0.50400001928E-02 0.  1.
       -1   -1    0    0    0  501  0.00000000000E+00  0.00000000000E+00 -0.15745530801E+04  0.15745530802E+04  0.50400001928E-02 0. -1.
    10030    2    1    2    0    0  0.00000000000E+00  0.00000000000E+00 -0.55396201307E+03  0.25951441472E+04  0.25353302020E+04 0.  0.
        3    1    3    3  502    0  0.14145315282E+03 -0.10349819811E+04 -0.10121012897E+04  0.14544915697E+04  0.10100000352E+00 0. -1.
       -3    1    3    3    0  502 -0.14145315282E+03  0.10349819811E+04  0.45813927659E+03  0.11406525775E+04  0.10100000352E+00 0.  1.
</event>
<event>
 5   0  0.2036578E-05  0.1824705E+04  0.7818609E-02  0.8693271E-01
       -1   -1    0    0    0  501  0.00000000000E+00  0.00000000000E+00  0.72901070499E+03  0.72901070500E+03  0.50400001928E-02 0.  1.
        1   -1    0    0  501    0  0.00000000000E+00  0.00000000000E+00 -0.11418033162E+04  0.11418033162E+04  0.50400001928E-02 0. -1.
    10030    2    1    2    0    0  0.00000000000E+00  0.00000000000E+00 -0.41279261117E+03  0.18708140212E+04  0.18247047328E+04 0.  0.
        2    1    3    3  502    0 -0.23503303462E+03  0.14773497772E+03 -0.10974496572E+04  0.11320167407E+04  0.25500000920E-02 0. -1.
       -2    1    3    3    0  502  0.23503303462E+03 -0.14773497772E+03  0.68465704604E+03  0.73879728052E+03  0.25500000920E-02 0.  1.
</event>
<event>
 5   0  0.2063930E-05  0.2507258E+04  0.7818609E-02  0.8400404E-01
       -1   -1    0    0    0  501  0.00000000000E+00  0.00000000000E+00  0.12940189273E+04  0.12940189273E+04  0.50400001928E-02 0. -1.
        1   -1    0    0  501    0  0.00000000000E+00  0.00000000000E+00 -0.12145000923E+04  0.12145000923E+04  0.50400001928E-02 0.  1.
    10030    2    1    2    0    0  0.00000000000E+00  0.00000000000E+00  0.79518835046E+02  0.25085190196E+04  0.25072583486E+04 0.  0.
        3    1    3    3  502    0  0.19284661282E+03 -0.12103117243E+04 -0.22408098955E+03  0.12458958970E+04  0.10100000352E+00 0.  1.
       -3    1    3    3    0  502 -0.19284661282E+03  0.12103117243E+04  0.30359982460E+03  0.12626231226E+04  0.10100000352E+00 0. -1.
</event>
<event>
 5   0  0.4959042E-05  0.2489952E+04  0.7818609E-02  0.8406574E-01
        2   -1    0    0  501    0  0.00000000000E+00  0.00000000000E+00  0.18861152471E+04  0.18861152471E+04  0.25500000920E-02 0.  1.
       -2   -1    0    0    0  501  0.00000000000E+00  0.00000000000E+00 -0.82177648310E+03  0.82177648311E+03  0.25500000920E-02 0. -1.
    10030    2    1    2    0    0  0.00000000000E+00  0.00000000000E+00  0.10643387640E+04  0.27078917302E+04  0.24899519308E+04 0.  0.
        4    1    3    3  502    0  0.83806893021E+03  0.89060894873E+03  0.27847056307E+03  0.12542293645E+04  0.12699999809E+01 0. -1.
       -4    1    3    3    0  502 -0.83806893021E+03 -0.89060894873E+03  0.78586820088E+03  0.14536623657E+04  0.12699999809E+01 0.  1.
</event>
<event>
 5   0  0.4959042E-05  0.2692122E+04  0.7818609E-02  0.8337566E-01
        2   -1    0    0  501    0  0.00000000000E+00  0.00000000000E+00  0.12834524693E+04  0.12834524693E+04  0.25500000920E-02 0.  1.
       -2   -1    0    0    0  501  0.00000000000E+00  0.00000000000E+00 -0.14117238703E+04  0.14117238703E+04  0.25500000920E-02 0. -1.
    10030    2    1    2    0    0  0.00000000000E+00  0.00000000000E+00 -0.12827140106E+03  0.26951763396E+04  0.26921222018E+04 0.  0.
        4    1    3    3  502    0  0.35187802683E+03 -0.64523230630E+02 -0.13632586040E+04  0.14094172652E+04  0.12699999809E+01 0. -1.
       -4    1    3    3    0  502 -0.35187802683E+03  0.64523230630E+02  0.12349872030E+04  0.12857590744E+04  0.12699999809E+01 0.  1.
</event>
<event>
 5   0  0.4995256E-05  0.2462300E+04  0.7818609E-02  0.8416541E-01
        2   -1    0    0  501    0  0.00000000000E+00  0.00000000000E+00  0.25145831634E+04  0.25145831634E+04  0.25500000920E-02 0. -1.
       -2   -1    0    0    0  501  0.00000000000E+00  0.00000000000E+00 -0.60277622105E+03  0.60277622105E+03  0.25500000920E-02 0.  1.
    10030    2    1    2    0    0  0.00000000000E+00  0.00000000000E+00  0.19118069424E+04  0.31173593845E+04  0.24623004989E+04 0.  0.
        2    1    3    3  502    0 -0.57171804529E+03  0.71963746320E+03  0.19929644072E+04  0.21946860209E+04  0.25500000920E-02 0. -1.
       -2    1    3    3    0  502  0.57171804529E+03 -0.71963746320E+03 -0.81157464861E+02  0.92267336359E+03  0.25500000920E-02 0.  1.
</event>
<event>
 5   0  0.1692125E-05  0.2223978E+04  0.7818609E-02  0.8508514E-01
       -3   -1    0    0    0  501  0.00000000000E+00  0.00000000000E+00  0.14490417909E+04  0.14490417944E+04  0.10100000352E+00 0. -1.
        3   -1    0    0  501    0  0.00000000000E+00  0.00000000000E+00 -0.85333593193E+03  0.85333593791E+03  0.10100000352E+00 0.  1.
    10030    2    1    2    0    0  0.00000000000E+00  0.00000000000E+00  0.59570585897E+03  0.23023777323E+04  0.22239779117E+04 0.  0.
        1    1    3    3  502    0 -0.39158705420E+03  0.51853704378E+03  0.12320486735E+04  0.13928980655E+04  0.50400001928E-02 0. -1.
       -1    1    3    3    0  502  0.39158705420E+03 -0.51853704378E+03 -0.63634281455E+03  0.90947966687E+03  0.50400001928E-02 0.  1.
</event>
<event>
 5   0  0.2041718E-05  0.2459087E+04  0.7818609E-02  0.8417708E-01
       -1   -1    0    0    0  501  0.00000000000E+00  0.00000000000E+00  0.12516105821E+04  0.12516105821E+04  0.50400001928E-02 0.  1.
        1   -1    0    0  501    0  0.00000000000E+00  0.00000000000E+00 -0.12078650052E+04  0.12078650053E+04  0.50400001928E-02 0. -1.
    10030    2    1    2    0    0  0.00000000000E+00  0.00000000000E+00  0.43745576804E+02  0.24594755873E+04  0.24590865152E+04 0.  0.
        4    1    3    3  502    0  0.92193693222E+03 -0.76187772713E+02 -0.78819531070E+03  0.12153294798E+04  0.12699999809E+01 0. -1.
       -4    1    3    3    0  502 -0.92193693222E+03  0.76187772713E+02  0.83194088751E+03  0.12441461075E+04  0.12699999809E+01 0.  1.
</event>
<event>
 5   0  0.2063930E-05  0.2430527E+04  0.7818609E-02  0.8428162E-01
        1   -1    0    0  501    0  0.00000000000E+00  0.00000000000E+00  0.19138947313E+04  0.19138947313E+04  0.50400001928E-02 0. -1.
       -1   -1    0    0    0  501  0.00000000000E+00  0.00000000000E+00 -0.77165436488E+03  0.77165436489E+03  0.50400001928E-02 0.  1.
    10030    2    1    2    0    0  0.00000000000E+00  0.00000000000E+00  0.11422403664E+04  0.26855490962E+04  0.24305268757E+04 0.  0.
        3    1    3    3  502    0  0.25129363504E+03  0.51744886208E+03  0.17539385015E+04  0.18458608001E+04  0.10100000352E+00 0. -1.
       -3    1    3    3    0  502 -0.25129363504E+03 -0.51744886208E+03 -0.61169813514E+03  0.83968829610E+03  0.10100000352E+00 0.  1.
</event>
<event>
 5   0  0.2041718E-05  0.2614996E+04  0.7818609E-02  0.8363125E-01
        1   -1    0    0  501    0  0.00000000000E+00  0.00000000000E+00  0.11649124788E+04  0.11649124788E+04  0.50400001928E-02 0. -1.
       -1   -1    0    0    0  501  0.00000000000E+00  0.00000000000E+00 -0.14675364128E+04  0.14675364128E+04  0.50400001928E-02 0.  1.
    10030    2    1    2    0    0  0.00000000000E+00  0.00000000000E+00 -0.30262393393E+03  0.26324488916E+04  0.26149963521E+04 0.  0.
        4    1    3    3  502    0 -0.68389265792E+03  0.68706677373E+03 -0.10345386031E+04  0.14177593778E+04  0.12699999809E+01 0.  1.
       -4    1    3    3    0  502  0.68389265792E+03 -0.68706677373E+03  0.73191466917E+03  0.12146895138E+04  0.12699999809E+01 0. -1.
</event>
<event>
 5   0  0.2041718E-05  0.2472022E+04  0.7818609E-02  0.8413021E-01
        1   -1    0    0  501    0  0.00000000000E+00  0.00000000000E+00  0.20204157421E+04  0.20204157421E+04  0.50400001928E-02 0. -1.
       -1   -1    0    0    0  501  0.00000000000E+00  0.00000000000E+00 -0.75614304739E+03  0.75614304741E+03  0.50400001928E-02 0.  1.
    10030    2    1    2    0    0  0.00000000000E+00  0.00000000000E+00  0.12642726947E+04  0.27765587895E+04  0.24720221005E+04 0.  0.
        4    1    3    3  502    0 -0.48667031727E+03  0.11129794745E+04  0.37563873593E+03  0.12714862883E+04  0.12699999809E+01 0.  1.
       -4    1    3    3    0  502  0.48667031727E+03 -0.11129794745E+04  0.88863395880E+03  0.15050725013E+04  0.12699999809E+01 0. -1.
</event>
<event>
 5   0  0.4959347E-05  0.2293753E+04  0.7818609E-02  0.8480388E-01
       -2   -1    0    0    0  501  0.00000000000E+00  0.00000000000E+00  0.10712046438E+04  0.10712046438E+04  0.25500000920E-02 0. -1.
        2   -1    0    0  501    0  0.00000000000E+00  0.00000000000E+00 -0.12278944730E+04  0.12278944730E+04  0.25500000920E-02 0.  1.
    10030    2    1    2    0    0  0.00000000000E+00  0.00000000000E+00 -0.15668982919E+03  0.22990991168E+04  0.22937534842E+04 0.  0.
        3    1    3    3  502    0 -0.67796152589E+03  0.51278875543E+03  0.69334681408E+03  0.10969566779E+04  0.10100000352E+00 0. -1.
       -3    1    3    3    0  502  0.67796152589E+03 -0.51278875543E+03 -0.85003664328E+03  0.12021424389E+04  0.10100000352E+00 0.  1.
</event>
<event>
 5   0  0.4995256E-05  0.2575812E+04  0.7818609E-02  0.8376464E-01
       -2   -1    0    0    0  501  0.00000000000E+00  0.00000000000E+00  0.85326555949E+03  0.85326555950E+03  0.25500000920E-02 0.  1.
        2   -1    0    0  501    0  0.00000000000E+00  0.00000000000E+00 -0.19439456397E+04  0.19439456397E+04  0.25500000920E-02 0. -1.
    10030    2    1    2    0    0  0.00000000000E+00  0.00000000000E+00 -0.10906800802E+04  0.27972111992E+04  0.25758119993E+04 0.  0.
        2    1    3    3  502    0 -0.60928585496E+03 -0.25354572929E+03  0.65570019228E+03  0.93029964638E+03  0.25500000920E-02 0.  1.
       -2    1    3    3    0  502  0.60928585496E+03  0.25354572929E+03 -0.17463802725E+04  0.18669115528E+04  0.25500000920E-02 0. -1.
</event>
<event>
 5   0  0.4959347E-05  0.2497824E+04  0.7818609E-02  0.8403761E-01
        2   -1    0    0  501    0  0.00000000000E+00  0.00000000000E+00  0.13842824446E+04  0.13842824446E+04  0.25500000920E-02 0. -1.
       -2   -1    0    0    0  501  0.00000000000E+00  0.00000000000E+00 -0.11267799244E+04  0.11267799244E+04  0.25500000920E-02 0.  1.
    10030    2    1    2    0    0  0.00000000000E+00  0.00000000000E+00  0.25750252024E+03  0.25110623691E+04  0.24978243880E+04 0.  0.
        3    1    3    3  502    0 -0.82141520547E+03 -0.15733484192E+03  0.10611929586E+04  0.13511505090E+04  0.10100000352E+00 0. -1.
       -3    1    3    3    0  502  0.82141520547E+03  0.15733484192E+03 -0.80369043837E+03  0.11599118601E+04  0.10100000352E+00 0.  1.
</event>
<event>
 5   0  0.5024070E-05  0.2425394E+04  0.7818609E-02  0.8430057E-01
       -2   -1    0    0    0  501  0.00000000000E+00  0.00000000000E+00  0.10315081884E+04  0.10315081884E+04  0.25500000920E-02 0.  1.
        2   -1    0    0  501    0  0.00000000000E+00  0.00000000000E+00 -0.14257121359E+04  0.14257121359E+04  0.25500000920E-02 0. -1.
    10030    2    1    2    0    0  0.00000000000E+00  0.00000000000E+00 -0.39420394750E+03  0.24572203242E+04  0.24253937762E+04 0.  0.
        5    1    3    3  502    0 -0.14324003241E+03 -0.11816748793E+04 -0.43195940535E+03  0.12662875839E+04  0.46999998093E+01 0. -1.
       -5    1    3    3    0  502  0.14324003241E+03  0.11816748793E+04  0.37755457857E+02  0.11909327403E+04  0.46999998093E+01 0.  1.
</event>
<event>
 5   0  0.2066170E-05  0.2392311E+04  0.7818609E-02  0.8442388E-01
        1   -1    0    0  501    0  0.00000000000E+00  0.00000000000E+00  0.13718296638E+04  0.13718296639E+04  0.50400001928E-02 0. -1.
       -1   -1    0    0    0  501  0.00000000000E+00  0.00000000000E+00 -0.10429781033E+04  0.10429781034E+04  0.50400001928E-02 0.  1.
    10030    2    1    2    0    0  0.00000000000E+00  0.00000000000E+00  0.32885156051E+03  0.24148077672E+04  0.23923112682E+04 0.  0.
        5    1    3    3  502    0 -0.60406391120E+03  0.28832841685E+03 -0.83622867735E+03  0.10711335004E+04  0.46999998093E+01 0.  1.
       -5    1    3    3    0  502  0.60406391120E+03 -0.28832841685E+03  0.11650802379E+04  0.13436742669E+04  0.46999998093E+01 0. -1.
</event>
<event>
 5   0  0.2036578E-05  0.2523727E+04  0.7818609E-02  0.8394581E-01
        1   -1    0    0  501    0  0.00000000000E+00  0.00000000000E+00  0.17926860894E+04  0.17926860894E+04  0.50400001928E-02 0. -1.
       -1   -1    0    0    0  501  0.00000000000E+00  0.00000000000E+00 -0.88821998148E+03  0.88821998150E+03  0.50400001928E-02 0.  1.
    10030    2    1    2    0    0  0.00000000000E+00  0.00000000000E+00  0.90446610796E+03  0.26809060709E+04  0.25237270892E+04 0.  0.
        2    1    3    3  502    0  0.59335579852E+03  0.10666297577E+04  0.79237762783E+03  0.14552087303E+04  0.25500000920E-02 0. -1.
       -2    1    3    3    0  502 -0.59335579852E+03 -0.10666297577E+04  0.11208848012E+03  0.12256973407E+04  0.25500000920E-02 0.  1.
</event>
<event>
 5   0  0.2066170E-05  0.1846400E+04  0.7818609E-02  0.8682006E-01
        1   -1    0    0  501    0  0.00000000000E+00  0.00000000000E+00  0.90875082956E+03  0.90875082957E+03  0.50400001928E-02 0.  1.
       -1   -1    0    0    0  501  0.00000000000E+00  0.00000000000E+00 -0.93787867333E+03  0.93787867334E+03  0.50400001928E-02 0. -1.
    10030    2    1    2    0    0  0.00000000000E+00  0.00000000000E+00 -0.29127843768E+02  0.18466295029E+04  0.18463997643E+04 0.  0.
        5    1    3    3  502    0 -0.77465068387E+03  0.21023587077E+03 -0.47068330475E+03  0.93050935877E+03  0.46999998093E+01 0. -1.
       -5    1    3    3    0  502  0.77465068387E+03 -0.21023587077E+03  0.44155546099E+03  0.91612014415E+03  0.46999998093E+01 0.  1.
</event>
<event>
 5   0  0.4995256E-05  0.2486171E+04  0.7818609E-02  0.8407929E-01
        2   -1    0    0  501    0  0.00000000000E+00  0.00000000000E+00  0.19176289073E+04  0.19176289073E+04  0.25500000920E-02 0. -1.
       -2   -1    0    0    0  501  0.00000000000E+00  0.00000000000E+00 -0.80581866081E+03  0.80581866081E+03  0.25500000920E-02 0.  1.
    10030    2    1    2    0    0  0.00000000000E+00  0.00000000000E+00  0.11118102465E+04  0.27234475681E+04  0.24861706764E+04 0.  0.
        2    1    3    3  502    0  0.93755981849E+03  0.63279251560E+03 -0.88744046376E+01  0.11311602610E+04  0.25500000920E-02 0.  1.
       -2    1    3    3    0  502 -0.93755981849E+03 -0.63279251560E+03  0.11206846511E+04  0.15922873071E+04  0.25500000920E-02 0. -1.
</event>
<event>
 5   0  0.5219468E-05  0.2383485E+04  0.7818609E-02  0.8445713E-01
       -2   -1    0    0    0  501  0.00000000000E+00  0.00000000000E+00  0.62590505727E+03  0.62590505727E+03  0.25500000920E-02 0.  1.
        2   -1    0    0  501    0  0.00000000000E+00  0.00000000000E+00 -0.22691143041E+04  0.22691143041E+04  0.25500000920E-02 0. -1.
    10030    2    1    2    0    0  0.00000000000E+00  0.00000000000E+00 -0.16432092468E+04  0.28950193613E+04  0.23834849431E+04 0.  0.
        1    1    3    3  502    0 -0.49124627538E+03  0.44671216180E+02 -0.21392989912E+04  0.21954313003E+04  0.50400001928E-02 0. -1.
       -1    1    3    3    0  502  0.49124627538E+03 -0.44671216180E+02  0.49608974439E+03  0.69958806104E+03  0.50400001928E-02 0.  1.
</event>
<event>
 5   0  0.5219468E-05  0.2520826E+04  0.7818609E-02  0.8395604E-01
        2   -1    0    0  501    0  0.00000000000E+00  0.00000000000E+00  0.21361396299E+04  0.21361396299E+04  0.25500000920E-02 0.  1.
       -2   -1    0    0    0  501  0.00000000000E+00  0.00000000000E+00 -0.74369703612E+03  0.74369703612E+03  0.25500000920E-02 0. -1.
    10030    2    1    2    0    0  0.00000000000E+00  0.00000000000E+00  0.13924425938E+04  0.28798366660E+04  0.25208258262E+04 0.  0.
        1    1    3    3  502    0 -0.94112824330E+02 -0.31395554876E+03 -0.69416067122E+03  0.76764858352E+03  0.50400001928E-02 0. -1.
       -1    1    3    3    0  502  0.94112824330E+02  0.31395554876E+03  0.20866032650E+04  0.21121880825E+04  0.50400001928E-02 0.  1.
</event>
<event>
 5   0  0.4959347E-05  0.2472674E+04  0.7818609E-02  0.8412786E-01
       -2   -1    0    0    0  501  0.00000000000E+00  0.00000000000E+00  0.74262062800E+03  0.74262062800E+03  0.25500000920E-02 0.  1.
        2   -1    0    0  501    0  0.00000000000E+00  0.00000000000E+00 -0.20582905742E+04  0.20582905742E+04  0.25500000920E-02 0. -1.
    10030    2    1    2    0    0  0.00000000000E+00  0.00000000000E+00 -0.13156699462E+04  0.28009112022E+04  0.24726738878E+04 0.  0.
        3    1    3    3  502    0 -0.25174706645E+03 -0.10903720535E+04 -0.62478957793E+02  0.11207994606E+04  0.10100000352E+00 0. -1.
       -3    1    3    3    0  502  0.25174706645E+03  0.10903720535E+04 -0.12531909884E+04  0.16801117416E+04  0.10100000352E+00 0.  1.
</event>
<event>
 5   0  0.2041718E-05  0.2561251E+04  0.7818609E-02  0.8381484E-01
        1   -1    0    0  501    0  0.00000000000E+00  0.00000000000E+00  0.12933187276E+04  0.12933187276E+04  0.50400001928E-02 0.  1.
       -1   -1    0    0    0  501  0.00000000000E+00  0.00000000000E+00 -0.12680563714E+04  0.12680563714E+04  0.50400001928E-02 0. -1.
    10030    2    1    2    0    0  0.00000000000E+00  0.00000000000E+00  0.25262356246E+02  0.25613750990E+04  0.25612505171E+04 0.  0.
        4    1    3    3  502    0 -0.64181681138E+03  0.89279717964E+03  0.66915668762E+03  0.12871627360E+04  0.12699999809E+01 0.  1.
       -4    1    3    3    0  502  0.64181681138E+03 -0.89279717964E+03 -0.64389433137E+03  0.12742123631E+04  0.12699999809E+01 0. -1.
</event>
<event>
 5   0  0.4959347E-05  0.2509836E+04  0.7818609E-02  0.8399490E-01
       -2   -1    0    0    0  501  0.00000000000E+00  0.00000000000E+00  0.21644692801E+04  0.21644692801E+04  0.25500000920E-02 0. -1.
        2   -1    0    0  501    0  0.00000000000E+00  0.00000000000E+00 -0.72757726807E+03  0.72757726807E+03  0.25500000920E-02 0.  1.
    10030    2    1    2    0    0  0.00000000000E+00  0.00000000000E+00  0.14368920120E+04  0.28920465481E+04  0.25098355688E+04 0.  0.
        3    1    3    3  502    0  0.77467912133E+03  0.70228821235E+03 -0.81112245588E+02  0.10487686498E+04  0.10100000352E+00 0.  1.
       -3    1    3    3    0  502 -0.77467912133E+03 -0.70228821235E+03  0.15180042576E+04  0.18432778983E+04  0.10100000352E+00 0. -1.
</event>
<event>
 5   0  0.2036578E-05  0.2462896E+04  0.7818609E-02  0.8416325E-01
       -1   -1    0    0    0  501  0.00000000000E+00  0.00000000000E+00  0.88077442947E+03  0.88077442949E+03  0.50400001928E-02 0. -1.
        1   -1    0    0  501    0  0.00000000000E+00  0.00000000000E+00 -0.17217393417E+04  0.17217393417E+04  0.50400001928E-02 0.  1.
    10030    2    1    2    0    0  0.00000000000E+00  0.00000000000E+00 -0.84096491222E+03  0.26025137712E+04  0.24628958455E+04 0.  0.
        2    1    3    3  502    0 -0.28966906233E+03  0.66362000878E+03  0.63205797963E+03  0.96114357478E+03  0.25500000920E-02 0. -1.
       -2    1    3    3    0  502  0.28966906233E+03 -0.66362000878E+03 -0.14730228919E+04  0.16413701964E+04  0.25500000920E-02 0.  1.
</event>
<event>
 5   0  0.1692125E-05  0.2469302E+04  0.7818609E-02  0.8414004E-01
       -4   -1    0    0    0  501  0.00000000000E+00  0.00000000000E+00  0.10832905934E+04  0.10832913378E+04  0.12699999809E+01 0. -1.
        4   -1    0    0  501    0  0.00000000000E+00  0.00000000000E+00 -0.14071583158E+04  0.14071588889E+04  0.12699999809E+01 0.  1.
    10030    2    1    2    0    0  0.00000000000E+00  0.00000000000E+00 -0.32386772244E+03  0.24904502267E+04  0.24693019318E+04 0.  0.
        3    1    3    3  502    0 -0.58962747982E+03 -0.64308090608E+01 -0.12559641961E+04  0.13874970243E+04  0.10100000352E+00 0.  1.
       -3    1    3    3    0  502  0.58962747982E+03  0.64308090608E+01  0.93209647370E+03  0.11029532024E+04  0.10100000352E+00 0. -1.
</event>
<event>
 5   0  0.4959347E-05  0.2420772E+04  0.7818609E-02  0.8431767E-01
       -2   -1    0    0    0  501  0.00000000000E+00  0.00000000000E+00  0.10770770775E+04  0.10770770775E+04  0.25500000920E-02 0. -1.
        2   -1    0    0  501    0  0.00000000000E+00  0.00000000000E+00 -0.13601946973E+04  0.13601946973E+04  0.25500000920E-02 0.  1.
    10030    2    1    2    0    0  0.00000000000E+00  0.00000000000E+00 -0.28311761981E+03  0.24372717747E+04  0.24207722151E+04 0.  0.
        3    1    3    3  502    0  0.11171078316E+04  0.11164135317E+03  0.31389691642E+03  0.11657293783E+04  0.10100000352E+00 0. -1.
       -3    1    3    3    0  502 -0.11171078316E+04 -0.11164135317E+03 -0.59701453623E+03  0.12715423964E+04  0.10100000352E+00 0.  1.
</event>
<event>
 5   0  0.2036578E-05  0.2509940E+04  0.7818609E-02  0.8399453E-01
        1   -1    0    0  501    0  0.00000000000E+00  0.00000000000E+00  0.21722935023E+04  0.21722935023E+04  0.50400001928E-02 0.  1.
       -1   -1    0    0    0  501  0.00000000000E+00  0.00000000000E+00 -0.72501675336E+03  0.72501675338E+03  0.50400001928E-02 0. -1.
    10030    2    1    2    0    0  0.00000000000E+00  0.00000000000E+00  0.14472767490E+04  0.28973102557E+04  0.25099395869E+04 0.  0.
        2    1    3    3  502    0  0.12039115458E+04  0.19009195334E+03  0.37847258136E+03  0.12762364420E+04  0.25500000920E-02 0. -1.
       -2    1    3    3    0  502 -0.12039115458E+04 -0.19009195334E+03  0.10688041676E+04  0.16210738138E+04  0.25500000920E-02 0.  1.
</event>
<event>
 5   0  0.2036578E-05  0.2552511E+04  0.7818609E-02  0.8384513E-01
       -1   -1    0    0    0  501  0.00000000000E+00  0.00000000000E+00  0.25283417723E+04  0.25283417723E+04  0.50400001928E-02 0.  1.
        1   -1    0    0  501    0  0.00000000000E+00  0.00000000000E+00 -0.64422771711E+03  0.64422771713E+03  0.50400001928E-02 0. -1.
    10030    2    1    2    0    0  0.00000000000E+00  0.00000000000E+00  0.18841140552E+04  0.31725694895E+04  0.25525108016E+04 0.  0.
        2    1    3    3  502    0  0.63079321387E+03 -0.11051054344E+04  0.10642795209E+04  0.16588697955E+04  0.25500000920E-02 0. -1.
       -2    1    3    3    0  502 -0.63079321387E+03  0.11051054344E+04  0.81983453430E+03  0.15136996940E+04  0.25500000920E-02 0.  1.
</event>
<event>
 5   0  0.1692125E-05  0.1920388E+04  0.7818609E-02  0.8644774E-01
        3   -1    0    0  501    0  0.00000000000E+00  0.00000000000E+00  0.84806583740E+03  0.84806584342E+03  0.10100000352E+00 0.  1.
       -3   -1    0    0    0  501  0.00000000000E+00  0.00000000000E+00 -0.10871477579E+04  0.10871477626E+04  0.10100000352E+00 0. -1.
    10030    2    1    2    0    0  0.00000000000E+00  0.00000000000E+00 -0.23908192054E+03  0.19352136060E+04  0.19203883816E+04 0.  0.
        2    1    3    3  502    0 -0.79063578430E+03  0.20737154096E+03 -0.62728079880E+03  0.10303344602E+04  0.25500000920E-02 0. -1.
       -2    1    3    3    0  502  0.79063578430E+03 -0.20737154096E+03  0.38819887826E+03  0.90487914580E+03  0.25500000920E-02 0.  1.
</event>
<event>
 5   0  0.4995256E-05  0.2568050E+04  0.7818609E-02  0.8379136E-01
       -2   -1    0    0    0  501  0.00000000000E+00  0.00000000000E+00  0.12784909701E+04  0.12784909701E+04  0.25500000920E-02 0.  1.
        2   -1    0    0  501    0  0.00000000000E+00  0.00000000000E+00 -0.12895829912E+04  0.12895829912E+04  0.25500000920E-02 0. -1.
    10030    2    1    2    0    0  0.00000000000E+00  0.00000000000E+00 -0.11092021113E+02  0.25680739613E+04  0.25680500069E+04 0.  0.
        2    1    3    3  502    0 -0.82869887142E+03  0.39643323687E+03 -0.90267147182E+03  0.12879118436E+04  0.25500000920E-02 0. -1.
       -2    1    3    3    0  502  0.82869887142E+03 -0.39643323687E+03  0.89157945071E+03  0.12801621177E+04  0.25500000920E-02 0.  1.
</event>
<event>
 5   0  0.4995256E-05  0.2490346E+04  0.7818609E-02  0.8406433E-01
       -2   -1    0    0    0  501  0.00000000000E+00  0.00000000000E+00  0.73561151066E+03  0.73561151066E+03  0.25500000920E-02 0. -1.
        2   -1    0    0  501    0  0.00000000000E+00  0.00000000000E+00 -0.21077097464E+04  0.21077097464E+04  0.25500000920E-02 0.  1.
    10030    2    1    2    0    0  0.00000000000E+00  0.00000000000E+00 -0.13720982358E+04  0.28433212571E+04  0.24903457998E+04 0.  0.
        2    1    3    3  502    0  0.12310251293E+04  0.14080005568E+03 -0.54524910367E+03  0.13537149293E+04  0.25500000920E-02 0. -1.
       -2    1    3    3    0  502 -0.12310251293E+04 -0.14080005568E+03 -0.82684913209E+03  0.14896063278E+04  0.25500000920E-02 0.  1.
</event>
<event>
 5   0  0.2063930E-05  0.2476575E+04  0.7818609E-02  0.8411379E-01
       -1   -1    0    0    0  501  0.00000000000E+00  0.00000000000E+00  0.12287240098E+04  0.12287240099E+04  0.50400001928E-02 0. -1.
        1   -1    0    0  501    0  0.00000000000E+00  0.00000000000E+00 -0.12479250003E+04  0.12479250003E+04  0.50400001928E-02 0.  1.
    10030    2    1    2    0    0  0.00000000000E+00  0.00000000000E+00 -0.19200990468E+02  0.24766490102E+04  0.24765745782E+04 0.  0.
        3    1    3    3  502    0 -0.13720038625E+02 -0.11609379682E+04 -0.44018305242E+03  0.12416627301E+04  0.10100000352E+00 0.  1.
       -3    1    3    3    0  502  0.13720038625E+02  0.11609379682E+04  0.42098206195E+03  0.12349862801E+04  0.10100000352E+00 0. -1.
</event>
<event>
 5   0  0.4959042E-05  0.2515569E+04  0.7818609E-02  0.8397460E-01
        2   -1    0    0  501    0  0.00000000000E+00  0.00000000000E+00  0.16445071455E+04  0.16445071455E+04  0.25500000920E-02 0. -1.
       -2   -1    0    0    0  501  0.00000000000E+00  0.00000000000E+00 -0.96200384502E+03  0.96200384502E+03  0.25500000920E-02 0.  1.
    10030    2    1    2    0    0  0.00000000000E+00  0.00000000000E+00  0.68250330046E+03  0.26065109905E+04  0.25155692772E+04 0.  0.
        4    1    3    3  502    0 -0.32005788255E+03 -0.81551252058E+03 -0.59388465579E+03  0.10583942161E+04  0.12699999809E+01 0.  1.
       -4    1    3    3    0  502  0.32005788255E+03  0.81551252058E+03  0.12763879562E+04  0.15481167744E+04  0.12699999809E+01 0. -1.
</event>
<event>
 5   0  0.2081874E-05  0.2141993E+04  0.7818609E-02  0.8542967E-01
        1   -1    0    0  501    0  0.00000000000E+00  0.00000000000E+00  0.67160576452E+03  0.67160576454E+03  0.50400001928E-02 0. -1.
       -1   -1    0    0    0  501  0.00000000000E+00  0.00000000000E+00 -0.17078972774E+04  0.17078972774E+04  0.50400001928E-02 0.  1.
    10030    2    1    2    0    0  0.00000000000E+00  0.00000000000E+00 -0.10362915129E+04  0.23795030420E+04  0.21419931436E+04 0.  0.
        1    1    3    3  502    0  0.45260519845E+03 -0.37099671724E+02 -0.15956479981E+04  0.16590118701E+04  0.50400001928E-02 0.  1.
       -1    1    3    3    0  502 -0.45260519845E+03  0.37099671724E+02  0.55935648515E+03  0.72049117191E+03  0.50400001928E-02 0. -1.
</event>
<event>
 5   0  0.4995256E-05  0.2472183E+04  0.7818609E-02  0.8412963E-01
       -2   -1    0    0    0  501  0.00000000000E+00  0.00000000000E+00  0.11462458911E+04  0.11462458911E+04  0.25500000920E-02 0. -1.
        2   -1    0    0  501    0  0.00000000000E+00  0.00000000000E+00 -0.13329790884E+04  0.13329790884E+04  0.25500000920E-02 0.  1.
    10030    2    1    2    0    0  0.00000000000E+00  0.00000000000E+00 -0.18673319735E+03  0.24792249795E+04  0.24721826818E+04 0.  0.
        2    1    3    3  502    0  0.61080727390E+03 -0.53335206849E+03 -0.10289613936E+04  0.13100807244E+04  0.25500000920E-02 0. -1.
       -2    1    3    3    0  502 -0.61080727390E+03  0.53335206849E+03  0.84222819624E+03  0.11691442552E+04  0.25500000920E-02 0.  1.
</event>
<event>
 5   0  0.2066170E-05  0.2478784E+04  0.7818609E-02  0.8410583E-01
        1   -1    0    0  501    0  0.00000000000E+00  0.00000000000E+00  0.12468006542E+04  0.12468006542E+04  0.50400001928E-02 0. -1.
       -1   -1    0    0    0  501  0.00000000000E+00  0.00000000000E+00 -0.12320271358E+04  0.12320271358E+04  0.50400001928E-02 0.  1.
    10030    2    1    2    0    0  0.00000000000E+00  0.00000000000E+00  0.14773518404E+02  0.24788277901E+04  0.24787837655E+04 0.  0.
        5    1    3    3  502    0 -0.52294654510E+03 -0.55194390565E+02 -0.11149302104E+04  0.12327250196E+04  0.46999998093E+01 0.  1.
       -5    1    3    3    0  502  0.52294654510E+03  0.55194390565E+02  0.11297037288E+04  0.12461027705E+04  0.46999998093E+01 0. -1.
</event>
<event>
 5   0  0.5219468E-05  0.2296822E+04  0.7818609E-02  0.8479175E-01
        2   -1    0    0  501    0  0.00000000000E+00  0.00000000000E+00  0.13508873315E+04  0.13508873315E+04  0.25500000920E-02 0.  1.
       -2   -1    0    0    0  501  0.00000000000E+00  0.00000000000E+00 -0.97628290020E+03  0.97628290020E+03  0.25500000920E-02 0. -1.
    10030    2    1    2    0    0  0.00000000000E+00  0.00000000000E+00  0.37460443126E+03  0.23271702317E+04  0.22968223282E+04 0.  0.
        1    1    3    3  502    0  0.21629338955E+03 -0.97359659527E+03  0.76418893194E+03  0.12564465307E+04  0.50400001928E-02 0.  1.
       -1    1    3    3    0  502 -0.21629338955E+03  0.97359659527E+03 -0.38958450068E+03  0.10707237010E+04  0.50400001928E-02 0. -1.
</event>
<event>
 5   0  0.1692125E-05  0.1739314E+04  0.7818609E-02  0.8739254E-01
       -4   -1    0    0    0  501  0.00000000000E+00  0.00000000000E+00  0.72681169086E+03  0.72681280044E+03  0.12699999809E+01 0.  1.
        4   -1    0    0  501    0  0.00000000000E+00  0.00000000000E+00 -0.10405745588E+04  0.10405753338E+04  0.12699999809E+01 0. -1.
    10030    2    1    2    0    0  0.00000000000E+00  0.00000000000E+00 -0.31376286797E+03  0.17673881343E+04  0.17393141407E+04 0.  0.
        5    1    3    3  502    0 -0.25468608032E+03  0.70051457525E+03  0.29834020494E+03  0.80287896817E+03  0.46999998093E+01 0.  1.
       -5    1    3    3    0  502  0.25468608032E+03 -0.70051457525E+03 -0.61210307292E+03  0.96450916611E+03  0.46999998093E+01 0. -1.
</event>
<event>
 5   0  0.2081874E-05  0.2567327E+04  0.7818609E-02  0.8379385E-01
        1   -1    0    0  501    0  0.00000000000E+00  0.00000000000E+00  0.24232189404E+04  0.24232189404E+04  0.50400001928E-02 0.  1.
       -1   -1    0    0    0  501  0.00000000000E+00  0.00000000000E+00 -0.68000121315E+03  0.68000121317E+03  0.50400001928E-02 0. -1.
    10030    2    1    2    0    0  0.00000000000E+00  0.00000000000E+00  0.17432177272E+04  0.31032201536E+04  0.25673268738E+04 0.  0.
        1    1    3    3  502    0  0.71633876633E+03 -0.10894321854E+03 -0.40918469418E+03  0.83213097946E+03  0.50400001928E-02 0. -1.
       -1    1    3    3    0  502 -0.71633876633E+03  0.10894321854E+03  0.21524024214E+04  0.22710891741E+04  0.50400001928E-02 0.  1.
</event>
<event>
 5   0  0.2041718E-05  0.2522170E+04  0.7818609E-02  0.8395130E-01
        1   -1    0    0  501    0  0.00000000000E+00  0.00000000000E+00  0.14281590407E+04  0.14281590407E+04  0.50400001928E-02 0.  1.
       -1   -1    0    0    0  501  0.00000000000E+00  0.00000000000E+00 -0.11135564600E+04  0.11135564600E+04  0.50400001928E-02 0. -1.
    10030    2    1    2    0    0  0.00000000000E+00  0.00000000000E+00  0.31460258071E+03  0.25417155007E+04  0.25221702764E+04 0.  0.
        4    1    3    3  502    0 -0.28906742236E+02  0.11525268261E+04  0.67231981341E+03  0.13346045216E+04  0.12699999809E+01 0. -1.
       -4    1    3    3    0  502  0.28906742236E+02 -0.11525268261E+04 -0.35771723270E+03  0.12071109792E+04  0.12699999809E+01 0.  1.
</event>
<event>
 5   0  0.2041718E-05  0.2483749E+04  0.7818609E-02  0.8408798E-01
        1   -1    0    0  501    0  0.00000000000E+00  0.00000000000E+00  0.89915829895E+03  0.89915829897E+03  0.50400001928E-02 0.  1.
       -1   -1    0    0    0  501  0.00000000000E+00  0.00000000000E+00 -0.17152183804E+04  0.17152183804E+04  0.50400001928E-02 0. -1.
    10030    2    1    2    0    0  0.00000000000E+00  0.00000000000E+00 -0.81606008148E+03  0.26143766794E+04  0.24837494570E+04 0.  0.
        4    1    3    3  502    0  0.36922147877E+03 -0.11770617797E+04 -0.25749715141E+03  0.12602005116E+04  0.12699999809E+01 0. -1.
       -4    1    3    3    0  502 -0.36922147877E+03  0.11770617797E+04 -0.55856293007E+03  0.13541761678E+04  0.12699999809E+01 0.  1.
</event>
<event>
 5   0  0.4995256E-05  0.2535431E+04  0.7818609E-02  0.8390471E-01
        2   -1    0    0  501    0  0.00000000000E+00  0.00000000000E+00  0.16093794263E+04  0.16093794263E+04  0.25500000920E-02 0. -1.
       -2   -1    0    0    0  501  0.00000000000E+00  0.00000000000E+00 -0.99858501990E+03  0.99858501990E+03  0.25500000920E-02 0.  1.
    10030    2    1    2    0    0  0.00000000000E+00  0.00000000000E+00  0.61079440638E+03  0.26079644462E+04  0.25354306825E+04 0.  0.
        2    1    3    3  502    0 -0.12282242116E+03 -0.87747409855E+03  0.12380084288E+04  0.15224030381E+04  0.25500000920E-02 0. -1.
       -2    1    3    3    0  502  0.12282242116E+03  0.87747409855E+03 -0.62721402240E+03  0.10855614081E+04  0.25500000920E-02 0.  1.
</event>
<event>
 5   0  0.4995256E-05  0.2479579E+04  0.7818609E-02  0.8410297E-01
       -2   -1    0    0    0  501  0.00000000000E+00  0.00000000000E+00  0.14837115572E+04  0.14837115572E+04  0.25500000920E-02 0. -1.
        2   -1    0    0  501    0  0.00000000000E+00  0.00000000000E+00 -0.10359678641E+04  0.10359678641E+04  0.25500000920E-02 0.  1.
    10030    2    1    2    0    0  0.00000000000E+00  0.00000000000E+00  0.44774369302E+03  0.25196794213E+04  0.24795785875E+04 0.  0.
        2    1    3    3  502    0 -0.86863351887E+03 -0.86039348957E+03  0.43280922089E+03  0.12969676051E+04  0.25500000920E-02 0. -1.
       -2    1    3    3    0  502  0.86863351887E+03  0.86039348957E+03  0.14934472136E+02  0.12227118162E+04  0.25500000920E-02 0.  1.
</event>
<event>
 5   0  0.4959042E-05  0.2556308E+04  0.7818609E-02  0.8383196E-01
       -2   -1    0    0    0  501  0.00000000000E+00  0.00000000000E+00  0.12606307185E+04  0.12606307185E+04  0.25500000920E-02 0. -1.
        2   -1    0    0  501    0  0.00000000000E+00  0.00000000000E+00 -0.12959205892E+04  0.12959205892E+04  0.25500000920E-02 0.  1.
    10030    2    1    2    0    0  0.00000000000E+00  0.00000000000E+00 -0.35289870782E+02  0.25565513077E+04  0.25563077307E+04 0.  0.
        4    1    3    3  502    0 -0.11795988808E+04  0.38552813007E+03 -0.32359929166E+03  0.12824989564E+04  0.12699999809E+01 0. -1.
       -4    1    3    3    0  502  0.11795988808E+04 -0.38552813007E+03  0.28830942088E+03  0.12740523513E+04  0.12699999809E+01 0.  1.
</event>
<event>
 5   0  0.5024070E-05  0.2524919E+04  0.7818609E-02  0.8394162E-01
       -2   -1    0    0    0  501  0.00000000000E+00  0.00000000000E+00  0.86209720812E+03  0.86209720812E+03  0.25500000920E-02 0.  1.
        2   -1    0    0  501    0  0.00000000000E+00  0.00000000000E+00 -0.18487516923E+04  0.18487516923E+04  0.25500000920E-02 0. -1.
    10030    2    1    2    0    0  0.00000000000E+00  0.00000000000E+00 -0.98665448417E+03  0.27108489004E+04  0.25249187491E+04 0.  0.
        5    1    3    3  502    0 -0.38651784077E+03  0.52651814139E+03  0.66658165781E+03  0.93325805165E+03  0.46999998093E+01 0.  1.
       -5    1    3    3    0  502  0.38651784077E+03 -0.52651814139E+03 -0.16532361420E+04  0.17775908488E+04  0.46999998093E+01 0. -1.
</event>
<event>
 5   0  0.4995256E-05  0.2469093E+04  0.7818609E-02  0.8414080E-01
       -2   -1    0    0    0  501  0.00000000000E+00  0.00000000000E+00  0.68400397443E+03  0.68400397444E+03  0.25500000920E-02 0. -1.
        2   -1    0    0  501    0  0.00000000000E+00  0.00000000000E+00 -0.22282109829E+04  0.22282109829E+04  0.25500000920E-02 0.  1.
    10030    2    1    2    0    0  0.00000000000E+00  0.00000000000E+00 -0.15442070085E+04  0.29122149574E+04  0.24690930871E+04 0.  0.
        2    1    3    3  502    0 -0.94684856745E+03 -0.59362058930E+03 -0.13908435850E+04  0.17841954746E+04  0.25500000920E-02 0.  1.
       -2    1    3    3    0  502  0.94684856745E+03  0.59362058930E+03 -0.15336342346E+03  0.11280194827E+04  0.25500000920E-02 0. -1.
</event>
<event>
 5   0  0.5219468E-05  0.2484604E+04  0.7818609E-02  0.8408491E-01
        2   -1    0    0  501    0  0.00000000000E+00  0.00000000000E+00  0.16211177064E+04  0.16211177064E+04  0.25500000920E-02 0. -1.
       -2   -1    0    0    0  501  0.00000000000E+00  0.00000000000E+00 -0.95200637233E+03  0.95200637234E+03  0.25500000920E-02 0.  1.
    10030    2    1    2    0    0  0.00000000000E+00  0.00000000000E+00  0.66911133410E+03  0.25731240788E+04  0.24846041027E+04 0.  0.
        1    1    3    3  502    0  0.62591394812E+03  0.10534144276E+04  0.12265870926E+03  0.12314606716E+04  0.50400001928E-02 0. -1.
       -1    1    3    3    0  502 -0.62591394812E+03 -0.10534144276E+04  0.54645262484E+03  0.13416634071E+04  0.50400001928E-02 0.  1.
</event>
<event>
 5   0  0.4959042E-05  0.2472784E+04  0.7818609E-02  0.8412746E-01
        2   -1    0    0  501    0  0.00000000000E+00  0.00000000000E+00  0.25975237866E+04  0.25975237866E+04  0.25500000920E-02 0.  1.
       -2   -1    0    0    0  501  0.00000000000E+00  0.00000000000E+00 -0.58850869552E+03  0.58850869553E+03  0.25500000920E-02 0. -1.
    10030    2    1    2    0    0  0.00000000000E+00  0.00000000000E+00  0.20090150911E+04  0.31860324821E+04  0.24727841275E+04 0.  0.
        4    1    3    3  502    0  0.10011136735E+04  0.60575131627E+03  0.15190781691E+04  0.19174888113E+04  0.12699999809E+01 0. -1.
       -4    1    3    3    0  502 -0.10011136735E+04 -0.60575131627E+03  0.48993692195E+03  0.12685436709E+04  0.12699999809E+01 0.  1.
</event>
<event>
 5   0  0.4959042E-05  0.2443303E+04  0.7818609E-02  0.8423467E-01
       -2   -1    0    0    0  501  0.00000000000E+00  0.00000000000E+00  0.87448854168E+03  0.87448854169E+03  0.25500000920E-02 0. -1.
        2   -1    0    0  501    0  0.00000000000E+00  0.00000000000E+00 -0.17066350888E+04  0.17066350888E+04  0.25500000920E-02 0.  1.
    10030    2    1    2    0    0  0.00000000000E+00  0.00000000000E+00 -0.83214654715E+03  0.25811236305E+04  0.24433033623E+04 0.  0.
        4    1    3    3  502    0  0.79988425547E+03  0.88984290652E+03 -0.15559655894E+03  0.12065849007E+04  0.12699999809E+01 0.  1.
       -4    1    3    3    0  502 -0.79988425547E+03 -0.88984290652E+03 -0.67654998821E+03  0.13745387299E+04  0.12699999809E+01 0. -1.
</event>
<event>
 5   0  0.5024070E-05  0.2200479E+04  0.7818609E-02  0.8518229E-01
        2   -1    0    0  501    0  0.00000000000E+00  0.00000000000E+00  0.15449469993E+04  0.15449469993E+04  0.25500000920E-02 0.  1.
       -2   -1    0    0    0  501  0.00000000000E+00  0.00000000000E+00 -0.78353936054E+03  0.78353936055E+03  0.25500000920E-02 0. -1.
    10030    2    1    2    0    0  0.00000000000E+00  0.00000000000E+00  0.76140763877E+03  0.23284863599E+04  0.22004788424E+04 0.  0.
        5    1    3    3  502    0 -0.13059620805E+03 -0.31603008655E+03 -0.72587066120E+03  0.80239684194E+03  0.46999998093E+01 0. -1.
       -5    1    3    3    0  502  0.13059620805E+03  0.31603008655E+03  0.14872783000E+04  0.15260895179E+04  0.46999998093E+01 0.  1.
</event>
<event>
 5   0  0.2041718E-05  0.2485844E+04  0.7818609E-02  0.8408046E-01
       -1   -1    0    0    0  501  0.00000000000E+00  0.00000000000E+00  0.15089198462E+04  0.15089198462E+04  0.50400001928E-02 0.  1.
        1   -1    0    0  501    0  0.00000000000E+00  0.00000000000E+00 -0.10238148202E+04  0.10238148202E+04  0.50400001928E-02 0. -1.
    10030    2    1    2    0    0  0.00000000000E+00  0.00000000000E+00  0.48510502598E+03  0.25327346665E+04  0.24858435197E+04 0.  0.
        4    1    3    3  502    0 -0.82585890392E+03 -0.92693408225E+03  0.30371118619E+03  0.12780813040E+04  0.12699999809E+01 0.  1.
       -4    1    3    3    0  502  0.82585890392E+03  0.92693408225E+03  0.18139383980E+03  0.12546533625E+04  0.12699999809E+01 0. -1.
</event>
<event>
 5   0  0.5024070E-05  0.2449626E+04  0.7818609E-02  0.8421155E-01
       -2   -1    0    0    0  501  0.00000000000E+00  0.00000000000E+00  0.11305845170E+04  0.11305845170E+04  0.25500000920E-02 0.  1.
        2   -1    0    0  501    0  0.00000000000E+00  0.00000000000E+00 -0.13268949251E+04  0.13268949251E+04  0.25500000920E-02 0. -1.
    10030    2    1    2    0    0  0.00000000000E+00  0.00000000000E+00 -0.19631040813E+03  0.24574794422E+04  0.24496259780E+04 0.  0.
        5    1    3    3  502    0 -0.11482421756E+03 -0.10643180293E+04 -0.69519957296E+03  0.12764333138E+04  0.46999998093E+01 0. -1.
       -5    1    3    3    0  502  0.11482421756E+03  0.10643180293E+04  0.49888916483E+03  0.11810461283E+04  0.46999998093E+01 0.  1.
</event>
<event>
 5   0  0.4959347E-05  0.2506654E+04  0.7818609E-02  0.8400619E-01
        2   -1    0    0  501    0  0.00000000000E+00  0.00000000000E+00  0.19989301912E+04  0.19989301912E+04  0.25500000920E-02 0.  1.
       -2   -1    0    0    0  501  0.00000000000E+00  0.00000000000E+00 -0.78583460030E+03  0.78583460030E+03  0.25500000920E-02 0. -1.
    10030    2    1    2    0    0  0.00000000000E+00  0.00000000000E+00  0.12130955909E+04  0.27847647915E+04  0.25066539512E+04 0.  0.
        3    1    3    3  502    0  0.98920124199E+03 -0.38043864457E+03 -0.13668942997E+03  0.10686143691E+04  0.10100000352E+00 0. -1.
       -3    1    3    3    0  502 -0.98920124199E+03  0.38043864457E+03  0.13497850208E+04  0.17161504223E+04  0.10100000352E+00 0.  1.
</event>
<event>
 5   0  0.2036578E-05  0.2555276E+04  0.7818609E-02  0.8383554E-01
       -1   -1    0    0    0  501  0.00000000000E+00  0.00000000000E+00  0.16269426082E+04  0.16269426082E+04  0.50400001928E-02 0. -1.
        1   -1    0    0  501    0  0.00000000000E+00  0.00000000000E+00 -0.10033290049E+04  0.10033290049E+04  0.50400001928E-02 0.  1.
    10030    2    1    2    0    0  0.00000000000E+00  0.00000000000E+00  0.62361360333E+03  0.26302716131E+04  0.25552758819E+04 0.  0.
        2    1    3    3  502    0  0.13509919656E+03  0.80444985901E+03  0.13240123297E+04  0.15551205798E+04  0.25500000920E-02 0. -1.
       -2    1    3    3    0  502 -0.13509919656E+03 -0.80444985901E+03 -0.70039872636E+03  0.10751510333E+04  0.25500000920E-02 0.  1.
</event>
<event>
 5   0  0.2081874E-05  0.1799653E+04  0.7818609E-02  0.8706484E-01
        1   -1    0    0  501    0  0.00000000000E+00  0.00000000000E+00  0.15623504528E+04  0.15623504528E+04  0.50400001928E-02 0.  1.
       -1   -1    0    0    0  501  0.00000000000E+00  0.00000000000E+00 -0.51824985939E+03  0.51824985942E+03  0.50400001928E-02 0. -1.
    10030    2    1    2    0    0  0.00000000000E+00  0.00000000000E+00  0.10441005934E+04  0.20806003122E+04  0.17996531916E+04 0.  0.
        1    1    3    3  502    0  0.43570783143E+03  0.74690372907E+03  0.23422394304E+03  0.89586123389E+03  0.50400001928E-02 0. -1.
       -1    1    3    3    0  502 -0.43570783143E+03 -0.74690372907E+03  0.80987665033E+03  0.11847390783E+04  0.50400001928E-02 0.  1.
</event>
<event>
 5   0  0.2066170E-05  0.2526520E+04  0.7818609E-02  0.8393598E-01
        1   -1    0    0  501    0  0.00000000000E+00  0.00000000000E+00  0.86359169763E+03  0.86359169765E+03  0.50400001928E-02 0.  1.
       -1   -1    0    0    0  501  0.00000000000E+00  0.00000000000E+00 -0.18478932430E+04  0.18478932430E+04  0.50400001928E-02 0. -1.
    10030    2    1    2    0    0  0.00000000000E+00  0.00000000000E+00 -0.98430154538E+03  0.27114849407E+04  0.25265195529E+04 0.  0.
        5    1    3    3  502    0 -0.10129242156E+04 -0.55742501930E+03 -0.10383976284E+04  0.15540366287E+04  0.46999998093E+01 0. -1.
       -5    1    3    3    0  502  0.10129242156E+04  0.55742501930E+03  0.54096083006E+02  0.11574483120E+04  0.46999998093E+01 0.  1.
</event>
<event>
 5   0  0.2066170E-05  0.2495992E+04  0.7818609E-02  0.8404415E-01
        1   -1    0    0  501    0  0.00000000000E+00  0.00000000000E+00  0.13526873039E+04  0.13526873039E+04  0.50400001928E-02 0. -1.
       -1   -1    0    0    0  501  0.00000000000E+00  0.00000000000E+00 -0.11514068239E+04  0.11514068239E+04  0.50400001928E-02 0.  1.
    10030    2    1    2    0    0  0.00000000000E+00  0.00000000000E+00  0.20128048000E+03  0.25040941278E+04  0.24959915002E+04 0.  0.
        5    1    3    3  502    0 -0.96985122614E+03  0.86465413781E+02  0.88380464554E+03  0.13149982548E+04  0.46999998093E+01 0. -1.
       -5    1    3    3    0  502  0.96985122614E+03 -0.86465413781E+02 -0.68252416554E+03  0.11890958730E+04  0.46999998093E+01 0.  1.
</event>
<event>
 5   0  0.5219468E-05  0.2321999E+04  0.7818609E-02  0.8469297E-01
        2   -1    0    0  501    0  0.00000000000E+00  0.00000000000E+00  0.19895992801E+04  0.19895992801E+04  0.25500000920E-02 0. -1.
       -2   -1    0    0    0  501  0.00000000000E+00  0.00000000000E+00 -0.67748322202E+03  0.67748322203E+03  0.25500000920E-02 0.  1.
    10030    2    1    2    0    0  0.00000000000E+00  0.00000000000E+00  0.13121160581E+04  0.26670825022E+04  0.23219992514E+04 0.  0.
        1    1    3    3  502    0 -0.22269253645E+03 -0.32453332547E+03 -0.59851440464E+03  0.71633325884E+03  0.50400001928E-02 0.  1.
       -1    1    3    3    0  502  0.22269253645E+03  0.32453332547E+03  0.19106304628E+04  0.19507492433E+04  0.50400001928E-02 0. -1.
</event>
<event>
 5   0  0.5219468E-05  0.2537339E+04  0.7818609E-02  0.8389803E-01
       -2   -1    0    0    0  501  0.00000000000E+00  0.00000000000E+00  0.46387603984E+03  0.46387603984E+03  0.25500000920E-02 0. -1.
        2   -1    0    0  501    0  0.00000000000E+00  0.00000000000E+00 -0.34697247906E+04  0.34697247906E+04  0.25500000920E-02 0.  1.
    10030    2    1    2    0    0  0.00000000000E+00  0.00000000000E+00 -0.30058487508E+04  0.39336008305E+04  0.25373389172E+04 0.  0.
        1    1    3    3  502    0  0.92286598661E+03  0.60853405909E+03 -0.24680030382E+04  0.27042622518E+04  0.50400001928E-02 0.  1.
       -1    1    3    3    0  502 -0.92286598661E+03 -0.60853405909E+03 -0.53784571264E+03  0.12293385786E+04  0.50400001928E-02 0. -1.
</event>
<event>
 5   0  0.2041718E-05  0.1662403E+04  0.7818609E-02  0.8783103E-01
       -1   -1    0    0    0  501  0.00000000000E+00  0.00000000000E+00  0.76618117816E+03  0.76618117817E+03  0.50400001928E-02 0.  1.
        1   -1    0    0  501    0  0.00000000000E+00  0.00000000000E+00 -0.90173963311E+03  0.90173963312E+03  0.50400001928E-02 0. -1.
    10030    2    1    2    0    0  0.00000000000E+00  0.00000000000E+00 -0.13555845495E+03  0.16679208113E+04  0.16624030011E+04 0.  0.
        4    1    3    3  502    0  0.57253055065E+03 -0.33223527442E+02 -0.67144002223E+03  0.88302228203E+03  0.12699999809E+01 0. -1.
       -4    1    3    3    0  502 -0.57253055065E+03  0.33223527442E+02  0.53588156728E+03  0.78489852927E+03  0.12699999809E+01 0.  1.
</event>
<event>
 5   0  0.4995256E-05  0.2391872E+04  0.7818609E-02  0.8442553E-01
        2   -1    0    0  501    0  0.00000000000E+00  0.00000000000E+00  0.19209856385E+04  0.19209856385E+04  0.25500000920E-02 0. -1.
       -2   -1    0    0    0  501  0.00000000000E+00  0.00000000000E+00 -0.74454613865E+03  0.74454613865E+03  0.25500000920E-02 0.  1.
    10030    2    1    2    0    0  0.00000000000E+00  0.00000000000E+00  0.11764394999E+04  0.26655317772E+04  0.23918716016E+04 0.  0.
        2    1    3    3  502    0  0.36341670768E+03  0.11194233665E+04  0.35160168915E+03  0.12283338816E+04  0.25500000920E-02 0.  1.
       -2    1    3    3    0  502 -0.36341670768E+03 -0.11194233665E+04  0.82483781075E+03  0.14371978956E+04  0.25500000920E-02 0. -1.
</event>
<event>
 5   0  0.5024070E-05  0.2460307E+04  0.7818609E-02  0.8417264E-01
       -2   -1    0    0    0  501  0.00000000000E+00  0.00000000000E+00  0.11189744398E+04  0.11189744398E+04  0.25500000920E-02 0.  1.
        2   -1    0    0  501    0  0.00000000000E+00  0.00000000000E+00 -0.13523789026E+04  0.13523789026E+04  0.25500000920E-02 0. -1.
    10030    2    1    2    0    0  0.00000000000E+00  0.00000000000E+00 -0.23340446282E+03  0.24713533423E+04  0.24603068303E+04 0.  0.
        5    1    3    3  502    0  0.11740756376E+04 -0.36049619824E+03 -0.46789280467E+02  0.12290738133E+04  0.46999998093E+01 0.  1.
       -5    1    3    3    0  502 -0.11740756376E+04  0.36049619824E+03 -0.18661518235E+03  0.12422795290E+04  0.46999998093E+01 0. -1.
</event>
<event>
 5   0  0.5024070E-05  0.2678125E+04  0.7818609E-02  0.8342138E-01
       -2   -1    0    0    0  501  0.00000000000E+00  0.00000000000E+00  0.12248378158E+04  0.12248378158E+04  0.25500000920E-02 0.  1.
        2   -1    0    0  501    0  0.00000000000E+00  0.00000000000E+00 -0.14639395567E+04  0.14639395567E+04  0.25500000920E-02 0. -1.
    10030    2    1    2    0    0  0.00000000000E+00  0.00000000000E+00 -0.23910174088E+03  0.26887773724E+04  0.26781251121E+04 0.  0.
        5    1    3    3  502    0  0.10520476349E+04 -0.76878734207E+03  0.19026727609E+03  0.13168378525E+04  0.46999998093E+01 0.  1.
       -5    1    3    3    0  502 -0.10520476349E+04  0.76878734207E+03 -0.42936901697E+03  0.13719395199E+04  0.46999998093E+01 0. -1.
</event>
<event>
 5   0  0.2081874E-05  0.1929015E+04  0.7818609E-02  0.8640547E-01
        1   -1    0    0  501    0  0.00000000000E+00  0.00000000000E+00  0.80849968822E+03  0.80849968823E+03  0.50400001928E-02 0.  1.
       -1   -1    0    0    0  501  0.00000000000E+00  0.00000000000E+00 -0.11506190579E+04  0.11506190579E+04  0.50400001928E-02 0. -1.
    10030    2    1    2    0    0  0.00000000000E+00  0.00000000000E+00 -0.34211936964E+03  0.19591187461E+04  0.19290154479E+04 0.  0.
        1    1    3    3  502    0 -0.25666673620E+03  0.88890834501E+03 -0.44778058404E+03  0.10278829266E+04  0.50400001928E-02 0. -1.
       -1    1    3    3    0  502  0.25666673620E+03 -0.88890834501E+03  0.10566121441E+03  0.93123581951E+03  0.50400001928E-02 0.  1.
</event>
<event>
 5   0  0.2041718E-05  0.2460098E+04  0.7818609E-02  0.8417340E-01
       -1   -1    0    0    0  501  0.00000000000E+00  0.00000000000E+00  0.89852901035E+03  0.89852901036E+03  0.50400001928E-02 0. -1.
        1   -1    0    0  501    0  0.00000000000E+00  0.00000000000E+00 -0.16838860234E+04  0.16838860234E+04  0.50400001928E-02 0.  1.
    10030    2    1    2    0    0  0.00000000000E+00  0.00000000000E+00 -0.78535701307E+03  0.25824150338E+04  0.24600979185E+04 0.  0.
        4    1    3    3  502    0 -0.61719164643E+03  0.10491768533E+04 -0.20690102907E+03  0.12347093774E+04  0.12699999809E+01 0.  1.
       -4    1    3    3    0  502  0.61719164643E+03 -0.10491768533E+04 -0.57845598400E+03  0.13477056564E+04  0.12699999809E+01 0. -1.
</event>
<event>
 5   0  0.4959347E-05  0.2455197E+04  0.7818609E-02  0.8419123E-01
        2   -1    0    0  501    0  0.00000000000E+00  0.00000000000E+00  0.16222190695E+04  0.16222190695E+04  0.25500000920E-02 0.  1.
       -2   -1    0    0    0  501  0.00000000000E+00  0.00000000000E+00 -0.92897311476E+03  0.92897311476E+03  0.25500000920E-02 0. -1.
    10030    2    1    2    0    0  0.00000000000E+00  0.00000000000E+00  0.69324595470E+03  0.25511921842E+04  0.24551968571E+04 0.  0.
        3    1    3    3  502    0  0.87504791933E+03 -0.55017012757E+03  0.10347872020E+04  0.14625937899E+04  0.10100000352E+00 0.  1.
       -3    1    3    3    0  502 -0.87504791933E+03  0.55017012757E+03 -0.34154124735E+03  0.10885983944E+04  0.10100000352E+00 0. -1.
</event>
<event>
 5   0  0.5219468E-05  0.2575574E+04  0.7818609E-02  0.8376546E-01
        2   -1    0    0  501    0  0.00000000000E+00  0.00000000000E+00  0.97584425450E+03  0.97584425450E+03  0.25500000920E-02 0.  1.
       -2   -1    0    0    0  501  0.00000000000E+00  0.00000000000E+00 -0.16994467561E+04  0.16994467561E+04  0.25500000920E-02 0. -1.
    10030    2    1    2    0    0  0.00000000000E+00  0.00000000000E+00 -0.72360250165E+03  0.26752910107E+04  0.25755739965E+04 0.  0.
        1    1    3    3  502    0  0.38461192240E+03 -0.17498804145E+03  0.90178701408E+03  0.99587497423E+03  0.50400001928E-02 0.  1.
       -1    1    3    3    0  502 -0.38461192240E+03  0.17498804145E+03 -0.16253895157E+04  0.16794160364E+04  0.50400001928E-02 0. -1.
</event>
<event>
 5   0  0.5024070E-05  0.2244188E+04  0.7818609E-02  0.8500258E-01
       -2   -1    0    0    0  501  0.00000000000E+00  0.00000000000E+00  0.10952805507E+04  0.10952805507E+04  0.25500000920E-02 0.  1.
        2   -1    0    0  501    0  0.00000000000E+00  0.00000000000E+00 -0.11495643305E+04  0.11495643305E+04  0.25500000920E-02 0. -1.
    10030    2    1    2    0    0  0.00000000000E+00  0.00000000000E+00 -0.54283779775E+02  0.22448448812E+04  0.22441884528E+04 0.  0.
        5    1    3    3  502    0 -0.52757013393E+03 -0.92218675810E+03 -0.38823875437E+03  0.11311543146E+04  0.46999998093E+01 0. -1.
       -5    1    3    3    0  502  0.52757013393E+03  0.92218675810E+03  0.33395497460E+03  0.11136905666E+04  0.46999998093E+01 0.  1.
</event>
<event>
 5   0  0.2036578E-05  0.2507207E+04  0.7818609E-02  0.8400423E-01
        1   -1    0    0  501    0  0.00000000000E+00  0.00000000000E+00  0.11042762768E+04  0.11042762768E+04  0.50400001928E-02 0. -1.
       -1   -1    0    0    0  501  0.00000000000E+00  0.00000000000E+00 -0.14231231658E+04  0.14231231658E+04  0.50400001928E-02 0.  1.
    10030    2    1    2    0    0  0.00000000000E+00  0.00000000000E+00 -0.31884688902E+03  0.25273994426E+04  0.25072065339E+04 0.  0.
        2    1    3    3  502    0 -0.27278738987E+03 -0.24287895935E+03 -0.13682974411E+04  0.14162065655E+04  0.25500000920E-02 0.  1.
       -2    1    3    3    0  502  0.27278738987E+03  0.24287895935E+03  0.10494505520E+04  0.11111928771E+04  0.25500000920E-02 0. -1.
</event>
<event>
 5   0  0.4959347E-05  0.2446387E+04  0.7818609E-02  0.8422338E-01
       -2   -1    0    0    0  501  0.00000000000E+00  0.00000000000E+00  0.86693392524E+03  0.86693392524E+03  0.25500000920E-02 0. -1.
        2   -1    0    0  501    0  0.00000000000E+00  0.00000000000E+00 -0.17258557525E+04  0.17258557525E+04  0.25500000920E-02 0.  1.
    10030    2    1    2    0    0  0.00000000000E+00  0.00000000000E+00 -0.85892182730E+03  0.25927896778E+04  0.24463874607E+04 0.  0.
        3    1    3    3  502    0  0.51866467285E+03 -0.64638672249E+03  0.52403027947E+03  0.98052872567E+03  0.10100000352E+00 0. -1.
       -3    1    3    3    0  502 -0.51866467285E+03  0.64638672249E+03 -0.13829521068E+04  0.16122609521E+04  0.10100000352E+00 0.  1.
</event>
<event>
 5   0  0.4959042E-05  0.2447173E+04  0.7818609E-02  0.8422051E-01
        2   -1    0    0  501    0  0.00000000000E+00  0.00000000000E+00  0.16182819713E+04  0.16182819713E+04  0.25500000920E-02 0.  1.
       -2   -1    0    0    0  501  0.00000000000E+00  0.00000000000E+00 -0.92515638053E+03  0.92515638054E+03  0.25500000920E-02 0. -1.
    10030    2    1    2    0    0  0.00000000000E+00  0.00000000000E+00  0.69312559072E+03  0.25434383518E+04  0.24471729740E+04 0.  0.
        4    1    3    3  502    0  0.10306656052E+04 -0.51322195230E+03  0.77697136218E+03  0.13890120491E+04  0.12699999809E+01 0.  1.
       -4    1    3    3    0  502 -0.10306656052E+04  0.51322195230E+03 -0.83845771462E+02  0.11544263027E+04  0.12699999809E+01 0. -1.
</event>
<event>
 5   0  0.1692125E-05  0.2449049E+04  0.7818609E-02  0.8421365E-01
       -3   -1    0    0    0  501  0.00000000000E+00  0.00000000000E+00  0.81985249382E+03  0.81985250004E+03  0.10100000352E+00 0.  1.
        3   -1    0    0  501    0  0.00000000000E+00  0.00000000000E+00 -0.18289395965E+04  0.18289395993E+04  0.10100000352E+00 0. -1.
    10030    2    1    2    0    0  0.00000000000E+00  0.00000000000E+00 -0.10090871027E+04  0.26487920994E+04  0.24490493676E+04 0.  0.
        1    1    3    3  502    0  0.20883130042E+03  0.70611988549E+03  0.55364208574E+03  0.92126834519E+03  0.50400001928E-02 0.  1.
       -1    1    3    3    0  502 -0.20883130042E+03 -0.70611988549E+03 -0.15627291885E+04  0.17275237542E+04  0.50400001928E-02 0. -1.
</event>
<event>
 5   0  0.4959347E-05  0.2473310E+04  0.7818609E-02  0.8412556E-01
        2   -1    0    0  501    0  0.00000000000E+00  0.00000000000E+00  0.18854883372E+04  0.18854883372E+04  0.25500000920E-02 0. -1.
       -2   -1    0    0    0  501  0.00000000000E+00  0.00000000000E+00 -0.81109756852E+03  0.81109756853E+03  0.25500000920E-02 0.  1.
    10030    2    1    2    0    0  0.00000000000E+00  0.00000000000E+00  0.10743907687E+04  0.26965859057E+04  0.24733095284E+04 0.  0.
        3    1    3    3  502    0 -0.75759125110E+02  0.12326637209E+04  0.46725021247E+03  0.13204249562E+04  0.10100000352E+00 0.  1.
       -3    1    3    3    0  502  0.75759125110E+02 -0.12326637209E+04  0.60714055619E+03  0.13761609495E+04  0.10100000352E+00 0. -1.
</event>
<event>
 5   0  0.4959042E-05  0.2530773E+04  0.7818609E-02  0.8392104E-01
       -2   -1    0    0    0  501  0.00000000000E+00  0.00000000000E+00  0.13373271114E+04  0.13373271114E+04  0.25500000920E-02 0.  1.
        2   -1    0    0  501    0  0.00000000000E+00  0.00000000000E+00 -0.11973161615E+04  0.11973161615E+04  0.25500000920E-02 0. -1.
    10030    2    1    2    0    0  0.00000000000E+00  0.00000000000E+00  0.14001094994E+03  0.25346432729E+04  0.25307732918E+04 0.  0.
        4    1    3    3  502    0  0.85463847267E+03 -0.43283760707E+03  0.89797784563E+03  0.13130579337E+04  0.12699999809E+01 0.  1.
       -4    1    3    3    0  502 -0.85463847267E+03  0.43283760707E+03 -0.75796689569E+03  0.12215853392E+04  0.12699999809E+01 0. -1.
</event>
<event>
 5   0  0.5219468E-05  0.2398811E+04  0.7818609E-02  0.8439949E-01
       -2   -1    0    0    0  501  0.00000000000E+00  0.00000000000E+00  0.10567657613E+04  0.10567657613E+04  0.25500000920E-02 0.  1.
        2   -1    0    0  501    0  0.00000000000E+00  0.00000000000E+00 -0.13612985774E+04  0.13612985774E+04  0.25500000920E-02 0. -1.
    10030    2    1    2    0    0  0.00000000000E+00  0.00000000000E+00 -0.30453281612E+03  0.24180643387E+04  0.23988111451E+04 0.  0.
        1    1    3    3  502    0  0.83645478137E+03  0.71705164364E+03 -0.63015380076E+03  0.12692176620E+04  0.50400001928E-02 0. -1.
       -1    1    3    3    0  502 -0.83645478137E+03 -0.71705164364E+03  0.32562098464E+03  0.11488466767E+04  0.50400001928E-02 0.  1.
</event>
<event>
 5   0  0.2041718E-05  0.2516962E+04  0.7818609E-02  0.8396968E-01
        1   -1    0    0  501    0  0.00000000000E+00  0.00000000000E+00  0.15623402228E+04  0.15623402228E+04  0.50400001928E-02 0.  1.
       -1   -1    0    0    0  501  0.00000000000E+00  0.00000000000E+00 -0.10137193840E+04  0.10137193841E+04  0.50400001928E-02 0. -1.
    10030    2    1    2    0    0  0.00000000000E+00  0.00000000000E+00  0.54862083880E+03  0.25760596069E+04  0.25169621121E+04 0.  0.
        4    1    3    3  502    0  0.93914556056E+03 -0.66521944003E+03 -0.24682235278E+03  0.11770446780E+04  0.12699999809E+01 0. -1.
       -4    1    3    3    0  502 -0.93914556056E+03  0.66521944003E+03  0.79544319157E+03  0.13990149289E+04  0.12699999809E+01 0.  1.
</event>
<event>
 5   0  0.4959347E-05  0.2499267E+04  0.7818609E-02  0.8403247E-01
       -2   -1    0    0    0  501  0.00000000000E+00  0.00000000000E+00  0.10860951668E+04  0.10860951668E+04  0.25500000920E-02 0.  1.
        2   -1    0    0  501    0  0.00000000000E+00  0.00000000000E+00 -0.14377960977E+04  0.14377960977E+04  0.25500000920E-02 0. -1.
    10030    2    1    2    0    0  0.00000000000E+00  0.00000000000E+00 -0.35170093088E+03  0.25238912645E+04  0.24992666064E+04 0.  0.
        3    1    3    3  502    0  0.11238096577E+04 -0.49296237209E+03  0.62319265983E+02  0.12287569931E+04  0.10100000352E+00 0.  1.
       -3    1    3    3    0  502 -0.11238096577E+04  0.49296237209E+03 -0.41402019687E+03  0.12951342713E+04  0.10100000352E+00 0. -1.
</event>
<event>
 5   0  0.5024070E-05  0.2557412E+04  0.7818609E-02  0.8382813E-01
        2   -1    0    0  501    0  0.00000000000E+00  0.00000000000E+00  0.14861547610E+04  0.14861547611E+04  0.25500000920E-02 0.  1.
       -2   -1    0    0    0  501  0.00000000000E+00  0.00000000000E+00 -0.11002147494E+04  0.11002147494E+04  0.25500000920E-02 0. -1.
    10030    2    1    2    0    0  0.00000000000E+00  0.00000000000E+00  0.38594001162E+03  0.25863695105E+04  0.25574122765E+04 0.  0.
        5    1    3    3  502    0  0.49764531920E+03  0.35023660434E+03 -0.94437519670E+03  0.11234692452E+04  0.46999998093E+01 0. -1.
       -5    1    3    3    0  502 -0.49764531920E+03 -0.35023660434E+03  0.13303152083E+04  0.14629002653E+04  0.46999998093E+01 0.  1.
</event>
<event>
 5   0  0.2063930E-05  0.2522638E+04  0.7818609E-02  0.8394965E-01
        1   -1    0    0  501    0  0.00000000000E+00  0.00000000000E+00  0.14074626090E+04  0.14074626090E+04  0.50400001928E-02 0.  1.
       -1   -1    0    0    0  501  0.00000000000E+00  0.00000000000E+00 -0.11303499309E+04  0.11303499309E+04  0.50400001928E-02 0. -1.
    10030    2    1    2    0    0  0.00000000000E+00  0.00000000000E+00  0.27711267810E+03  0.25378125399E+04  0.25226377171E+04 0.  0.
        3    1    3    3  502    0 -0.32529329375E+03 -0.91520942379E+03  0.94807144111E+03  0.13573000715E+04  0.10100000352E+00 0.  1.
       -3    1    3    3    0  502  0.32529329375E+03  0.91520942379E+03 -0.67095876301E+03  0.11805124685E+04  0.10100000352E+00 0. -1.
</event>
<event>
 5   0  0.2041718E-05  0.2507048E+04  0.7818609E-02  0.8400479E-01
        1   -1    0    0  501    0  0.00000000000E+00  0.00000000000E+00  0.16062648134E+04  0.16062648134E+04  0.50400001928E-02 0.  1.
       -1   -1    0    0    0  501  0.00000000000E+00  0.00000000000E+00 -0.97824586009E+03  0.97824586010E+03  0.50400001928E-02 0. -1.
    10030    2    1    2    0    0  0.00000000000E+00  0.00000000000E+00  0.62801895326E+03  0.25845106735E+04  0.25070475894E+04 0.  0.
        4    1    3    3  502    0 -0.37275069039E+03  0.11768116045E+03  0.15418296461E+04  0.15906074951E+04  0.12699999809E+01 0.  1.
       -4    1    3    3    0  502  0.37275069039E+03 -0.11768116045E+03 -0.91381069288E+03  0.99390317840E+03  0.12699999809E+01 0. -1.
</event>
<event>
 5   0  0.4959042E-05  0.2522499E+04  0.7818609E-02  0.8395014E-01
       -2   -1    0    0    0  501  0.00000000000E+00  0.00000000000E+00  0.69736298183E+03  0.69736298183E+03  0.25500000920E-02 0.  1.
        2   -1    0    0  501    0  0.00000000000E+00  0.00000000000E+00 -0.22810940502E+04  0.22810940502E+04  0.25500000920E-02 0. -1.
    10030    2    1    2    0    0  0.00000000000E+00  0.00000000000E+00 -0.15837310684E+04  0.29784570321E+04  0.25224991962E+04 0.  0.
        4    1    3    3  502    0 -0.53440421314E+03 -0.56002687969E+03  0.38388028707E+03  0.86405072577E+03  0.12699999809E+01 0.  1.
       -4    1    3    3    0  502  0.53440421314E+03  0.56002687969E+03 -0.19676113555E+04  0.21144063063E+04  0.12699999809E+01 0. -1.
</event>
<event>
 5   0  0.2063930E-05  0.2440430E+04  0.7818609E-02  0.8424520E-01
        1   -1    0    0  501    0  0.00000000000E+00  0.00000000000E+00  0.17814040785E+04  0.17814040785E+04  0.50400001928E-02 0. -1.
       -1   -1    0    0    0  501  0.00000000000E+00  0.00000000000E+00 -0.83581547960E+03  0.83581547961E+03  0.50400001928E-02 0.  1.
    10030    2    1    2    0    0  0.00000000000E+00  0.00000000000E+00  0.94558859890E+03  0.26172195581E+04  0.24404303754E+04 0.  0.
        3    1    3    3  502    0 -0.88110841619E+03 -0.29234039825E+03  0.13220640358E+04  0.16154467724E+04  0.10100000352E+00 0. -1.
       -3    1    3    3    0  502  0.88110841619E+03  0.29234039825E+03 -0.37647543685E+03  0.10017727858E+04  0.10100000352E+00 0.  1.
</event>
<event>
 5   0  0.5024070E-05  0.1980964E+04  0.7818609E-02  0.8615573E-01
       -2   -1    0    0    0  501  0.00000000000E+00  0.00000000000E+00  0.37511964058E+03  0.37511964059E+03  0.25500000920E-02 0.  1.
        2   -1    0    0  501    0  0.00000000000E+00  0.00000000000E+00 -0.26153120577E+04  0.26153120577E+04  0.25500000920E-02 0. -1.
    10030    2    1    2    0    0  0.00000000000E+00  0.00000000000E+00 -0.22401924171E+04  0.29904316983E+04  0.19809643299E+04 0.  0.
        5    1    3    3  502    0  0.65668124601E+03 -0.31370359454E+03 -0.10587085784E+03  0.73543927868E+03  0.46999998093E+01 0.  1.
       -5    1    3    3    0  502 -0.65668124601E+03  0.31370359454E+03 -0.21343215593E+04  0.22549924196E+04  0.46999998093E+01 0. -1.
</event>
<event>
 5   0  0.4995256E-05  0.2334891E+04  0.7818609E-02  0.8464290E-01
        2   -1    0    0  501    0  0.00000000000E+00  0.00000000000E+00  0.13592731841E+04  0.13592731841E+04  0.25500000920E-02 0. -1.
       -2   -1    0    0    0  501  0.00000000000E+00  0.00000000000E+00 -0.10026895954E+04  0.10026895954E+04  0.25500000920E-02 0.  1.
    10030    2    1    2    0    0  0.00000000000E+00  0.00000000000E+00  0.35658358874E+03  0.23619627795E+04  0.23348910716E+04 0.  0.
        2    1    3    3  502    0  0.88844353681E+03  0.39790137643E+03  0.83017916871E+03  0.12793962934E+04  0.25500000920E-02 0. -1.
       -2    1    3    3    0  502 -0.88844353681E+03 -0.39790137643E+03 -0.47359557996E+03  0.10825664861E+04  0.25500000920E-02 0.  1.
</event>
<event>
 5   0  0.5024070E-05  0.2421684E+04  0.7818609E-02  0.8431430E-01
        2   -1    0    0  501    0  0.00000000000E+00  0.00000000000E+00  0.14109388500E+04  0.14109388500E+04  0.25500000920E-02 0.  1.
       -2   -1    0    0    0  501  0.00000000000E+00  0.00000000000E+00 -0.10391223816E+04  0.10391223816E+04  0.25500000920E-02 0. -1.
    10030    2    1    2    0    0  0.00000000000E+00  0.00000000000E+00  0.37181646839E+03  0.24500612316E+04  0.24216838258E+04 0.  0.
        5    1    3    3  502    0  0.80448590838E+03  0.62342718643E+03  0.84953436265E+03  0.13257412104E+04  0.46999998093E+01 0.  1.
       -5    1    3    3    0  502 -0.80448590838E+03 -0.62342718643E+03 -0.47771789426E+03  0.11243200212E+04  0.46999998093E+01 0. -1.
</event>
<event>
 5   0  0.2066170E-05  0.2521498E+04  0.7818609E-02  0.8395366E-01
       -1   -1    0    0    0  501  0.00000000000E+00  0.00000000000E+00  0.10621620591E+04  0.10621620591E+04  0.50400001928E-02 0. -1.
        1   -1    0    0  501    0  0.00000000000E+00  0.00000000000E+00 -0.14964650428E+04  0.14964650428E+04  0.50400001928E-02 0.  1.
    10030    2    1    2    0    0  0.00000000000E+00  0.00000000000E+00 -0.43430298371E+03  0.25586271020E+04  0.25214982779E+04 0.  0.
        5    1    3    3  502    0 -0.70455982926E+03 -0.37203497895E+03  0.77429846959E+03  0.11110242070E+04  0.46999998093E+01 0. -1.
       -5    1    3    3    0  502  0.70455982926E+03  0.37203497895E+03 -0.12086014533E+04  0.14476028950E+04  0.46999998093E+01 0.  1.
</event>
<event>
 5   0  0.2041718E-05  0.2538468E+04  0.7818609E-02  0.8389408E-01
        1   -1    0    0  501    0  0.00000000000E+00  0.00000000000E+00  0.21529793816E+04  0.21529793816E+04  0.50400001928E-02 0. -1.
       -1   -1    0    0    0  501  0.00000000000E+00  0.00000000000E+00 -0.74824451053E+03  0.74824451054E+03  0.50400001928E-02 0.  1.
    10030    2    1    2    0    0  0.00000000000E+00  0.00000000000E+00  0.14047348711E+04  0.29012238921E+04  0.25384680448E+04 0.  0.
        4    1    3    3  502    0  0.43246740594E+03  0.74344281085E+03  0.17691428410E+04  0.19671307214E+04  0.12699999809E+01 0. -1.
       -4    1    3    3    0  502 -0.43246740594E+03 -0.74344281085E+03 -0.36440796995E+03  0.93409317076E+03  0.12699999809E+01 0.  1.
</event>
<event>
 5   0  0.4959347E-05  0.2500653E+04  0.7818609E-02  0.8402753E-01
       -2   -1    0    0    0  501  0.00000000000E+00  0.00000000000E+00  0.14462902668E+04  0.14462902668E+04  0.25500000920E-02 0. -1.
        2   -1    0    0  501    0  0.00000000000E+00  0.00000000000E+00 -0.10809148821E+04  0.10809148821E+04  0.25500000920E-02 0.  1.
    10030    2    1    2    0    0  0.00000000000E+00  0.00000000000E+00  0.36537538465E+03  0.25272051489E+04  0.25006532533E+04 0.  0.
        3    1    3    3  502    0  0.97261457288E+03 -0.71116547839E+03  0.52027224915E+03  0.13124094896E+04  0.10100000352E+00 0. -1.
       -3    1    3    3    0  502 -0.97261457288E+03  0.71116547839E+03 -0.15489686450E+03  0.12147956593E+04  0.10100000352E+00 0.  1.
</event>
<event>
 5   0  0.2036578E-05  0.2376571E+04  0.7818609E-02  0.8448328E-01
       -1   -1    0    0    0  501  0.00000000000E+00  0.00000000000E+00  0.12737304741E+04  0.12737304741E+04  0.50400001928E-02 0.  1.
        1   -1    0    0  501    0  0.00000000000E+00  0.00000000000E+00 -0.11085722191E+04  0.11085722191E+04  0.50400001928E-02 0. -1.
    10030    2    1    2    0    0  0.00000000000E+00  0.00000000000E+00  0.16515825504E+03  0.23823026932E+04  0.23765708222E+04 0.  0.
        2    1    3    3  502    0 -0.93445090545E+03  0.63389418768E+03 -0.28845123270E+03  0.11654288694E+04  0.25500000920E-02 0.  1.
       -2    1    3    3    0  502  0.93445090545E+03 -0.63389418768E+03  0.45360948774E+03  0.12168738239E+04  0.25500000920E-02 0. -1.
</event>
<event>
 5   0  0.4959042E-05  0.2504805E+04  0.7818609E-02  0.8401276E-01
        2   -1    0    0  501    0  0.00000000000E+00  0.00000000000E+00  0.25423936909E+04  0.25423936909E+04  0.25500000920E-02 0.  1.
       -2   -1    0    0    0  501  0.00000000000E+00  0.00000000000E+00 -0.61694282815E+03  0.61694282816E+03  0.25500000920E-02 0. -1.
    10030    2    1    2    0    0  0.00000000000E+00  0.00000000000E+00  0.19254508627E+04  0.31593365190E+04  0.25048046263E+04 0.  0.
        4    1    3    3  502    0 -0.85326117678E+03  0.46242838422E+03  0.19611667068E+04  0.21881661525E+04  0.12699999809E+01 0.  1.
       -4    1    3    3    0  502  0.85326117678E+03 -0.46242838422E+03 -0.35715844084E+02  0.97117036650E+03  0.12699999809E+01 0. -1.
</event>
<event>
 5   0  0.2041718E-05  0.2678731E+04  0.7818609E-02  0.8341939E-01
        1   -1    0    0  501    0  0.00000000000E+00  0.00000000000E+00  0.14562337066E+04  0.14562337066E+04  0.50400001928E-02 0.  1.
       -1   -1    0    0    0  501  0.00000000000E+00  0.00000000000E+00 -0.12318767430E+04  0.12318767430E+04  0.50400001928E-02 0. -1.
    10030    2    1    2    0    0  0.00000000000E+00  0.00000000000E+00  0.22435696359E+03  0.26881104496E+04  0.26787313681E+04 0.  0.
        4    1    3    3  502    0 -0.30868155219E+03 -0.14356991019E+03 -0.11877342851E+04  0.12355609919E+04  0.12699999809E+01 0. -1.
       -4    1    3    3    0  502  0.30868155219E+03  0.14356991019E+03  0.14120912487E+04  0.14525494578E+04  0.12699999809E+01 0.  1.
</event>
<event>
 5   0  0.2081874E-05  0.2117340E+04  0.7818609E-02  0.8553643E-01
        1   -1    0    0  501    0  0.00000000000E+00  0.00000000000E+00  0.10543056008E+04  0.10543056008E+04  0.50400001928E-02 0. -1.
       -1   -1    0    0    0  501  0.00000000000E+00  0.00000000000E+00 -0.10630527860E+04  0.10630527860E+04  0.50400001928E-02 0.  1.
    10030    2    1    2    0    0  0.00000000000E+00  0.00000000000E+00 -0.87471852295E+01  0.21173583868E+04  0.21173403186E+04 0.  0.
        1    1    3    3  502    0  0.60921827506E+03 -0.26845308904E+02 -0.86977968837E+03  0.10622543404E+04  0.50400001928E-02 0.  1.
       -1    1    3    3    0  502 -0.60921827506E+03  0.26845308904E+02  0.86103250314E+03  0.10551040464E+04  0.50400001928E-02 0. -1.
</event>
<event>
 5   0  0.2066170E-05  0.2505577E+04  0.7818609E-02  0.8401002E-01
        1   -1    0    0  501    0  0.00000000000E+00  0.00000000000E+00  0.95470723187E+03  0.95470723188E+03  0.50400001928E-02 0.  1.
       -1   -1    0    0    0  501  0.00000000000E+00  0.00000000000E+00 -0.16439368817E+04  0.16439368818E+04  0.50400001928E-02 0. -1.
    10030    2    1    2    0    0  0.00000000000E+00  0.00000000000E+00 -0.68922964988E+03  0.25986441136E+04  0.25055765243E+04 0.  0.
        5    1    3    3  502    0 -0.69470001531E+03  0.31249999004E+03 -0.13761390450E+04  0.15729097610E+04  0.46999998093E+01 0. -1.
       -5    1    3    3    0  502  0.69470001531E+03 -0.31249999004E+03  0.68690939514E+03  0.10257343526E+04  0.46999998093E+01 0.  1.
</event>
<event>
 5   0  0.2063930E-05  0.2475671E+04  0.7818609E-02  0.8411705E-01
        1   -1    0    0  501    0  0.00000000000E+00  0.00000000000E+00  0.13862609108E+04  0.13862609108E+04  0.50400001928E-02 0. -1.
       -1   -1    0    0    0  501  0.00000000000E+00  0.00000000000E+00 -0.11053017089E+04  0.11053017089E+04  0.50400001928E-02 0.  1.
    10030    2    1    2    0    0  0.00000000000E+00  0.00000000000E+00  0.28095920185E+03  0.24915626197E+04  0.24756708616E+04 0.  0.
        3    1    3    3  502    0  0.50975549584E+03 -0.32947914380E+03 -0.94525469950E+03  0.11233492907E+04  0.10100000352E+00 0.  1.
       -3    1    3    3    0  502 -0.50975549584E+03  0.32947914380E+03  0.12262139013E+04  0.13682133291E+04  0.10100000352E+00 0. -1.
</event>
<event>
 5   0  0.4995256E-05  0.2523274E+04  0.7818609E-02  0.8394741E-01
       -2   -1    0    0    0  501  0.00000000000E+00  0.00000000000E+00  0.89236978541E+03  0.89236978542E+03  0.25500000920E-02 0. -1.
        2   -1    0    0  501    0  0.00000000000E+00  0.00000000000E+00 -0.17837083804E+04  0.17837083804E+04  0.25500000920E-02 0.  1.
    10030    2    1    2    0    0  0.00000000000E+00  0.00000000000E+00 -0.89133859494E+03  0.26760781658E+04  0.25232736392E+04 0.  0.
        2    1    3    3  502    0 -0.29174402188E+03  0.85913688258E+03  0.48405771567E+03  0.10283689170E+04  0.25500000920E-02 0. -1.
       -2    1    3    3    0  502  0.29174402188E+03 -0.85913688258E+03 -0.13753963106E+04  0.16477092488E+04  0.25500000920E-02 0.  1.
</event>
<event>
 5   0  0.2041718E-05  0.2414175E+04  0.7818609E-02  0.8434216E-01
       -1   -1    0    0    0  501  0.00000000000E+00  0.00000000000E+00  0.84576558449E+03  0.84576558450E+03  0.50400001928E-02 0.  1.
        1   -1    0    0  501    0  0.00000000000E+00  0.00000000000E+00 -0.17227709233E+04  0.17227709233E+04  0.50400001928E-02 0. -1.
    10030    2    1    2    0    0  0.00000000000E+00  0.00000000000E+00 -0.87700533881E+03  0.25685365078E+04  0.24141751029E+04 0.  0.
        4    1    3    3  502    0  0.21595960170E+03 -0.18681837783E+03  0.80931257455E+03  0.85821216030E+03  0.12699999809E+01 0.  1.
       -4    1    3    3    0  502 -0.21595960170E+03  0.18681837783E+03 -0.16863179134E+04  0.17103243475E+04  0.12699999809E+01 0. -1.
</event>
<event>
 5   0  0.5024070E-05  0.1724665E+04  0.7818609E-02  0.8747421E-01
       -2   -1    0    0    0  501  0.00000000000E+00  0.00000000000E+00  0.56084957423E+03  0.56084957424E+03  0.25500000920E-02 0. -1.
        2   -1    0    0  501    0  0.00000000000E+00  0.00000000000E+00 -0.13258760929E+04  0.13258760929E+04  0.25500000920E-02 0.  1.
    10030    2    1    2    0    0  0.00000000000E+00  0.00000000000E+00 -0.76502651871E+03  0.18867256672E+04  0.17246646540E+04 0.  0.
        5    1    3    3  502    0 -0.24488723500E+03 -0.79951590909E+03 -0.61302505893E+03  0.10368303910E+04  0.46999998093E+01 0.  1.
       -5    1    3    3    0  502  0.24488723500E+03  0.79951590909E+03 -0.15200145978E+03  0.84989527621E+03  0.46999998093E+01 0. -1.
</event>
<event>
 5   0  0.4959042E-05  0.2424031E+04  0.7818609E-02  0.8430561E-01
        2   -1    0    0  501    0  0.00000000000E+00  0.00000000000E+00  0.34686084478E+04  0.34686084478E+04  0.25500000920E-02 0. -1.
       -2   -1    0    0    0  501  0.00000000000E+00  0.00000000000E+00 -0.42350749957E+03  0.42350749958E+03  0.25500000920E-02 0.  1.
    10030    2    1    2    0    0  0.00000000000E+00  0.00000000000E+00  0.30451009482E+04  0.38921159474E+04  0.24240310978E+04 0.  0.
        4    1    3    3  502    0 -0.10932778708E+04  0.17887551630E+03  0.23119743832E+04  0.25636848703E+04  0.12699999809E+01 0. -1.
       -4    1    3    3    0  502  0.10932778708E+04 -0.17887551630E+03  0.73312656503E+03  0.13284310770E+04  0.12699999809E+01 0.  1.
</event>
<event>
 5   0  0.2081874E-05  0.2169613E+04  0.7818609E-02  0.8531183E-01
        1   -1    0    0  501    0  0.00000000000E+00  0.00000000000E+00  0.14259953182E+04  0.14259953182E+04  0.50400001928E-02 0. -1.
       -1   -1    0    0    0  501  0.00000000000E+00  0.00000000000E+00 -0.82525179317E+03  0.82525179318E+03  0.50400001928E-02 0.  1.
    10030    2    1    2    0    0  0.00000000000E+00  0.00000000000E+00  0.60074352500E+03  0.22512471114E+04  0.21696130470E+04 0.  0.
        1    1    3    3  502    0  0.56262406266E+03  0.71314065232E+02 -0.65917919481E+03  0.86956813573E+03  0.50400001928E-02 0.  1.
       -1    1    3    3    0  502 -0.56262406266E+03 -0.71314065232E+02  0.12599227198E+04  0.13816789756E+04  0.50400001928E-02 0. -1.
</event>
<event>
 5   0  0.5024070E-05  0.2368076E+04  0.7818609E-02  0.8451553E-01
       -2   -1    0    0    0  501  0.00000000000E+00  0.00000000000E+00  0.56605628234E+03  0.56605628235E+03  0.25500000920E-02 0. -1.
        2   -1    0    0  501    0  0.00000000000E+00  0.00000000000E+00 -0.24766893785E+04  0.24766893785E+04  0.25500000920E-02 0.  1.
    10030    2    1    2    0    0  0.00000000000E+00  0.00000000000E+00 -0.19106330962E+04  0.30427456609E+04  0.23680756594E+04 0.  0.
        5    1    3    3  502    0 -0.97618982349E+03 -0.61539244696E+03 -0.61471066870E+03  0.13074959776E+04  0.46999998093E+01 0.  1.
       -5    1    3    3    0  502  0.97618982349E+03  0.61539244696E+03 -0.12959224275E+04  0.17352496833E+04  0.46999998093E+01 0. -1.
</event>
<event>
 5   0  0.5219468E-05  0.2524727E+04  0.7818609E-02  0.8394229E-01
        2   -1    0    0  501    0  0.00000000000E+00  0.00000000000E+00  0.20014353837E+04  0.20014353837E+04  0.25500000920E-02 0.  1.
       -2   -1    0    0    0  501  0.00000000000E+00  0.00000000000E+00 -0.79620951684E+03  0.79620951684E+03  0.25500000920E-02 0. -1.
    10030    2    1    2    0    0  0.00000000000E+00  0.00000000000E+00  0.12052258669E+04  0.27976449006E+04  0.25247272327E+04 0.  0.
        1    1    3    3  502    0 -0.10848863769E+04  0.17351335187E+03  0.12914867971E+04  0.16955894200E+04  0.50400001928E-02 0.  1.
       -1    1    3    3    0  502  0.10848863769E+04 -0.17351335187E+03 -0.86260930208E+02  0.11020554806E+04  0.50400001928E-02 0. -1.
</event>
<event>
 5   0  0.4959347E-05  0.2475799E+04  0.7818609E-02  0.8411658E-01
        2   -1    0    0  501    0  0.00000000000E+00  0.00000000000E+00  0.21638632293E+04  0.21638632293E+04  0.25500000920E-02 0.  1.
       -2   -1    0    0    0  501  0.00000000000E+00  0.00000000000E+00 -0.70817572118E+03  0.70817572118E+03  0.25500000920E-02 0. -1.
    10030    2    1    2    0    0  0.00000000000E+00  0.00000000000E+00  0.14556875081E+04  0.28720389505E+04  0.24757991865E+04 0.  0.
        3    1    3    3  502    0  0.85286011571E+03 -0.87856999034E+03  0.51666521966E+03  0.13289840346E+04  0.10100000352E+00 0. -1.
       -3    1    3    3    0  502 -0.85286011571E+03  0.87856999034E+03  0.93902228845E+03  0.15430549158E+04  0.10100000352E+00 0.  1.
</event>
<event>
 5   0  0.2081874E-05  0.2512419E+04  0.7818609E-02  0.8398575E-01
       -1   -1    0    0    0  501  0.00000000000E+00  0.00000000000E+00  0.12760616162E+04  0.12760616163E+04  0.50400001928E-02 0. -1.
        1   -1    0    0  501    0  0.00000000000E+00  0.00000000000E+00 -0.12366658196E+04  0.12366658196E+04  0.50400001928E-02 0.  1.
    10030    2    1    2    0    0  0.00000000000E+00  0.00000000000E+00  0.39395796639E+02  0.25127274359E+04  0.25124185834E+04 0.  0.
        1    1    3    3  502    0 -0.59345622323E+03 -0.59492661936E+03 -0.91419085342E+03  0.12417217433E+04  0.50400001928E-02 0.  1.
       -1    1    3    3    0  502  0.59345622323E+03  0.59492661936E+03  0.95358665006E+03  0.12710056926E+04  0.50400001928E-02 0. -1.
</event>
<event>
 5   0  0.2036578E-05  0.2519798E+04  0.7818609E-02  0.8395966E-01
        1   -1    0    0  501    0  0.00000000000E+00  0.00000000000E+00  0.19105129321E+04  0.19105129321E+04  0.50400001928E-02 0.  1.
       -1   -1    0    0    0  501  0.00000000000E+00  0.00000000000E+00 -0.83084796577E+03  0.83084796579E+03  0.50400001928E-02 0. -1.
    10030    2    1    2    0    0  0.00000000000E+00  0.00000000000E+00  0.10796649663E+04  0.27413608979E+04  0.25197982326E+04 0.  0.
        2    1    3    3  502    0 -0.18774149016E+03 -0.64607156274E+03 -0.61904932919E+03  0.91426331179E+03  0.25500000920E-02 0. -1.
       -2    1    3    3    0  502  0.18774149016E+03  0.64607156274E+03  0.16987142955E+04  0.18270975861E+04  0.25500000920E-02 0.  1.
</event>
<event>
 5   0  0.5219468E-05  0.2580709E+04  0.7818609E-02  0.8374784E-01
        2   -1    0    0  501    0  0.00000000000E+00  0.00000000000E+00  0.23302712217E+04  0.23302712217E+04  0.25500000920E-02 0.  1.
       -2   -1    0    0    0  501  0.00000000000E+00  0.00000000000E+00 -0.71451517804E+03  0.71451517805E+03  0.25500000920E-02 0. -1.
    10030    2    1    2    0    0  0.00000000000E+00  0.00000000000E+00  0.16157560436E+04  0.30447863997E+04  0.25807085514E+04 0.  0.
        1    1    3    3  502    0  0.14406223348E+03  0.86706267089E+03 -0.30670615111E+03  0.93092441450E+03  0.50400001928E-02 0. -1.
       -1    1    3    3    0  502 -0.14406223348E+03 -0.86706267089E+03  0.19224621947E+04  0.21138619852E+04  0.50400001928E-02 0.  1.
</event>
<event>
 5   0  0.4959347E-05  0.2493773E+04  0.7818609E-02  0.8405207E-01
        2   -1    0    0  501    0  0.00000000000E+00  0.00000000000E+00  0.22203035681E+04  0.22203035681E+04  0.25500000920E-02 0. -1.
       -2   -1    0    0    0  501  0.00000000000E+00  0.00000000000E+00 -0.70023121964E+03  0.70023121965E+03  0.25500000920E-02 0.  1.
    10030    2    1    2    0    0  0.00000000000E+00  0.00000000000E+00  0.15200723485E+04  0.29205347878E+04  0.24937729451E+04 0.  0.
        3    1    3    3  502    0 -0.98515940782E+03 -0.44756511663E+03  0.14856388018E+04  0.18379271618E+04  0.10100000352E+00 0. -1.
       -3    1    3    3    0  502  0.98515940782E+03  0.44756511663E+03  0.34433546664E+02  0.10826076260E+04  0.10100000352E+00 0.  1.
</event>
<event>
 5   0  0.2066170E-05  0.2337609E+04  0.7818609E-02  0.8463238E-01
        1   -1    0    0  501    0  0.00000000000E+00  0.00000000000E+00  0.14686363293E+04  0.14686363293E+04  0.50400001928E-02 0. -1.
       -1   -1    0    0    0  501  0.00000000000E+00  0.00000000000E+00 -0.93018506277E+03  0.93018506278E+03  0.50400001928E-02 0.  1.
    10030    2    1    2    0    0  0.00000000000E+00  0.00000000000E+00  0.53845126649E+03  0.23988213921E+04  0.23376086722E+04 0.  0.
        5    1    3    3  502    0  0.17263437486E+03  0.11334272262E+04  0.36072231116E+02  0.11470759348E+04  0.46999998093E+01 0.  1.
       -5    1    3    3    0  502 -0.17263437486E+03 -0.11334272262E+04  0.50237903537E+03  0.12517454572E+04  0.46999998093E+01 0. -1.
</event>
<event>
 5   0  0.4959347E-05  0.2508940E+04  0.7818609E-02  0.8399807E-01
       -2   -1    0    0    0  501  0.00000000000E+00  0.00000000000E+00  0.84736177319E+03  0.84736177319E+03  0.25500000920E-02 0.  1.
        2   -1    0    0  501    0  0.00000000000E+00  0.00000000000E+00 -0.18571705028E+04  0.18571705028E+04  0.25500000920E-02 0. -1.
    10030    2    1    2    0    0  0.00000000000E+00  0.00000000000E+00 -0.10098087296E+04  0.27045322760E+04  0.25089402467E+04 0.  0.
        3    1    3    3  502    0  0.92045956734E+03  0.45807193186E+03 -0.12797001997E+04  0.16415566762E+04  0.10100000352E+00 0. -1.
       -3    1    3    3    0  502 -0.92045956734E+03 -0.45807193186E+03  0.26989147013E+03  0.10629755998E+04  0.10100000352E+00 0.  1.
</event>
<event>
 5   0  0.2041718E-05  0.2508727E+04  0.7818609E-02  0.8399883E-01
        1   -1    0    0  501    0  0.00000000000E+00  0.00000000000E+00  0.20080176035E+04  0.20080176035E+04  0.50400001928E-02 0.  1.
       -1   -1    0    0    0  501  0.00000000000E+00  0.00000000000E+00 -0.78357299994E+03  0.78357299996E+03  0.50400001928E-02 0. -1.
    10030    2    1    2    0    0  0.00000000000E+00  0.00000000000E+00  0.12244446036E+04  0.27915906035E+04  0.25087274683E+04 0.  0.
        4    1    3    3  502    0  0.40937575091E+03 -0.63315689655E+03  0.17277249369E+04  0.18850759220E+04  0.12699999809E+01 0.  1.
       -4    1    3    3    0  502 -0.40937575091E+03  0.63315689655E+03 -0.50328033329E+03  0.90651468155E+03  0.12699999809E+01 0. -1.
</event>
<event>
 5   0  0.2041718E-05  0.2469475E+04  0.7818609E-02  0.8413942E-01
        1   -1    0    0  501    0  0.00000000000E+00  0.00000000000E+00  0.16717484397E+04  0.16717484397E+04  0.50400001928E-02 0. -1.
       -1   -1    0    0    0  501  0.00000000000E+00  0.00000000000E+00 -0.91196540399E+03  0.91196540401E+03  0.50400001928E-02 0.  1.
    10030    2    1    2    0    0  0.00000000000E+00  0.00000000000E+00  0.75978303570E+03  0.25837138437E+04  0.24694750383E+04 0.  0.
        4    1    3    3  502    0  0.48424572378E+03  0.90246056039E+03 -0.34168395368E+03  0.10796659304E+04  0.12699999809E+01 0.  1.
       -4    1    3    3    0  502 -0.48424572378E+03 -0.90246056039E+03  0.11014669894E+04  0.15040479133E+04  0.12699999809E+01 0. -1.
</event>
<event>
 5   0  0.4959347E-05  0.2471709E+04  0.7818609E-02  0.8413134E-01
       -2   -1    0    0    0  501  0.00000000000E+00  0.00000000000E+00  0.10690109180E+04  0.10690109180E+04  0.25500000920E-02 0.  1.
        2   -1    0    0  501    0  0.00000000000E+00  0.00000000000E+00 -0.14287380509E+04  0.14287380509E+04  0.25500000920E-02 0. -1.
    10030    2    1    2    0    0  0.00000000000E+00  0.00000000000E+00 -0.35972713290E+03  0.24977489690E+04  0.24717091863E+04 0.  0.
        3    1    3    3  502    0  0.25903651452E+03  0.55817342325E+03  0.90319208367E+03  0.10928922346E+04  0.10100000352E+00 0.  1.
       -3    1    3    3    0  502 -0.25903651452E+03 -0.55817342325E+03 -0.12629192166E+04  0.14048567344E+04  0.10100000352E+00 0. -1.
</event>
<event>
 5   0  0.2066170E-05  0.2534506E+04  0.7818609E-02  0.8390795E-01
        1   -1    0    0  501    0  0.00000000000E+00  0.00000000000E+00  0.20478613278E+04  0.20478613278E+04  0.50400001928E-02 0.  1.
       -1   -1    0    0    0  501  0.00000000000E+00  0.00000000000E+00 -0.78419866581E+03  0.78419866583E+03  0.50400001928E-02 0. -1.
    10030    2    1    2    0    0  0.00000000000E+00  0.00000000000E+00  0.12636626620E+04  0.28320599937E+04  0.25345059645E+04 0.  0.
        5    1    3    3  502    0 -0.10277166695E+04  0.52622923569E+03  0.12154413959E+04  0.16764362911E+04  0.46999998093E+01 0.  1.
       -5    1    3    3    0  502  0.10277166695E+04 -0.52622923569E+03  0.48221266080E+02  0.11556237025E+04  0.46999998093E+01 0. -1.
</event>
<event>
 5   0  0.2081874E-05  0.2410354E+04  0.7818609E-02  0.8435638E-01
        1   -1    0    0  501    0  0.00000000000E+00  0.00000000000E+00  0.18383141135E+04  0.18383141135E+04  0.50400001928E-02 0.  1.
       -1   -1    0    0    0  501  0.00000000000E+00  0.00000000000E+00 -0.79009948746E+03  0.79009948747E+03  0.50400001928E-02 0. -1.
    10030    2    1    2    0    0  0.00000000000E+00  0.00000000000E+00  0.10482146260E+04  0.26284136010E+04  0.24103535333E+04 0.  0.
        1    1    3    3  502    0 -0.10496215652E+04  0.43978518222E+03  0.91568501393E+02  0.11417097823E+04  0.50400001928E-02 0. -1.
       -1    1    3    3    0  502  0.10496215652E+04 -0.43978518222E+03  0.95664612465E+03  0.14867038187E+04  0.50400001928E-02 0.  1.
</event>
<event>
 5   0  0.2041718E-05  0.2536406E+04  0.7818609E-02  0.8390129E-01
       -1   -1    0    0    0  501  0.00000000000E+00  0.00000000000E+00  0.11154872844E+04  0.11154872844E+04  0.50400001928E-02 0. -1.
        1   -1    0    0  501    0  0.00000000000E+00  0.00000000000E+00 -0.14418257130E+04  0.14418257130E+04  0.50400001928E-02 0.  1.
    10030    2    1    2    0    0  0.00000000000E+00  0.00000000000E+00 -0.32633842865E+03  0.25573129975E+04  0.25364055269E+04 0.  0.
        4    1    3    3  502    0 -0.35248282670E+03 -0.35986147720E+03  0.10102940057E+04  0.11289109871E+04  0.12699999809E+01 0. -1.
       -4    1    3    3    0  502  0.35248282670E+03  0.35986147720E+03 -0.13366324343E+04  0.14284020104E+04  0.12699999809E+01 0.  1.
</event>
<event>
 5   0  0.4995256E-05  0.2314084E+04  0.7818609E-02  0.8472389E-01
       -2   -1    0    0    0  501  0.00000000000E+00  0.00000000000E+00  0.10412049097E+04  0.10412049097E+04  0.25500000920E-02 0.  1.
        2   -1    0    0  501    0  0.00000000000E+00  0.00000000000E+00 -0.12857660260E+04  0.12857660260E+04  0.25500000920E-02 0. -1.
    10030    2    1    2    0    0  0.00000000000E+00  0.00000000000E+00 -0.24456111629E+03  0.23269709357E+04  0.23140837487E+04 0.  0.
        2    1    3    3  502    0  0.10467699456E+04  0.11266031272E+03 -0.60487641574E+03  0.12142055606E+04  0.25500000920E-02 0.  1.
       -2    1    3    3    0  502 -0.10467699456E+04 -0.11266031272E+03  0.36031529945E+03  0.11127653751E+04  0.25500000920E-02 0. -1.
</event>
<event>
 5   0  0.4995256E-05  0.2477434E+04  0.7818609E-02  0.8411069E-01
       -2   -1    0    0    0  501  0.00000000000E+00  0.00000000000E+00  0.18924560671E+04  0.18924560671E+04  0.25500000920E-02 0. -1.
        2   -1    0    0  501    0  0.00000000000E+00  0.00000000000E+00 -0.81080837025E+03  0.81080837026E+03  0.25500000920E-02 0.  1.
    10030    2    1    2    0    0  0.00000000000E+00  0.00000000000E+00  0.10816476969E+04  0.27032644374E+04  0.24774335265E+04 0.  0.
        2    1    3    3  502    0  0.58161291022E+03 -0.27172807685E+03 -0.61513623877E+03  0.88910197240E+03  0.25500000920E-02 0.  1.
       -2    1    3    3    0  502 -0.58161291022E+03  0.27172807685E+03  0.16967839356E+04  0.18141624650E+04  0.25500000920E-02 0. -1.
</event>
<event>
 5   0  0.4995256E-05  0.2502098E+04  0.7818609E-02  0.8402238E-01
       -2   -1    0    0    0  501  0.00000000000E+00  0.00000000000E+00  0.84200297203E+03  0.84200297204E+03  0.25500000920E-02 0.  1.
        2   -1    0    0  501    0  0.00000000000E+00  0.00000000000E+00 -0.18588106971E+04  0.18588106971E+04  0.25500000920E-02 0. -1.
    10030    2    1    2    0    0  0.00000000000E+00  0.00000000000E+00 -0.10168077251E+04  0.27008136691E+04  0.25020984245E+04 0.  0.
        2    1    3    3  502    0  0.10132158272E+04 -0.15759841058E+01  0.28371302273E+03  0.10521890873E+04  0.25500000920E-02 0.  1.
       -2    1    3    3    0  502 -0.10132158272E+04  0.15759841058E+01 -0.13005207478E+04  0.16486245818E+04  0.25500000920E-02 0. -1.
</event>
<event>
 5   0  0.2036578E-05  0.2218231E+04  0.7818609E-02  0.8510878E-01
        1   -1    0    0  501    0  0.00000000000E+00  0.00000000000E+00  0.12932115797E+04  0.12932115797E+04  0.50400001928E-02 0.  1.
       -1   -1    0    0    0  501  0.00000000000E+00  0.00000000000E+00 -0.95122696746E+03  0.95122696748E+03  0.50400001928E-02 0. -1.
    10030    2    1    2    0    0  0.00000000000E+00  0.00000000000E+00  0.34198461224E+03  0.22444385472E+04  0.22182314841E+04 0.  0.
        2    1    3    3  502    0 -0.29982274789E+03 -0.60727607648E+03  0.10596970706E+04  0.12576310249E+04  0.25500000920E-02 0.  1.
       -2    1    3    3    0  502  0.29982274789E+03  0.60727607648E+03 -0.71771245837E+03  0.98680752233E+03  0.25500000920E-02 0. -1.
</event>
<event>
 5   0  0.2041718E-05  0.2434615E+04  0.7818609E-02  0.8426657E-01
        1   -1    0    0  501    0  0.00000000000E+00  0.00000000000E+00  0.17290730788E+04  0.17290730788E+04  0.50400001928E-02 0.  1.
       -1   -1    0    0    0  501  0.00000000000E+00  0.00000000000E+00 -0.85701272384E+03  0.85701272385E+03  0.50400001928E-02 0. -1.
    10030    2    1    2    0    0  0.00000000000E+00  0.00000000000E+00  0.87206035492E+03  0.25860858026E+04  0.24346150652E+04 0.  0.
        4    1    3    3  502    0 -0.30081794165E+02  0.24805445348E+02 -0.85634858007E+03  0.85723668140E+03  0.12699999809E+01 0. -1.
       -4    1    3    3    0  502  0.30081794165E+02 -0.24805445348E+02  0.17284089350E+04  0.17288491212E+04  0.12699999809E+01 0.  1.
</event>
<event>
 5   0  0.2063930E-05  0.2029484E+04  0.7818609E-02  0.8592959E-01
        1   -1    0    0  501    0  0.00000000000E+00  0.00000000000E+00  0.82329809620E+03  0.82329809621E+03  0.50400001928E-02 0. -1.
       -1   -1    0    0    0  501  0.00000000000E+00  0.00000000000E+00 -0.12507023216E+04  0.12507023216E+04  0.50400001928E-02 0.  1.
    10030    2    1    2    0    0  0.00000000000E+00  0.00000000000E+00 -0.42740422540E+03  0.20740004178E+04  0.20294835208E+04 0.  0.
        3    1    3    3  502    0 -0.71360590701E+03  0.70099266987E+03 -0.39442802526E+02  0.10010893360E+04  0.10100000352E+00 0.  1.
       -3    1    3    3    0  502  0.71360590701E+03 -0.70099266987E+03 -0.38796142288E+03  0.10729110819E+04  0.10100000352E+00 0. -1.
</event>
<event>
 5   0  0.5024070E-05  0.2507609E+04  0.7818609E-02  0.8400280E-01
        2   -1    0    0  501    0  0.00000000000E+00  0.00000000000E+00  0.12930341569E+04  0.12930341569E+04  0.25500000920E-02 0. -1.
       -2   -1    0    0    0  501  0.00000000000E+00  0.00000000000E+00 -0.12157654735E+04  0.12157654735E+04  0.25500000920E-02 0.  1.
    10030    2    1    2    0    0  0.00000000000E+00  0.00000000000E+00  0.77268683366E+02  0.25087996304E+04  0.25076094464E+04 0.  0.
        5    1    3    3  502    0  0.24406356588E+03  0.16041212565E+03 -0.11812495549E+04  0.12168285315E+04  0.46999998093E+01 0.  1.
       -5    1    3    3    0  502 -0.24406356588E+03 -0.16041212565E+03  0.12585182382E+04  0.12919710988E+04  0.46999998093E+01 0. -1.
</event>
<event>
 5   0  0.2041718E-05  0.2585739E+04  0.7818609E-02  0.8373061E-01
       -1   -1    0    0    0  501  0.00000000000E+00  0.00000000000E+00  0.10494817194E+04  0.10494817194E+04  0.50400001928E-02 0.  1.
        1   -1    0    0  501    0  0.00000000000E+00  0.00000000000E+00 -0.15927024409E+04  0.15927024409E+04  0.50400001928E-02 0. -1.
    10030    2    1    2    0    0  0.00000000000E+00  0.00000000000E+00 -0.54322072156E+03  0.26421841603E+04  0.25857394271E+04 0.  0.
        4    1    3    3  502    0 -0.35408410810E+03  0.93163345134E+03 -0.11131126690E+04  0.14941010240E+04  0.12699999809E+01 0. -1.
       -4    1    3    3    0  502  0.35408410810E+03 -0.93163345134E+03  0.56989194742E+03  0.11480831363E+04  0.12699999809E+01 0.  1.
</event>
<event>
 5   0  0.5024070E-05  0.1931866E+04  0.7818609E-02  0.8639155E-01
        2   -1    0    0  501    0  0.00000000000E+00  0.00000000000E+00  0.81259592544E+03  0.81259592544E+03  0.25500000920E-02 0. -1.
       -2   -1    0    0    0  501  0.00000000000E+00  0.00000000000E+00 -0.11482053109E+04  0.11482053109E+04  0.25500000920E-02 0.  1.
    10030    2    1    2    0    0  0.00000000000E+00  0.00000000000E+00 -0.33560938541E+03  0.19608012363E+04  0.19318664107E+04 0.  0.
        5    1    3    3  502    0  0.39332004487E+03  0.20313425432E+03  0.70356451980E+03  0.83125766553E+03  0.46999998093E+01 0. -1.
       -5    1    3    3    0  502 -0.39332004487E+03 -0.20313425432E+03 -0.10391739052E+04  0.11295435708E+04  0.46999998093E+01 0.  1.
</event>
<event>
 5   0  0.2041718E-05  0.2547332E+04  0.7818609E-02  0.8386315E-01
        1   -1    0    0  501    0  0.00000000000E+00  0.00000000000E+00  0.22147804530E+04  0.22147804530E+04  0.50400001928E-02 0.  1.
       -1   -1    0    0    0  501  0.00000000000E+00  0.00000000000E+00 -0.73245397477E+03  0.73245397479E+03  0.50400001928E-02 0. -1.
    10030    2    1    2    0    0  0.00000000000E+00  0.00000000000E+00  0.14823264782E+04  0.29472344278E+04  0.25473317382E+04 0.  0.
        4    1    3    3  502    0 -0.93352851567E+03  0.11471629840E+03 -0.25249272053E+03  0.97385291780E+03  0.12699999809E+01 0. -1.
       -4    1    3    3    0  502  0.93352851567E+03 -0.11471629840E+03  0.17348191987E+04  0.19733815100E+04  0.12699999809E+01 0.  1.
</event>
<event>
 5   0  0.1692125E-05  0.2370013E+04  0.7818609E-02  0.8450816E-01
       -3   -1    0    0    0  501  0.00000000000E+00  0.00000000000E+00  0.24826554414E+04  0.24826554434E+04  0.10100000352E+00 0. -1.
        3   -1    0    0  501    0  0.00000000000E+00  0.00000000000E+00 -0.56562015234E+03  0.56562016136E+03  0.10100000352E+00 0.  1.
    10030    2    1    2    0    0  0.00000000000E+00  0.00000000000E+00  0.19170352890E+04  0.30482756048E+04  0.23700126294E+04 0.  0.
        2    1    3    3  502    0  0.93497697968E+03  0.55727715503E+03  0.35592889885E+03  0.11451747295E+04  0.25500000920E-02 0.  1.
       -2    1    3    3    0  502 -0.93497697968E+03 -0.55727715503E+03  0.15611063902E+04  0.19031008753E+04  0.25500000920E-02 0. -1.
</event>
<event>
 5   0  0.2063930E-05  0.2527932E+04  0.7818609E-02  0.8393102E-01
        1   -1    0    0  501    0  0.00000000000E+00  0.00000000000E+00  0.17238318817E+04  0.17238318817E+04  0.50400001928E-02 0. -1.
       -1   -1    0    0    0  501  0.00000000000E+00  0.00000000000E+00 -0.92677861713E+03  0.92677861714E+03  0.50400001928E-02 0.  1.
    10030    2    1    2    0    0  0.00000000000E+00  0.00000000000E+00  0.79705326460E+03  0.26506104989E+04  0.25279323785E+04 0.  0.
        3    1    3    3  502    0  0.19380303170E+03  0.43354585826E+03  0.16267336808E+04  0.16946339147E+04  0.10100000352E+00 0. -1.
       -3    1    3    3    0  502 -0.19380303170E+03 -0.43354585826E+03 -0.82968041620E+03  0.95597658420E+03  0.10100000352E+00 0.  1.
</event>
<event>
 5   0  0.2063930E-05  0.2510067E+04  0.7818609E-02  0.8399408E-01
        1   -1    0    0  501    0  0.00000000000E+00  0.00000000000E+00  0.14089080181E+04  0.14089080181E+04  0.50400001928E-02 0.  1.
       -1   -1    0    0    0  501  0.00000000000E+00  0.00000000000E+00 -0.11179640848E+04  0.11179640848E+04  0.50400001928E-02 0. -1.
    10030    2    1    2    0    0  0.00000000000E+00  0.00000000000E+00  0.29094393322E+03  0.25268721029E+04  0.25100665832E+04 0.  0.
        3    1    3    3  502    0 -0.65682078364E+03 -0.10657925948E+04  0.23427342063E+03  0.12736606466E+04  0.10100000352E+00 0.  1.
       -3    1    3    3    0  502  0.65682078364E+03  0.10657925948E+04  0.56670512588E+02  0.12532114563E+04  0.10100000352E+00 0. -1.
</event>
<event>
 5   0  0.4959042E-05  0.2552803E+04  0.7818609E-02  0.8384412E-01
       -2   -1    0    0    0  501  0.00000000000E+00  0.00000000000E+00  0.13356411754E+04  0.13356411754E+04  0.25500000920E-02 0. -1.
        2   -1    0    0  501    0  0.00000000000E+00  0.00000000000E+00 -0.12197892561E+04  0.12197892561E+04  0.25500000920E-02 0.  1.
    10030    2    1    2    0    0  0.00000000000E+00  0.00000000000E+00  0.11585191927E+03  0.25554304315E+04  0.25528029738E+04 0.  0.
        4    1    3    3  502    0 -0.54988844131E+03  0.71782747737E+03  0.95971139675E+03  0.13185981811E+04  0.12699999809E+01 0. -1.
       -4    1    3    3    0  502  0.54988844131E+03 -0.71782747737E+03 -0.84385947748E+03  0.12368322505E+04  0.12699999809E+01 0.  1.
</event>
<event>
 5   0  0.4995256E-05  0.2487275E+04  0.7818609E-02  0.8407533E-01
        2   -1    0    0  501    0  0.00000000000E+00  0.00000000000E+00  0.26442987584E+04  0.26442987584E+04  0.25500000920E-02 0.  1.
       -2   -1    0    0    0  501  0.00000000000E+00  0.00000000000E+00 -0.58489404590E+03  0.58489404591E+03  0.25500000920E-02 0. -1.
    10030    2    1    2    0    0  0.00000000000E+00  0.00000000000E+00  0.20594047125E+04  0.32291928043E+04  0.24872752959E+04 0.  0.
        2    1    3    3  502    0  0.19797840457E+03 -0.11600890952E+04  0.15516589480E+04  0.19474721175E+04  0.25500000920E-02 0.  1.
       -2    1    3    3    0  502 -0.19797840457E+03  0.11600890952E+04  0.50774576452E+03  0.12817206868E+04  0.25500000920E-02 0. -1.
</event>
<event>
 5   0  0.2063930E-05  0.2518104E+04  0.7818609E-02  0.8396564E-01
       -1   -1    0    0    0  501  0.00000000000E+00  0.00000000000E+00  0.84879637233E+03  0.84879637234E+03  0.50400001928E-02 0.  1.
        1   -1    0    0  501    0  0.00000000000E+00  0.00000000000E+00 -0.18675998888E+04  0.18675998888E+04  0.50400001928E-02 0. -1.
    10030    2    1    2    0    0  0.00000000000E+00  0.00000000000E+00 -0.10188035165E+04  0.27163962611E+04  0.25181040571E+04 0.  0.
        3    1    3    3  502    0  0.25625658555E+03  0.53143142942E+03  0.69044636842E+03  0.90818665465E+03  0.10100000352E+00 0.  1.
       -3    1    3    3    0  502 -0.25625658555E+03 -0.53143142942E+03 -0.17092498849E+04  0.18082096065E+04  0.10100000352E+00 0. -1.
</event>
<event>
 5   0  0.4959347E-05  0.2447308E+04  0.7818609E-02  0.8422001E-01
        2   -1    0    0  501    0  0.00000000000E+00  0.00000000000E+00  0.14465858460E+04  0.14465858460E+04  0.25500000920E-02 0. -1.
       -2   -1    0    0    0  501  0.00000000000E+00  0.00000000000E+00 -0.10350783511E+04  0.10350783511E+04  0.25500000920E-02 0.  1.
    10030    2    1    2    0    0  0.00000000000E+00  0.00000000000E+00  0.41150749482E+03  0.24816641971E+04  0.24473084744E+04 0.  0.
        3    1    3    3  502    0  0.99527393665E+03 -0.63651810507E+03  0.52898256830E+03  0.12944296330E+04  0.10100000352E+00 0.  1.
       -3    1    3    3    0  502 -0.99527393665E+03  0.63651810507E+03 -0.11747507348E+03  0.11872345641E+04  0.10100000352E+00 0. -1.
</event>
<event>
 5   0  0.2081874E-05  0.2442450E+04  0.7818609E-02  0.8423780E-01
       -1   -1    0    0    0  501  0.00000000000E+00  0.00000000000E+00  0.13451404237E+04  0.13451404237E+04  0.50400001928E-02 0. -1.
        1   -1    0    0  501    0  0.00000000000E+00  0.00000000000E+00 -0.11087246335E+04  0.11087246335E+04  0.50400001928E-02 0.  1.
    10030    2    1    2    0    0  0.00000000000E+00  0.00000000000E+00  0.23641579016E+03  0.24538650572E+04  0.24424498548E+04 0.  0.
        1    1    3    3  502    0 -0.99704740143E+03  0.60291638659E+03  0.48567494073E+03  0.12623358658E+04  0.50400001928E-02 0. -1.
       -1    1    3    3    0  502  0.99704740143E+03 -0.60291638659E+03 -0.24925915057E+03  0.11915291915E+04  0.50400001928E-02 0.  1.
</event>
<event>
 5   0  0.2041718E-05  0.2479555E+04  0.7818609E-02  0.8410306E-01
       -1   -1    0    0    0  501  0.00000000000E+00  0.00000000000E+00  0.14604723815E+04  0.14604723815E+04  0.50400001928E-02 0.  1.
        1   -1    0    0  501    0  0.00000000000E+00  0.00000000000E+00 -0.10524321354E+04  0.10524321354E+04  0.50400001928E-02 0. -1.
    10030    2    1    2    0    0  0.00000000000E+00  0.00000000000E+00  0.40804024609E+03  0.25129045169E+04  0.24795548529E+04 0.  0.
        4    1    3    3  502    0  0.16701071384E+03  0.69445303016E+03  0.12310048596E+04  0.14232119191E+04  0.12699999809E+01 0.  1.
       -4    1    3    3    0  502 -0.16701071384E+03 -0.69445303016E+03 -0.82296461347E+03  0.10896925977E+04  0.12699999809E+01 0. -1.
</event>
<event>
 5   0  0.2066170E-05  0.2486839E+04  0.7818609E-02  0.8407689E-01
       -1   -1    0    0    0  501  0.00000000000E+00  0.00000000000E+00  0.99049593183E+03  0.99049593184E+03  0.50400001928E-02 0.  1.
        1   -1    0    0  501    0  0.00000000000E+00  0.00000000000E+00 -0.15609274532E+04  0.15609274532E+04  0.50400001928E-02 0. -1.
    10030    2    1    2    0    0  0.00000000000E+00  0.00000000000E+00 -0.57043152141E+03  0.25514233851E+04  0.24868391925E+04 0.  0.
        5    1    3    3  502    0  0.66292176131E+03  0.10488236309E+04 -0.20203029880E+03  0.12571135995E+04  0.46999998093E+01 0.  1.
       -5    1    3    3    0  502 -0.66292176131E+03 -0.10488236309E+04 -0.36840122261E+03  0.12943097856E+04  0.46999998093E+01 0. -1.
</event>
<event>
 5   0  0.4959347E-05  0.2602583E+04  0.7818609E-02  0.8367324E-01
       -2   -1    0    0    0  501  0.00000000000E+00  0.00000000000E+00  0.11302405802E+04  0.11302405802E+04  0.25500000920E-02 0.  1.
        2   -1    0    0  501    0  0.00000000000E+00  0.00000000000E+00 -0.14982289250E+04  0.14982289250E+04  0.25500000920E-02 0. -1.
    10030    2    1    2    0    0  0.00000000000E+00  0.00000000000E+00 -0.36798834480E+03  0.26284695052E+04  0.26025826630E+04 0.  0.
        3    1    3    3  502    0  0.12194932676E+04  0.77061280409E+02  0.26795760546E+03  0.12509610542E+04  0.10100000352E+00 0.  1.
       -3    1    3    3    0  502 -0.12194932676E+04 -0.77061280409E+02 -0.63594595026E+03  0.13775084510E+04  0.10100000352E+00 0. -1.
</event>
<event>
 5   0  0.2081874E-05  0.2489426E+04  0.7818609E-02  0.8406762E-01
       -1   -1    0    0    0  501  0.00000000000E+00  0.00000000000E+00  0.87421099116E+03  0.87421099118E+03  0.50400001928E-02 0.  1.
        1   -1    0    0  501    0  0.00000000000E+00  0.00000000000E+00 -0.17722390954E+04  0.17722390954E+04  0.50400001928E-02 0. -1.
    10030    2    1    2    0    0  0.00000000000E+00  0.00000000000E+00 -0.89802810425E+03  0.26464500866E+04  0.24894263566E+04 0.  0.
        1    1    3    3  502    0  0.40428338370E+03  0.98315328679E+03  0.23934359958E+03  0.10896425094E+04  0.50400001928E-02 0.  1.
       -1    1    3    3    0  502 -0.40428338370E+03 -0.98315328679E+03 -0.11373717038E+04  0.15568075772E+04  0.50400001928E-02 0. -1.
</event>
<event>
 5   0  0.5219468E-05  0.2393817E+04  0.7818609E-02  0.8441822E-01
       -2   -1    0    0    0  501  0.00000000000E+00  0.00000000000E+00  0.13492096366E+04  0.13492096366E+04  0.25500000920E-02 0. -1.
        2   -1    0    0  501    0  0.00000000000E+00  0.00000000000E+00 -0.10617997622E+04  0.10617997622E+04  0.25500000920E-02 0.  1.
    10030    2    1    2    0    0  0.00000000000E+00  0.00000000000E+00  0.28740987444E+03  0.24110093988E+04  0.23938174294E+04 0.  0.
        1    1    3    3  502    0 -0.69709549772E+03  0.84949656519E+03  0.62145738929E+03  0.12624562701E+04  0.50400001928E-02 0. -1.
       -1    1    3    3    0  502  0.69709549772E+03 -0.84949656519E+03 -0.33404751484E+03  0.11485531287E+04  0.50400001928E-02 0.  1.
</event>
<event>
 5   0  0.2041718E-05  0.2533390E+04  0.7818609E-02  0.8391186E-01
       -1   -1    0    0    0  501  0.00000000000E+00  0.00000000000E+00  0.16886946402E+04  0.16886946402E+04  0.50400001928E-02 0. -1.
        1   -1    0    0  501    0  0.00000000000E+00  0.00000000000E+00 -0.95015185329E+03  0.95015185331E+03  0.50400001928E-02 0.  1.
    10030    2    1    2    0    0  0.00000000000E+00  0.00000000000E+00  0.73854278687E+03  0.26388464935E+04  0.25333900939E+04 0.  0.
        4    1    3    3  502    0 -0.10347853463E+04 -0.45761882655E+03  0.96246747366E+03  0.14854430161E+04  0.12699999809E+01 0. -1.
       -4    1    3    3    0  502  0.10347853463E+04  0.45761882655E+03 -0.22392468680E+03  0.11534034774E+04  0.12699999809E+01 0.  1.
</event>
<event>
 5   0  0.2066170E-05  0.2362643E+04  0.7818609E-02  0.8453623E-01
       -1   -1    0    0    0  501  0.00000000000E+00  0.00000000000E+00  0.54219951815E+03  0.54219951818E+03  0.50400001928E-02 0. -1.
        1   -1    0    0  501    0  0.00000000000E+00  0.00000000000E+00 -0.25738145698E+04  0.25738145698E+04  0.50400001928E-02 0.  1.
    10030    2    1    2    0    0  0.00000000000E+00  0.00000000000E+00 -0.20316150517E+04  0.31160140880E+04  0.23626434514E+04 0.  0.
        5    1    3    3  502    0  0.21094924023E+03  0.43505248305E+03 -0.24373295151E+04  0.24848274588E+04  0.46999998093E+01 0.  1.
       -5    1    3    3    0  502 -0.21094924023E+03 -0.43505248305E+03  0.40571446346E+03  0.63118662915E+03  0.46999998093E+01 0. -1.
</event>
<event>
 5   0  0.2036578E-05  0.2514100E+04  0.7818609E-02  0.8397979E-01
        1   -1    0    0  501    0  0.00000000000E+00  0.00000000000E+00  0.50821750605E+03  0.50821750608E+03  0.50400001928E-02 0. -1.
       -1   -1    0    0    0  501  0.00000000000E+00  0.00000000000E+00 -0.31092498986E+04  0.31092498986E+04  0.50400001928E-02 0.  1.
    10030    2    1    2    0    0  0.00000000000E+00  0.00000000000E+00 -0.26010323926E+04  0.36174674047E+04  0.25141004190E+04 0.  0.
        2    1    3    3  502    0 -0.81775052164E+03 -0.67110528181E+03 -0.22775480932E+04  0.25112394414E+04  0.25500000920E-02 0. -1.
       -2    1    3    3    0  502  0.81775052164E+03  0.67110528181E+03 -0.32348429933E+03  0.11062279633E+04  0.25500000920E-02 0.  1.
</event>
<event>
 5   0  0.2041718E-05  0.2485971E+04  0.7818609E-02  0.8408001E-01
       -1   -1    0    0    0  501  0.00000000000E+00  0.00000000000E+00  0.98775234202E+03  0.98775234203E+03  0.50400001928E-02 0.  1.
        1   -1    0    0  501    0  0.00000000000E+00  0.00000000000E+00 -0.15641703571E+04  0.15641703571E+04  0.50400001928E-02 0. -1.
    10030    2    1    2    0    0  0.00000000000E+00  0.00000000000E+00 -0.57641801504E+03  0.25519226991E+04  0.24859709842E+04 0.  0.
        4    1    3    3  502    0 -0.86086459207E+03 -0.79638712855E+03 -0.71107317429E+03  0.13714762034E+04  0.12699999809E+01 0.  1.
       -4    1    3    3    0  502  0.86086459207E+03  0.79638712855E+03  0.13465515925E+03  0.11804464957E+04  0.12699999809E+01 0. -1.
</event>
<event>
 5   0  0.2066170E-05  0.2566295E+04  0.7818609E-02  0.8379741E-01
        1   -1    0    0  501    0  0.00000000000E+00  0.00000000000E+00  0.22803086054E+04  0.22803086054E+04  0.50400001928E-02 0. -1.
       -1   -1    0    0    0  501  0.00000000000E+00  0.00000000000E+00 -0.72203696209E+03  0.72203696211E+03  0.50400001928E-02 0.  1.
    10030    2    1    2    0    0  0.00000000000E+00  0.00000000000E+00  0.15582716433E+04  0.30023455675E+04  0.25662946815E+04 0.  0.
        5    1    3    3  502    0  0.50023411345E+03 -0.11191468764E+04  0.33561457088E+03  0.12709772341E+04  0.46999998093E+01 0.  1.
       -5    1    3    3    0  502 -0.50023411345E+03  0.11191468764E+04  0.12226570724E+04  0.17313683334E+04  0.46999998093E+01 0. -1.
</event>
<event>
 5   0  0.4995256E-05  0.2470548E+04  0.7818609E-02  0.8413554E-01
       -2   -1    0    0    0  501  0.00000000000E+00  0.00000000000E+00  0.13353060071E+04  0.13353060071E+04  0.25500000920E-02 0. -1.
        2   -1    0    0  501    0  0.00000000000E+00  0.00000000000E+00 -0.11427355123E+04  0.11427355123E+04  0.25500000920E-02 0.  1.
    10030    2    1    2    0    0  0.00000000000E+00  0.00000000000E+00  0.19257049478E+03  0.24780415194E+04  0.24705477887E+04 0.  0.
        2    1    3    3  502    0 -0.20740659579E+03 -0.21732916023E+03 -0.11055361448E+04  0.11456263035E+04  0.25500000920E-02 0.  1.
       -2    1    3    3    0  502  0.20740659579E+03  0.21732916023E+03  0.12981066396E+04  0.13324152159E+04  0.25500000920E-02 0. -1.
</event>
<event>
 5   0  0.2081874E-05  0.2559040E+04  0.7818609E-02  0.8382249E-01
        1   -1    0    0  501    0  0.00000000000E+00  0.00000000000E+00  0.61953006769E+03  0.61953006771E+03  0.50400001928E-02 0. -1.
       -1   -1    0    0    0  501  0.00000000000E+00  0.00000000000E+00 -0.26426029335E+04  0.26426029335E+04  0.50400001928E-02 0.  1.
    10030    2    1    2    0    0  0.00000000000E+00  0.00000000000E+00 -0.20230728658E+04  0.32621330012E+04  0.25590404251E+04 0.  0.
        1    1    3    3  502    0 -0.27576332477E+03  0.10852052958E+04 -0.22216336927E+03  0.11415220138E+04  0.50400001928E-02 0. -1.
       -1    1    3    3    0  502  0.27576332477E+03 -0.10852052958E+04 -0.18009094965E+04  0.21206109874E+04  0.50400001928E-02 0.  1.
</event>
<event>
 5   0  0.2081874E-05  0.2486730E+04  0.7818609E-02  0.8407728E-01
       -1   -1    0    0    0  501  0.00000000000E+00  0.00000000000E+00  0.13580911327E+04  0.13580911327E+04  0.50400001928E-02 0.  1.
        1   -1    0    0  501    0  0.00000000000E+00  0.00000000000E+00 -0.11383300760E+04  0.11383300760E+04  0.50400001928E-02 0. -1.
    10030    2    1    2    0    0  0.00000000000E+00  0.00000000000E+00  0.21976105666E+03  0.24964212087E+04  0.24867295649E+04 0.  0.
        1    1    3    3  502    0 -0.94690868099E+03 -0.56061157278E+03  0.69095812773E+03  0.12993631209E+04  0.50400001928E-02 0.  1.
       -1    1    3    3    0  502  0.94690868099E+03  0.56061157278E+03 -0.47119707107E+03  0.11970580878E+04  0.50400001928E-02 0. -1.
</event>
<event>
 5   0  0.2081874E-05  0.2485087E+04  0.7818609E-02  0.8408318E-01
       -1   -1    0    0    0  501  0.00000000000E+00  0.00000000000E+00  0.16207588382E+04  0.16207588382E+04  0.50400001928E-02 0.  1.
        1   -1    0    0  501    0  0.00000000000E+00  0.00000000000E+00 -0.95258748314E+03  0.95258748316E+03  0.50400001928E-02 0. -1.
    10030    2    1    2    0    0  0.00000000000E+00  0.00000000000E+00  0.66817135509E+03  0.25733463214E+04  0.24850871876E+04 0.  0.
        1    1    3    3  502    0  0.44231126412E+03 -0.11477693135E+04  0.51611543486E+03  0.13339373274E+04  0.50400001928E-02 0.  1.
       -1    1    3    3    0  502 -0.44231126412E+03  0.11477693135E+04  0.15205592024E+03  0.12394089940E+04  0.50400001928E-02 0. -1.
</event>
<event>
 5   0  0.4959042E-05  0.2332451E+04  0.7818609E-02  0.8465235E-01
        2   -1    0    0  501    0  0.00000000000E+00  0.00000000000E+00  0.20182734041E+04  0.20182734041E+04  0.25500000920E-02 0. -1.
       -2   -1    0    0    0  501  0.00000000000E+00  0.00000000000E+00 -0.67388368025E+03  0.67388368025E+03  0.25500000920E-02 0.  1.
    10030    2    1    2    0    0  0.00000000000E+00  0.00000000000E+00  0.13443897238E+04  0.26921570843E+04  0.23324506505E+04 0.  0.
        4    1    3    3  502    0 -0.66075862265E+02  0.61314283983E+03 -0.47028865497E+03  0.77555347559E+03  0.12699999809E+01 0.  1.
       -4    1    3    3    0  502  0.66075862265E+02 -0.61314283983E+03  0.18146783788E+04  0.19166036087E+04  0.12699999809E+01 0. -1.
</event>
<event>
 5   0  0.2063930E-05  0.2167349E+04  0.7818609E-02  0.8532142E-01
        1   -1    0    0  501    0  0.00000000000E+00  0.00000000000E+00  0.85999254178E+03  0.85999254180E+03  0.50400001928E-02 0. -1.
       -1   -1    0    0    0  501  0.00000000000E+00  0.00000000000E+00 -0.13655358234E+04  0.13655358235E+04  0.50400001928E-02 0.  1.
    10030    2    1    2    0    0  0.00000000000E+00  0.00000000000E+00 -0.50554328166E+03  0.22255283653E+04  0.21673491862E+04 0.  0.
        3    1    3    3  502    0  0.47925190710E+03  0.25524091214E+03  0.71023034056E+03  0.89401200246E+03  0.10100000352E+00 0. -1.
       -3    1    3    3    0  502 -0.47925190710E+03 -0.25524091214E+03 -0.12157736222E+04  0.13315163628E+04  0.10100000352E+00 0.  1.
</event>
<event>
 5   0  0.4959042E-05  0.2450264E+04  0.7818609E-02  0.8420922E-01
       -2   -1    0    0    0  501  0.00000000000E+00  0.00000000000E+00  0.11888444185E+04  0.11888444185E+04  0.25500000920E-02 0. -1.
        2   -1    0    0  501    0  0.00000000000E+00  0.00000000000E+00 -0.12625274145E+04  0.12625274145E+04  0.25500000920E-02 0.  1.
    10030    2    1    2    0    0  0.00000000000E+00  0.00000000000E+00 -0.73682996043E+02  0.24513718330E+04  0.24502642061E+04 0.  0.
        4    1    3    3  502    0 -0.20447039970E+03  0.75115606235E+03 -0.98326251258E+03  0.12541333087E+04  0.12699999809E+01 0.  1.
       -4    1    3    3    0  502  0.20447039970E+03 -0.75115606235E+03  0.90957951654E+03  0.11972385243E+04  0.12699999809E+01 0. -1.
</event>
<event>
 5   0  0.4959347E-05  0.2502179E+04  0.7818609E-02  0.8402210E-01
        2   -1    0    0  501    0  0.00000000000E+00  0.00000000000E+00  0.16941589122E+04  0.16941589122E+04  0.25500000920E-02 0. -1.
       -2   -1    0    0    0  501  0.00000000000E+00  0.00000000000E+00 -0.92389522166E+03  0.92389522166E+03  0.25500000920E-02 0.  1.
    10030    2    1    2    0    0  0.00000000000E+00  0.00000000000E+00  0.77026369058E+03  0.26180541339E+04  0.25021793091E+04 0.  0.
        3    1    3    3  502    0 -0.75726102136E+03 -0.23009320523E+03 -0.62867580530E+03  0.10107524009E+04  0.10100000352E+00 0.  1.
       -3    1    3    3    0  502  0.75726102136E+03  0.23009320523E+03  0.13989394959E+04  0.16073017330E+04  0.10100000352E+00 0. -1.
</event>
<event>
 5   0  0.5219468E-05  0.2527740E+04  0.7818609E-02  0.8393169E-01
       -2   -1    0    0    0  501  0.00000000000E+00  0.00000000000E+00  0.60236600926E+03  0.60236600926E+03  0.25500000920E-02 0. -1.
        2   -1    0    0  501    0  0.00000000000E+00  0.00000000000E+00 -0.26518212607E+04  0.26518212607E+04  0.25500000920E-02 0.  1.
    10030    2    1    2    0    0  0.00000000000E+00  0.00000000000E+00 -0.20494552514E+04  0.32541872699E+04  0.25277396939E+04 0.  0.
        1    1    3    3  502    0 -0.46640768048E+02  0.63645091722E+03  0.37972116794E+03  0.74258554839E+03  0.50400001928E-02 0. -1.
       -1    1    3    3    0  502  0.46640768048E+02 -0.63645091722E+03 -0.24291764193E+04  0.25116017215E+04  0.50400001928E-02 0.  1.
</event>
<event>
 5   0  0.4959042E-05  0.2341740E+04  0.7818609E-02  0.8461643E-01
        2   -1    0    0  501    0  0.00000000000E+00  0.00000000000E+00  0.15637865506E+04  0.15637865506E+04  0.25500000920E-02 0.  1.
       -2   -1    0    0    0  501  0.00000000000E+00  0.00000000000E+00 -0.87667749267E+03  0.87667749268E+03  0.25500000920E-02 0. -1.
    10030    2    1    2    0    0  0.00000000000E+00  0.00000000000E+00  0.68710905791E+03  0.24404640433E+04  0.23417399277E+04 0.  0.
        4    1    3    3  502    0 -0.53518742936E+03  0.74755354345E+03 -0.41204482407E+03  0.10074941364E+04  0.12699999809E+01 0. -1.
       -4    1    3    3    0  502  0.53518742936E+03 -0.74755354345E+03  0.10991538820E+04  0.14329699069E+04  0.12699999809E+01 0.  1.
</event>
<event>
 5   0  0.2063930E-05  0.2473127E+04  0.7818609E-02  0.8412622E-01
       -1   -1    0    0    0  501  0.00000000000E+00  0.00000000000E+00  0.10172642188E+04  0.10172642188E+04  0.50400001928E-02 0.  1.
        1   -1    0    0  501    0  0.00000000000E+00  0.00000000000E+00 -0.15031383063E+04  0.15031383063E+04  0.50400001928E-02 0. -1.
    10030    2    1    2    0    0  0.00000000000E+00  0.00000000000E+00 -0.48587408755E+03  0.25204025251E+04  0.24731266161E+04 0.  0.
        3    1    3    3  502    0  0.82627850975E+03 -0.11913031903E+03  0.68672934213E+03  0.10809835374E+04  0.10100000352E+00 0.  1.
       -3    1    3    3    0  502 -0.82627850975E+03  0.11913031903E+03 -0.11726034297E+04  0.14394189877E+04  0.10100000352E+00 0. -1.
</event>
<event>
 5   0  0.4959347E-05  0.2642273E+04  0.7818609E-02  0.8353982E-01
        2   -1    0    0  501    0  0.00000000000E+00  0.00000000000E+00  0.15333008889E+04  0.15333008889E+04  0.25500000920E-02 0. -1.
       -2   -1    0    0    0  501  0.00000000000E+00  0.00000000000E+00 -0.11383295640E+04  0.11383295640E+04  0.25500000920E-02 0.  1.
    10030    2    1    2    0    0  0.00000000000E+00  0.00000000000E+00  0.39497132494E+03  0.26716304529E+04  0.26422730611E+04 0.  0.
        3    1    3    3  502    0 -0.52103058913E+03 -0.33123208710E+03  0.13784586481E+04  0.15104091582E+04  0.10100000352E+00 0. -1.
       -3    1    3    3    0  502  0.52103058913E+03  0.33123208710E+03 -0.98348732316E+03  0.11612212947E+04  0.10100000352E+00 0.  1.
</event>
<event>
 5   0  0.2063930E-05  0.2497952E+04  0.7818609E-02  0.8403715E-01
        1   -1    0    0  501    0  0.00000000000E+00  0.00000000000E+00  0.98499493036E+03  0.98499493037E+03  0.50400001928E-02 0. -1.
       -1   -1    0    0    0  501  0.00000000000E+00  0.00000000000E+00 -0.15837049646E+04  0.15837049646E+04  0.50400001928E-02 0.  1.
    10030    2    1    2    0    0  0.00000000000E+00  0.00000000000E+00 -0.59871003426E+03  0.25686998950E+04  0.24979522504E+04 0.  0.
        3    1    3    3  502    0 -0.41104997587E+03 -0.67944520292E+03  0.69196763095E+03  0.10532934439E+04  0.10100000352E+00 0. -1.
       -3    1    3    3    0  502  0.41104997587E+03  0.67944520292E+03 -0.12906776652E+04  0.15154064511E+04  0.10100000352E+00 0.  1.
</event>
<event>
 5   0  0.4959042E-05  0.2473266E+04  0.7818609E-02  0.8412572E-01
        2   -1    0    0  501    0  0.00000000000E+00  0.00000000000E+00  0.13239585524E+04  0.13239585524E+04  0.25500000920E-02 0. -1.
       -2   -1    0    0    0  501  0.00000000000E+00  0.00000000000E+00 -0.11550676696E+04  0.11550676696E+04  0.25500000920E-02 0.  1.
    10030    2    1    2    0    0  0.00000000000E+00  0.00000000000E+00  0.16889088280E+03  0.24790262219E+04  0.24732664391E+04 0.  0.
        4    1    3    3  502    0 -0.95236207460E+02  0.11582947930E+04 -0.33908248158E+03  0.12106590375E+04  0.12699999809E+01 0. -1.
       -4    1    3    3    0  502  0.95236207460E+02 -0.11582947930E+04  0.50797336438E+03  0.12683671845E+04  0.12699999809E+01 0.  1.
</event>
<event>
 5   0  0.4995256E-05  0.2497186E+04  0.7818609E-02  0.8403989E-01
       -2   -1    0    0    0  501  0.00000000000E+00  0.00000000000E+00  0.71225403825E+03  0.71225403826E+03  0.25500000920E-02 0.  1.
        2   -1    0    0  501    0  0.00000000000E+00  0.00000000000E+00 -0.21888042849E+04  0.21888042849E+04  0.25500000920E-02 0. -1.
    10030    2    1    2    0    0  0.00000000000E+00  0.00000000000E+00 -0.14765502467E+04  0.29010583232E+04  0.24971861692E+04 0.  0.
        2    1    3    3  502    0  0.45928821100E+03  0.98132184303E+03 -0.14591536889E+04  0.18174343752E+04  0.25500000920E-02 0. -1.
       -2    1    3    3    0  502 -0.45928821100E+03 -0.98132184303E+03 -0.17396557772E+02  0.10836239480E+04  0.25500000920E-02 0.  1.
</event>
<event>
 5   0  0.5219468E-05  0.2499033E+04  0.7818609E-02  0.8403330E-01
        2   -1    0    0  501    0  0.00000000000E+00  0.00000000000E+00  0.13837479145E+04  0.13837479145E+04  0.25500000920E-02 0.  1.
       -2   -1    0    0    0  501  0.00000000000E+00  0.00000000000E+00 -0.11283059306E+04  0.11283059306E+04  0.25500000920E-02 0. -1.
    10030    2    1    2    0    0  0.00000000000E+00  0.00000000000E+00  0.25544198387E+03  0.25120538451E+04  0.24990325955E+04 0.  0.
        1    1    3    3  502    0  0.23759346374E+03  0.12120095743E+04  0.31810987021E+03  0.12753869028E+04  0.50400001928E-02 0. -1.
       -1    1    3    3    0  502 -0.23759346374E+03 -0.12120095743E+04 -0.62667886344E+02  0.12366669423E+04  0.50400001928E-02 0.  1.
</event>
<event>
 5   0  0.4959347E-05  0.2508014E+04  0.7818609E-02  0.8400136E-01
       -2   -1    0    0    0  501  0.00000000000E+00  0.00000000000E+00  0.13285666374E+04  0.13285666374E+04  0.25500000920E-02 0.  1.
        2   -1    0    0  501    0  0.00000000000E+00  0.00000000000E+00 -0.11836314343E+04  0.11836314344E+04  0.25500000920E-02 0. -1.
    10030    2    1    2    0    0  0.00000000000E+00  0.00000000000E+00  0.14493520305E+03  0.25121980717E+04  0.25080137437E+04 0.  0.
        3    1    3    3  502    0 -0.99912834672E+03 -0.44080777007E+02 -0.68532128056E+03  0.12123802357E+04  0.10100000352E+00 0. -1.
       -3    1    3    3    0  502  0.99912834672E+03  0.44080777007E+02  0.83025648361E+03  0.12998178360E+04  0.10100000352E+00 0.  1.
</event>
<event>
 5   0  0.4995256E-05  0.2477016E+04  0.7818609E-02  0.8411220E-01
       -2   -1    0    0    0  501  0.00000000000E+00  0.00000000000E+00  0.13646727774E+04  0.13646727774E+04  0.25500000920E-02 0.  1.
        2   -1    0    0  501    0  0.00000000000E+00  0.00000000000E+00 -0.11240073605E+04  0.11240073605E+04  0.25500000920E-02 0. -1.
    10030    2    1    2    0    0  0.00000000000E+00  0.00000000000E+00  0.24066541686E+03  0.24886801380E+04  0.24770161457E+04 0.  0.
        2    1    3    3  502    0 -0.10018315650E+04  0.31722352023E+02 -0.61057450459E+03  0.11736583906E+04  0.25500000920E-02 0. -1.
       -2    1    3    3    0  502  0.10018315650E+04 -0.31722352023E+02  0.85123992145E+03  0.13150217474E+04  0.25500000920E-02 0.  1.
</event>
<event>
 5   0  0.2036578E-05  0.2535878E+04  0.7818609E-02  0.8390314E-01
        1   -1    0    0  501    0  0.00000000000E+00  0.00000000000E+00  0.21835522566E+04  0.21835522566E+04  0.50400001928E-02 0.  1.
       -1   -1    0    0    0  501  0.00000000000E+00  0.00000000000E+00 -0.73626307266E+03  0.73626307268E+03  0.50400001928E-02 0. -1.
    10030    2    1    2    0    0  0.00000000000E+00  0.00000000000E+00  0.14472891839E+04  0.29198153292E+04  0.25358776735E+04 0.  0.
        2    1    3    3  502    0 -0.27984792358E+03  0.10467322632E+04  0.14819158602E+04  0.18357662999E+04  0.25500000920E-02 0.  1.
       -2    1    3    3    0  502  0.27984792358E+03 -0.10467322632E+04 -0.34626676322E+02  0.10840490293E+04  0.25500000920E-02 0. -1.
</event>
<event>
 5   0  0.2036578E-05  0.2455966E+04  0.7818609E-02  0.8418843E-01
       -1   -1    0    0    0  501  0.00000000000E+00  0.00000000000E+00  0.10842566349E+04  0.10842566349E+04  0.50400001928E-02 0. -1.
        1   -1    0    0  501    0  0.00000000000E+00  0.00000000000E+00 -0.13907617996E+04  0.13907617996E+04  0.50400001928E-02 0.  1.
    10030    2    1    2    0    0  0.00000000000E+00  0.00000000000E+00 -0.30650516476E+03  0.24750184345E+04  0.24559663750E+04 0.  0.
        2    1    3    3  502    0  0.62288127798E+03 -0.15436156498E+03 -0.12083386097E+04  0.13681705942E+04  0.25500000920E-02 0.  1.
       -2    1    3    3    0  502 -0.62288127798E+03  0.15436156498E+03  0.90183344493E+03  0.11068478403E+04  0.25500000920E-02 0. -1.
</event>
<event>
 5   0  0.2041718E-05  0.2515458E+04  0.7818609E-02  0.8397499E-01
       -1   -1    0    0    0  501  0.00000000000E+00  0.00000000000E+00  0.82992406206E+03  0.82992406207E+03  0.50400001928E-02 0.  1.
        1   -1    0    0  501    0  0.00000000000E+00  0.00000000000E+00 -0.19060559063E+04  0.19060559063E+04  0.50400001928E-02 0. -1.
    10030    2    1    2    0    0  0.00000000000E+00  0.00000000000E+00 -0.10761318442E+04  0.27359799684E+04  0.25154575411E+04 0.  0.
        4    1    3    3  502    0 -0.78170514630E+03 -0.86115980376E+03 -0.10588084328E+04  0.15728115125E+04  0.12699999809E+01 0.  1.
       -4    1    3    3    0  502  0.78170514630E+03  0.86115980376E+03 -0.17323411396E+02  0.11631684559E+04  0.12699999809E+01 0. -1.
</event>
<event>
 5   0  0.2066170E-05  0.2455958E+04  0.7818609E-02  0.8418846E-01
       -1   -1    0    0    0  501  0.00000000000E+00  0.00000000000E+00  0.10101098711E+04  0.10101098712E+04  0.50400001928E-02 0. -1.
        1   -1    0    0  501    0  0.00000000000E+00  0.00000000000E+00 -0.14928396547E+04  0.14928396547E+04  0.50400001928E-02 0.  1.
    10030    2    1    2    0    0  0.00000000000E+00  0.00000000000E+00 -0.48272978355E+03  0.25029495259E+04  0.24559577124E+04 0.  0.
        5    1    3    3  502    0 -0.21008145640E+03 -0.54853292132E+03 -0.13403708299E+04  0.14634338509E+04  0.46999998093E+01 0.  1.
       -5    1    3    3    0  502  0.21008145640E+03  0.54853292132E+03  0.85764104639E+03  0.10395156750E+04  0.46999998093E+01 0. -1.
</event>
<event>
 5   0  0.2066170E-05  0.2488415E+04  0.7818609E-02  0.8407125E-01
       -1   -1    0    0    0  501  0.00000000000E+00  0.00000000000E+00  0.89405633435E+03  0.89405633436E+03  0.50400001928E-02 0. -1.
        1   -1    0    0  501    0  0.00000000000E+00  0.00000000000E+00 -0.17314925015E+04  0.17314925015E+04  0.50400001928E-02 0.  1.
    10030    2    1    2    0    0  0.00000000000E+00  0.00000000000E+00 -0.83743616716E+03  0.26255488359E+04  0.24884146269E+04 0.  0.
        5    1    3    3  502    0  0.63833840989E+03  0.26261415331E+03 -0.15109407902E+04  0.16611460744E+04  0.46999998093E+01 0.  1.
       -5    1    3    3    0  502 -0.63833840989E+03 -0.26261415331E+03  0.67350462304E+03  0.96440276146E+03  0.46999998093E+01 0. -1.
</event>
<event>
 5   0  0.4959347E-05  0.2197833E+04  0.7818609E-02  0.8519331E-01
        2   -1    0    0  501    0  0.00000000000E+00  0.00000000000E+00  0.20492012776E+04  0.20492012776E+04  0.25500000920E-02 0. -1.
       -2   -1    0    0    0  501  0.00000000000E+00  0.00000000000E+00 -0.58931139607E+03  0.58931139607E+03  0.25500000920E-02 0.  1.
    10030    2    1    2    0    0  0.00000000000E+00  0.00000000000E+00  0.14598898815E+04  0.26385126736E+04  0.21978331745E+04 0.  0.
        3    1    3    3  502    0 -0.65574280489E+03 -0.70641831761E+03  0.96295685539E+02  0.96865800718E+03  0.10100000352E+00 0.  1.
       -3    1    3    3    0  502  0.65574280489E+03  0.70641831761E+03  0.13635941960E+04  0.16698546665E+04  0.10100000352E+00 0. -1.
</event>
<event>
 5   0  0.4959347E-05  0.1738070E+04  0.7818609E-02  0.8739945E-01
        2   -1    0    0  501    0  0.00000000000E+00  0.00000000000E+00  0.11889392826E+04  0.11889392826E+04  0.25500000920E-02 0.  1.
       -2   -1    0    0    0  501  0.00000000000E+00  0.00000000000E+00 -0.63520644396E+03  0.63520644397E+03  0.25500000920E-02 0. -1.
    10030    2    1    2    0    0  0.00000000000E+00  0.00000000000E+00  0.55373283863E+03  0.18241457266E+04  0.17380700720E+04 0.  0.
        3    1    3    3  502    0  0.28943149837E+03 -0.38177734817E+03  0.10378234634E+04  0.11430669653E+04  0.10100000352E+00 0.  1.
       -3    1    3    3    0  502 -0.28943149837E+03  0.38177734817E+03 -0.48409062476E+03  0.68107876124E+03  0.10100000352E+00 0. -1.
</event>
<event>
 5   0  0.1692125E-05  0.2059872E+04  0.7818609E-02  0.8579129E-01
       -3   -1    0    0    0  501  0.00000000000E+00  0.00000000000E+00  0.14440481257E+04  0.14440481292E+04  0.10100000352E+00 0. -1.
        3   -1    0    0  501    0  0.00000000000E+00  0.00000000000E+00 -0.73457952937E+03  0.73457953631E+03  0.10100000352E+00 0.  1.
    10030    2    1    2    0    0  0.00000000000E+00  0.00000000000E+00  0.70946859632E+03  0.21786276655E+04  0.20598720387E+04 0.  0.
        2    1    3    3  502    0 -0.36936652517E+03  0.21890331599E+03 -0.63540978007E+03  0.76687409676E+03  0.25500000920E-02 0.  1.
       -2    1    3    3    0  502  0.36936652517E+03 -0.21890331599E+03  0.13448783764E+04  0.14117535688E+04  0.25500000920E-02 0. -1.
</event>
<event>
 5   0  0.5219468E-05  0.2356276E+04  0.7818609E-02  0.8456057E-01
        2   -1    0    0  501    0  0.00000000000E+00  0.00000000000E+00  0.14884203846E+04  0.14884203846E+04  0.25500000920E-02 0.  1.
       -2   -1    0    0    0  501  0.00000000000E+00  0.00000000000E+00 -0.93253819169E+03  0.93253819169E+03  0.25500000920E-02 0. -1.
    10030    2    1    2    0    0  0.00000000000E+00  0.00000000000E+00  0.55588219287E+03  0.24209585762E+04  0.23562757512E+04 0.  0.
        1    1    3    3  502    0  0.55467221954E+03 -0.10223252046E+04  0.47070464818E+03  0.12547401966E+04  0.50400001928E-02 0.  1.
       -1    1    3    3    0  502 -0.55467221954E+03  0.10223252046E+04  0.85177544684E+02  0.11662183797E+04  0.50400001928E-02 0. -1.
</event>
<event>
 5   0  0.2036578E-05  0.2630104E+04  0.7818609E-02  0.8358047E-01
       -1   -1    0    0    0  501  0.00000000000E+00  0.00000000000E+00  0.76649367117E+03  0.76649367118E+03  0.50400001928E-02 0. -1.
        1   -1    0    0  501    0  0.00000000000E+00  0.00000000000E+00 -0.22561988481E+04  0.22561988481E+04  0.50400001928E-02 0.  1.
    10030    2    1    2    0    0  0.00000000000E+00  0.00000000000E+00 -0.14897051770E+04  0.30226925193E+04  0.26301042854E+04 0.  0.
        2    1    3    3  502    0  0.48708511467E+03 -0.76838767070E+03 -0.18361667161E+04  0.20491900182E+04  0.25500000920E-02 0.  1.
       -2    1    3    3    0  502 -0.48708511467E+03  0.76838767070E+03  0.34646153919E+03  0.97350250106E+03  0.25500000920E-02 0. -1.
</event>
<event>
 5   0  0.4959347E-05  0.2449557E+04  0.7818609E-02  0.8421180E-01
        2   -1    0    0  501    0  0.00000000000E+00  0.00000000000E+00  0.10303160652E+04  0.10303160652E+04  0.25500000920E-02 0. -1.
       -2   -1    0    0    0  501  0.00000000000E+00  0.00000000000E+00 -0.14559437779E+04  0.14559437779E+04  0.25500000920E-02 0.  1.
    10030    2    1    2    0    0  0.00000000000E+00  0.00000000000E+00 -0.42562771264E+03  0.24862598431E+04  0.24495569105E+04 0.  0.
        3    1    3    3  502    0 -0.12212280028E+04  0.86908134233E+02 -0.24695406806E+03  0.12489744516E+04  0.10100000352E+00 0.  1.
       -3    1    3    3    0  502  0.12212280028E+04 -0.86908134233E+02 -0.17867364458E+03  0.12372853916E+04  0.10100000352E+00 0. -1.
</event>
<event>
 5   0  0.4959042E-05  0.2460628E+04  0.7818609E-02  0.8417148E-01
       -2   -1    0    0    0  501  0.00000000000E+00  0.00000000000E+00  0.96320457932E+03  0.96320457932E+03  0.25500000920E-02 0.  1.
        2   -1    0    0  501    0  0.00000000000E+00  0.00000000000E+00 -0.15714965510E+04  0.15714965511E+04  0.25500000920E-02 0. -1.
    10030    2    1    2    0    0  0.00000000000E+00  0.00000000000E+00 -0.60829197173E+03  0.25347011304E+04  0.24606281104E+04 0.  0.
        4    1    3    3  502    0  0.10201162677E+03 -0.97501731831E+03 -0.10698986975E+04  0.14511202496E+04  0.12699999809E+01 0. -1.
       -4    1    3    3    0  502 -0.10201162677E+03  0.97501731831E+03  0.46160672577E+03  0.10835808808E+04  0.12699999809E+01 0.  1.
</event>
<event>
 5   0  0.5024070E-05  0.2479567E+04  0.7818609E-02  0.8410301E-01
       -2   -1    0    0    0  501  0.00000000000E+00  0.00000000000E+00  0.10758886714E+04  0.10758886714E+04  0.25500000920E-02 0. -1.
        2   -1    0    0  501    0  0.00000000000E+00  0.00000000000E+00 -0.14286449902E+04  0.14286449902E+04  0.25500000920E-02 0.  1.
    10030    2    1    2    0    0  0.00000000000E+00  0.00000000000E+00 -0.35275631883E+03  0.25045336616E+04  0.24795668657E+04 0.  0.
        5    1    3    3  502    0 -0.10841955739E+04 -0.59882836014E+03 -0.12137414648E+03  0.12445196747E+04  0.46999998093E+01 0.  1.
       -5    1    3    3    0  502  0.10841955739E+04  0.59882836014E+03 -0.23138217236E+03  0.12600139868E+04  0.46999998093E+01 0. -1.
</event>
<event>
 5   0  0.2081874E-05  0.2460279E+04  0.7818609E-02  0.8417274E-01
        1   -1    0    0  501    0  0.00000000000E+00  0.00000000000E+00  0.71458785198E+03  0.71458785200E+03  0.50400001928E-02 0.  1.
       -1   -1    0    0    0  501  0.00000000000E+00  0.00000000000E+00 -0.21176452240E+04  0.21176452240E+04  0.50400001928E-02 0. -1.
    10030    2    1    2    0    0  0.00000000000E+00  0.00000000000E+00 -0.14030573720E+04  0.28322330760E+04  0.24602792946E+04 0.  0.
        1    1    3    3  502    0  0.19797936070E+03  0.53873580227E+03 -0.19540520871E+04  0.20366029685E+04  0.50400001928E-02 0. -1.
       -1    1    3    3    0  502 -0.19797936070E+03 -0.53873580227E+03  0.55099471512E+03  0.79563010754E+03  0.50400001928E-02 0.  1.
</event>
<event>
 5   0  0.2063930E-05  0.2372249E+04  0.7818609E-02  0.8449967E-01
        1   -1    0    0  501    0  0.00000000000E+00  0.00000000000E+00  0.22340191050E+04  0.22340191050E+04  0.50400001928E-02 0. -1.
       -1   -1    0    0    0  501  0.00000000000E+00  0.00000000000E+00 -0.62975822675E+03  0.62975822677E+03  0.50400001928E-02 0.  1.
    10030    2    1    2    0    0  0.00000000000E+00  0.00000000000E+00  0.16042608782E+04  0.28637773317E+04  0.23722494895E+04 0.  0.
        3    1    3    3  502    0 -0.11029012378E+04 -0.70877342913E+02  0.13220355732E+04  0.17231345871E+04  0.10100000352E+00 0. -1.
       -3    1    3    3    0  502  0.11029012378E+04  0.70877342913E+02  0.28222530500E+03  0.11406427447E+04  0.10100000352E+00 0.  1.
</event>
<event>
 5   0  0.2041718E-05  0.2492863E+04  0.7818609E-02  0.8405533E-01
       -1   -1    0    0    0  501  0.00000000000E+00  0.00000000000E+00  0.99488234029E+03  0.99488234030E+03  0.50400001928E-02 0. -1.
        1   -1    0    0  501    0  0.00000000000E+00  0.00000000000E+00 -0.15615827203E+04  0.15615827203E+04  0.50400001928E-02 0.  1.
    10030    2    1    2    0    0  0.00000000000E+00  0.00000000000E+00 -0.56670037998E+03  0.25564650606E+04  0.24928626688E+04 0.  0.
        4    1    3    3  502    0 -0.99746565522E+03 -0.56767449789E+03  0.21526194712E+03  0.11677034674E+04  0.12699999809E+01 0. -1.
       -4    1    3    3    0  502  0.99746565522E+03  0.56767449789E+03 -0.78196232710E+03  0.13887615932E+04  0.12699999809E+01 0.  1.
</event>
<event>
 5   0  0.2066170E-05  0.2401989E+04  0.7818609E-02  0.8438759E-01
        1   -1    0    0  501    0  0.00000000000E+00  0.00000000000E+00  0.18507506711E+04  0.18507506711E+04  0.50400001928E-02 0.  1.
       -1   -1    0    0    0  501  0.00000000000E+00  0.00000000000E+00 -0.77935252286E+03  0.77935252287E+03  0.50400001928E-02 0. -1.
    10030    2    1    2    0    0  0.00000000000E+00  0.00000000000E+00  0.10713981482E+04  0.26301031940E+04  0.24019885135E+04 0.  0.
        5    1    3    3  502    0 -0.12709220840E+03 -0.10638155301E+04 -0.58526443732E+02  0.10729880457E+04  0.46999998093E+01 0. -1.
       -5    1    3    3    0  502  0.12709220840E+03  0.10638155301E+04  0.11299245920E+04  0.15571151483E+04  0.46999998093E+01 0.  1.
</event>
<event>
 5   0  0.4959347E-05  0.2705787E+04  0.7818609E-02  0.8333130E-01
        2   -1    0    0  501    0  0.00000000000E+00  0.00000000000E+00  0.11180089492E+04  0.11180089492E+04  0.25500000920E-02 0.  1.
       -2   -1    0    0    0  501  0.00000000000E+00  0.00000000000E+00 -0.16371255164E+04  0.16371255164E+04  0.25500000920E-02 0. -1.
    10030    2    1    2    0    0  0.00000000000E+00  0.00000000000E+00 -0.51911656718E+03  0.27551344657E+04  0.27057871153E+04 0.  0.
        3    1    3    3  502    0 -0.10033657948E+04 -0.83055698727E+03  0.11283442580E+03  0.13074017918E+04  0.10100000352E+00 0.  1.
       -3    1    3    3    0  502  0.10033657948E+04  0.83055698727E+03 -0.63195099298E+03  0.14477326739E+04  0.10100000352E+00 0. -1.
</event>
<event>
 5   0  0.2036578E-05  0.2560285E+04  0.7818609E-02  0.8381818E-01
       -1   -1    0    0    0  501  0.00000000000E+00  0.00000000000E+00  0.13001941811E+04  0.13001941811E+04  0.50400001928E-02 0.  1.
        1   -1    0    0  501    0  0.00000000000E+00  0.00000000000E+00 -0.12603999293E+04  0.12603999293E+04  0.50400001928E-02 0. -1.
    10030    2    1    2    0    0  0.00000000000E+00  0.00000000000E+00  0.39794251851E+02  0.25605941104E+04  0.25602848700E+04 0.  0.
        2    1    3    3  502    0  0.54039868766E+03  0.96400368317E+02 -0.11367203487E+04  0.12623220365E+04  0.25500000920E-02 0. -1.
       -2    1    3    3    0  502 -0.54039868766E+03 -0.96400368317E+02  0.11765146005E+04  0.12982720739E+04  0.25500000920E-02 0.  1.
</event>
<event>
 5   0  0.2041718E-05  0.2480681E+04  0.7818609E-02  0.8409901E-01
        1   -1    0    0  501    0  0.00000000000E+00  0.00000000000E+00  0.13050213813E+04  0.13050213813E+04  0.50400001928E-02 0. -1.
       -1   -1    0    0    0  501  0.00000000000E+00  0.00000000000E+00 -0.11788652222E+04  0.11788652222E+04  0.50400001928E-02 0.  1.
    10030    2    1    2    0    0  0.00000000000E+00  0.00000000000E+00  0.12615615913E+03  0.24838866035E+04  0.24806808103E+04 0.  0.
        4    1    3    3  502    0  0.20216541913E+03  0.12237451610E+04  0.67514607150E+02  0.12421686322E+04  0.12699999809E+01 0. -1.
       -4    1    3    3    0  502 -0.20216541913E+03 -0.12237451610E+04  0.58641551976E+02  0.12417179713E+04  0.12699999809E+01 0.  1.
</event>
<event>
 5   0  0.2063930E-05  0.2582333E+04  0.7818609E-02  0.8374227E-01
        1   -1    0    0  501    0  0.00000000000E+00  0.00000000000E+00  0.68204855089E+03  0.68204855091E+03  0.50400001928E-02 0. -1.
       -1   -1    0    0    0  501  0.00000000000E+00  0.00000000000E+00 -0.24442708074E+04  0.24442708074E+04  0.50400001928E-02 0.  1.
    10030    2    1    2    0    0  0.00000000000E+00  0.00000000000E+00 -0.17622222565E+04  0.31263193583E+04  0.25823333342E+04 0.  0.
        3    1    3    3  502    0  0.53244972582E+03 -0.74344967128E+03 -0.19846639494E+04  0.21852027655E+04  0.10100000352E+00 0.  1.
       -3    1    3    3    0  502 -0.53244972582E+03  0.74344967128E+03  0.22244169289E+03  0.94111659277E+03  0.10100000352E+00 0. -1.
</event>
<event>
 5   0  0.2041718E-05  0.2405674E+04  0.7818609E-02  0.8437382E-01
       -1   -1    0    0    0  501  0.00000000000E+00  0.00000000000E+00  0.10880279464E+04  0.10880279464E+04  0.50400001928E-02 0.  1.
        1   -1    0    0  501    0  0.00000000000E+00  0.00000000000E+00 -0.13297611099E+04  0.13297611099E+04  0.50400001928E-02 0. -1.
    10030    2    1    2    0    0  0.00000000000E+00  0.00000000000E+00 -0.24173316349E+03  0.24177890563E+04  0.24056743334E+04 0.  0.
        4    1    3    3  502    0 -0.61901523546E+03  0.92480794394E+03  0.33790345323E+03  0.11630262041E+04  0.12699999809E+01 0.  1.
       -4    1    3    3    0  502  0.61901523546E+03 -0.92480794394E+03 -0.57963661672E+03  0.12547628522E+04  0.12699999809E+01 0. -1.
</event>
<event>
 5   0  0.4995256E-05  0.2120401E+04  0.7818609E-02  0.8552309E-01
       -2   -1    0    0    0  501  0.00000000000E+00  0.00000000000E+00  0.10848654094E+04  0.10848654094E+04  0.25500000920E-02 0.  1.
        2   -1    0    0  501    0  0.00000000000E+00  0.00000000000E+00 -0.10360963754E+04  0.10360963754E+04  0.25500000920E-02 0. -1.
    10030    2    1    2    0    0  0.00000000000E+00  0.00000000000E+00  0.48769033975E+02  0.21209617848E+04  0.21204010172E+04 0.  0.
        2    1    3    3  502    0 -0.45934375453E+03 -0.67031199713E+03  0.70552735145E+03  0.10761429747E+04  0.25500000920E-02 0.  1.
       -2    1    3    3    0  502  0.45934375453E+03  0.67031199713E+03 -0.65675831747E+03  0.10448188101E+04  0.25500000920E-02 0. -1.
</event>
<event>
 5   0  0.5024070E-05  0.2507842E+04  0.7818609E-02  0.8400197E-01
        2   -1    0    0  501    0  0.00000000000E+00  0.00000000000E+00  0.17284103552E+04  0.17284103552E+04  0.25500000920E-02 0.  1.
       -2   -1    0    0    0  501  0.00000000000E+00  0.00000000000E+00 -0.90968993761E+03  0.90968993761E+03  0.25500000920E-02 0. -1.
    10030    2    1    2    0    0  0.00000000000E+00  0.00000000000E+00  0.81872041755E+03  0.26381002928E+04  0.25078417081E+04 0.  0.
        5    1    3    3  502    0  0.10064862412E+04  0.74562166379E+03  0.34866407148E+03  0.13002134225E+04  0.46999998093E+01 0. -1.
       -5    1    3    3    0  502 -0.10064862412E+04 -0.74562166379E+03  0.47005634608E+03  0.13378868703E+04  0.46999998093E+01 0.  1.
</event>
<event>
 5   0  0.4959347E-05  0.2516241E+04  0.7818609E-02  0.8397222E-01
        2   -1    0    0  501    0  0.00000000000E+00  0.00000000000E+00  0.12302235301E+04  0.12302235301E+04  0.25500000920E-02 0. -1.
       -2   -1    0    0    0  501  0.00000000000E+00  0.00000000000E+00 -0.12866504967E+04  0.12866504967E+04  0.25500000920E-02 0.  1.
    10030    2    1    2    0    0  0.00000000000E+00  0.00000000000E+00 -0.56426966535E+02  0.25168740268E+04  0.25162414162E+04 0.  0.
        3    1    3    3  502    0 -0.45206918975E+03  0.79000990882E+03  0.84055856209E+03  0.12389596099E+04  0.10100000352E+00 0. -1.
       -3    1    3    3    0  502  0.45206918975E+03 -0.79000990882E+03 -0.89698552862E+03  0.12779144170E+04  0.10100000352E+00 0.  1.
</event>
<event>
 5   0  0.5024070E-05  0.2472996E+04  0.7818609E-02  0.8412670E-01
       -2   -1    0    0    0  501  0.00000000000E+00  0.00000000000E+00  0.86722320958E+03  0.86722320958E+03  0.25500000920E-02 0.  1.
        2   -1    0    0  501    0  0.00000000000E+00  0.00000000000E+00 -0.17630144615E+04  0.17630144615E+04  0.25500000920E-02 0. -1.
    10030    2    1    2    0    0  0.00000000000E+00  0.00000000000E+00 -0.89579125189E+03  0.26302376710E+04  0.24729958025E+04 0.  0.
        5    1    3    3  502    0 -0.63709713200E+02 -0.46542328271E+03  0.76860742734E+03  0.90080920677E+03  0.46999998093E+01 0.  1.
       -5    1    3    3    0  502  0.63709713200E+02  0.46542328271E+03 -0.16643986792E+04  0.17294284643E+04  0.46999998093E+01 0. -1.
</event>
<event>
 5   0  0.2041718E-05  0.2629848E+04  0.7818609E-02  0.8358132E-01
        1   -1    0    0  501    0  0.00000000000E+00  0.00000000000E+00  0.17278015286E+04  0.17278015286E+04  0.50400001928E-02 0. -1.
       -1   -1    0    0    0  501  0.00000000000E+00  0.00000000000E+00 -0.10007085588E+04  0.10007085588E+04  0.50400001928E-02 0.  1.
    10030    2    1    2    0    0  0.00000000000E+00  0.00000000000E+00  0.72709296976E+03  0.27285100874E+04  0.26298484957E+04 0.  0.
        4    1    3    3  502    0 -0.55808253371E+03 -0.99893060218E+03  0.10356981346E+04  0.15433699172E+04  0.12699999809E+01 0. -1.
       -4    1    3    3    0  502  0.55808253371E+03  0.99893060218E+03 -0.30860516482E+03  0.11851401702E+04  0.12699999809E+01 0.  1.
</event>
<event>
 5   0  0.2066170E-05  0.2437092E+04  0.7818609E-02  0.8425746E-01
        1   -1    0    0  501    0  0.00000000000E+00  0.00000000000E+00  0.15967195944E+04  0.15967195944E+04  0.50400001928E-02 0. -1.
       -1   -1    0    0    0  501  0.00000000000E+00  0.00000000000E+00 -0.92994069803E+03  0.92994069804E+03  0.50400001928E-02 0.  1.
    10030    2    1    2    0    0  0.00000000000E+00  0.00000000000E+00  0.66677889641E+03  0.25266602925E+04  0.24370921478E+04 0.  0.
        5    1    3    3  502    0 -0.18128439728E+03  0.12049733291E+04  0.33051485781E+03  0.12625715495E+04  0.46999998093E+01 0. -1.
       -5    1    3    3    0  502  0.18128439728E+03 -0.12049733291E+04  0.33626403860E+03  0.12640887430E+04  0.46999998093E+01 0.  1.
</event>
<event>
 5   0  0.2063930E-05  0.2725666E+04  0.7818609E-02  0.8326725E-01
        1   -1    0    0  501    0  0.00000000000E+00  0.00000000000E+00  0.12783286790E+04  0.12783286791E+04  0.50400001928E-02 0. -1.
       -1   -1    0    0    0  501  0.00000000000E+00  0.00000000000E+00 -0.14529232399E+04  0.14529232399E+04  0.50400001928E-02 0.  1.
    10030    2    1    2    0    0  0.00000000000E+00  0.00000000000E+00 -0.17459456087E+03  0.27312519190E+04  0.27256657506E+04 0.  0.
        3    1    3    3  502    0 -0.45450196569E+03 -0.77882979029E+03 -0.11112357127E+04  0.14310809546E+04  0.10100000352E+00 0.  1.
       -3    1    3    3    0  502  0.45450196569E+03  0.77882979029E+03  0.93664115188E+03  0.13001709644E+04  0.10100000352E+00 0. -1.
</event>
<event>
 5   0  0.2066170E-05  0.1919364E+04  0.7818609E-02  0.8645277E-01
        1   -1    0    0  501    0  0.00000000000E+00  0.00000000000E+00  0.15001361923E+04  0.15001361923E+04  0.50400001928E-02 0.  1.
       -1   -1    0    0    0  501  0.00000000000E+00  0.00000000000E+00 -0.61393716191E+03  0.61393716193E+03  0.50400001928E-02 0. -1.
    10030    2    1    2    0    0  0.00000000000E+00  0.00000000000E+00  0.88619903035E+03  0.21140733542E+04  0.19193638075E+04 0.  0.
        5    1    3    3  502    0  0.10756007153E+03 -0.59586992721E+02  0.14914108780E+04  0.14964786252E+04  0.46999998093E+01 0.  1.
       -5    1    3    3    0  502 -0.10756007153E+03  0.59586992721E+02 -0.60521184767E+03  0.61759472897E+03  0.46999998093E+01 0. -1.
</event>
<event>
 5   0  0.4995256E-05  0.2496262E+04  0.7818609E-02  0.8404318E-01
        2   -1    0    0  501    0  0.00000000000E+00  0.00000000000E+00  0.92416956485E+03  0.92416956485E+03  0.25500000920E-02 0. -1.
       -2   -1    0    0    0  501  0.00000000000E+00  0.00000000000E+00 -0.16856551238E+04  0.16856551238E+04  0.25500000920E-02 0.  1.
    10030    2    1    2    0    0  0.00000000000E+00  0.00000000000E+00 -0.76148555893E+03  0.26098246886E+04  0.24962621355E+04 0.  0.
        2    1    3    3  502    0 -0.22216746365E+03 -0.26706424531E+03 -0.16340920581E+04  0.16706102321E+04  0.25500000920E-02 0.  1.
       -2    1    3    3    0  502  0.22216746365E+03  0.26706424531E+03  0.87260649919E+03  0.93921445658E+03  0.25500000920E-02 0. -1.
</event>
<event>
 5   0  0.4959347E-05  0.2540066E+04  0.7818609E-02  0.8388849E-01
        2   -1    0    0  501    0  0.00000000000E+00  0.00000000000E+00  0.20631719678E+04  0.20631719678E+04  0.25500000920E-02 0. -1.
       -2   -1    0    0    0  501  0.00000000000E+00  0.00000000000E+00 -0.78179813751E+03  0.78179813751E+03  0.25500000920E-02 0.  1.
    10030    2    1    2    0    0  0.00000000000E+00  0.00000000000E+00  0.12813738302E+04  0.28449701053E+04  0.25400661423E+04 0.  0.
        3    1    3    3  502    0 -0.73290854632E+03  0.72653256239E+03 -0.18842820185E+03  0.10490518095E+04  0.10100000352E+00 0.  1.
       -3    1    3    3    0  502  0.73290854632E+03 -0.72653256239E+03  0.14698020321E+04  0.17959182958E+04  0.10100000352E+00 0. -1.
</event>
<event>
 5   0  0.4959347E-05  0.2547832E+04  0.7818609E-02  0.8386141E-01
        2   -1    0    0  501    0  0.00000000000E+00  0.00000000000E+00  0.11981467941E+04  0.11981467941E+04  0.25500000920E-02 0. -1.
       -2   -1    0    0    0  501  0.00000000000E+00  0.00000000000E+00 -0.13544768013E+04  0.13544768013E+04  0.25500000920E-02 0.  1.
    10030    2    1    2    0    0  0.00000000000E+00  0.00000000000E+00 -0.15633000716E+03  0.25526235954E+04  0.25478320487E+04 0.  0.
        3    1    3    3  502    0 -0.88958281858E+03  0.91119870567E+03 -0.43151394973E+02  0.12741674636E+04  0.10100000352E+00 0.  1.
       -3    1    3    3    0  502  0.88958281858E+03 -0.91119870567E+03 -0.11317861219E+03  0.12784561317E+04  0.10100000352E+00 0. -1.
</event>
<event>
 5   0  0.2036578E-05  0.2412303E+04  0.7818609E-02  0.8434912E-01
        1   -1    0    0  501    0  0.00000000000E+00  0.00000000000E+00  0.11957867362E+04  0.11957867363E+04  0.50400001928E-02 0. -1.
       -1   -1    0    0    0  501  0.00000000000E+00  0.00000000000E+00 -0.12166058699E+04  0.12166058699E+04  0.50400001928E-02 0.  1.
    10030    2    1    2    0    0  0.00000000000E+00  0.00000000000E+00 -0.20819133654E+02  0.24123926062E+04  0.24123027691E+04 0.  0.
        2    1    3    3  502    0 -0.10539162451E+04  0.52053017665E+03 -0.28080833070E+03  0.12085298652E+04  0.25500000920E-02 0.  1.
       -2    1    3    3    0  502  0.10539162451E+04 -0.52053017665E+03  0.25998919704E+03  0.12038627410E+04  0.25500000920E-02 0. -1.
</event>
<event>
 5   0  0.4959042E-05  0.2498859E+04  0.7818609E-02  0.8403392E-01
        2   -1    0    0  501    0  0.00000000000E+00  0.00000000000E+00  0.15849745819E+04  0.15849745819E+04  0.25500000920E-02 0. -1.
       -2   -1    0    0    0  501  0.00000000000E+00  0.00000000000E+00 -0.98492032452E+03  0.98492032452E+03  0.25500000920E-02 0.  1.
    10030    2    1    2    0    0  0.00000000000E+00  0.00000000000E+00  0.60005425742E+03  0.25698949065E+04  0.24988586832E+04 0.  0.
        4    1    3    3  502    0  0.52193680711E+03 -0.25540918799E+02  0.14671911321E+04  0.15574728890E+04  0.12699999809E+01 0. -1.
       -4    1    3    3    0  502 -0.52193680711E+03  0.25540918799E+02 -0.86713687464E+03  0.10124220174E+04  0.12699999809E+01 0.  1.
</event>
<event>
 5   0  0.4959347E-05  0.2527659E+04  0.7818609E-02  0.8393198E-01
       -2   -1    0    0    0  501  0.00000000000E+00  0.00000000000E+00  0.74880791439E+03  0.74880791440E+03  0.25500000920E-02 0.  1.
        2   -1    0    0  501    0  0.00000000000E+00  0.00000000000E+00 -0.21330771791E+04  0.21330771791E+04  0.25500000920E-02 0. -1.
    10030    2    1    2    0    0  0.00000000000E+00  0.00000000000E+00 -0.13842692647E+04  0.28818850935E+04  0.25276590543E+04 0.  0.
        3    1    3    3  502    0 -0.24444890828E+03  0.32653068022E+03 -0.20559667499E+04  0.20960383682E+04  0.10100000352E+00 0. -1.
       -3    1    3    3    0  502  0.24444890828E+03 -0.32653068022E+03  0.67169748520E+03  0.78584672533E+03  0.10100000352E+00 0.  1.
</event>
<event>
 5   0  0.4959347E-05  0.2551881E+04  0.7818609E-02  0.8384732E-01
       -2   -1    0    0    0  501  0.00000000000E+00  0.00000000000E+00  0.18086013527E+04  0.18086013527E+04  0.25500000920E-02 0. -1.
        2   -1    0    0  501    0  0.00000000000E+00  0.00000000000E+00 -0.90015670501E+03  0.90015670501E+03  0.25500000920E-02 0.  1.
    10030    2    1    2    0    0  0.00000000000E+00  0.00000000000E+00  0.90844464772E+03  0.27087580577E+04  0.25518813721E+04 0.  0.
        3    1    3    3  502    0  0.86228124297E+02 -0.70248764679E+03 -0.67269237683E+03  0.97644212699E+03  0.10100000352E+00 0.  1.
       -3    1    3    3    0  502 -0.86228124297E+02  0.70248764679E+03  0.15811370245E+04  0.17323159307E+04  0.10100000352E+00 0. -1.
</event>
<event>
 5   0  0.4959347E-05  0.2425473E+04  0.7818609E-02  0.8430028E-01
        2   -1    0    0  501    0  0.00000000000E+00  0.00000000000E+00  0.92548558810E+03  0.92548558810E+03  0.25500000920E-02 0. -1.
       -2   -1    0    0    0  501  0.00000000000E+00  0.00000000000E+00 -0.15891436240E+04  0.15891436240E+04  0.25500000920E-02 0.  1.
    10030    2    1    2    0    0  0.00000000000E+00  0.00000000000E+00 -0.66365803589E+03  0.25146292121E+04  0.24254727551E+04 0.  0.
        3    1    3    3  502    0  0.66270171562E+03  0.89881029782E+03  0.15852152546E+03  0.11279018572E+04  0.10100000352E+00 0. -1.
       -3    1    3    3    0  502 -0.66270171562E+03 -0.89881029782E+03 -0.82217956135E+03  0.13867273548E+04  0.10100000352E+00 0.  1.
</event>
<event>
 5   0  0.5024070E-05  0.2501374E+04  0.7818609E-02  0.8402496E-01
       -2   -1    0    0    0  501  0.00000000000E+00  0.00000000000E+00  0.98870891135E+03  0.98870891135E+03  0.25500000920E-02 0.  1.
        2   -1    0    0  501    0  0.00000000000E+00  0.00000000000E+00 -0.15820810784E+04  0.15820810784E+04  0.25500000920E-02 0. -1.
    10030    2    1    2    0    0  0.00000000000E+00  0.00000000000E+00 -0.59337216703E+03  0.25707899897E+04  0.25013737511E+04 0.  0.
        5    1    3    3  502    0 -0.11310624267E+04  0.45518087571E+02 -0.84325407295E+03  0.14115500809E+04  0.46999998093E+01 0.  1.
       -5    1    3    3    0  502  0.11310624267E+04 -0.45518087571E+02  0.24988190592E+03  0.11592399088E+04  0.46999998093E+01 0. -1.
</event>
<event>
 5   0  0.2063930E-05  0.2528054E+04  0.7818609E-02  0.8393059E-01
       -1   -1    0    0    0  501  0.00000000000E+00  0.00000000000E+00  0.12601338002E+04  0.12601338002E+04  0.50400001928E-02 0. -1.
        1   -1    0    0  501    0  0.00000000000E+00  0.00000000000E+00 -0.12679321932E+04  0.12679321932E+04  0.50400001928E-02 0.  1.
    10030    2    1    2    0    0  0.00000000000E+00  0.00000000000E+00 -0.77983930491E+01  0.25280659934E+04  0.25280539654E+04 0.  0.
        3    1    3    3  502    0  0.25025078754E+03 -0.12349140713E+04  0.96729223859E+02  0.12637225855E+04  0.10100000352E+00 0. -1.
       -3    1    3    3    0  502 -0.25025078754E+03  0.12349140713E+04 -0.10452761691E+03  0.12643434079E+04  0.10100000352E+00 0.  1.
</event>
<event>
 5   0  0.2036578E-05  0.2487000E+04  0.7818609E-02  0.8407632E-01
        1   -1    0    0  501    0  0.00000000000E+00  0.00000000000E+00  0.15034522404E+04  0.15034522404E+04  0.50400001928E-02 0.  1.
       -1   -1    0    0    0  501  0.00000000000E+00  0.00000000000E+00 -0.10284943773E+04  0.10284943773E+04  0.50400001928E-02 0. -1.
    10030    2    1    2    0    0  0.00000000000E+00  0.00000000000E+00  0.47495786311E+03  0.25319466177E+04  0.24869999403E+04 0.  0.
        2    1    3    3  502    0  0.48152723934E+03 -0.34291813478E+03 -0.87629014865E+03  0.10570457672E+04  0.25500000920E-02 0. -1.
       -2    1    3    3    0  502 -0.48152723934E+03  0.34291813478E+03  0.13512480118E+04  0.14749008505E+04  0.25500000920E-02 0.  1.
</event>
<event>
 5   0  0.2041718E-05  0.2616404E+04  0.7818609E-02  0.8362651E-01
        1   -1    0    0  501    0  0.00000000000E+00  0.00000000000E+00  0.16814090397E+04  0.16814090397E+04  0.50400001928E-02 0. -1.
       -1   -1    0    0    0  501  0.00000000000E+00  0.00000000000E+00 -0.10178319914E+04  0.10178319914E+04  0.50400001928E-02 0.  1.
    10030    2    1    2    0    0  0.00000000000E+00  0.00000000000E+00  0.66357704829E+03  0.26992410312E+04  0.26164035708E+04 0.  0.
        4    1    3    3  502    0 -0.48184626098E+03  0.11276649147E+04  0.80183012662E+03  0.14651747827E+04  0.12699999809E+01 0.  1.
       -4    1    3    3    0  502  0.48184626098E+03 -0.11276649147E+04 -0.13825307834E+03  0.12340662485E+04  0.12699999809E+01 0. -1.
</event>
<event>
 5   0  0.4959347E-05  0.2519487E+04  0.7818609E-02  0.8396076E-01
        2   -1    0    0  501    0  0.00000000000E+00  0.00000000000E+00  0.22360048149E+04  0.22360048149E+04  0.25500000920E-02 0.  1.
       -2   -1    0    0    0  501  0.00000000000E+00  0.00000000000E+00 -0.70972747583E+03  0.70972747583E+03  0.25500000920E-02 0. -1.
    10030    2    1    2    0    0  0.00000000000E+00  0.00000000000E+00  0.15262773391E+04  0.29457322908E+04  0.25194872917E+04 0.  0.
        3    1    3    3  502    0 -0.10400769919E+04  0.39649238007E+03  0.14528431412E+04  0.18302239097E+04  0.10100000352E+00 0. -1.
       -3    1    3    3    0  502  0.10400769919E+04 -0.39649238007E+03  0.73434197864E+02  0.11155083810E+04  0.10100000352E+00 0.  1.
</event>
<event>
 5   0  0.4959347E-05  0.2484641E+04  0.7818609E-02  0.8408478E-01
       -2   -1    0    0    0  501  0.00000000000E+00  0.00000000000E+00  0.13237984125E+04  0.13237984125E+04  0.25500000920E-02 0.  1.
        2   -1    0    0  501    0  0.00000000000E+00  0.00000000000E+00 -0.11658578112E+04  0.11658578112E+04  0.25500000920E-02 0. -1.
    10030    2    1    2    0    0  0.00000000000E+00  0.00000000000E+00  0.15794060127E+03  0.24896562237E+04  0.24846413984E+04 0.  0.
        3    1    3    3  502    0 -0.12404964631E+04 -0.62415809020E+02  0.53750048211E+02  0.12432281713E+04  0.10100000352E+00 0.  1.
       -3    1    3    3    0  502  0.12404964631E+04  0.62415809020E+02  0.10419055306E+03  0.12464280524E+04  0.10100000352E+00 0. -1.
</event>
<event>
 5   0  0.5219468E-05  0.2549879E+04  0.7818609E-02  0.8385428E-01
        2   -1    0    0  501    0  0.00000000000E+00  0.00000000000E+00  0.11290756002E+04  0.11290756002E+04  0.25500000920E-02 0.  1.
       -2   -1    0    0    0  501  0.00000000000E+00  0.00000000000E+00 -0.14396477205E+04  0.14396477205E+04  0.25500000920E-02 0. -1.
    10030    2    1    2    0    0  0.00000000000E+00  0.00000000000E+00 -0.31057212035E+03  0.25687233207E+04  0.25498793023E+04 0.  0.
        1    1    3    3  502    0  0.46414218976E+03 -0.46624828568E+03 -0.12554445255E+04  0.14173765882E+04  0.50400001928E-02 0. -1.
       -1    1    3    3    0  502 -0.46414218976E+03  0.46624828568E+03  0.94487240517E+03  0.11513467324E+04  0.50400001928E-02 0.  1.
</event>
<event>
 5   0  0.2081874E-05  0.2204245E+04  0.7818609E-02  0.8516663E-01
        1   -1    0    0  501    0  0.00000000000E+00  0.00000000000E+00  0.16145859957E+04  0.16145859957E+04  0.50400001928E-02 0.  1.
       -1   -1    0    0    0  501  0.00000000000E+00  0.00000000000E+00 -0.75231276223E+03  0.75231276224E+03  0.50400001928E-02 0. -1.
    10030    2    1    2    0    0  0.00000000000E+00  0.00000000000E+00  0.86227323343E+03  0.23668987579E+04  0.22042446781E+04 0.  0.
        1    1    3    3  502    0 -0.49440907364E+02 -0.78507010283E+03  0.12600410319E+04  0.14854234655E+04  0.50400001928E-02 0.  1.
       -1    1    3    3    0  502  0.49440907364E+02  0.78507010283E+03 -0.39776779846E+03  0.88147529245E+03  0.50400001928E-02 0. -1.
</event>
<event>
 5   0  0.4995256E-05  0.2499550E+04  0.7818609E-02  0.8403146E-01
       -2   -1    0    0    0  501  0.00000000000E+00  0.00000000000E+00  0.13697678027E+04  0.13697678027E+04  0.25500000920E-02 0. -1.
        2   -1    0    0  501    0  0.00000000000E+00  0.00000000000E+00 -0.11402933927E+04  0.11402933927E+04  0.25500000920E-02 0.  1.
    10030    2    1    2    0    0  0.00000000000E+00  0.00000000000E+00  0.22947440997E+03  0.25100611953E+04  0.24995496994E+04 0.  0.
        2    1    3    3  502    0  0.45513547382E+03  0.63274770624E+03  0.10957894153E+04  0.13447201947E+04  0.25500000920E-02 0. -1.
       -2    1    3    3    0  502 -0.45513547382E+03 -0.63274770624E+03 -0.86631500535E+03  0.11653410006E+04  0.25500000920E-02 0.  1.
</event>
<event>
 5   0  0.4959347E-05  0.2111386E+04  0.7818609E-02  0.8556244E-01
        2   -1    0    0  501    0  0.00000000000E+00  0.00000000000E+00  0.20071450014E+04  0.20071450014E+04  0.25500000920E-02 0.  1.
       -2   -1    0    0    0  501  0.00000000000E+00  0.00000000000E+00 -0.55526015971E+03  0.55526015972E+03  0.25500000920E-02 0. -1.
    10030    2    1    2    0    0  0.00000000000E+00  0.00000000000E+00  0.14518848417E+04  0.25624051611E+04  0.21113859468E+04 0.  0.
        3    1    3    3  502    0 -0.86513291025E+03  0.54840393289E+03  0.10360337327E+04  0.14569034736E+04  0.10100000352E+00 0.  1.
       -3    1    3    3    0  502  0.86513291025E+03 -0.54840393289E+03  0.41585110903E+03  0.11055016875E+04  0.10100000352E+00 0. -1.
</event>
<event>
 5   0  0.2081874E-05  0.2654632E+04  0.7818609E-02  0.8349877E-01
        1   -1    0    0  501    0  0.00000000000E+00  0.00000000000E+00  0.17022279112E+04  0.17022279112E+04  0.50400001928E-02 0.  1.
       -1   -1    0    0    0  501  0.00000000000E+00  0.00000000000E+00 -0.10349772936E+04  0.10349772936E+04  0.50400001928E-02 0. -1.
    10030    2    1    2    0    0  0.00000000000E+00  0.00000000000E+00  0.66725061762E+03  0.27372052049E+04  0.26546316028E+04 0.  0.
        1    1    3    3  502    0  0.12712560268E+04 -0.32889299811E+03  0.13393995361E+03  0.13199251498E+04  0.50400001928E-02 0.  1.
       -1    1    3    3    0  502 -0.12712560268E+04  0.32889299811E+03  0.53331066401E+03  0.14172800550E+04  0.50400001928E-02 0. -1.
</event>
<event>
 5   0  0.4959042E-05  0.2523398E+04  0.7818609E-02  0.8394697E-01
       -2   -1    0    0    0  501  0.00000000000E+00  0.00000000000E+00  0.17349318319E+04  0.17349318319E+04  0.25500000920E-02 0. -1.
        2   -1    0    0  501    0  0.00000000000E+00  0.00000000000E+00 -0.91754895014E+03  0.91754895015E+03  0.25500000920E-02 0.  1.
    10030    2    1    2    0    0  0.00000000000E+00  0.00000000000E+00  0.81738288179E+03  0.26524807821E+04  0.25233984077E+04 0.  0.
        4    1    3    3  502    0 -0.66937451959E+03 -0.28797324674E+03  0.14913763826E+04  0.16598782985E+04  0.12699999809E+01 0. -1.
       -4    1    3    3    0  502  0.66937451959E+03  0.28797324674E+03 -0.67399350083E+03  0.99260248357E+03  0.12699999809E+01 0.  1.
</event>
<event>
 5   0  0.1692125E-05  0.2387510E+04  0.7818609E-02  0.8444194E-01
        3   -1    0    0  501    0  0.00000000000E+00  0.00000000000E+00  0.14208716665E+04  0.14208716701E+04  0.10100000352E+00 0.  1.
       -3   -1    0    0    0  501  0.00000000000E+00  0.00000000000E+00 -0.10029415340E+04  0.10029415391E+04  0.10100000352E+00 0. -1.
    10030    2    1    2    0    0  0.00000000000E+00  0.00000000000E+00  0.41793013249E+03  0.24238132092E+04  0.23875101838E+04 0.  0.
        4    1    3    3  502    0 -0.53635450586E+03  0.10165773942E+04 -0.11834044567E+03  0.11554703927E+04  0.12699999809E+01 0. -1.
       -4    1    3    3    0  502  0.53635450586E+03 -0.10165773942E+04  0.53627057815E+03  0.12683428166E+04  0.12699999809E+01 0.  1.
</event>
<event>
 5   0  0.5024070E-05  0.2510976E+04  0.7818609E-02  0.8399086E-01
       -2   -1    0    0    0  501  0.00000000000E+00  0.00000000000E+00  0.92010678266E+03  0.92010678266E+03  0.25500000920E-02 0.  1.
        2   -1    0    0  501    0  0.00000000000E+00  0.00000000000E+00 -0.17131159048E+04  0.17131159048E+04  0.25500000920E-02 0. -1.
    10030    2    1    2    0    0  0.00000000000E+00  0.00000000000E+00 -0.79300912217E+03  0.26332226875E+04  0.25109755582E+04 0.  0.
        5    1    3    3  502    0  0.80676255138E+03  0.89549161371E+03 -0.28034710446E+02  0.12056446738E+04  0.46999998093E+01 0.  1.
       -5    1    3    3    0  502 -0.80676255138E+03 -0.89549161371E+03 -0.76497441173E+03  0.14275780137E+04  0.46999998093E+01 0. -1.
</event>
<event>
 5   0  0.4959042E-05  0.2468196E+04  0.7818609E-02  0.8414404E-01
       -2   -1    0    0    0  501  0.00000000000E+00  0.00000000000E+00  0.90264987931E+03  0.90264987931E+03  0.25500000920E-02 0.  1.
        2   -1    0    0  501    0  0.00000000000E+00  0.00000000000E+00 -0.16872517720E+04  0.16872517720E+04  0.25500000920E-02 0. -1.
    10030    2    1    2    0    0  0.00000000000E+00  0.00000000000E+00 -0.78460189269E+03  0.25899016513E+04  0.24681957851E+04 0.  0.
        4    1    3    3  502    0  0.48483475172E+03  0.49762050425E+03  0.67794607666E+03  0.97072313173E+03  0.12699999809E+01 0.  1.
       -4    1    3    3    0  502 -0.48483475172E+03 -0.49762050425E+03 -0.14625479693E+04  0.16191785196E+04  0.12699999809E+01 0. -1.
</event>
<event>
 5   0  0.4959347E-05  0.2609880E+04  0.7818609E-02  0.8364853E-01
        2   -1    0    0  501    0  0.00000000000E+00  0.00000000000E+00  0.17323871528E+04  0.17323871528E+04  0.25500000920E-02 0.  1.
       -2   -1    0    0    0  501  0.00000000000E+00  0.00000000000E+00 -0.98296098161E+03  0.98296098161E+03  0.25500000920E-02 0. -1.
    10030    2    1    2    0    0  0.00000000000E+00  0.00000000000E+00  0.74942617118E+03  0.27153481344E+04  0.26098804388E+04 0.  0.
        3    1    3    3  502    0 -0.10007320080E+04  0.32280242635E+03  0.11787313216E+04  0.15795801648E+04  0.10100000352E+00 0.  1.
       -3    1    3    3    0  502  0.10007320080E+04 -0.32280242635E+03 -0.42930515044E+03  0.11357679696E+04  0.10100000352E+00 0. -1.
</event>
<event>
 5   0  0.5024070E-05  0.2190572E+04  0.7818609E-02  0.8522362E-01
        2   -1    0    0  501    0  0.00000000000E+00  0.00000000000E+00  0.12261197406E+04  0.12261197406E+04  0.25500000920E-02 0.  1.
       -2   -1    0    0    0  501  0.00000000000E+00  0.00000000000E+00 -0.97841303257E+03  0.97841303257E+03  0.25500000920E-02 0. -1.
    10030    2    1    2    0    0  0.00000000000E+00  0.00000000000E+00  0.24770670803E+03  0.22045327732E+04  0.21905721022E+04 0.  0.
        5    1    3    3  502    0 -0.56145359595E+03  0.89860978917E+03  0.40292869967E+03  0.11336239767E+04  0.46999998093E+01 0.  1.
       -5    1    3    3    0  502  0.56145359595E+03 -0.89860978917E+03 -0.15522199164E+03  0.10709087964E+04  0.46999998093E+01 0. -1.
</event>
<event>
 5   0  0.4959042E-05  0.2588474E+04  0.7818609E-02  0.8372127E-01
       -2   -1    0    0    0  501  0.00000000000E+00  0.00000000000E+00  0.83343933436E+03  0.83343933437E+03  0.25500000920E-02 0. -1.
        2   -1    0    0  501    0  0.00000000000E+00  0.00000000000E+00 -0.20098042874E+04  0.20098042874E+04  0.25500000920E-02 0.  1.
    10030    2    1    2    0    0  0.00000000000E+00  0.00000000000E+00 -0.11763649531E+04  0.28432436218E+04  0.25884744136E+04 0.  0.
        4    1    3    3  502    0 -0.85338791091E+03 -0.79000615632E+03  0.35764854183E+02  0.11634695489E+04  0.12699999809E+01 0.  1.
       -4    1    3    3    0  502  0.85338791091E+03  0.79000615632E+03 -0.12121298072E+04  0.16797740729E+04  0.12699999809E+01 0. -1.
</event>
<event>
 5   0  0.4959347E-05  0.2649298E+04  0.7818609E-02  0.8351646E-01
       -2   -1    0    0    0  501  0.00000000000E+00  0.00000000000E+00  0.13807573629E+04  0.13807573629E+04  0.25500000920E-02 0.  1.
        2   -1    0    0  501    0  0.00000000000E+00  0.00000000000E+00 -0.12708202242E+04  0.12708202242E+04  0.25500000920E-02 0. -1.
    10030    2    1    2    0    0  0.00000000000E+00  0.00000000000E+00  0.10993713870E+03  0.26515775872E+04  0.26492975534E+04 0.  0.
        3    1    3    3  502    0 -0.16502755002E+03 -0.12589015044E+03 -0.12544432474E+04  0.12714992306E+04  0.10100000352E+00 0. -1.
       -3    1    3    3    0  502  0.16502755002E+03  0.12589015044E+03  0.13643803861E+04  0.13800783566E+04  0.10100000352E+00 0.  1.
</event>
<event>
 5   0  0.2066170E-05  0.2544795E+04  0.7818609E-02  0.8387199E-01
        1   -1    0    0  501    0  0.00000000000E+00  0.00000000000E+00  0.22470589677E+04  0.22470589677E+04  0.50400001928E-02 0. -1.
       -1   -1    0    0    0  501  0.00000000000E+00  0.00000000000E+00 -0.72049515646E+03  0.72049515648E+03  0.50400001928E-02 0.  1.
    10030    2    1    2    0    0  0.00000000000E+00  0.00000000000E+00  0.15265638112E+04  0.29675541242E+04  0.25447947678E+04 0.  0.
        5    1    3    3  502    0 -0.44881161299E+03  0.96818412517E+03 -0.44769830550E+02  0.10681005533E+04  0.46999998093E+01 0.  1.
       -5    1    3    3    0  502  0.44881161299E+03 -0.96818412517E+03  0.15713336418E+04  0.18994535709E+04  0.46999998093E+01 0. -1.
</event>
<event>
 5   0  0.5219468E-05  0.2488799E+04  0.7818609E-02  0.8406987E-01
       -2   -1    0    0    0  501  0.00000000000E+00  0.00000000000E+00  0.71889872371E+03  0.71889872371E+03  0.25500000920E-02 0.  1.
        2   -1    0    0  501    0  0.00000000000E+00  0.00000000000E+00 -0.21540309650E+04  0.21540309650E+04  0.25500000920E-02 0. -1.
    10030    2    1    2    0    0  0.00000000000E+00  0.00000000000E+00 -0.14351322413E+04  0.28729296887E+04  0.24887989968E+04 0.  0.
        1    1    3    3  502    0  0.87462407835E+03 -0.52203816637E+03  0.10763952519E+03  0.10242447915E+04  0.50400001928E-02 0.  1.
       -1    1    3    3    0  502 -0.87462407835E+03  0.52203816637E+03 -0.15427717665E+04  0.18486848972E+04  0.50400001928E-02 0. -1.
</event>
<event>
 5   0  0.2063930E-05  0.2496419E+04  0.7818609E-02  0.8404263E-01
        1   -1    0    0  501    0  0.00000000000E+00  0.00000000000E+00  0.32175046152E+04  0.32175046152E+04  0.50400001928E-02 0.  1.
       -1   -1    0    0    0  501  0.00000000000E+00  0.00000000000E+00 -0.48423443111E+03  0.48423443113E+03  0.50400001928E-02 0. -1.
    10030    2    1    2    0    0  0.00000000000E+00  0.00000000000E+00  0.27332701841E+04  0.37017390463E+04  0.24964186484E+04 0.  0.
        3    1    3    3  502    0 -0.53274483142E+03  0.83296797917E+03  0.23698932293E+03  0.10167677508E+04  0.10100000352E+00 0. -1.
       -3    1    3    3    0  502  0.53274483142E+03 -0.83296797917E+03  0.24962808612E+04  0.26849712955E+04  0.10100000352E+00 0.  1.
</event>
<event>
 5   0  0.4959042E-05  0.1942676E+04  0.7818609E-02  0.8633901E-01
       -2   -1    0    0    0  501  0.00000000000E+00  0.00000000000E+00  0.39986582776E+03  0.39986582777E+03  0.25500000920E-02 0. -1.
        2   -1    0    0  501    0  0.00000000000E+00  0.00000000000E+00 -0.23595341071E+04  0.23595341071E+04  0.25500000920E-02 0.  1.
    10030    2    1    2    0    0  0.00000000000E+00  0.00000000000E+00 -0.19596682793E+04  0.27593999348E+04  0.19426755353E+04 0.  0.
        4    1    3    3  502    0  0.82373403657E+03 -0.34735496851E+02 -0.25035724324E+03  0.86164069072E+03  0.12699999809E+01 0. -1.
       -4    1    3    3    0  502 -0.82373403657E+03  0.34735496851E+02 -0.17093110361E+04  0.18977592441E+04  0.12699999809E+01 0.  1.
</event>
<event>
 5   0  0.4959042E-05  0.2470094E+04  0.7818609E-02  0.8413718E-01
       -2   -1    0    0    0  501  0.00000000000E+00  0.00000000000E+00  0.99898777239E+03  0.99898777239E+03  0.25500000920E-02 0.  1.
        2   -1    0    0  501    0  0.00000000000E+00  0.00000000000E+00 -0.15268869142E+04  0.15268869142E+04  0.25500000920E-02 0. -1.
    10030    2    1    2    0    0  0.00000000000E+00  0.00000000000E+00 -0.52789914186E+03  0.25258746866E+04  0.24700942145E+04 0.  0.
        4    1    3    3  502    0  0.41541906531E+03  0.71302219003E+03  0.67569514690E+03  0.10665548217E+04  0.12699999809E+01 0.  1.
       -4    1    3    3    0  502 -0.41541906531E+03 -0.71302219003E+03 -0.12035942888E+04  0.14593198649E+04  0.12699999809E+01 0. -1.
</event>
<event>
 5   0  0.4959042E-05  0.2508616E+04  0.7818609E-02  0.8399922E-01
        2   -1    0    0  501    0  0.00000000000E+00  0.00000000000E+00  0.13773328091E+04  0.13773328091E+04  0.25500000920E-02 0. -1.
       -2   -1    0    0    0  501  0.00000000000E+00  0.00000000000E+00 -0.11422721140E+04  0.11422721140E+04  0.25500000920E-02 0.  1.
    10030    2    1    2    0    0  0.00000000000E+00  0.00000000000E+00  0.23506069507E+03  0.25196049230E+04  0.25086162396E+04 0.  0.
        4    1    3    3  502    0 -0.67841116725E+03 -0.22863675649E+03 -0.91691842960E+03  0.11632959631E+04  0.12699999809E+01 0.  1.
       -4    1    3    3    0  502  0.67841116725E+03  0.22863675649E+03  0.11519791247E+04  0.13563089600E+04  0.12699999809E+01 0. -1.
</event>
<event>
 5   0  0.5219468E-05  0.2393675E+04  0.7818609E-02  0.8441875E-01
       -2   -1    0    0    0  501  0.00000000000E+00  0.00000000000E+00  0.11416120473E+04  0.11416120473E+04  0.25500000920E-02 0. -1.
        2   -1    0    0  501    0  0.00000000000E+00  0.00000000000E+00 -0.12547347202E+04  0.12547347202E+04  0.25500000920E-02 0.  1.
    10030    2    1    2    0    0  0.00000000000E+00  0.00000000000E+00 -0.11312267285E+03  0.23963467675E+04  0.23936752267E+04 0.  0.
        1    1    3    3  502    0 -0.69434852080E+03  0.60801435039E+03  0.70627266617E+03  0.11621628103E+04  0.50400001928E-02 0. -1.
       -1    1    3    3    0  502  0.69434852080E+03 -0.60801435039E+03 -0.81939533902E+03  0.12341839572E+04  0.50400001928E-02 0.  1.
</event>
<event>
 5   0  0.2041718E-05  0.2567430E+04  0.7818609E-02  0.8379350E-01
        1   -1    0    0  501    0  0.00000000000E+00  0.00000000000E+00  0.19513851672E+04  0.19513851672E+04  0.50400001928E-02 0. -1.
       -1   -1    0    0    0  501  0.00000000000E+00  0.00000000000E+00 -0.84448917535E+03  0.84448917537E+03  0.50400001928E-02 0.  1.
    10030    2    1    2    0    0  0.00000000000E+00  0.00000000000E+00  0.11068959918E+04  0.27958743425E+04  0.25674295711E+04 0.  0.
        4    1    3    3  502    0  0.80342778242E+03 -0.30147517553E+03  0.15931446129E+04  0.18095565350E+04  0.12699999809E+01 0. -1.
       -4    1    3    3    0  502 -0.80342778242E+03  0.30147517553E+03 -0.48624862106E+03  0.98631780751E+03  0.12699999809E+01 0.  1.
</event>
<event>
 5   0  0.2066170E-05  0.2493323E+04  0.7818609E-02  0.8405368E-01
        1   -1    0    0  501    0  0.00000000000E+00  0.00000000000E+00  0.98715837903E+03  0.98715837904E+03  0.50400001928E-02 0.  1.
       -1   -1    0    0    0  501  0.00000000000E+00  0.00000000000E+00 -0.15743821478E+04  0.15743821478E+04  0.50400001928E-02 0. -1.
    10030    2    1    2    0    0  0.00000000000E+00  0.00000000000E+00 -0.58722376874E+03  0.25615405268E+04  0.24933227059E+04 0.  0.
        5    1    3    3  502    0  0.11000277866E+04 -0.13635901309E+03 -0.87973643772E+03  0.14151371671E+04  0.46999998093E+01 0. -1.
       -5    1    3    3    0  502 -0.11000277866E+04  0.13635901309E+03  0.29251266898E+03  0.11464033598E+04  0.46999998093E+01 0.  1.
</event>
<event>
 5   0  0.4959042E-05  0.2486082E+04  0.7818609E-02  0.8407961E-01
        2   -1    0    0  501    0  0.00000000000E+00  0.00000000000E+00  0.11062326780E+04  0.11062326780E+04  0.25500000920E-02 0. -1.
       -2   -1    0    0    0  501  0.00000000000E+00  0.00000000000E+00 -0.13967682338E+04  0.13967682338E+04  0.25500000920E-02 0.  1.
    10030    2    1    2    0    0  0.00000000000E+00  0.00000000000E+00 -0.29053555585E+03  0.25030009118E+04  0.24860817877E+04 0.  0.
        4    1    3    3  502    0  0.32209437436E+03  0.83118346857E+03  0.72696424501E+03  0.11502562197E+04  0.12699999809E+01 0. -1.
       -4    1    3    3    0  502 -0.32209437436E+03 -0.83118346857E+03 -0.10174998009E+04  0.13527446921E+04  0.12699999809E+01 0.  1.
</event>
<event>
 5   0  0.5219468E-05  0.2514128E+04  0.7818609E-02  0.8397970E-01
       -2   -1    0    0    0  501  0.00000000000E+00  0.00000000000E+00  0.83789033233E+03  0.83789033233E+03  0.25500000920E-02 0. -1.
        2   -1    0    0  501    0  0.00000000000E+00  0.00000000000E+00 -0.18859390542E+04  0.18859390542E+04  0.25500000920E-02 0.  1.
    10030    2    1    2    0    0  0.00000000000E+00  0.00000000000E+00 -0.10480487219E+04  0.27238293865E+04  0.25141281597E+04 0.  0.
        1    1    3    3  502    0  0.21861045597E+03  0.10758961650E+04  0.13930787107E+03  0.11066841339E+04  0.50400001928E-02 0.  1.
       -1    1    3    3    0  502 -0.21861045597E+03 -0.10758961650E+04 -0.11873565930E+04  0.16171452526E+04  0.50400001928E-02 0. -1.
</event>
<event>
 5   0  0.4995256E-05  0.2466686E+04  0.7818609E-02  0.8414951E-01
       -2   -1    0    0    0  501  0.00000000000E+00  0.00000000000E+00  0.12583729750E+04  0.12583729750E+04  0.25500000920E-02 0. -1.
        2   -1    0    0  501    0  0.00000000000E+00  0.00000000000E+00 -0.12088112355E+04  0.12088112355E+04  0.25500000920E-02 0.  1.
    10030    2    1    2    0    0  0.00000000000E+00  0.00000000000E+00  0.49561739443E+02  0.24671842105E+04  0.24666863527E+04 0.  0.
        2    1    3    3  502    0 -0.27844257970E+03 -0.11864152262E+04  0.21461915511E+03  0.12374056493E+04  0.25500000920E-02 0.  1.
       -2    1    3    3    0  502  0.27844257970E+03  0.11864152262E+04 -0.16505741566E+03  0.12297785612E+04  0.25500000920E-02 0. -1.
</event>
<event>
 5   0  0.5024070E-05  0.2492413E+04  0.7818609E-02  0.8405693E-01
        2   -1    0    0  501    0  0.00000000000E+00  0.00000000000E+00  0.17680450427E+04  0.17680450427E+04  0.25500000920E-02 0. -1.
       -2   -1    0    0    0  501  0.00000000000E+00  0.00000000000E+00 -0.87838865400E+03  0.87838865401E+03  0.25500000920E-02 0.  1.
    10030    2    1    2    0    0  0.00000000000E+00  0.00000000000E+00  0.88965638870E+03  0.26464336967E+04  0.24924130519E+04 0.  0.
        5    1    3    3  502    0 -0.10236762121E+04 -0.47719017738E+03 -0.11439170161E+03  0.11352228874E+04  0.46999998093E+01 0.  1.
       -5    1    3    3    0  502  0.10236762121E+04  0.47719017738E+03  0.10040480903E+04  0.15112108093E+04  0.46999998093E+01 0. -1.
</event>
<event>
 5   0  0.4995256E-05  0.2529125E+04  0.7818609E-02  0.8392683E-01
       -2   -1    0    0    0  501  0.00000000000E+00  0.00000000000E+00  0.95450724101E+03  0.95450724101E+03  0.25500000920E-02 0.  1.
        2   -1    0    0  501    0  0.00000000000E+00  0.00000000000E+00 -0.16753332297E+04  0.16753332297E+04  0.25500000920E-02 0. -1.
    10030    2    1    2    0    0  0.00000000000E+00  0.00000000000E+00 -0.72082598865E+03  0.26298404707E+04  0.25291245116E+04 0.  0.
        2    1    3    3  502    0  0.55104724387E+02  0.86973149282E+03  0.59240050145E+03  0.10537588692E+04  0.25500000920E-02 0. -1.
       -2    1    3    3    0  502 -0.55104724387E+02 -0.86973149282E+03 -0.13132264901E+04  0.15760816015E+04  0.25500000920E-02 0.  1.
</event>
<event>
 5   0  0.2063930E-05  0.2512783E+04  0.7818609E-02  0.8398446E-01
       -1   -1    0    0    0  501  0.00000000000E+00  0.00000000000E+00  0.16482200573E+04  0.16482200573E+04  0.50400001928E-02 0. -1.
        1   -1    0    0  501    0  0.00000000000E+00  0.00000000000E+00 -0.95771184392E+03  0.95771184393E+03  0.50400001928E-02 0.  1.
    10030    2    1    2    0    0  0.00000000000E+00  0.00000000000E+00  0.69050821339E+03  0.26059319012E+04  0.25127832141E+04 0.  0.
        3    1    3    3  502    0 -0.11475396197E+04  0.12360444521E+03 -0.16952824886E+03  0.11665612178E+04  0.10100000352E+00 0.  1.
       -3    1    3    3    0  502  0.11475396197E+04 -0.12360444521E+03  0.86003646225E+03  0.14393706834E+04  0.10100000352E+00 0. -1.
</event>
<event>
 5   0  0.5219468E-05  0.2494800E+04  0.7818609E-02  0.8404840E-01
        2   -1    0    0  501    0  0.00000000000E+00  0.00000000000E+00  0.10319527403E+04  0.10319527403E+04  0.25500000920E-02 0. -1.
       -2   -1    0    0    0  501  0.00000000000E+00  0.00000000000E+00 -0.15078272353E+04  0.15078272353E+04  0.25500000920E-02 0.  1.
    10030    2    1    2    0    0  0.00000000000E+00  0.00000000000E+00 -0.47587449505E+03  0.25397799756E+04  0.24947997494E+04 0.  0.
        1    1    3    3  502    0 -0.44734758697E+03  0.96261773207E+03 -0.90492432445E+03  0.13948622852E+04  0.50400001928E-02 0.  1.
       -1    1    3    3    0  502  0.44734758697E+03 -0.96261773207E+03  0.42904982940E+03  0.11449176904E+04  0.50400001928E-02 0. -1.
</event>
<event>
 5   0  0.2041718E-05  0.2527698E+04  0.7818609E-02  0.8393184E-01
        1   -1    0    0  501    0  0.00000000000E+00  0.00000000000E+00  0.13435666387E+04  0.13435666387E+04  0.50400001928E-02 0.  1.
       -1   -1    0    0    0  501  0.00000000000E+00  0.00000000000E+00 -0.11888614174E+04  0.11888614174E+04  0.50400001928E-02 0. -1.
    10030    2    1    2    0    0  0.00000000000E+00  0.00000000000E+00  0.15470522137E+03  0.25324280561E+04  0.25276981928E+04 0.  0.
        4    1    3    3  502    0 -0.12250520747E+03  0.11078496000E+04 -0.51955975585E+03  0.12297488422E+04  0.12699999809E+01 0. -1.
       -4    1    3    3    0  502  0.12250520747E+03 -0.11078496000E+04  0.67426497722E+03  0.13026792139E+04  0.12699999809E+01 0.  1.
</event>
<event>
 5   0  0.2041718E-05  0.2499851E+04  0.7818609E-02  0.8403039E-01
        1   -1    0    0  501    0  0.00000000000E+00  0.00000000000E+00  0.92422143067E+03  0.92422143069E+03  0.50400001928E-02 0. -1.
       -1   -1    0    0    0  501  0.00000000000E+00  0.00000000000E+00 -0.16904108541E+04  0.16904108542E+04  0.50400001928E-02 0.  1.
    10030    2    1    2    0    0  0.00000000000E+00  0.00000000000E+00 -0.76618942347E+03  0.26146322848E+04  0.24998511460E+04 0.  0.
        4    1    3    3  502    0  0.29951126994E+03  0.65048674897E+02  0.88430852605E+03  0.93591747130E+03  0.12699999809E+01 0. -1.
       -4    1    3    3    0  502 -0.29951126994E+03 -0.65048674897E+02 -0.16504979495E+04  0.16787148135E+04  0.12699999809E+01 0.  1.
</event>
<event>
 5   0  0.4959347E-05  0.2534904E+04  0.7818609E-02  0.8390655E-01
        2   -1    0    0  501    0  0.00000000000E+00  0.00000000000E+00  0.10378153380E+04  0.10378153380E+04  0.25500000920E-02 0. -1.
       -2   -1    0    0    0  501  0.00000000000E+00  0.00000000000E+00 -0.15479000366E+04  0.15479000366E+04  0.25500000920E-02 0.  1.
    10030    2    1    2    0    0  0.00000000000E+00  0.00000000000E+00 -0.51008469859E+03  0.25857153746E+04  0.25349038638E+04 0.  0.
        3    1    3    3  502    0  0.11508926706E+03 -0.78731346505E+03  0.75130629651E+03  0.10943350460E+04  0.10100000352E+00 0. -1.
       -3    1    3    3    0  502 -0.11508926706E+03  0.78731346505E+03 -0.12613909951E+04  0.14913803285E+04  0.10100000352E+00 0.  1.
</event>
<event>
 5   0  0.5024070E-05  0.2363975E+04  0.7818609E-02  0.8453115E-01
       -2   -1    0    0    0  501  0.00000000000E+00  0.00000000000E+00  0.14513840165E+04  0.14513840165E+04  0.25500000920E-02 0.  1.
        2   -1    0    0  501    0  0.00000000000E+00  0.00000000000E+00 -0.96259466308E+03  0.96259466309E+03  0.25500000920E-02 0. -1.
    10030    2    1    2    0    0  0.00000000000E+00  0.00000000000E+00  0.48878935346E+03  0.24139786796E+04  0.23639750493E+04 0.  0.
        5    1    3    3  502    0  0.87862915118E+02 -0.72608448773E+03 -0.70376815289E+03  0.10150026001E+04  0.46999998093E+01 0. -1.
       -5    1    3    3    0  502 -0.87862915118E+02  0.72608448773E+03  0.11925575063E+04  0.13989760795E+04  0.46999998093E+01 0.  1.
</event>
<event>
 5   0  0.5024070E-05  0.1712990E+04  0.7818609E-02  0.8753990E-01
        2   -1    0    0  501    0  0.00000000000E+00  0.00000000000E+00  0.96339614689E+03  0.96339614689E+03  0.25500000920E-02 0.  1.
       -2   -1    0    0    0  501  0.00000000000E+00  0.00000000000E+00 -0.76145594310E+03  0.76145594310E+03  0.25500000920E-02 0. -1.
    10030    2    1    2    0    0  0.00000000000E+00  0.00000000000E+00  0.20194020379E+03  0.17248520900E+04  0.17129900427E+04 0.  0.
        5    1    3    3  502    0 -0.56006727375E+03  0.14999938771E+03 -0.53378113493E+03  0.78811138644E+03  0.46999998093E+01 0. -1.
       -5    1    3    3    0  502  0.56006727375E+03 -0.14999938771E+03  0.73572133872E+03  0.93674070355E+03  0.46999998093E+01 0.  1.
</event>
<event>
 5   0  0.5219468E-05  0.2441024E+04  0.7818609E-02  0.8424302E-01
        2   -1    0    0  501    0  0.00000000000E+00  0.00000000000E+00  0.16433806124E+04  0.16433806124E+04  0.25500000920E-02 0.  1.
       -2   -1    0    0    0  501  0.00000000000E+00  0.00000000000E+00 -0.90645452085E+03  0.90645452085E+03  0.25500000920E-02 0. -1.
    10030    2    1    2    0    0  0.00000000000E+00  0.00000000000E+00  0.73692609150E+03  0.25498351332E+04  0.24410241994E+04 0.  0.
        1    1    3    3  502    0  0.81569272835E+03 -0.89862358201E+03  0.50373791312E+03  0.13140132626E+04  0.50400001928E-02 0.  1.
       -1    1    3    3    0  502 -0.81569272835E+03  0.89862358201E+03  0.23318817838E+03  0.12358218706E+04  0.50400001928E-02 0. -1.
</event>
<event>
 5   0  0.2041718E-05  0.2466827E+04  0.7818609E-02  0.8414900E-01
        1   -1    0    0  501    0  0.00000000000E+00  0.00000000000E+00  0.11480694142E+04  0.11480694142E+04  0.50400001928E-02 0.  1.
       -1   -1    0    0    0  501  0.00000000000E+00  0.00000000000E+00 -0.13251014911E+04  0.13251014911E+04  0.50400001928E-02 0. -1.
    10030    2    1    2    0    0  0.00000000000E+00  0.00000000000E+00 -0.17703207692E+03  0.24731709053E+04  0.24668267006E+04 0.  0.
        4    1    3    3  502    0 -0.38457991582E+03 -0.26694819938E+03 -0.12325659358E+04  0.13184777024E+04  0.12699999809E+01 0. -1.
       -4    1    3    3    0  502  0.38457991582E+03  0.26694819938E+03  0.10555338589E+04  0.11546932029E+04  0.12699999809E+01 0.  1.
</event>
<event>
 5   0  0.1692125E-05  0.2170188E+04  0.7818609E-02  0.8530940E-01
        3   -1    0    0  501    0  0.00000000000E+00  0.00000000000E+00  0.11976290070E+04  0.11976290113E+04  0.10100000352E+00 0. -1.
       -3   -1    0    0    0  501  0.00000000000E+00  0.00000000000E+00 -0.98313318224E+03  0.98313318743E+03  0.10100000352E+00 0.  1.
    10030    2    1    2    0    0  0.00000000000E+00  0.00000000000E+00  0.21449582477E+03  0.21807621987E+04  0.21701878510E+04 0.  0.
        4    1    3    3  502    0 -0.74064240921E+02 -0.57909743327E+03 -0.81186054630E+03  0.99997925406E+03  0.12699999809E+01 0.  1.
       -4    1    3    3    0  502  0.74064240921E+02  0.57909743327E+03  0.10263563711E+04  0.11807829446E+04  0.12699999809E+01 0. -1.
</event>
<event>
 5   0  0.5024070E-05  0.2500684E+04  0.7818609E-02  0.8402742E-01
        2   -1    0    0  501    0  0.00000000000E+00  0.00000000000E+00  0.21413161805E+04  0.21413161805E+04  0.25500000920E-02 0.  1.
       -2   -1    0    0    0  501  0.00000000000E+00  0.00000000000E+00 -0.73009097233E+03  0.73009097234E+03  0.25500000920E-02 0. -1.
    10030    2    1    2    0    0  0.00000000000E+00  0.00000000000E+00  0.14112252081E+04  0.28714071528E+04  0.25006843961E+04 0.  0.
        5    1    3    3  502    0 -0.38473294710E+03  0.64299285856E+03 -0.44371147189E+03  0.87083937499E+03  0.46999998093E+01 0. -1.
       -5    1    3    3    0  502  0.38473294710E+03 -0.64299285856E+03  0.18549366800E+04  0.20005677778E+04  0.46999998093E+01 0.  1.
</event>
<event>
 5   0  0.4995256E-05  0.2503497E+04  0.7818609E-02  0.8401741E-01
       -2   -1    0    0    0  501  0.00000000000E+00  0.00000000000E+00  0.12604360032E+04  0.12604360032E+04  0.25500000920E-02 0. -1.
        2   -1    0    0  501    0  0.00000000000E+00  0.00000000000E+00 -0.12431204735E+04  0.12431204735E+04  0.25500000920E-02 0.  1.
    10030    2    1    2    0    0  0.00000000000E+00  0.00000000000E+00  0.17315529719E+02  0.25035564767E+04  0.25034965956E+04 0.  0.
        2    1    3    3  502    0 -0.97269283352E+02 -0.46102130009E+03 -0.11510560727E+04  0.12437572252E+04  0.25500000920E-02 0.  1.
       -2    1    3    3    0  502  0.97269283352E+02  0.46102130009E+03  0.11683716025E+04  0.12597992515E+04  0.25500000920E-02 0. -1.
</event>
<event>
 5   0  0.4959347E-05  0.1778681E+04  0.7818609E-02  0.8717720E-01
       -2   -1    0    0    0  501  0.00000000000E+00  0.00000000000E+00  0.77453147316E+03  0.77453147316E+03  0.25500000920E-02 0. -1.
        2   -1    0    0  501    0  0.00000000000E+00  0.00000000000E+00 -0.10211673753E+04  0.10211673753E+04  0.25500000920E-02 0.  1.
    10030    2    1    2    0    0  0.00000000000E+00  0.00000000000E+00 -0.24663590211E+03  0.17956988484E+04  0.17786807150E+04 0.  0.
        3    1    3    3  502    0  0.66537906239E+03 -0.27434467792E+03  0.40410947189E+03  0.82540824714E+03  0.10100000352E+00 0. -1.
       -3    1    3    3    0  502 -0.66537906239E+03  0.27434467792E+03 -0.65074537400E+03  0.97029060129E+03  0.10100000352E+00 0.  1.
</event>
<event>
 5   0  0.2081874E-05  0.2551054E+04  0.7818609E-02  0.8385020E-01
       -1   -1    0    0    0  501  0.00000000000E+00  0.00000000000E+00  0.64312039023E+03  0.64312039025E+03  0.50400001928E-02 0. -1.
        1   -1    0    0  501    0  0.00000000000E+00  0.00000000000E+00 -0.25298044907E+04  0.25298044907E+04  0.50400001928E-02 0.  1.
    10030    2    1    2    0    0  0.00000000000E+00  0.00000000000E+00 -0.18866841005E+04  0.31729248810E+04  0.25510537833E+04 0.  0.
        1    1    3    3  502    0  0.74767308198E+03  0.17046366544E+03 -0.22110704006E+04  0.23402788755E+04  0.50400001928E-02 0.  1.
       -1    1    3    3    0  502 -0.74767308198E+03 -0.17046366544E+03  0.32438630008E+03  0.83264600549E+03  0.50400001928E-02 0. -1.
</event>
<event>
 5   0  0.4959347E-05  0.2509028E+04  0.7818609E-02  0.8399776E-01
       -2   -1    0    0    0  501  0.00000000000E+00  0.00000000000E+00  0.10144201009E+04  0.10144201009E+04  0.25500000920E-02 0.  1.
        2   -1    0    0  501    0  0.00000000000E+00  0.00000000000E+00 -0.15514329625E+04  0.15514329625E+04  0.25500000920E-02 0. -1.
    10030    2    1    2    0    0  0.00000000000E+00  0.00000000000E+00 -0.53701286157E+03  0.25658530634E+04  0.25090275266E+04 0.  0.
        3    1    3    3  502    0 -0.57309375441E+02  0.12139260249E+04 -0.58685084861E+03  0.13495535140E+04  0.10100000352E+00 0. -1.
       -3    1    3    3    0  502  0.57309375441E+02 -0.12139260249E+04  0.49837987043E+02  0.12162995493E+04  0.10100000352E+00 0.  1.
</event>
<event>
 5   0  0.5024070E-05  0.2517904E+04  0.7818609E-02  0.8396635E-01
        2   -1    0    0  501    0  0.00000000000E+00  0.00000000000E+00  0.17688059618E+04  0.17688059618E+04  0.25500000920E-02 0.  1.
       -2   -1    0    0    0  501  0.00000000000E+00  0.00000000000E+00 -0.89606204664E+03  0.89606204665E+03  0.25500000920E-02 0. -1.
    10030    2    1    2    0    0  0.00000000000E+00  0.00000000000E+00  0.87274391513E+03  0.26648680084E+04  0.25179038029E+04 0.  0.
        5    1    3    3  502    0 -0.10094447031E+03 -0.99812104404E+03 -0.36861556773E+03  0.10688006977E+04  0.46999998093E+01 0. -1.
       -5    1    3    3    0  502  0.10094447031E+03  0.99812104404E+03  0.12413594829E+04  0.15960673107E+04  0.46999998093E+01 0.  1.
</event>
<event>
 5   0  0.2081874E-05  0.2533203E+04  0.7818609E-02  0.8391252E-01
       -1   -1    0    0    0  501  0.00000000000E+00  0.00000000000E+00  0.10825271122E+04  0.10825271122E+04  0.50400001928E-02 0. -1.
        1   -1    0    0  501    0  0.00000000000E+00  0.00000000000E+00 -0.14819756566E+04  0.14819756566E+04  0.50400001928E-02 0.  1.
    10030    2    1    2    0    0  0.00000000000E+00  0.00000000000E+00 -0.39944854444E+03  0.25645027688E+04  0.25332025801E+04 0.  0.
        1    1    3    3  502    0 -0.12560350401E+04 -0.16281760785E+03 -0.18752412283E+03  0.12803510816E+04  0.50400001928E-02 0.  1.
       -1    1    3    3    0  502  0.12560350401E+04  0.16281760785E+03 -0.21192442161E+03  0.12841516873E+04  0.50400001928E-02 0. -1.
</event>
<event>
 5   0  0.2036578E-05  0.2493522E+04  0.7818609E-02  0.8405297E-01
       -1   -1    0    0    0  501  0.00000000000E+00  0.00000000000E+00  0.10811986001E+04  0.10811986002E+04  0.50400001928E-02 0. -1.
        1   -1    0    0  501    0  0.00000000000E+00  0.00000000000E+00 -0.14376752606E+04  0.14376752606E+04  0.50400001928E-02 0.  1.
    10030    2    1    2    0    0  0.00000000000E+00  0.00000000000E+00 -0.35647666046E+03  0.25188738608E+04  0.24935215894E+04 0.  0.
        2    1    3    3  502    0 -0.69381406724E+02  0.82575376086E+03 -0.11192292864E+04  0.13926080744E+04  0.25500000920E-02 0.  1.
       -2    1    3    3    0  502  0.69381406724E+02 -0.82575376086E+03  0.76275262597E+03  0.11262657864E+04  0.25500000920E-02 0. -1.
</event>
<event>
 5   0  0.4959042E-05  0.2552240E+04  0.7818609E-02  0.8384608E-01
        2   -1    0    0  501    0  0.00000000000E+00  0.00000000000E+00  0.15444505094E+04  0.15444505094E+04  0.25500000920E-02 0. -1.
       -2   -1    0    0    0  501  0.00000000000E+00  0.00000000000E+00 -0.10544085620E+04  0.10544085620E+04  0.25500000920E-02 0.  1.
    10030    2    1    2    0    0  0.00000000000E+00  0.00000000000E+00  0.49004194735E+03  0.25988590714E+04  0.25522396758E+04 0.  0.
        4    1    3    3  502    0 -0.11622177689E+04  0.51250370535E+02 -0.28906272159E+03  0.11987224920E+04  0.12699999809E+01 0.  1.
       -4    1    3    3    0  502  0.11622177689E+04 -0.51250370535E+02  0.77910466894E+03  0.14001365794E+04  0.12699999809E+01 0. -1.
</event>
<event>
 5   0  0.4959042E-05  0.2476017E+04  0.7818609E-02  0.8411580E-01
       -2   -1    0    0    0  501  0.00000000000E+00  0.00000000000E+00  0.11693913814E+04  0.11693913814E+04  0.25500000920E-02 0.  1.
        2   -1    0    0  501    0  0.00000000000E+00  0.00000000000E+00 -0.13106514305E+04  0.13106514305E+04  0.25500000920E-02 0. -1.
    10030    2    1    2    0    0  0.00000000000E+00  0.00000000000E+00 -0.14126004901E+03  0.24800428119E+04  0.24760165483E+04 0.  0.
        4    1    3    3  502    0  0.99397504867E+03  0.13013209015E+03 -0.79826993521E+03  0.12814668395E+04  0.12699999809E+01 0. -1.
       -4    1    3    3    0  502 -0.99397504867E+03 -0.13013209015E+03  0.65700988620E+03  0.11985759724E+04  0.12699999809E+01 0.  1.
</event>
<event>
 5   0  0.4995256E-05  0.2531390E+04  0.7818609E-02  0.8391887E-01
       -2   -1    0    0    0  501  0.00000000000E+00  0.00000000000E+00  0.18378892076E+04  0.18378892076E+04  0.25500000920E-02 0.  1.
        2   -1    0    0  501    0  0.00000000000E+00  0.00000000000E+00 -0.87164328386E+03  0.87164328386E+03  0.25500000920E-02 0. -1.
    10030    2    1    2    0    0  0.00000000000E+00  0.00000000000E+00  0.96624592377E+03  0.27095324915E+04  0.25313899615E+04 0.  0.
        2    1    3    3  502    0  0.80164084084E+03 -0.53360947542E+03 -0.39602878904E+03  0.10412520885E+04  0.25500000920E-02 0. -1.
       -2    1    3    3    0  502 -0.80164084084E+03  0.53360947542E+03  0.13622747128E+04  0.16682804030E+04  0.25500000920E-02 0.  1.
</event>
<event>
 5   0  0.5219468E-05  0.2520566E+04  0.7818609E-02  0.8395695E-01
       -2   -1    0    0    0  501  0.00000000000E+00  0.00000000000E+00  0.13596506328E+04  0.13596506328E+04  0.25500000920E-02 0. -1.
        2   -1    0    0  501    0  0.00000000000E+00  0.00000000000E+00 -0.11681779180E+04  0.11681779180E+04  0.25500000920E-02 0.  1.
    10030    2    1    2    0    0  0.00000000000E+00  0.00000000000E+00  0.19147271487E+03  0.25278285508E+04  0.25205664803E+04 0.  0.
        1    1    3    3  502    0 -0.11878534682E+04 -0.30788539489E+03  0.38383491627E+03  0.12857365676E+04  0.50400001928E-02 0. -1.
       -1    1    3    3    0  502  0.11878534682E+04  0.30788539489E+03 -0.19236220139E+03  0.12420919832E+04  0.50400001928E-02 0.  1.
</event>
<event>
 5   0  0.4959042E-05  0.2161457E+04  0.7818609E-02  0.8534644E-01
       -2   -1    0    0    0  501  0.00000000000E+00  0.00000000000E+00  0.10261413707E+04  0.10261413707E+04  0.25500000920E-02 0. -1.
        2   -1    0    0  501    0  0.00000000000E+00  0.00000000000E+00 -0.11382199902E+04  0.11382199902E+04  0.25500000920E-02 0.  1.
    10030    2    1    2    0    0  0.00000000000E+00  0.00000000000E+00 -0.11207861949E+03  0.21643613609E+04  0.21614574905E+04 0.  0.
        4    1    3    3  502    0 -0.92993539507E+03  0.52654458152E+03  0.10524841379E+03  0.10738286068E+04  0.12699999809E+01 0. -1.
       -4    1    3    3    0  502  0.92993539507E+03 -0.52654458152E+03 -0.21732703328E+03  0.10905327540E+04  0.12699999809E+01 0.  1.
</event>
<event>
 5   0  0.5024070E-05  0.2393277E+04  0.7818609E-02  0.8442025E-01
       -2   -1    0    0    0  501  0.00000000000E+00  0.00000000000E+00  0.90098915259E+03  0.90098915259E+03  0.25500000920E-02 0.  1.
        2   -1    0    0  501    0  0.00000000000E+00  0.00000000000E+00 -0.15893016949E+04  0.15893016949E+04  0.25500000920E-02 0. -1.
    10030    2    1    2    0    0  0.00000000000E+00  0.00000000000E+00 -0.68831254233E+03  0.24902908475E+04  0.23932769061E+04 0.  0.
        5    1    3    3  502    0  0.23618102792E+03 -0.39644704850E+03  0.80466796142E+03  0.92761218100E+03  0.46999998093E+01 0.  1.
       -5    1    3    3    0  502 -0.23618102792E+03  0.39644704850E+03 -0.14929805037E+04  0.15626786665E+04  0.46999998093E+01 0. -1.
</event>
<event>
 5   0  0.2063930E-05  0.2447739E+04  0.7818609E-02  0.8421844E-01
        1   -1    0    0  501    0  0.00000000000E+00  0.00000000000E+00  0.10512159400E+04  0.10512159400E+04  0.50400001928E-02 0. -1.
       -1   -1    0    0    0  501  0.00000000000E+00  0.00000000000E+00 -0.14248794898E+04  0.14248794898E+04  0.50400001928E-02 0.  1.
    10030    2    1    2    0    0  0.00000000000E+00  0.00000000000E+00 -0.37366354973E+03  0.24760954298E+04  0.24477385745E+04 0.  0.
        3    1    3    3  502    0  0.22103286955E+03  0.97540975545E+03 -0.90039455747E+03  0.13457303184E+04  0.10100000352E+00 0.  1.
       -3    1    3    3    0  502 -0.22103286955E+03 -0.97540975545E+03  0.52673100774E+03  0.11303651114E+04  0.10100000352E+00 0. -1.
</event>
<event>
 5   0  0.2063930E-05  0.2513804E+04  0.7818609E-02  0.8398084E-01
       -1   -1    0    0    0  501  0.00000000000E+00  0.00000000000E+00  0.14815491139E+04  0.14815491139E+04  0.50400001928E-02 0. -1.
        1   -1    0    0  501    0  0.00000000000E+00  0.00000000000E+00 -0.10663178093E+04  0.10663178093E+04  0.50400001928E-02 0.  1.
    10030    2    1    2    0    0  0.00000000000E+00  0.00000000000E+00  0.41523130465E+03  0.25478669232E+04  0.25138036562E+04 0.  0.
        3    1    3    3  502    0  0.12364151630E+04 -0.19600781296E+03  0.32166002384E+03  0.12925195160E+04  0.10100000352E+00 0.  1.
       -3    1    3    3    0  502 -0.12364151630E+04  0.19600781296E+03  0.93571280805E+02  0.12553474072E+04  0.10100000352E+00 0. -1.
</event>
<event>
 5   0  0.2041718E-05  0.2518594E+04  0.7818609E-02  0.8396391E-01
       -1   -1    0    0    0  501  0.00000000000E+00  0.00000000000E+00  0.11984984415E+04  0.11984984415E+04  0.50400001928E-02 0.  1.
        1   -1    0    0  501    0  0.00000000000E+00  0.00000000000E+00 -0.13231798217E+04  0.13231798217E+04  0.50400001928E-02 0. -1.
    10030    2    1    2    0    0  0.00000000000E+00  0.00000000000E+00 -0.12468138021E+03  0.25216782633E+04  0.25185940159E+04 0.  0.
        4    1    3    3  502    0 -0.49191127008E+03 -0.67084279664E+03  0.88423791488E+03  0.12140366792E+04  0.12699999809E+01 0.  1.
       -4    1    3    3    0  502  0.49191127008E+03  0.67084279664E+03 -0.10089192951E+04  0.13076415841E+04  0.12699999809E+01 0. -1.
</event>
<event>
 5   0  0.2081874E-05  0.2521465E+04  0.7818609E-02  0.8395378E-01
       -1   -1    0    0    0  501  0.00000000000E+00  0.00000000000E+00  0.78547413264E+03  0.78547413266E+03  0.50400001928E-02 0. -1.
        1   -1    0    0  501    0  0.00000000000E+00  0.00000000000E+00 -0.20235505347E+04  0.20235505347E+04  0.50400001928E-02 0.  1.
    10030    2    1    2    0    0  0.00000000000E+00  0.00000000000E+00 -0.12380764020E+04  0.28090246673E+04  0.25214651305E+04 0.  0.
        1    1    3    3  502    0 -0.77795128346E+03  0.96879203756E+03 -0.85714263668E+03  0.15094567603E+04  0.50400001928E-02 0. -1.
       -1    1    3    3    0  502  0.77795128346E+03 -0.96879203756E+03 -0.38093376534E+03  0.12995679071E+04  0.50400001928E-02 0.  1.
</event>
<event>
 5   0  0.5219468E-05  0.2420818E+04  0.7818609E-02  0.8431751E-01
        2   -1    0    0  501    0  0.00000000000E+00  0.00000000000E+00  0.16556120621E+04  0.16556120621E+04  0.25500000920E-02 0.  1.
       -2   -1    0    0    0  501  0.00000000000E+00  0.00000000000E+00 -0.88492326353E+03  0.88492326353E+03  0.25500000920E-02 0. -1.
    10030    2    1    2    0    0  0.00000000000E+00  0.00000000000E+00  0.77068879853E+03  0.25405353256E+04  0.24208177371E+04 0.  0.
        1    1    3    3  502    0  0.58832496497E+03 -0.60396157122E+03  0.12967351567E+04  0.15467442938E+04  0.50400001928E-02 0.  1.
       -1    1    3    3    0  502 -0.58832496497E+03  0.60396157122E+03 -0.52604635813E+03  0.99379103178E+03  0.50400001928E-02 0. -1.
</event>
<event>
 5   0  0.4959042E-05  0.2521104E+04  0.7818609E-02  0.8395506E-01
       -2   -1    0    0    0  501  0.00000000000E+00  0.00000000000E+00  0.82474921289E+03  0.82474921289E+03  0.25500000920E-02 0.  1.
        2   -1    0    0  501    0  0.00000000000E+00  0.00000000000E+00 -0.19266356934E+04  0.19266356934E+04  0.25500000920E-02 0. -1.
    10030    2    1    2    0    0  0.00000000000E+00  0.00000000000E+00 -0.11018864805E+04  0.27513849063E+04  0.25211039420E+04 0.  0.
        4    1    3    3  502    0  0.10182907638E+04  0.14894758251E+03  0.24348142902E+03  0.10575378391E+04  0.12699999809E+01 0. -1.
       -4    1    3    3    0  502 -0.10182907638E+04 -0.14894758251E+03 -0.13453679095E+04  0.16938470671E+04  0.12699999809E+01 0.  1.
</event>
<event>
 5   0  0.4995256E-05  0.2471786E+04  0.7818609E-02  0.8413106E-01
       -2   -1    0    0    0  501  0.00000000000E+00  0.00000000000E+00  0.66263200093E+03  0.66263200094E+03  0.25500000920E-02 0. -1.
        2   -1    0    0  501    0  0.00000000000E+00  0.00000000000E+00 -0.23050978608E+04  0.23050978608E+04  0.25500000920E-02 0.  1.
    10030    2    1    2    0    0  0.00000000000E+00  0.00000000000E+00 -0.16424658599E+04  0.29677298618E+04  0.24717860813E+04 0.  0.
        2    1    3    3  502    0  0.60933928587E+03  0.53633665722E+03  0.29767268508E+03  0.86461575433E+03  0.25500000920E-02 0. -1.
       -2    1    3    3    0  502 -0.60933928587E+03 -0.53633665722E+03 -0.19401385450E+04  0.21031141074E+04  0.25500000920E-02 0.  1.
</event>
<event>
 5   0  0.2066170E-05  0.2563312E+04  0.7818609E-02  0.8380771E-01
       -1   -1    0    0    0  501  0.00000000000E+00  0.00000000000E+00  0.11100848779E+04  0.11100848780E+04  0.50400001928E-02 0.  1.
        1   -1    0    0  501    0  0.00000000000E+00  0.00000000000E+00 -0.14797444171E+04  0.14797444172E+04  0.50400001928E-02 0. -1.
    10030    2    1    2    0    0  0.00000000000E+00  0.00000000000E+00 -0.36965953920E+03  0.25898292951E+04  0.25633118427E+04 0.  0.
        5    1    3    3  502    0  0.61562463930E+03  0.60163206205E+03  0.77455384172E+03  0.11579769334E+04  0.46999998093E+01 0.  1.
       -5    1    3    3    0  502 -0.61562463930E+03 -0.60163206205E+03 -0.11442133809E+04  0.14318523617E+04  0.46999998093E+01 0. -1.
</event>
<event>
 5   0  0.2063930E-05  0.2493358E+04  0.7818609E-02  0.8405356E-01
       -1   -1    0    0    0  501  0.00000000000E+00  0.00000000000E+00  0.63295472386E+03  0.63295472388E+03  0.50400001928E-02 0. -1.
        1   -1    0    0  501    0  0.00000000000E+00  0.00000000000E+00 -0.24554814662E+04  0.24554814662E+04  0.50400001928E-02 0.  1.
    10030    2    1    2    0    0  0.00000000000E+00  0.00000000000E+00 -0.18225267423E+04  0.30884361900E+04  0.24933580516E+04 0.  0.
        3    1    3    3  502    0 -0.68902776354E+02 -0.10181334281E+04 -0.24197954846E+02  0.10207491470E+04  0.10100000352E+00 0. -1.
       -3    1    3    3    0  502  0.68902776354E+02  0.10181334281E+04 -0.17983287875E+04  0.20676870430E+04  0.10100000352E+00 0.  1.
</event>
<event>
 5   0  0.5219468E-05  0.2405434E+04  0.7818609E-02  0.8437472E-01
        2   -1    0    0  501    0  0.00000000000E+00  0.00000000000E+00  0.14124518496E+04  0.14124518496E+04  0.25500000920E-02 0.  1.
       -2   -1    0    0    0  501  0.00000000000E+00  0.00000000000E+00 -0.10241259273E+04  0.10241259273E+04  0.25500000920E-02 0. -1.
    10030    2    1    2    0    0  0.00000000000E+00  0.00000000000E+00  0.38832592230E+03  0.24365777769E+04  0.24054343144E+04 0.  0.
        1    1    3    3  502    0 -0.11875640159E+03 -0.43550207397E+03  0.13233893217E+04  0.13982576430E+04  0.50400001928E-02 0.  1.
       -1    1    3    3    0  502  0.11875640159E+03  0.43550207397E+03 -0.93506339944E+03  0.10383201338E+04  0.50400001928E-02 0. -1.
</event>
<event>
 5   0  0.2041718E-05  0.2717820E+04  0.7818609E-02  0.8329246E-01
       -1   -1    0    0    0  501  0.00000000000E+00  0.00000000000E+00  0.10493338108E+04  0.10493338108E+04  0.50400001928E-02 0.  1.
        1   -1    0    0  501    0  0.00000000000E+00  0.00000000000E+00 -0.17598180592E+04  0.17598180592E+04  0.50400001928E-02 0. -1.
    10030    2    1    2    0    0  0.00000000000E+00  0.00000000000E+00 -0.71048424841E+03  0.28091518700E+04  0.27178201488E+04 0.  0.
        4    1    3    3  502    0 -0.68874316477E+03  0.34880745856E+03 -0.15111252487E+04  0.16969192439E+04  0.12699999809E+01 0. -1.
       -4    1    3    3    0  502  0.68874316477E+03 -0.34880745856E+03  0.80064100033E+03  0.11122326261E+04  0.12699999809E+01 0.  1.
</event>
<event>
 5   0  0.2063930E-05  0.1669861E+04  0.7818609E-02  0.8778743E-01
       -1   -1    0    0    0  501  0.00000000000E+00  0.00000000000E+00  0.49998792365E+03  0.49998792368E+03  0.50400001928E-02 0.  1.
        1   -1    0    0  501    0  0.00000000000E+00  0.00000000000E+00 -0.13942508512E+04  0.13942508512E+04  0.50400001928E-02 0. -1.
    10030    2    1    2    0    0  0.00000000000E+00  0.00000000000E+00 -0.89426292756E+03  0.18942387749E+04  0.16698605788E+04 0.  0.
        3    1    3    3  502    0  0.24519325040E+03  0.48114121193E+02 -0.13508429922E+04  0.13737581659E+04  0.10100000352E+00 0. -1.
       -3    1    3    3    0  502 -0.24519325040E+03 -0.48114121193E+02  0.45658006463E+03  0.52048060897E+03  0.10100000352E+00 0.  1.
</event>
<event>
 5   0  0.2081874E-05  0.2439848E+04  0.7818609E-02  0.8424734E-01
        1   -1    0    0  501    0  0.00000000000E+00  0.00000000000E+00  0.11879473676E+04  0.11879473676E+04  0.50400001928E-02 0.  1.
       -1   -1    0    0    0  501  0.00000000000E+00  0.00000000000E+00 -0.12527614660E+04  0.12527614660E+04  0.50400001928E-02 0. -1.
    10030    2    1    2    0    0  0.00000000000E+00  0.00000000000E+00 -0.64814098380E+02  0.24407088337E+04  0.24398480984E+04 0.  0.
        1    1    3    3  502    0  0.44472136828E+03  0.61363423357E+03 -0.98872056494E+03  0.12457497436E+04  0.50400001928E-02 0. -1.
       -1    1    3    3    0  502 -0.44472136828E+03 -0.61363423357E+03  0.92390646656E+03  0.11949590901E+04  0.50400001928E-02 0.  1.
</event>
<event>
 5   0  0.2066170E-05  0.2819187E+04  0.7818609E-02  0.8297336E-01
       -1   -1    0    0    0  501  0.00000000000E+00  0.00000000000E+00  0.13165787142E+04  0.13165787142E+04  0.50400001928E-02 0. -1.
        1   -1    0    0  501    0  0.00000000000E+00  0.00000000000E+00 -0.15091796876E+04  0.15091796876E+04  0.50400001928E-02 0.  1.
    10030    2    1    2    0    0  0.00000000000E+00  0.00000000000E+00 -0.19260097334E+03  0.28257584018E+04  0.28191870123E+04 0.  0.
        5    1    3    3  502    0 -0.12205605153E+04 -0.27781632909E+03  0.55327019875E+03  0.13686050881E+04  0.46999998093E+01 0. -1.
       -5    1    3    3    0  502  0.12205605153E+04  0.27781632909E+03 -0.74587117209E+03  0.14571533137E+04  0.46999998093E+01 0.  1.
</event>
<event>
 5   0  0.2063930E-05  0.2334049E+04  0.7818609E-02  0.8464616E-01
        1   -1    0    0  501    0  0.00000000000E+00  0.00000000000E+00  0.19830109353E+04  0.19830109353E+04  0.50400001928E-02 0.  1.
       -1   -1    0    0    0  501  0.00000000000E+00  0.00000000000E+00 -0.68680720041E+03  0.68680720043E+03  0.50400001928E-02 0. -1.
    10030    2    1    2    0    0  0.00000000000E+00  0.00000000000E+00  0.12962037349E+04  0.26698181357E+04  0.23340490045E+04 0.  0.
        3    1    3    3  502    0 -0.26926994130E+03 -0.93804781179E+03 -0.83882723899E+02  0.97952862136E+03  0.10100000352E+00 0. -1.
       -3    1    3    3    0  502  0.26926994130E+03  0.93804781179E+03  0.13800864588E+04  0.16902895144E+04  0.10100000352E+00 0.  1.
</event>
<event>
 5   0  0.4959042E-05  0.2550336E+04  0.7818609E-02  0.8385269E-01
       -2   -1    0    0    0  501  0.00000000000E+00  0.00000000000E+00  0.14592461691E+04  0.14592461691E+04  0.25500000920E-02 0. -1.
        2   -1    0    0  501    0  0.00000000000E+00  0.00000000000E+00 -0.11143103130E+04  0.11143103130E+04  0.25500000920E-02 0.  1.
    10030    2    1    2    0    0  0.00000000000E+00  0.00000000000E+00  0.34493585616E+03  0.25735564821E+04  0.25503357076E+04 0.  0.
        4    1    3    3  502    0  0.29393071639E+03  0.64998835296E+03 -0.89411896167E+03  0.11438227378E+04  0.12699999809E+01 0.  1.
       -4    1    3    3    0  502 -0.29393071639E+03 -0.64998835296E+03  0.12390548178E+04  0.14297337443E+04  0.12699999809E+01 0. -1.
</event>
<event>
 5   0  0.5219468E-05  0.2508356E+04  0.7818609E-02  0.8400015E-01
        2   -1    0    0  501    0  0.00000000000E+00  0.00000000000E+00  0.18070669277E+04  0.18070669277E+04  0.25500000920E-02 0. -1.
       -2   -1    0    0    0  501  0.00000000000E+00  0.00000000000E+00 -0.87045069156E+03  0.87045069156E+03  0.25500000920E-02 0.  1.
    10030    2    1    2    0    0  0.00000000000E+00  0.00000000000E+00  0.93661623616E+03  0.26775176193E+04  0.25083561605E+04 0.  0.
        1    1    3    3  502    0 -0.39183343084E+03 -0.56499035765E+03 -0.65134099164E+03  0.94709694814E+03  0.50400001928E-02 0.  1.
       -1    1    3    3    0  502  0.39183343084E+03  0.56499035765E+03  0.15879572278E+04  0.17304206711E+04  0.50400001928E-02 0. -1.
</event>
<event>
 5   0  0.2041718E-05  0.2491084E+04  0.7818609E-02  0.8406169E-01
       -1   -1    0    0    0  501  0.00000000000E+00  0.00000000000E+00  0.50034957331E+03  0.50034957334E+03  0.50400001928E-02 0.  1.
        1   -1    0    0  501    0  0.00000000000E+00  0.00000000000E+00 -0.31005818744E+04  0.31005818744E+04  0.50400001928E-02 0. -1.
    10030    2    1    2    0    0  0.00000000000E+00  0.00000000000E+00 -0.26002323011E+04  0.36009314477E+04  0.24910839552E+04 0.  0.
        4    1    3    3  502    0 -0.10080347054E+04  0.23502105200E+03 -0.29862048847E+03  0.10772857890E+04  0.12699999809E+01 0.  1.
       -4    1    3    3    0  502  0.10080347054E+04 -0.23502105200E+03 -0.23016118126E+04  0.25236456588E+04  0.12699999809E+01 0. -1.
</event>
<event>
 5   0  0.5024070E-05  0.2442707E+04  0.7818609E-02  0.8423686E-01
       -2   -1    0    0    0  501  0.00000000000E+00  0.00000000000E+00  0.17279864620E+04  0.17279864620E+04  0.25500000920E-02 0. -1.
        2   -1    0    0  501    0  0.00000000000E+00  0.00000000000E+00 -0.86326152173E+03  0.86326152174E+03  0.25500000920E-02 0.  1.
    10030    2    1    2    0    0  0.00000000000E+00  0.00000000000E+00  0.86472494024E+03  0.25912479837E+04  0.24427068778E+04 0.  0.
        5    1    3    3  502    0  0.10868140706E+04  0.50962495277E+03  0.19326869741E+03  0.12158360481E+04  0.46999998093E+01 0. -1.
       -5    1    3    3    0  502 -0.10868140706E+04 -0.50962495277E+03  0.67145624283E+03  0.13754119356E+04  0.46999998093E+01 0.  1.
</event>
<event>
 5   0  0.2041718E-05  0.2496674E+04  0.7818609E-02  0.8404171E-01
       -1   -1    0    0    0  501  0.00000000000E+00  0.00000000000E+00  0.73020471497E+03  0.73020471499E+03  0.50400001928E-02 0. -1.
        1   -1    0    0  501    0  0.00000000000E+00  0.00000000000E+00 -0.21341212570E+04  0.21341212570E+04  0.50400001928E-02 0.  1.
    10030    2    1    2    0    0  0.00000000000E+00  0.00000000000E+00 -0.14039165420E+04  0.28643259720E+04  0.24966741110E+04 0.  0.
        4    1    3    3  502    0  0.54175523068E+03  0.11068270732E+04 -0.47314199105E+03  0.13200113092E+04  0.12699999809E+01 0.  1.
       -4    1    3    3    0  502 -0.54175523068E+03 -0.11068270732E+04 -0.93077455093E+03  0.15443146627E+04  0.12699999809E+01 0. -1.
</event>
<event>
 5   0  0.2081874E-05  0.2478025E+04  0.7818609E-02  0.8410856E-01
        1   -1    0    0  501    0  0.00000000000E+00  0.00000000000E+00  0.75616166665E+03  0.75616166667E+03  0.50400001928E-02 0. -1.
       -1   -1    0    0    0  501  0.00000000000E+00  0.00000000000E+00 -0.20301895704E+04  0.20301895704E+04  0.50400001928E-02 0.  1.
    10030    2    1    2    0    0  0.00000000000E+00  0.00000000000E+00 -0.12740279038E+04  0.27863512371E+04  0.24780246401E+04 0.  0.
        1    1    3    3  502    0 -0.13831157913E+03 -0.92664950237E+03  0.27463151437E+03  0.97633593700E+03  0.50400001928E-02 0. -1.
       -1    1    3    3    0  502  0.13831157913E+03  0.92664950237E+03 -0.15486594182E+04  0.18100153001E+04  0.50400001928E-02 0.  1.
</event>
<event>
 5   0  0.2081874E-05  0.2025132E+04  0.7818609E-02  0.8594960E-01
       -1   -1    0    0    0  501  0.00000000000E+00  0.00000000000E+00  0.13185664224E+04  0.13185664224E+04  0.50400001928E-02 0.  1.
        1   -1    0    0  501    0  0.00000000000E+00  0.00000000000E+00 -0.77757910600E+03  0.77757910602E+03  0.50400001928E-02 0. -1.
    10030    2    1    2    0    0  0.00000000000E+00  0.00000000000E+00  0.54098731640E+03  0.20961455284E+04  0.20251317981E+04 0.  0.
        1    1    3    3  502    0  0.71140610545E+03  0.68333980396E+03  0.33923242338E+02  0.98701708240E+03  0.50400001928E-02 0. -1.
       -1    1    3    3    0  502 -0.71140610545E+03 -0.68333980396E+03  0.50706407407E+03  0.11091284460E+04  0.50400001928E-02 0.  1.
</event>
<event>
 5   0  0.2063930E-05  0.2179403E+04  0.7818609E-02  0.8527050E-01
       -1   -1    0    0    0  501  0.00000000000E+00  0.00000000000E+00  0.13812202507E+04  0.13812202507E+04  0.50400001928E-02 0.  1.
        1   -1    0    0  501    0  0.00000000000E+00  0.00000000000E+00 -0.85971067078E+03  0.85971067080E+03  0.50400001928E-02 0. -1.
    10030    2    1    2    0    0  0.00000000000E+00  0.00000000000E+00  0.52150957987E+03  0.22409309215E+04  0.21794033938E+04 0.  0.
        3    1    3    3  502    0  0.10354296271E+04  0.33942018568E+03  0.27244243004E+03  0.11231854090E+04  0.10100000352E+00 0.  1.
       -3    1    3    3    0  502 -0.10354296271E+04 -0.33942018568E+03  0.24906714983E+03  0.11177455124E+04  0.10100000352E+00 0. -1.
</event>
<event>
 5   0  0.5024070E-05  0.2501611E+04  0.7818609E-02  0.8402412E-01
        2   -1    0    0  501    0  0.00000000000E+00  0.00000000000E+00  0.14217080466E+04  0.14217080466E+04  0.25500000920E-02 0. -1.
       -2   -1    0    0    0  501  0.00000000000E+00  0.00000000000E+00 -0.11004470406E+04  0.11004470406E+04  0.25500000920E-02 0.  1.
    10030    2    1    2    0    0  0.00000000000E+00  0.00000000000E+00  0.32126100602E+03  0.25221550872E+04  0.25016110109E+04 0.  0.
        5    1    3    3  502    0 -0.12197143413E+04  0.87769245023E+02 -0.10436983479E+03  0.12273229678E+04  0.46999998093E+01 0.  1.
       -5    1    3    3    0  502  0.12197143413E+04 -0.87769245023E+02  0.42563084082E+03  0.12948321194E+04  0.46999998093E+01 0. -1.
</event>
<event>
 5   0  0.5219468E-05  0.1957190E+04  0.7818609E-02  0.8626901E-01
        2   -1    0    0  501    0  0.00000000000E+00  0.00000000000E+00  0.14632292221E+04  0.14632292221E+04  0.25500000920E-02 0.  1.
       -2   -1    0    0    0  501  0.00000000000E+00  0.00000000000E+00 -0.65447583590E+03  0.65447583590E+03  0.25500000920E-02 0. -1.
    10030    2    1    2    0    0  0.00000000000E+00  0.00000000000E+00  0.80875338622E+03  0.21177050580E+04  0.19571899941E+04 0.  0.
        1    1    3    3  502    0 -0.33593069606E+03  0.80176930920E+03 -0.81885195782E+02  0.87314869470E+03  0.50400001928E-02 0. -1.
       -1    1    3    3    0  502  0.33593069606E+03 -0.80176930920E+03  0.89063858201E+03  0.12445563633E+04  0.50400001928E-02 0.  1.
</event>
<event>
 5   0  0.2041718E-05  0.1763959E+04  0.7818609E-02  0.8725704E-01
        1   -1    0    0  501    0  0.00000000000E+00  0.00000000000E+00  0.33780572938E+03  0.33780572941E+03  0.50400001928E-02 0. -1.
       -1   -1    0    0    0  501  0.00000000000E+00  0.00000000000E+00 -0.23027661342E+04  0.23027661342E+04  0.50400001928E-02 0.  1.
    10030    2    1    2    0    0  0.00000000000E+00  0.00000000000E+00 -0.19649604048E+04  0.26405718636E+04  0.17639587224E+04 0.  0.
        4    1    3    3  502    0  0.43302350362E+03  0.41738569626E+03 -0.19481814009E+04  0.20389047447E+04  0.12699999809E+01 0.  1.
       -4    1    3    3    0  502 -0.43302350362E+03 -0.41738569626E+03 -0.16779003911E+02  0.60166711893E+03  0.12699999809E+01 0. -1.
</event>
<event>
 5   0  0.2063930E-05  0.2487619E+04  0.7818609E-02  0.8407410E-01
       -1   -1    0    0    0  501  0.00000000000E+00  0.00000000000E+00  0.11077620404E+04  0.11077620404E+04  0.50400001928E-02 0. -1.
        1   -1    0    0  501    0  0.00000000000E+00  0.00000000000E+00 -0.13965647869E+04  0.13965647870E+04  0.50400001928E-02 0.  1.
    10030    2    1    2    0    0  0.00000000000E+00  0.00000000000E+00 -0.28880274658E+03  0.25043268273E+04  0.24876185060E+04 0.  0.
        3    1    3    3  502    0  0.43227615608E+03  0.11590204046E+04 -0.27516015753E+03  0.12672427139E+04  0.10100000352E+00 0. -1.
       -3    1    3    3    0  502 -0.43227615608E+03 -0.11590204046E+04 -0.13642589048E+02  0.12370841135E+04  0.10100000352E+00 0.  1.
</event>
<event>
 5   0  0.5024070E-05  0.2552155E+04  0.7818609E-02  0.8384637E-01
        2   -1    0    0  501    0  0.00000000000E+00  0.00000000000E+00  0.18423253846E+04  0.18423253846E+04  0.25500000920E-02 0.  1.
       -2   -1    0    0    0  501  0.00000000000E+00  0.00000000000E+00 -0.88386888904E+03  0.88386888904E+03  0.25500000920E-02 0. -1.
    10030    2    1    2    0    0  0.00000000000E+00  0.00000000000E+00  0.95845649558E+03  0.27261942737E+04  0.25521552390E+04 0.  0.
        5    1    3    3  502    0  0.65551337116E+03 -0.98385440832E+03 -0.33821091083E+02  0.11827228047E+04  0.46999998093E+01 0. -1.
       -5    1    3    3    0  502 -0.65551337116E+03  0.98385440832E+03  0.99227758667E+03  0.15434714690E+04  0.46999998093E+01 0.  1.
</event>
<event>
 5   0  0.2063930E-05  0.2482927E+04  0.7818609E-02  0.8409093E-01
       -1   -1    0    0    0  501  0.00000000000E+00  0.00000000000E+00  0.87463634056E+03  0.87463634058E+03  0.50400001928E-02 0.  1.
        1   -1    0    0  501    0  0.00000000000E+00  0.00000000000E+00 -0.17621393858E+04  0.17621393858E+04  0.50400001928E-02 0. -1.
    10030    2    1    2    0    0  0.00000000000E+00  0.00000000000E+00 -0.88750304528E+03  0.26367757264E+04  0.24829266151E+04 0.  0.
        3    1    3    3  502    0 -0.12004193230E+04 -0.31011137752E+03 -0.37612261311E+03  0.12956248870E+04  0.10100000352E+00 0. -1.
       -3    1    3    3    0  502  0.12004193230E+04  0.31011137752E+03 -0.51138043217E+03  0.13411508394E+04  0.10100000352E+00 0.  1.
</event>
<event>
 5   0  0.2063930E-05  0.2508908E+04  0.7818609E-02  0.8399819E-01
       -1   -1    0    0    0  501  0.00000000000E+00  0.00000000000E+00  0.74343564060E+03  0.74343564062E+03  0.50400001928E-02 0.  1.
        1   -1    0    0  501    0  0.00000000000E+00  0.00000000000E+00 -0.21167336979E+04  0.21167336979E+04  0.50400001928E-02 0. -1.
    10030    2    1    2    0    0  0.00000000000E+00  0.00000000000E+00 -0.13732980573E+04  0.28601693386E+04  0.25089083465E+04 0.  0.
        3    1    3    3  502    0  0.17880661040E+03 -0.12102883442E+04 -0.10027526019E+04  0.15818604460E+04  0.10100000352E+00 0. -1.
       -3    1    3    3    0  502 -0.17880661040E+03  0.12102883442E+04 -0.37054545548E+03  0.12783088925E+04  0.10100000352E+00 0.  1.
</event>
<event>
 5   0  0.4959042E-05  0.2510340E+04  0.7818609E-02  0.8399311E-01
        2   -1    0    0  501    0  0.00000000000E+00  0.00000000000E+00  0.13726533343E+04  0.13726533343E+04  0.25500000920E-02 0.  1.
       -2   -1    0    0    0  501  0.00000000000E+00  0.00000000000E+00 -0.11477418255E+04  0.11477418255E+04  0.25500000920E-02 0. -1.
    10030    2    1    2    0    0  0.00000000000E+00  0.00000000000E+00  0.22491150877E+03  0.25203951598E+04  0.25103399321E+04 0.  0.
        4    1    3    3  502    0  0.17638245194E+03 -0.11205879606E+04  0.65184307225E+03  0.13083306732E+04  0.12699999809E+01 0.  1.
       -4    1    3    3    0  502 -0.17638245194E+03  0.11205879606E+04 -0.42693156348E+03  0.12120644865E+04  0.12699999809E+01 0. -1.
</event>
<event>
 5   0  0.4995256E-05  0.2437755E+04  0.7818609E-02  0.8425503E-01
        2   -1    0    0  501    0  0.00000000000E+00  0.00000000000E+00  0.13234411482E+04  0.13234411482E+04  0.25500000920E-02 0.  1.
       -2   -1    0    0    0  501  0.00000000000E+00  0.00000000000E+00 -0.11225748522E+04  0.11225748522E+04  0.25500000920E-02 0. -1.
    10030    2    1    2    0    0  0.00000000000E+00  0.00000000000E+00  0.20086629600E+03  0.24460160004E+04  0.24377545006E+04 0.  0.
        2    1    3    3  502    0 -0.68994089053E+03  0.94733699193E+03  0.43652493711E+03  0.12506077840E+04  0.25500000920E-02 0.  1.
       -2    1    3    3    0  502  0.68994089053E+03 -0.94733699193E+03 -0.23565864112E+03  0.11954082164E+04  0.25500000920E-02 0. -1.
</event>
<event>
 5   0  0.2036578E-05  0.2457646E+04  0.7818609E-02  0.8418232E-01
       -1   -1    0    0    0  501  0.00000000000E+00  0.00000000000E+00  0.12360477956E+04  0.12360477956E+04  0.50400001928E-02 0.  1.
        1   -1    0    0  501    0  0.00000000000E+00  0.00000000000E+00 -0.12216403172E+04  0.12216403172E+04  0.50400001928E-02 0. -1.
    10030    2    1    2    0    0  0.00000000000E+00  0.00000000000E+00  0.14407478361E+02  0.24576881128E+04  0.24576458826E+04 0.  0.
        2    1    3    3  502    0 -0.31779154534E+03  0.68945768704E+03  0.97348244608E+03  0.12345085829E+04  0.25500000920E-02 0.  1.
       -2    1    3    3    0  502  0.31779154534E+03 -0.68945768704E+03 -0.95907496772E+03  0.12231795298E+04  0.25500000920E-02 0. -1.
</event>
<event>
 5   0  0.4995256E-05  0.2384707E+04  0.7818609E-02  0.8445251E-01
       -2   -1    0    0    0  501  0.00000000000E+00  0.00000000000E+00  0.78385047659E+03  0.78385047660E+03  0.25500000920E-02 0. -1.
        2   -1    0    0  501    0  0.00000000000E+00  0.00000000000E+00 -0.18137469096E+04  0.18137469096E+04  0.25500000920E-02 0.  1.
    10030    2    1    2    0    0  0.00000000000E+00  0.00000000000E+00 -0.10298964330E+04  0.25975973862E+04  0.23847065895E+04 0.  0.
        2    1    3    3  502    0 -0.76345753818E+02 -0.84060725453E+03 -0.14323059951E+04  0.16625130658E+04  0.25500000920E-02 0.  1.
       -2    1    3    3    0  502  0.76345753818E+02  0.84060725453E+03  0.40240956209E+03  0.93508432035E+03  0.25500000920E-02 0. -1.
</event>
<event>
 5   0  0.2036578E-05  0.2536984E+04  0.7818609E-02  0.8389927E-01
        1   -1    0    0  501    0  0.00000000000E+00  0.00000000000E+00  0.16271356912E+04  0.16271356912E+04  0.50400001928E-02 0. -1.
       -1   -1    0    0    0  501  0.00000000000E+00  0.00000000000E+00 -0.98889860938E+03  0.98889860939E+03  0.50400001928E-02 0.  1.
    10030    2    1    2    0    0  0.00000000000E+00  0.00000000000E+00  0.63823708182E+03  0.26160343006E+04  0.25369842115E+04 0.  0.
        2    1    3    3  502    0  0.15192600615E+03  0.59817898583E+02 -0.97801749925E+03  0.99155328711E+03  0.25500000920E-02 0.  1.
       -2    1    3    3    0  502 -0.15192600615E+03 -0.59817898583E+02  0.16162545811E+04  0.16244810135E+04  0.25500000920E-02 0. -1.
</event>
<event>
 5   0  0.2081874E-05  0.2546135E+04  0.7818609E-02  0.8386732E-01
       -1   -1    0    0    0  501  0.00000000000E+00  0.00000000000E+00  0.59038212246E+03  0.59038212248E+03  0.50400001928E-02 0. -1.
        1   -1    0    0  501    0  0.00000000000E+00  0.00000000000E+00 -0.27451724824E+04  0.27451724824E+04  0.50400001928E-02 0.  1.
    10030    2    1    2    0    0  0.00000000000E+00  0.00000000000E+00 -0.21547903599E+04  0.33355546048E+04  0.25461349192E+04 0.  0.
        1    1    3    3  502    0 -0.57418502393E+03  0.64492379386E+02 -0.25635057370E+04  0.26278145620E+04  0.50400001928E-02 0.  1.
       -1    1    3    3    0  502  0.57418502393E+03 -0.64492379386E+02  0.40871537710E+03  0.70774004282E+03  0.50400001928E-02 0. -1.
</event>
<event>
 5   0  0.4995256E-05  0.2530055E+04  0.7818609E-02  0.8392356E-01
        2   -1    0    0  501    0  0.00000000000E+00  0.00000000000E+00  0.15939045300E+04  0.15939045300E+04  0.25500000920E-02 0. -1.
       -2   -1    0    0    0  501  0.00000000000E+00  0.00000000000E+00 -0.10040086952E+04  0.10040086952E+04  0.25500000920E-02 0.  1.
    10030    2    1    2    0    0  0.00000000000E+00  0.00000000000E+00  0.58989583481E+03  0.25979132252E+04  0.25300545507E+04 0.  0.
        2    1    3    3  502    0 -0.34757711527E+03 -0.10137484040E+04  0.98513538037E+03  0.14556742064E+04  0.25500000920E-02 0. -1.
       -2    1    3    3    0  502  0.34757711527E+03  0.10137484040E+04 -0.39523954555E+03  0.11422390188E+04  0.25500000920E-02 0.  1.
</event>
<event>
 5   0  0.4959042E-05  0.2553906E+04  0.7818609E-02  0.8384029E-01
       -2   -1    0    0    0  501  0.00000000000E+00  0.00000000000E+00  0.55669592599E+03  0.55669592600E+03  0.25500000920E-02 0. -1.
        2   -1    0    0  501    0  0.00000000000E+00  0.00000000000E+00 -0.29290839648E+04  0.29290839648E+04  0.25500000920E-02 0.  1.
    10030    2    1    2    0    0  0.00000000000E+00  0.00000000000E+00 -0.23723880388E+04  0.34857798908E+04  0.25539061142E+04 0.  0.
        4    1    3    3  502    0  0.10842811337E+01 -0.31126202646E+03  0.50412389594E+03  0.59247594056E+03  0.12699999809E+01 0. -1.
       -4    1    3    3    0  502 -0.10842811337E+01  0.31126202646E+03 -0.28765119347E+04  0.28933039502E+04  0.12699999809E+01 0.  1.
</event>
<event>
 5   0  0.5219468E-05  0.2574601E+04  0.7818609E-02  0.8376880E-01
       -2   -1    0    0    0  501  0.00000000000E+00  0.00000000000E+00  0.15715859909E+04  0.15715859909E+04  0.25500000920E-02 0. -1.
        2   -1    0    0  501    0  0.00000000000E+00  0.00000000000E+00 -0.10544400023E+04  0.10544400023E+04  0.25500000920E-02 0.  1.
    10030    2    1    2    0    0  0.00000000000E+00  0.00000000000E+00  0.51714598855E+03  0.26260259932E+04  0.25746014339E+04 0.  0.
        1    1    3    3  502    0 -0.88231451749E+03 -0.37036605293E+03  0.11368724314E+04  0.14859774044E+04  0.50400001928E-02 0. -1.
       -1    1    3    3    0  502  0.88231451749E+03  0.37036605293E+03 -0.61972644287E+03  0.11400485889E+04  0.50400001928E-02 0.  1.
</event>
<event>
 5   0  0.5219468E-05  0.2453098E+04  0.7818609E-02  0.8419888E-01
       -2   -1    0    0    0  501  0.00000000000E+00  0.00000000000E+00  0.11832053667E+04  0.11832053667E+04  0.25500000920E-02 0. -1.
        2   -1    0    0  501    0  0.00000000000E+00  0.00000000000E+00 -0.12714807698E+04  0.12714807698E+04  0.25500000920E-02 0.  1.
    10030    2    1    2    0    0  0.00000000000E+00  0.00000000000E+00 -0.88275403064E+02  0.24546861365E+04  0.24530983434E+04 0.  0.
        1    1    3    3  502    0 -0.21109821770E+03  0.62600401508E+03  0.98996207840E+03  0.11901547803E+04  0.50400001928E-02 0. -1.
       -1    1    3    3    0  502  0.21109821770E+03 -0.62600401508E+03 -0.10782374815E+04  0.12645313562E+04  0.50400001928E-02 0.  1.
</event>
<event>
 5   0  0.2036578E-05  0.2429009E+04  0.7818609E-02  0.8428722E-01
       -1   -1    0    0    0  501  0.00000000000E+00  0.00000000000E+00  0.64494776630E+03  0.64494776632E+03  0.50400001928E-02 0.  1.
        1   -1    0    0  501    0  0.00000000000E+00  0.00000000000E+00 -0.22870395734E+04  0.22870395734E+04  0.50400001928E-02 0. -1.
    10030    2    1    2    0    0  0.00000000000E+00  0.00000000000E+00 -0.16420918071E+04  0.29319873397E+04  0.24290089043E+04 0.  0.
        2    1    3    3  502    0 -0.24516894835E+03 -0.11527758467E+04 -0.11750721625E+04  0.16642699760E+04  0.25500000920E-02 0. -1.
       -2    1    3    3    0  502  0.24516894835E+03  0.11527758467E+04 -0.46701964462E+03  0.12677173638E+04  0.25500000920E-02 0.  1.
</event>
<event>
 5   0  0.2036578E-05  0.2416810E+04  0.7818609E-02  0.8433237E-01
        1   -1    0    0  501    0  0.00000000000E+00  0.00000000000E+00  0.92663310832E+03  0.92663310833E+03  0.50400001928E-02 0. -1.
       -1   -1    0    0    0  501  0.00000000000E+00  0.00000000000E+00 -0.15758578741E+04  0.15758578741E+04  0.50400001928E-02 0.  1.
    10030    2    1    2    0    0  0.00000000000E+00  0.00000000000E+00 -0.64922476576E+03  0.25024909824E+04  0.24168095334E+04 0.  0.
        2    1    3    3  502    0 -0.99945859659E+03  0.37722955109E+03  0.26023254169E+03  0.10995183474E+04  0.25500000920E-02 0. -1.
       -2    1    3    3    0  502  0.99945859659E+03 -0.37722955109E+03 -0.90945730745E+03  0.14029726350E+04  0.25500000920E-02 0.  1.
</event>
<event>
 5   0  0.5219468E-05  0.2273734E+04  0.7818609E-02  0.8488350E-01
       -2   -1    0    0    0  501  0.00000000000E+00  0.00000000000E+00  0.93994858868E+03  0.93994858868E+03  0.25500000920E-02 0.  1.
        2   -1    0    0  501    0  0.00000000000E+00  0.00000000000E+00 -0.13750394079E+04  0.13750394079E+04  0.25500000920E-02 0. -1.
    10030    2    1    2    0    0  0.00000000000E+00  0.00000000000E+00 -0.43509081919E+03  0.23149879966E+04  0.22737338022E+04 0.  0.
        1    1    3    3  502    0  0.87933091558E+03 -0.71580521537E+03 -0.13317829201E+03  0.11416376058E+04  0.50400001928E-02 0. -1.
       -1    1    3    3    0  502 -0.87933091558E+03  0.71580521537E+03 -0.30191252719E+03  0.11733503908E+04  0.50400001928E-02 0.  1.
</event>
<event>
 5   0  0.5024070E-05  0.2507141E+04  0.7818609E-02  0.8400446E-01
        2   -1    0    0  501    0  0.00000000000E+00  0.00000000000E+00  0.29985800291E+04  0.29985800291E+04  0.25500000920E-02 0.  1.
       -2   -1    0    0    0  501  0.00000000000E+00  0.00000000000E+00 -0.52406120462E+03  0.52406120462E+03  0.25500000920E-02 0. -1.
    10030    2    1    2    0    0  0.00000000000E+00  0.00000000000E+00  0.24745188245E+04  0.35226412337E+04  0.25071413699E+04 0.  0.
        5    1    3    3  502    0  0.84251663360E+03 -0.35798926894E+03  0.24405429421E+04  0.26065806216E+04  0.46999998093E+01 0.  1.
       -5    1    3    3    0  502 -0.84251663360E+03  0.35798926894E+03  0.33975882411E+02  0.91606061217E+03  0.46999998093E+01 0. -1.
</event>
<event>
 5   0  0.4959042E-05  0.2639639E+04  0.7818609E-02  0.8354860E-01
        2   -1    0    0  501    0  0.00000000000E+00  0.00000000000E+00  0.19938533365E+04  0.19938533365E+04  0.25500000920E-02 0. -1.
       -2   -1    0    0    0  501  0.00000000000E+00  0.00000000000E+00 -0.87364647621E+03  0.87364647621E+03  0.25500000920E-02 0.  1.
    10030    2    1    2    0    0  0.00000000000E+00  0.00000000000E+00  0.11202068603E+04  0.28674998127E+04  0.26396385673E+04 0.  0.
        4    1    3    3  502    0  0.85759560455E+03 -0.77374244245E+02 -0.52647164486E+03  0.10092725105E+04  0.12699999809E+01 0.  1.
       -4    1    3    3    0  502 -0.85759560455E+03  0.77374244245E+02  0.16466785052E+04  0.18582273023E+04  0.12699999809E+01 0. -1.
</event>
<event>
 5   0  0.2081874E-05  0.2497548E+04  0.7818609E-02  0.8403860E-01
        1   -1    0    0  501    0  0.00000000000E+00  0.00000000000E+00  0.21878707915E+04  0.21878707915E+04  0.50400001928E-02 0. -1.
       -1   -1    0    0    0  501  0.00000000000E+00  0.00000000000E+00 -0.71276449573E+03  0.71276449575E+03  0.50400001928E-02 0.  1.
    10030    2    1    2    0    0  0.00000000000E+00  0.00000000000E+00  0.14751062957E+04  0.29006352872E+04  0.24975480948E+04 0.  0.
        1    1    3    3  502    0  0.46742271695E+03  0.80823517724E+03 -0.22556922047E+03  0.96052567446E+03  0.50400001928E-02 0.  1.
       -1    1    3    3    0  502 -0.46742271695E+03 -0.80823517724E+03  0.17006755162E+04  0.19401096128E+04  0.50400001928E-02 0. -1.
</event>
<event>
 5   0  0.4959347E-05  0.2400409E+04  0.7818609E-02  0.8439350E-01
       -2   -1    0    0    0  501  0.00000000000E+00  0.00000000000E+00  0.74119567998E+03  0.74119567998E+03  0.25500000920E-02 0.  1.
        2   -1    0    0  501    0  0.00000000000E+00  0.00000000000E+00 -0.19434693110E+04  0.19434693110E+04  0.25500000920E-02 0. -1.
    10030    2    1    2    0    0  0.00000000000E+00  0.00000000000E+00 -0.12022736311E+04  0.26846649910E+04  0.24004091797E+04 0.  0.
        3    1    3    3  502    0 -0.16719054118E+02 -0.56304160060E+03 -0.17864484086E+04  0.18731506340E+04  0.10100000352E+00 0. -1.
       -3    1    3    3    0  502  0.16719054118E+02  0.56304160060E+03  0.58417477754E+03  0.81151435704E+03  0.10100000352E+00 0.  1.
</event>
<event>
 5   0  0.5219468E-05  0.2572422E+04  0.7818609E-02  0.8377630E-01
       -2   -1    0    0    0  501  0.00000000000E+00  0.00000000000E+00  0.14316219358E+04  0.14316219358E+04  0.25500000920E-02 0. -1.
        2   -1    0    0  501    0  0.00000000000E+00  0.00000000000E+00 -0.11555692178E+04  0.11555692178E+04  0.25500000920E-02 0.  1.
    10030    2    1    2    0    0  0.00000000000E+00  0.00000000000E+00  0.27605271799E+03  0.25871911536E+04  0.25724216144E+04 0.  0.
        1    1    3    3  502    0  0.61944021751E+03  0.79144887688E+03  0.94528082727E+03  0.13797294482E+04  0.50400001928E-02 0. -1.
       -1    1    3    3    0  502 -0.61944021751E+03 -0.79144887688E+03 -0.66922810928E+03  0.12074617054E+04  0.50400001928E-02 0.  1.
</event>
<event>
 5   0  0.2041718E-05  0.2510419E+04  0.7818609E-02  0.8399283E-01
       -1   -1    0    0    0  501  0.00000000000E+00  0.00000000000E+00  0.63466024297E+03  0.63466024299E+03  0.50400001928E-02 0. -1.
        1   -1    0    0  501    0  0.00000000000E+00  0.00000000000E+00 -0.24825098418E+04  0.24825098418E+04  0.50400001928E-02 0.  1.
    10030    2    1    2    0    0  0.00000000000E+00  0.00000000000E+00 -0.18478495989E+04  0.31171700848E+04  0.25104185304E+04 0.  0.
        4    1    3    3  502    0  0.49783545215E+03  0.11479678682E+04 -0.10473363958E+04  0.16317430873E+04  0.12699999809E+01 0.  1.
       -4    1    3    3    0  502 -0.49783545215E+03 -0.11479678682E+04 -0.80051320304E+03  0.14854269976E+04  0.12699999809E+01 0. -1.
</event>
<event>
 5   0  0.4959347E-05  0.2674127E+04  0.7818609E-02  0.8343449E-01
        2   -1    0    0  501    0  0.00000000000E+00  0.00000000000E+00  0.18315561759E+04  0.18315561759E+04  0.25500000920E-02 0. -1.
       -2   -1    0    0    0  501  0.00000000000E+00  0.00000000000E+00 -0.97607659300E+03  0.97607659301E+03  0.25500000920E-02 0.  1.
    10030    2    1    2    0    0  0.00000000000E+00  0.00000000000E+00  0.85547958288E+03  0.28076327689E+04  0.26741272311E+04 0.  0.
        3    1    3    3  502    0  0.61529575179E+03 -0.56547537114E+03 -0.66810613745E+03  0.10699145193E+04  0.10100000352E+00 0.  1.
       -3    1    3    3    0  502 -0.61529575179E+03  0.56547537114E+03  0.15235857203E+04  0.17377182496E+04  0.10100000352E+00 0. -1.
</event>
<event>
 5   0  0.5219468E-05  0.2411265E+04  0.7818609E-02  0.8435298E-01
       -2   -1    0    0    0  501  0.00000000000E+00  0.00000000000E+00  0.87363874432E+03  0.87363874432E+03  0.25500000920E-02 0.  1.
        2   -1    0    0  501    0  0.00000000000E+00  0.00000000000E+00 -0.16637880233E+04  0.16637880233E+04  0.25500000920E-02 0. -1.
    10030    2    1    2    0    0  0.00000000000E+00  0.00000000000E+00 -0.79014927900E+03  0.25374267676E+04  0.24112649622E+04 0.  0.
        1    1    3    3  502    0 -0.29667615127E+03  0.42886998754E+03  0.74881588144E+03  0.91250831737E+03  0.50400001928E-02 0.  1.
       -1    1    3    3    0  502  0.29667615127E+03 -0.42886998754E+03 -0.15389651604E+04  0.16249184503E+04  0.50400001928E-02 0. -1.
</event>
<event>
 5   0  0.2036578E-05  0.2279744E+04  0.7818609E-02  0.8485951E-01
        1   -1    0    0  501    0  0.00000000000E+00  0.00000000000E+00  0.21171292013E+04  0.21171292013E+04  0.50400001928E-02 0.  1.
       -1   -1    0    0    0  501  0.00000000000E+00  0.00000000000E+00 -0.61371216542E+03  0.61371216544E+03  0.50400001928E-02 0. -1.
    10030    2    1    2    0    0  0.00000000000E+00  0.00000000000E+00  0.15034170359E+04  0.27308413668E+04  0.22797437985E+04 0.  0.
        2    1    3    3  502    0 -0.80493496532E+03  0.44657109783E+03  0.15570152769E+04  0.18087682594E+04  0.25500000920E-02 0.  1.
       -2    1    3    3    0  502  0.80493496532E+03 -0.44657109783E+03 -0.53598241013E+02  0.92207310733E+03  0.25500000920E-02 0. -1.
</event>
<event>
 5   0  0.5024070E-05  0.2497979E+04  0.7818609E-02  0.8403706E-01
       -2   -1    0    0    0  501  0.00000000000E+00  0.00000000000E+00  0.12108925808E+04  0.12108925809E+04  0.25500000920E-02 0.  1.
        2   -1    0    0  501    0  0.00000000000E+00  0.00000000000E+00 -0.12882851441E+04  0.12882851441E+04  0.25500000920E-02 0. -1.
    10030    2    1    2    0    0  0.00000000000E+00  0.00000000000E+00 -0.77392563259E+02  0.24991777250E+04  0.24979791216E+04 0.  0.
        5    1    3    3  502    0 -0.42003553788E+03 -0.11303985721E+04  0.28660900504E+03  0.12395150651E+04  0.46999998093E+01 0. -1.
       -5    1    3    3    0  502  0.42003553788E+03  0.11303985721E+04 -0.36400156830E+03  0.12596626598E+04  0.46999998093E+01 0.  1.
</event>
<event>
 5   0  0.2081874E-05  0.2466761E+04  0.7818609E-02  0.8414924E-01
       -1   -1    0    0    0  501  0.00000000000E+00  0.00000000000E+00  0.11050844178E+04  0.11050844178E+04  0.50400001928E-02 0.  1.
        1   -1    0    0  501    0  0.00000000000E+00  0.00000000000E+00 -0.13765715031E+04  0.13765715032E+04  0.50400001928E-02 0. -1.
    10030    2    1    2    0    0  0.00000000000E+00  0.00000000000E+00 -0.27148708535E+03  0.24816559210E+04  0.24667612111E+04 0.  0.
        1    1    3    3  502    0  0.11036047099E+04 -0.40068264768E+03  0.24434425089E+03  0.11992472859E+04  0.50400001928E-02 0.  1.
       -1    1    3    3    0  502 -0.11036047099E+04  0.40068264768E+03 -0.51583133624E+03  0.12824086351E+04  0.50400001928E-02 0. -1.
</event>
<event>
 5   0  0.5219468E-05  0.2503827E+04  0.7818609E-02  0.8401623E-01
        2   -1    0    0  501    0  0.00000000000E+00  0.00000000000E+00  0.18983372935E+04  0.18983372935E+04  0.25500000920E-02 0.  1.
       -2   -1    0    0    0  501  0.00000000000E+00  0.00000000000E+00 -0.82561090243E+03  0.82561090244E+03  0.25500000920E-02 0. -1.
    10030    2    1    2    0    0  0.00000000000E+00  0.00000000000E+00  0.10727263911E+04  0.27239481959E+04  0.25038274430E+04 0.  0.
        1    1    3    3  502    0  0.87455520362E+03  0.33331268027E+02 -0.43750504011E+03  0.97845206207E+03  0.50400001928E-02 0. -1.
       -1    1    3    3    0  502 -0.87455520362E+03 -0.33331268027E+02  0.15102314312E+04  0.17454961339E+04  0.50400001928E-02 0.  1.
</event>
<event>
 5   0  0.4995256E-05  0.2434922E+04  0.7818609E-02  0.8426544E-01
       -2   -1    0    0    0  501  0.00000000000E+00  0.00000000000E+00  0.21805980628E+04  0.21805980628E+04  0.25500000920E-02 0.  1.
        2   -1    0    0  501    0  0.00000000000E+00  0.00000000000E+00 -0.67972684550E+03  0.67972684550E+03  0.25500000920E-02 0. -1.
    10030    2    1    2    0    0  0.00000000000E+00  0.00000000000E+00  0.15008712173E+04  0.28603249083E+04  0.24349217996E+04 0.  0.
        2    1    3    3  502    0 -0.11302338369E+03  0.94041864604E+03 -0.14808215313E+03  0.95869173313E+03  0.25500000920E-02 0. -1.
       -2    1    3    3    0  502  0.11302338369E+03 -0.94041864604E+03  0.16489533705E+04  0.19016331752E+04  0.25500000920E-02 0.  1.
</event>
<event>
 5   0  0.2066170E-05  0.2497280E+04  0.7818609E-02  0.8403955E-01
       -1   -1    0    0    0  501  0.00000000000E+00  0.00000000000E+00  0.11604596134E+04  0.11604596134E+04  0.50400001928E-02 0. -1.
        1   -1    0    0  501    0  0.00000000000E+00  0.00000000000E+00 -0.13435210163E+04  0.13435210163E+04  0.50400001928E-02 0.  1.
    10030    2    1    2    0    0  0.00000000000E+00  0.00000000000E+00 -0.18306140288E+03  0.25039806297E+04  0.24972800237E+04 0.  0.
        5    1    3    3  502    0 -0.90225608220E+03  0.35896845147E+03  0.69553113041E+03  0.11944496768E+04  0.46999998093E+01 0. -1.
       -5    1    3    3    0  502  0.90225608220E+03 -0.35896845147E+03 -0.87859253329E+03  0.13095309529E+04  0.46999998093E+01 0.  1.
</event>
<event>
 5   0  0.2063930E-05  0.2469928E+04  0.7818609E-02  0.8413778E-01
        1   -1    0    0  501    0  0.00000000000E+00  0.00000000000E+00  0.97586074217E+03  0.97586074219E+03  0.50400001928E-02 0. -1.
       -1   -1    0    0    0  501  0.00000000000E+00  0.00000000000E+00 -0.15628618753E+04  0.15628618753E+04  0.50400001928E-02 0.  1.
    10030    2    1    2    0    0  0.00000000000E+00  0.00000000000E+00 -0.58700113310E+03  0.25387226175E+04  0.24699275694E+04 0.  0.
        3    1    3    3  502    0  0.32828612346E+02  0.28633479372E+03 -0.15278105358E+04  0.15547573365E+04  0.10100000352E+00 0.  1.
       -3    1    3    3    0  502 -0.32828612346E+02 -0.28633479372E+03  0.94080940266E+03  0.98396528101E+03  0.10100000352E+00 0. -1.
</event>
<event>
 5   0  0.4959347E-05  0.2526972E+04  0.7818609E-02  0.8393439E-01
       -2   -1    0    0    0  501  0.00000000000E+00  0.00000000000E+00  0.12305761817E+04  0.12305761817E+04  0.25500000920E-02 0.  1.
        2   -1    0    0  501    0  0.00000000000E+00  0.00000000000E+00 -0.12972756344E+04  0.12972756344E+04  0.25500000920E-02 0. -1.
    10030    2    1    2    0    0  0.00000000000E+00  0.00000000000E+00 -0.66699452791E+02  0.25278518161E+04  0.25269717029E+04 0.  0.
        3    1    3    3  502    0 -0.82558241264E+03  0.31976053649E+03  0.86838719537E+03  0.12401328365E+04  0.10100000352E+00 0.  1.
       -3    1    3    3    0  502  0.82558241264E+03 -0.31976053649E+03 -0.93508664817E+03  0.12877189796E+04  0.10100000352E+00 0. -1.
</event>
<event>
 5   0  0.5024070E-05  0.2399132E+04  0.7818609E-02  0.8439829E-01
       -2   -1    0    0    0  501  0.00000000000E+00  0.00000000000E+00  0.62607508051E+03  0.62607508051E+03  0.25500000920E-02 0.  1.
        2   -1    0    0  501    0  0.00000000000E+00  0.00000000000E+00 -0.22983793119E+04  0.22983793119E+04  0.25500000920E-02 0. -1.
    10030    2    1    2    0    0  0.00000000000E+00  0.00000000000E+00 -0.16723042314E+04  0.29244543924E+04  0.23991315202E+04 0.  0.
        5    1    3    3  502    0 -0.12736647764E+03 -0.40462475137E+03  0.53158417400E+03  0.68010825101E+03  0.46999998093E+01 0.  1.
       -5    1    3    3    0  502  0.12736647764E+03  0.40462475137E+03 -0.22038884054E+04  0.22443461414E+04  0.46999998093E+01 0. -1.
</event>
<event>
 5   0  0.2066170E-05  0.2491794E+04  0.7818609E-02  0.8405915E-01
       -1   -1    0    0    0  501  0.00000000000E+00  0.00000000000E+00  0.12089319511E+04  0.12089319511E+04  0.50400001928E-02 0.  1.
        1   -1    0    0  501    0  0.00000000000E+00  0.00000000000E+00 -0.12839919460E+04  0.12839919461E+04  0.50400001928E-02 0. -1.
    10030    2    1    2    0    0  0.00000000000E+00  0.00000000000E+00 -0.75059994937E+02  0.24929238972E+04  0.24917936420E+04 0.  0.
        5    1    3    3  502    0  0.10660971357E+04 -0.47196711987E+03  0.40189666030E+03  0.12332311545E+04  0.46999998093E+01 0.  1.
       -5    1    3    3    0  502 -0.10660971357E+04  0.47196711987E+03 -0.47695665524E+03  0.12596927427E+04  0.46999998093E+01 0. -1.
</event>
<event>
 5   0  0.5219468E-05  0.2472026E+04  0.7818609E-02  0.8413020E-01
        2   -1    0    0  501    0  0.00000000000E+00  0.00000000000E+00  0.16718316830E+04  0.16718316830E+04  0.25500000920E-02 0. -1.
       -2   -1    0    0    0  501  0.00000000000E+00  0.00000000000E+00 -0.91380526549E+03  0.91380526550E+03  0.25500000920E-02 0.  1.
    10030    2    1    2    0    0  0.00000000000E+00  0.00000000000E+00  0.75802641753E+03  0.25856369485E+04  0.24720263712E+04 0.  0.
        1    1    3    3  502    0  0.19210323865E+03 -0.33585233853E+03 -0.84883163273E+03  0.93285346564E+03  0.50400001928E-02 0.  1.
       -1    1    3    3    0  502 -0.19210323865E+03  0.33585233853E+03  0.16068580503E+04  0.16527834829E+04  0.50400001928E-02 0. -1.
</event>
<event>
 5   0  0.2081874E-05  0.2476434E+04  0.7818609E-02  0.8411429E-01
       -1   -1    0    0    0  501  0.00000000000E+00  0.00000000000E+00  0.71849313518E+03  0.71849313520E+03  0.50400001928E-02 0. -1.
        1   -1    0    0  501    0  0.00000000000E+00  0.00000000000E+00 -0.21338845724E+04  0.21338845724E+04  0.50400001928E-02 0.  1.
    10030    2    1    2    0    0  0.00000000000E+00  0.00000000000E+00 -0.14153914372E+04  0.28523777076E+04  0.24764340626E+04 0.  0.
        1    1    3    3  502    0  0.33160722114E+02 -0.81855224699E+03 -0.17771137460E+04  0.19568496827E+04  0.50400001928E-02 0.  1.
       -1    1    3    3    0  502 -0.33160722114E+02  0.81855224699E+03  0.36172230883E+03  0.89552802484E+03  0.50400001928E-02 0. -1.
</event>
<event>
 5   0  0.4959347E-05  0.2471611E+04  0.7818609E-02  0.8413169E-01
       -2   -1    0    0    0  501  0.00000000000E+00  0.00000000000E+00  0.86883015431E+03  0.86883015431E+03  0.25500000920E-02 0.  1.
        2   -1    0    0  501    0  0.00000000000E+00  0.00000000000E+00 -0.17577840410E+04  0.17577840410E+04  0.25500000920E-02 0. -1.
    10030    2    1    2    0    0  0.00000000000E+00  0.00000000000E+00 -0.88895388668E+03  0.26266141953E+04  0.24716114416E+04 0.  0.
        3    1    3    3  502    0 -0.33834479751E+01  0.77229849895E+03  0.58078489802E+03  0.96631647361E+03  0.10100000352E+00 0.  1.
       -3    1    3    3    0  502  0.33834479751E+01 -0.77229849895E+03 -0.14697387847E+04  0.16602977217E+04  0.10100000352E+00 0. -1.
</event>
<event>
 5   0  0.4959042E-05  0.2476029E+04  0.7818609E-02  0.8411576E-01
       -2   -1    0    0    0  501  0.00000000000E+00  0.00000000000E+00  0.13560117158E+04  0.13560117158E+04  0.25500000920E-02 0.  1.
        2   -1    0    0  501    0  0.00000000000E+00  0.00000000000E+00 -0.11302847013E+04  0.11302847013E+04  0.25500000920E-02 0. -1.
    10030    2    1    2    0    0  0.00000000000E+00  0.00000000000E+00  0.22572701447E+03  0.24862964171E+04  0.24760285113E+04 0.  0.
        4    1    3    3  502    0 -0.93976549417E+03 -0.43430255912E+03  0.79457484471E+03  0.13050397288E+04  0.12699999809E+01 0.  1.
       -4    1    3    3    0  502  0.93976549417E+03  0.43430255912E+03 -0.56884783024E+03  0.11812566883E+04  0.12699999809E+01 0. -1.
</event>
<event>
 5   0  0.4995256E-05  0.2462968E+04  0.7818609E-02  0.8416299E-01
        2   -1    0    0  501    0  0.00000000000E+00  0.00000000000E+00  0.10555261321E+04  0.10555261322E+04  0.25500000920E-02 0. -1.
       -2   -1    0    0    0  501  0.00000000000E+00  0.00000000000E+00 -0.14367738959E+04  0.14367738959E+04  0.25500000920E-02 0.  1.
    10030    2    1    2    0    0  0.00000000000E+00  0.00000000000E+00 -0.38124776370E+03  0.24923000280E+04  0.24629676352E+04 0.  0.
        2    1    3    3  502    0 -0.81850216848E+03  0.17928143346E+03  0.72260106483E+03  0.11064537636E+04  0.25500000920E-02 0. -1.
       -2    1    3    3    0  502  0.81850216848E+03 -0.17928143346E+03 -0.11038488285E+04  0.13858462644E+04  0.25500000920E-02 0.  1.
</event>
<event>
 5   0  0.4995256E-05  0.2504050E+04  0.7818609E-02  0.8401544E-01
        2   -1    0    0  501    0  0.00000000000E+00  0.00000000000E+00  0.89185484013E+03  0.89185484014E+03  0.25500000920E-02 0. -1.
       -2   -1    0    0    0  501  0.00000000000E+00  0.00000000000E+00 -0.17576475138E+04  0.17576475138E+04  0.25500000920E-02 0.  1.
    10030    2    1    2    0    0  0.00000000000E+00  0.00000000000E+00 -0.86579267364E+03  0.26495023539E+04  0.25040498736E+04 0.  0.
        2    1    3    3  502    0 -0.61386443902E+03 -0.82128559894E+03 -0.11931204368E+04  0.15731738497E+04  0.25500000920E-02 0.  1.
       -2    1    3    3    0  502  0.61386443902E+03  0.82128559894E+03  0.32732776316E+03  0.10763285043E+04  0.25500000920E-02 0. -1.
</event>
<event>
 5   0  0.5219468E-05  0.2577844E+04  0.7818609E-02  0.8375766E-01
        2   -1    0    0  501    0  0.00000000000E+00  0.00000000000E+00  0.19483401829E+04  0.19483401829E+04  0.25500000920E-02 0. -1.
       -2   -1    0    0    0  501  0.00000000000E+00  0.00000000000E+00 -0.85268463024E+03  0.85268463024E+03  0.25500000920E-02 0.  1.
    10030    2    1    2    0    0  0.00000000000E+00  0.00000000000E+00  0.10956555526E+04  0.28010248131E+04  0.25778438498E+04 0.  0.
        1    1    3    3  502    0  0.11263241787E+04 -0.52549009511E+03  0.91881649266E+03  0.15456292385E+04  0.50400001928E-02 0. -1.
       -1    1    3    3    0  502 -0.11263241787E+04  0.52549009511E+03  0.17683905998E+03  0.12553955746E+04  0.50400001928E-02 0.  1.
</event>
<event>
 5   0  0.2066170E-05  0.2494767E+04  0.7818609E-02  0.8404852E-01
        1   -1    0    0  501    0  0.00000000000E+00  0.00000000000E+00  0.13839097279E+04  0.13839097279E+04  0.50400001928E-02 0. -1.
       -1   -1    0    0    0  501  0.00000000000E+00  0.00000000000E+00 -0.11243262479E+04  0.11243262479E+04  0.50400001928E-02 0.  1.
    10030    2    1    2    0    0  0.00000000000E+00  0.00000000000E+00  0.25958348002E+03  0.25082359758E+04  0.24947673493E+04 0.  0.
        5    1    3    3  502    0  0.11046448477E+04  0.28946477902E+03 -0.37482814291E+03  0.12018936412E+04  0.46999998093E+01 0.  1.
       -5    1    3    3    0  502 -0.11046448477E+04 -0.28946477902E+03  0.63441162293E+03  0.13063423346E+04  0.46999998093E+01 0. -1.
</event>
<event>
 5   0  0.2081874E-05  0.1763176E+04  0.7818609E-02  0.8726131E-01
       -1   -1    0    0    0  501  0.00000000000E+00  0.00000000000E+00  0.88875217746E+03  0.88875217748E+03  0.50400001928E-02 0.  1.
        1   -1    0    0  501    0  0.00000000000E+00  0.00000000000E+00 -0.87448151583E+03  0.87448151584E+03  0.50400001928E-02 0. -1.
    10030    2    1    2    0    0  0.00000000000E+00  0.00000000000E+00  0.14270661635E+02  0.17632336933E+04  0.17631759429E+04 0.  0.
        1    1    3    3  502    0 -0.21284626808E+03 -0.70476208374E+03 -0.47785913377E+03  0.87769156329E+03  0.50400001928E-02 0. -1.
       -1    1    3    3    0  502  0.21284626808E+03  0.70476208374E+03  0.49212979540E+03  0.88554213003E+03  0.50400001928E-02 0.  1.
</event>
<event>
 5   0  0.5219468E-05  0.2464313E+04  0.7818609E-02  0.8415811E-01
        2   -1    0    0  501    0  0.00000000000E+00  0.00000000000E+00  0.23216241859E+04  0.23216241859E+04  0.25500000920E-02 0.  1.
       -2   -1    0    0    0  501  0.00000000000E+00  0.00000000000E+00 -0.65394304358E+03  0.65394304358E+03  0.25500000920E-02 0. -1.
    10030    2    1    2    0    0  0.00000000000E+00  0.00000000000E+00  0.16676811423E+04  0.29755672294E+04  0.24643132805E+04 0.  0.
        1    1    3    3  502    0 -0.11343555155E+04 -0.21253470883E+02  0.14141717839E+04  0.18130350190E+04  0.50400001928E-02 0.  1.
       -1    1    3    3    0  502  0.11343555155E+04  0.21253470883E+02  0.25350935839E+03  0.11625322105E+04  0.50400001928E-02 0. -1.
</event>
<event>
 5   0  0.2036578E-05  0.2485669E+04  0.7818609E-02  0.8408109E-01
       -1   -1    0    0    0  501  0.00000000000E+00  0.00000000000E+00  0.10809037276E+04  0.10809037276E+04  0.50400001928E-02 0. -1.
        1   -1    0    0  501    0  0.00000000000E+00  0.00000000000E+00 -0.14290237308E+04  0.14290237308E+04  0.50400001928E-02 0.  1.
    10030    2    1    2    0    0  0.00000000000E+00  0.00000000000E+00 -0.34812000319E+03  0.25099274584E+04  0.24856685841E+04 0.  0.
        2    1    3    3  502    0  0.27430501492E+03 -0.71381904421E+03 -0.11633441163E+04  0.13921747024E+04  0.25500000920E-02 0.  1.
       -2    1    3    3    0  502 -0.27430501492E+03  0.71381904421E+03  0.81522411309E+03  0.11177527561E+04  0.25500000920E-02 0. -1.
</event>
<event>
 5   0  0.2063930E-05  0.2444285E+04  0.7818609E-02  0.8423108E-01
        1   -1    0    0  501    0  0.00000000000E+00  0.00000000000E+00  0.15637500328E+04  0.15637500328E+04  0.50400001928E-02 0.  1.
       -1   -1    0    0    0  501  0.00000000000E+00  0.00000000000E+00 -0.95516046979E+03  0.95516046981E+03  0.50400001928E-02 0. -1.
    10030    2    1    2    0    0  0.00000000000E+00  0.00000000000E+00  0.60858956300E+03  0.25189105026E+04  0.24442849392E+04 0.  0.
        3    1    3    3  502    0  0.31755757319E+03 -0.76774190433E+03  0.12279640271E+04  0.14826213630E+04  0.10100000352E+00 0.  1.
       -3    1    3    3    0  502 -0.31755757319E+03  0.76774190433E+03 -0.61937446408E+03  0.10362891396E+04  0.10100000352E+00 0. -1.
</event>
<event>
 5   0  0.2041718E-05  0.2445313E+04  0.7818609E-02  0.8422731E-01
       -1   -1    0    0    0  501  0.00000000000E+00  0.00000000000E+00  0.73562222286E+03  0.73562222288E+03  0.50400001928E-02 0. -1.
        1   -1    0    0  501    0  0.00000000000E+00  0.00000000000E+00 -0.20321419130E+04  0.20321419130E+04  0.50400001928E-02 0.  1.
    10030    2    1    2    0    0  0.00000000000E+00  0.00000000000E+00 -0.12965196902E+04  0.27677641359E+04  0.24453128645E+04 0.  0.
        4    1    3    3  502    0 -0.33512837398E+03 -0.26274811319E+03 -0.19454875644E+04  0.19915499176E+04  0.12699999809E+01 0.  1.
       -4    1    3    3    0  502  0.33512837398E+03  0.26274811319E+03  0.64896787425E+03  0.77621421833E+03  0.12699999809E+01 0. -1.
</event>
<event>
 5   0  0.5219468E-05  0.2576685E+04  0.7818609E-02  0.8376164E-01
       -2   -1    0    0    0  501  0.00000000000E+00  0.00000000000E+00  0.88073617336E+03  0.88073617336E+03  0.25500000920E-02 0. -1.
        2   -1    0    0  501    0  0.00000000000E+00  0.00000000000E+00 -0.18845900816E+04  0.18845900816E+04  0.25500000920E-02 0.  1.
    10030    2    1    2    0    0  0.00000000000E+00  0.00000000000E+00 -0.10038539083E+04  0.27653262550E+04  0.25766852015E+04 0.  0.
        1    1    3    3  502    0  0.46815281825E+03  0.11707679509E+04 -0.21805915944E+03  0.12796149629E+04  0.50400001928E-02 0. -1.
       -1    1    3    3    0  502 -0.46815281825E+03 -0.11707679509E+04 -0.78579474884E+03  0.14857112921E+04  0.50400001928E-02 0.  1.
</event>
<event>
 5   0  0.2036578E-05  0.2408444E+04  0.7818609E-02  0.8436349E-01
        1   -1    0    0  501    0  0.00000000000E+00  0.00000000000E+00  0.18782810912E+04  0.18782810912E+04  0.50400001928E-02 0. -1.
       -1   -1    0    0    0  501  0.00000000000E+00  0.00000000000E+00 -0.77206291067E+03  0.77206291069E+03  0.50400001928E-02 0.  1.
    10030    2    1    2    0    0  0.00000000000E+00  0.00000000000E+00  0.11062181806E+04  0.26503440019E+04  0.24084444493E+04 0.  0.
        2    1    3    3  502    0  0.35503508017E+03 -0.20374493692E+03 -0.69315308009E+03  0.80499881982E+03  0.25500000920E-02 0.  1.
       -2    1    3    3    0  502 -0.35503508017E+03  0.20374493692E+03  0.17993712607E+04  0.18453451821E+04  0.25500000920E-02 0. -1.
</event>
<event>
 5   0  0.2066170E-05  0.1845362E+04  0.7818609E-02  0.8682542E-01
       -1   -1    0    0    0  501  0.00000000000E+00  0.00000000000E+00  0.11030700057E+04  0.11030700057E+04  0.50400001928E-02 0.  1.
        1   -1    0    0  501    0  0.00000000000E+00  0.00000000000E+00 -0.77179154492E+03  0.77179154493E+03  0.50400001928E-02 0. -1.
    10030    2    1    2    0    0  0.00000000000E+00  0.00000000000E+00  0.33127846077E+03  0.18748615506E+04  0.18453618657E+04 0.  0.
        5    1    3    3  502    0 -0.67024766795E+03 -0.61631604940E+03  0.31715608876E+03  0.96420303037E+03  0.46999998093E+01 0. -1.
       -5    1    3    3    0  502  0.67024766795E+03  0.61631604940E+03  0.14122372010E+02  0.91065852026E+03  0.46999998093E+01 0.  1.
</event>
<event>
 5   0  0.2066170E-05  0.2498350E+04  0.7818609E-02  0.8403574E-01
        1   -1    0    0  501    0  0.00000000000E+00  0.00000000000E+00  0.26599298352E+04  0.26599298352E+04  0.50400001928E-02 0.  1.
       -1   -1    0    0    0  501  0.00000000000E+00  0.00000000000E+00 -0.58664626607E+03  0.58664626609E+03  0.50400001928E-02 0. -1.
    10030    2    1    2    0    0  0.00000000000E+00  0.00000000000E+00  0.20732835691E+04  0.32465761013E+04  0.24983497801E+04 0.  0.
        5    1    3    3  502    0 -0.12370438381E+04  0.17147092230E+03  0.10718979644E+04  0.16458028651E+04  0.46999998093E+01 0. -1.
       -5    1    3    3    0  502  0.12370438381E+04 -0.17147092230E+03  0.10013856047E+04  0.16007732363E+04  0.46999998093E+01 0.  1.
</event>
<event>
 5   0  0.5219468E-05  0.2600799E+04  0.7818609E-02  0.8367930E-01
        2   -1    0    0  501    0  0.00000000000E+00  0.00000000000E+00  0.13454865950E+04  0.13454865950E+04  0.25500000920E-02 0. -1.
       -2   -1    0    0    0  501  0.00000000000E+00  0.00000000000E+00 -0.12568229223E+04  0.12568229223E+04  0.25500000920E-02 0.  1.
    10030    2    1    2    0    0  0.00000000000E+00  0.00000000000E+00  0.88663672751E+02  0.26023095173E+04  0.26007986422E+04 0.  0.
        1    1    3    3  502    0  0.11800186679E+03 -0.11076233214E+03 -0.12467067108E+04  0.12571675932E+04  0.50400001928E-02 0.  1.
       -1    1    3    3    0  502 -0.11800186679E+03  0.11076233214E+03  0.13353703835E+04  0.13451419241E+04  0.50400001928E-02 0. -1.
</event>
<event>
 5   0  0.2066170E-05  0.1529466E+04  0.7818609E-02  0.8865092E-01
        1   -1    0    0  501    0  0.00000000000E+00  0.00000000000E+00  0.97709711701E+03  0.97709711702E+03  0.50400001928E-02 0. -1.
       -1   -1    0    0    0  501  0.00000000000E+00  0.00000000000E+00 -0.59852434171E+03  0.59852434173E+03  0.50400001928E-02 0.  1.
    10030    2    1    2    0    0  0.00000000000E+00  0.00000000000E+00  0.37857277529E+03  0.15756214588E+04  0.15294658006E+04 0.  0.
        5    1    3    3  502    0 -0.53389042186E+03 -0.24189060656E+03 -0.31670208221E+03  0.66623745539E+03  0.46999998093E+01 0.  1.
       -5    1    3    3    0  502  0.53389042186E+03  0.24189060656E+03  0.69527485751E+03  0.90938400336E+03  0.46999998093E+01 0. -1.
</event>
<event>
 5   0  0.4995256E-05  0.2431842E+04  0.7818609E-02  0.8427678E-01
       -2   -1    0    0    0  501  0.00000000000E+00  0.00000000000E+00  0.73027030719E+03  0.73027030719E+03  0.25500000920E-02 0.  1.
        2   -1    0    0  501    0  0.00000000000E+00  0.00000000000E+00 -0.20245436571E+04  0.20245436571E+04  0.25500000920E-02 0. -1.
    10030    2    1    2    0    0  0.00000000000E+00  0.00000000000E+00 -0.12942733499E+04  0.27548139642E+04  0.24318421975E+04 0.  0.
        2    1    3    3  502    0 -0.67079876073E+03  0.87968273250E+03 -0.12187863306E+04  0.16459808040E+04  0.25500000920E-02 0. -1.
       -2    1    3    3    0  502  0.67079876073E+03 -0.87968273250E+03 -0.75487019219E+02  0.11088331603E+04  0.25500000920E-02 0.  1.
</event>
<event>
 5   0  0.2036578E-05  0.2461658E+04  0.7818609E-02  0.8416774E-01
       -1   -1    0    0    0  501  0.00000000000E+00  0.00000000000E+00  0.90865597856E+03  0.90865597858E+03  0.50400001928E-02 0. -1.
        1   -1    0    0  501    0  0.00000000000E+00  0.00000000000E+00 -0.16672314464E+04  0.16672314464E+04  0.50400001928E-02 0.  1.
    10030    2    1    2    0    0  0.00000000000E+00  0.00000000000E+00 -0.75857546781E+03  0.25758874250E+04  0.24616578328E+04 0.  0.
        2    1    3    3  502    0 -0.55639334901E+03  0.95123765825E+02 -0.15238052996E+04  0.16249937479E+04  0.25500000920E-02 0.  1.
       -2    1    3    3    0  502  0.55639334901E+03 -0.95123765825E+02  0.76522983177E+03  0.95089367707E+03  0.25500000920E-02 0. -1.
</event>
<event>
 5   0  0.5024070E-05  0.2503372E+04  0.7818609E-02  0.8401785E-01
        2   -1    0    0  501    0  0.00000000000E+00  0.00000000000E+00  0.22422053282E+04  0.22422053282E+04  0.25500000920E-02 0.  1.
       -2   -1    0    0    0  501  0.00000000000E+00  0.00000000000E+00 -0.69873992035E+03  0.69873992035E+03  0.25500000920E-02 0. -1.
    10030    2    1    2    0    0  0.00000000000E+00  0.00000000000E+00  0.15434654078E+04  0.29409452486E+04  0.25033724233E+04 0.  0.
        5    1    3    3  502    0  0.70803602342E+02 -0.28559565279E+03 -0.65752217401E+03  0.72037179728E+03  0.46999998093E+01 0. -1.
       -5    1    3    3    0  502 -0.70803602342E+02  0.28559565279E+03  0.22009875819E+04  0.22205734513E+04  0.46999998093E+01 0.  1.
</event>
<event>
 5   0  0.4959042E-05  0.2541259E+04  0.7818609E-02  0.8388432E-01
       -2   -1    0    0    0  501  0.00000000000E+00  0.00000000000E+00  0.59036102542E+03  0.59036102542E+03  0.25500000920E-02 0. -1.
        2   -1    0    0  501    0  0.00000000000E+00  0.00000000000E+00 -0.27347663244E+04  0.27347663244E+04  0.25500000920E-02 0.  1.
    10030    2    1    2    0    0  0.00000000000E+00  0.00000000000E+00 -0.21444052990E+04  0.33251273498E+04  0.25412590986E+04 0.  0.
        4    1    3    3  502    0  0.22541288783E+03 -0.10909676409E+04 -0.27256918265E+03  0.11468726763E+04  0.12699999809E+01 0. -1.
       -4    1    3    3    0  502 -0.22541288783E+03  0.10909676409E+04 -0.18718361163E+04  0.21782546735E+04  0.12699999809E+01 0.  1.
</event>
<event>
 5   0  0.4959042E-05  0.2508074E+04  0.7818609E-02  0.8400115E-01
        2   -1    0    0  501    0  0.00000000000E+00  0.00000000000E+00  0.15283980910E+04  0.15283980910E+04  0.25500000920E-02 0. -1.
       -2   -1    0    0    0  501  0.00000000000E+00  0.00000000000E+00 -0.10289264372E+04  0.10289264372E+04  0.25500000920E-02 0.  1.
    10030    2    1    2    0    0  0.00000000000E+00  0.00000000000E+00  0.49947165384E+03  0.25573245281E+04  0.25080743229E+04 0.  0.
        4    1    3    3  502    0 -0.54707311053E+03  0.10360697095E+04 -0.20612063104E+03  0.11896288323E+04  0.12699999809E+01 0.  1.
       -4    1    3    3    0  502  0.54707311053E+03 -0.10360697095E+04  0.70559228487E+03  0.13676956959E+04  0.12699999809E+01 0. -1.
</event>
<event>
 5   0  0.1692125E-05  0.2485541E+04  0.7818609E-02  0.8408155E-01
        3   -1    0    0  501    0  0.00000000000E+00  0.00000000000E+00  0.91406209671E+03  0.91406210229E+03  0.10100000352E+00 0. -1.
       -3   -1    0    0    0  501  0.00000000000E+00  0.00000000000E+00 -0.16896870917E+04  0.16896870947E+04  0.10100000352E+00 0.  1.
    10030    2    1    2    0    0  0.00000000000E+00  0.00000000000E+00 -0.77562499494E+03  0.26037491970E+04  0.24855413390E+04 0.  0.
        2    1    3    3  502    0 -0.11801614158E+03  0.53740100760E+03 -0.15551473905E+04  0.16496093656E+04  0.25500000920E-02 0.  1.
       -2    1    3    3    0  502  0.11801614158E+03 -0.53740100760E+03  0.77952239559E+03  0.95413983141E+03  0.25500000920E-02 0. -1.
</event>
<event>
 5   0  0.1692125E-05  0.2458256E+04  0.7818609E-02  0.8418010E-01
        3   -1    0    0  501    0  0.00000000000E+00  0.00000000000E+00  0.14545390864E+04  0.14545390900E+04  0.10100000352E+00 0. -1.
       -3   -1    0    0    0  501  0.00000000000E+00  0.00000000000E+00 -0.10386492329E+04  0.10386492379E+04  0.10100000352E+00 0.  1.
    10030    2    1    2    0    0  0.00000000000E+00  0.00000000000E+00  0.41588985350E+03  0.24931883278E+04  0.24582562250E+04 0.  0.
        1    1    3    3  502    0  0.10264935258E+03 -0.11023030329E+04  0.74952462969E+03  0.13369353150E+04  0.50400001928E-02 0. -1.
       -1    1    3    3    0  502 -0.10264935258E+03  0.11023030329E+04 -0.33363477619E+03  0.11562530129E+04  0.50400001928E-02 0.  1.
</event>
<event>
 5   0  0.2066170E-05  0.2519237E+04  0.7818609E-02  0.8396164E-01
        1   -1    0    0  501    0  0.00000000000E+00  0.00000000000E+00  0.12147206080E+04  0.12147206080E+04  0.50400001928E-02 0. -1.
       -1   -1    0    0    0  501  0.00000000000E+00  0.00000000000E+00 -0.13061755901E+04  0.13061755901E+04  0.50400001928E-02 0.  1.
    10030    2    1    2    0    0  0.00000000000E+00  0.00000000000E+00 -0.91454982060E+02  0.25208961981E+04  0.25192367153E+04 0.  0.
        5    1    3    3  502    0  0.13796859482E+03 -0.12011946633E+04  0.30765151369E+03  0.12476279478E+04  0.46999998093E+01 0. -1.
       -5    1    3    3    0  502 -0.13796859482E+03  0.12011946633E+04 -0.39910649575E+03  0.12732682503E+04  0.46999998093E+01 0.  1.
</event>
<event>
 5   0  0.5219468E-05  0.2505181E+04  0.7818609E-02  0.8401142E-01
        2   -1    0    0  501    0  0.00000000000E+00  0.00000000000E+00  0.14707969292E+04  0.14707969292E+04  0.25500000920E-02 0. -1.
       -2   -1    0    0    0  501  0.00000000000E+00  0.00000000000E+00 -0.10667567779E+04  0.10667567779E+04  0.25500000920E-02 0.  1.
    10030    2    1    2    0    0  0.00000000000E+00  0.00000000000E+00  0.40404015127E+03  0.25375537071E+04  0.25051807066E+04 0.  0.
        1    1    3    3  502    0  0.10644234879E+04  0.16387531716E+03  0.84991847481E+03  0.13719380070E+04  0.50400001928E-02 0. -1.
       -1    1    3    3    0  502 -0.10644234879E+04 -0.16387531716E+03 -0.44587832354E+03  0.11656157002E+04  0.50400001928E-02 0.  1.
</event>
<event>
 5   0  0.5024070E-05  0.2524728E+04  0.7818609E-02  0.8394229E-01
       -2   -1    0    0    0  501  0.00000000000E+00  0.00000000000E+00  0.74674644468E+03  0.74674644469E+03  0.25500000920E-02 0. -1.
        2   -1    0    0  501    0  0.00000000000E+00  0.00000000000E+00 -0.21340081188E+04  0.21340081189E+04  0.25500000920E-02 0.  1.
    10030    2    1    2    0    0  0.00000000000E+00  0.00000000000E+00 -0.13872616742E+04  0.28807545635E+04  0.25247280849E+04 0.  0.
        5    1    3    3  502    0 -0.49404047294E+03 -0.70976285931E+03  0.35567048119E+03  0.93507373321E+03  0.46999998093E+01 0.  1.
       -5    1    3    3    0  502  0.49404047294E+03  0.70976285931E+03 -0.17429321554E+04  0.19456808303E+04  0.46999998093E+01 0. -1.
</event>
<event>
 5   0  0.2066170E-05  0.1653646E+04  0.7818609E-02  0.8788252E-01
       -1   -1    0    0    0  501  0.00000000000E+00  0.00000000000E+00  0.32467009411E+03  0.32467009415E+03  0.50400001928E-02 0.  1.
        1   -1    0    0  501    0  0.00000000000E+00  0.00000000000E+00 -0.21056336143E+04  0.21056336143E+04  0.50400001928E-02 0. -1.
    10030    2    1    2    0    0  0.00000000000E+00  0.00000000000E+00 -0.17809635202E+04  0.24303037085E+04  0.16536459885E+04 0.  0.
        5    1    3    3  502    0  0.38066207099E+03 -0.65865678448E+02  0.18385383770E+03  0.42786238853E+03  0.46999998093E+01 0.  1.
       -5    1    3    3    0  502 -0.38066207099E+03  0.65865678448E+02 -0.19648173579E+04  0.20024413200E+04  0.46999998093E+01 0. -1.
</event>
<event>
 5   0  0.4959042E-05  0.2387177E+04  0.7818609E-02  0.8444320E-01
        2   -1    0    0  501    0  0.00000000000E+00  0.00000000000E+00  0.20876932722E+04  0.20876932722E+04  0.25500000920E-02 0.  1.
       -2   -1    0    0    0  501  0.00000000000E+00  0.00000000000E+00 -0.68240543350E+03  0.68240543350E+03  0.25500000920E-02 0. -1.
    10030    2    1    2    0    0  0.00000000000E+00  0.00000000000E+00  0.14052878387E+04  0.27700987057E+04  0.23871767697E+04 0.  0.
        4    1    3    3  502    0 -0.10418132548E+04 -0.57868331545E+03  0.77963750205E+03  0.14241086633E+04  0.12699999809E+01 0.  1.
       -4    1    3    3    0  502  0.10418132548E+04  0.57868331545E+03  0.62565033662E+03  0.13459900423E+04  0.12699999809E+01 0. -1.
</event>
<event>
 5   0  0.5219468E-05  0.2543036E+04  0.7818609E-02  0.8387812E-01
       -2   -1    0    0    0  501  0.00000000000E+00  0.00000000000E+00  0.11568579318E+04  0.11568579318E+04  0.25500000920E-02 0.  1.
        2   -1    0    0  501    0  0.00000000000E+00  0.00000000000E+00 -0.13975427856E+04  0.13975427856E+04  0.25500000920E-02 0. -1.
    10030    2    1    2    0    0  0.00000000000E+00  0.00000000000E+00 -0.24068485377E+03  0.25544007174E+04  0.25430363399E+04 0.  0.
        1    1    3    3  502    0 -0.91960841337E+03  0.80371156357E+03 -0.47565550086E+03  0.13106792388E+04  0.50400001928E-02 0.  1.
       -1    1    3    3    0  502  0.91960841337E+03 -0.80371156357E+03  0.23497064709E+03  0.12437214786E+04  0.50400001928E-02 0. -1.
</event>
<event>
 5   0  0.2063930E-05  0.2500278E+04  0.7818609E-02  0.8402886E-01
        1   -1    0    0  501    0  0.00000000000E+00  0.00000000000E+00  0.10520105048E+04  0.10520105049E+04  0.50400001928E-02 0.  1.
       -1   -1    0    0    0  501  0.00000000000E+00  0.00000000000E+00 -0.14855819770E+04  0.14855819770E+04  0.50400001928E-02 0. -1.
    10030    2    1    2    0    0  0.00000000000E+00  0.00000000000E+00 -0.43357147216E+03  0.25375924819E+04  0.25002782610E+04 0.  0.
        3    1    3    3  502    0 -0.76540573626E+03  0.76430290492E+03  0.41934008374E+03  0.11601081793E+04  0.10100000352E+00 0.  1.
       -3    1    3    3    0  502  0.76540573626E+03 -0.76430290492E+03 -0.85291155590E+03  0.13774843026E+04  0.10100000352E+00 0. -1.
</event>
<event>
 5   0  0.4959347E-05  0.2455451E+04  0.7818609E-02  0.8419030E-01
        2   -1    0    0  501    0  0.00000000000E+00  0.00000000000E+00  0.76070645534E+03  0.76070645534E+03  0.25500000920E-02 0. -1.
       -2   -1    0    0    0  501  0.00000000000E+00  0.00000000000E+00 -0.19814608136E+04  0.19814608136E+04  0.25500000920E-02 0.  1.
    10030    2    1    2    0    0  0.00000000000E+00  0.00000000000E+00 -0.12207543583E+04  0.27421672690E+04  0.24554511047E+04 0.  0.
        3    1    3    3  502    0  0.16667339134E+03 -0.79389830536E+03 -0.16395346523E+04  0.18292425823E+04  0.10100000352E+00 0.  1.
       -3    1    3    3    0  502 -0.16667339134E+03  0.79389830536E+03  0.41878029402E+03  0.91292468665E+03  0.10100000352E+00 0. -1.
</event>
<event>
 5   0  0.2063930E-05  0.2450658E+04  0.7818609E-02  0.8420778E-01
        1   -1    0    0  501    0  0.00000000000E+00  0.00000000000E+00  0.10746420628E+04  0.10746420628E+04  0.50400001928E-02 0. -1.
       -1   -1    0    0    0  501  0.00000000000E+00  0.00000000000E+00 -0.13971455188E+04  0.13971455188E+04  0.50400001928E-02 0.  1.
    10030    2    1    2    0    0  0.00000000000E+00  0.00000000000E+00 -0.32250345595E+03  0.24717875816E+04  0.24506581503E+04 0.  0.
        3    1    3    3  502    0 -0.10491380141E+04  0.49771525948E+03  0.23329905329E+03  0.11844152611E+04  0.10100000352E+00 0. -1.
       -3    1    3    3    0  502  0.10491380141E+04 -0.49771525948E+03 -0.55580250924E+03  0.12873723205E+04  0.10100000352E+00 0.  1.
</event>
<event>
 5   0  0.2066170E-05  0.2518933E+04  0.7818609E-02  0.8396272E-01
        1   -1    0    0  501    0  0.00000000000E+00  0.00000000000E+00  0.12217974998E+04  0.12217974998E+04  0.50400001928E-02 0.  1.
       -1   -1    0    0    0  501  0.00000000000E+00  0.00000000000E+00 -0.12982965764E+04  0.12982965764E+04  0.50400001928E-02 0. -1.
    10030    2    1    2    0    0  0.00000000000E+00  0.00000000000E+00 -0.76499076593E+02  0.25200940762E+04  0.25189327193E+04 0.  0.
        5    1    3    3  502    0  0.50771209781E+03  0.28477127869E+03  0.10791213182E+04  0.12261285271E+04  0.46999998093E+01 0.  1.
       -5    1    3    3    0  502 -0.50771209781E+03 -0.28477127869E+03 -0.11556203948E+04  0.12939655491E+04  0.46999998093E+01 0. -1.
</event>
<event>
 5   0  0.2081874E-05  0.2517937E+04  0.7818609E-02  0.8396623E-01
       -1   -1    0    0    0  501  0.00000000000E+00  0.00000000000E+00  0.82387243857E+03  0.82387243859E+03  0.50400001928E-02 0. -1.
        1   -1    0    0  501    0  0.00000000000E+00  0.00000000000E+00 -0.19238442274E+04  0.19238442274E+04  0.50400001928E-02 0.  1.
    10030    2    1    2    0    0  0.00000000000E+00  0.00000000000E+00 -0.10999717888E+04  0.27477166660E+04  0.25179374377E+04 0.  0.
        1    1    3    3  502    0  0.39687267894E+03  0.90508218879E+03 -0.14011107124E+04  0.17145824332E+04  0.50400001928E-02 0.  1.
       -1    1    3    3    0  502 -0.39687267894E+03 -0.90508218879E+03  0.30113892355E+03  0.10331342328E+04  0.50400001928E-02 0. -1.
</event>
<event>
 5   0  0.2081874E-05  0.2011353E+04  0.7818609E-02  0.8601331E-01
       -1   -1    0    0    0  501  0.00000000000E+00  0.00000000000E+00  0.58986521814E+03  0.58986521816E+03  0.50400001928E-02 0.  1.
        1   -1    0    0  501    0  0.00000000000E+00  0.00000000000E+00 -0.17146032391E+04  0.17146032391E+04  0.50400001928E-02 0. -1.
    10030    2    1    2    0    0  0.00000000000E+00  0.00000000000E+00 -0.11247380210E+04  0.23044684573E+04  0.20113525934E+04 0.  0.
        1    1    3    3  502    0  0.26745424787E+03 -0.95975053351E+03 -0.40555889276E+03  0.10757001798E+04  0.50400001928E-02 0. -1.
       -1    1    3    3    0  502 -0.26745424787E+03  0.95975053351E+03 -0.71917912823E+03  0.12287682775E+04  0.50400001928E-02 0.  1.
</event>
<event>
 5   0  0.4959347E-05  0.2481292E+04  0.7818609E-02  0.8409681E-01
       -2   -1    0    0    0  501  0.00000000000E+00  0.00000000000E+00  0.71629306021E+03  0.71629306021E+03  0.25500000920E-02 0. -1.
        2   -1    0    0  501    0  0.00000000000E+00  0.00000000000E+00 -0.21488450259E+04  0.21488450259E+04  0.25500000920E-02 0.  1.
    10030    2    1    2    0    0  0.00000000000E+00  0.00000000000E+00 -0.14325519657E+04  0.28651380861E+04  0.24812922274E+04 0.  0.
        3    1    3    3  502    0  0.83920758256E+03 -0.24062828846E+03  0.30158141014E+03  0.92364641340E+03  0.10100000352E+00 0. -1.
       -3    1    3    3    0  502 -0.83920758256E+03  0.24062828846E+03 -0.17341333758E+04  0.19414916727E+04  0.10100000352E+00 0.  1.
</event>
<event>
 5   0  0.2081874E-05  0.2504432E+04  0.7818609E-02  0.8401408E-01
       -1   -1    0    0    0  501  0.00000000000E+00  0.00000000000E+00  0.14976568759E+04  0.14976568760E+04  0.50400001928E-02 0.  1.
        1   -1    0    0  501    0  0.00000000000E+00  0.00000000000E+00 -0.10469987141E+04  0.10469987141E+04  0.50400001928E-02 0. -1.
    10030    2    1    2    0    0  0.00000000000E+00  0.00000000000E+00  0.45065816185E+03  0.25446555901E+04  0.25044319302E+04 0.  0.
        1    1    3    3  502    0 -0.45501992789E+03  0.34710582481E+03 -0.90634541788E+03  0.10719083939E+04  0.50400001928E-02 0. -1.
       -1    1    3    3    0  502  0.45501992789E+03 -0.34710582481E+03  0.13570035797E+04  0.14727471962E+04  0.50400001928E-02 0.  1.
</event>
<event>
 5   0  0.2036578E-05  0.2543885E+04  0.7818609E-02  0.8387516E-01
        1   -1    0    0  501    0  0.00000000000E+00  0.00000000000E+00  0.11126749751E+04  0.11126749751E+04  0.50400001928E-02 0. -1.
       -1   -1    0    0    0  501  0.00000000000E+00  0.00000000000E+00 -0.14540070382E+04  0.14540070382E+04  0.50400001928E-02 0.  1.
    10030    2    1    2    0    0  0.00000000000E+00  0.00000000000E+00 -0.34133206315E+03  0.25666820133E+04  0.25438846239E+04 0.  0.
        2    1    3    3  502    0 -0.37596330044E+03  0.35314595584E+03 -0.13437447262E+04  0.14393437249E+04  0.25500000920E-02 0.  1.
       -2    1    3    3    0  502  0.37596330044E+03 -0.35314595584E+03  0.10024126630E+04  0.11273382883E+04  0.25500000920E-02 0. -1.
</event>
<event>
 5   0  0.2066170E-05  0.2492742E+04  0.7818609E-02  0.8405576E-01
        1   -1    0    0  501    0  0.00000000000E+00  0.00000000000E+00  0.21325226539E+04  0.21325226539E+04  0.50400001928E-02 0. -1.
       -1   -1    0    0    0  501  0.00000000000E+00  0.00000000000E+00 -0.72845196594E+03  0.72845196596E+03  0.50400001928E-02 0.  1.
    10030    2    1    2    0    0  0.00000000000E+00  0.00000000000E+00  0.14040706880E+04  0.28609746199E+04  0.24927417192E+04 0.  0.
        5    1    3    3  502    0  0.26445148901E+02  0.87471592993E+03  0.17205964178E+04  0.19303630298E+04  0.46999998093E+01 0. -1.
       -5    1    3    3    0  502 -0.26445148901E+02 -0.87471592993E+03 -0.31652572980E+03  0.93061159008E+03  0.46999998093E+01 0.  1.
</event>
<event>
 5   0  0.5219468E-05  0.2422250E+04  0.7818609E-02  0.8431220E-01
       -2   -1    0    0    0  501  0.00000000000E+00  0.00000000000E+00  0.14532322402E+04  0.14532322402E+04  0.25500000920E-02 0. -1.
        2   -1    0    0  501    0  0.00000000000E+00  0.00000000000E+00 -0.10093528340E+04  0.10093528340E+04  0.25500000920E-02 0.  1.
    10030    2    1    2    0    0  0.00000000000E+00  0.00000000000E+00  0.44387940625E+03  0.24625850742E+04  0.24222502596E+04 0.  0.
        1    1    3    3  502    0  0.86529379534E+03 -0.76827743691E+02  0.10799048116E+04  0.13859402067E+04  0.50400001928E-02 0. -1.
       -1    1    3    3    0  502 -0.86529379534E+03  0.76827743691E+02 -0.63602540532E+03  0.10766448675E+04  0.50400001928E-02 0.  1.
</event>
<event>
 5   0  0.4959347E-05  0.1662765E+04  0.7818609E-02  0.8782890E-01
       -2   -1    0    0    0  501  0.00000000000E+00  0.00000000000E+00  0.97902515336E+03  0.97902515337E+03  0.25500000920E-02 0.  1.
        2   -1    0    0  501    0  0.00000000000E+00  0.00000000000E+00 -0.70600537897E+03  0.70600537897E+03  0.25500000920E-02 0. -1.
    10030    2    1    2    0    0  0.00000000000E+00  0.00000000000E+00  0.27301977440E+03  0.16850305323E+04  0.16627651962E+04 0.  0.
        3    1    3    3  502    0  0.75459921037E+03 -0.32719239775E+03  0.25946962327E+03  0.86243801461E+03  0.10100000352E+00 0.  1.
       -3    1    3    3    0  502 -0.75459921037E+03  0.32719239775E+03  0.13550151127E+02  0.82259251773E+03  0.10100000352E+00 0. -1.
</event>
<event>
 5   0  0.2081874E-05  0.2529997E+04  0.7818609E-02  0.8392376E-01
       -1   -1    0    0    0  501  0.00000000000E+00  0.00000000000E+00  0.10169575470E+04  0.10169575470E+04  0.50400001928E-02 0.  1.
        1   -1    0    0  501    0  0.00000000000E+00  0.00000000000E+00 -0.15735377462E+04  0.15735377462E+04  0.50400001928E-02 0. -1.
    10030    2    1    2    0    0  0.00000000000E+00  0.00000000000E+00 -0.55658019927E+03  0.25904952932E+04  0.25299969063E+04 0.  0.
        1    1    3    3  502    0  0.59458520316E+03  0.46425300226E+03  0.76145185079E+03  0.10718541575E+04  0.50400001928E-02 0.  1.
       -1    1    3    3    0  502 -0.59458520316E+03 -0.46425300226E+03 -0.13180320501E+04  0.15186411357E+04  0.50400001928E-02 0. -1.
</event>
<event>
 5   0  0.2036578E-05  0.3006033E+04  0.7818609E-02  0.8242010E-01
       -1   -1    0    0    0  501  0.00000000000E+00  0.00000000000E+00  0.13275086314E+04  0.13275086315E+04  0.50400001928E-02 0.  1.
        1   -1    0    0  501    0  0.00000000000E+00  0.00000000000E+00 -0.17017276453E+04  0.17017276453E+04  0.50400001928E-02 0. -1.
    10030    2    1    2    0    0  0.00000000000E+00  0.00000000000E+00 -0.37421901384E+03  0.30292362768E+04  0.30060326928E+04 0.  0.
        2    1    3    3  502    0  0.11020905294E+04 -0.60614038291E+03 -0.10162904649E+04  0.16170516404E+04  0.25500000920E-02 0. -1.
       -2    1    3    3    0  502 -0.11020905294E+04  0.60614038291E+03  0.64207145106E+03  0.14121846363E+04  0.25500000920E-02 0.  1.
</event>
<event>
 5   0  0.2041718E-05  0.2414468E+04  0.7818609E-02  0.8434107E-01
        1   -1    0    0  501    0  0.00000000000E+00  0.00000000000E+00  0.94420328896E+03  0.94420328897E+03  0.50400001928E-02 0.  1.
       -1   -1    0    0    0  501  0.00000000000E+00  0.00000000000E+00 -0.15435385030E+04  0.15435385030E+04  0.50400001928E-02 0. -1.
    10030    2    1    2    0    0  0.00000000000E+00  0.00000000000E+00 -0.59933521400E+03  0.24877417919E+04  0.24144681660E+04 0.  0.
        4    1    3    3  502    0  0.28866858397E+03  0.99549533077E+03  0.33804357226E+03  0.10902364765E+04  0.12699999809E+01 0.  1.
       -4    1    3    3    0  502 -0.28866858397E+03 -0.99549533077E+03 -0.93737878626E+03  0.13975053155E+04  0.12699999809E+01 0. -1.
</event>
<event>
 5   0  0.2063930E-05  0.2424104E+04  0.7818609E-02  0.8430534E-01
        1   -1    0    0  501    0  0.00000000000E+00  0.00000000000E+00  0.13463238933E+04  0.13463238933E+04  0.50400001928E-02 0. -1.
       -1   -1    0    0    0  501  0.00000000000E+00  0.00000000000E+00 -0.10911712966E+04  0.10911712966E+04  0.50400001928E-02 0.  1.
    10030    2    1    2    0    0  0.00000000000E+00  0.00000000000E+00  0.25515259676E+03  0.24374951899E+04  0.24241039485E+04 0.  0.
        3    1    3    3  502    0  0.35885885546E+03  0.69264026186E+03  0.10603536677E+04  0.13163890463E+04  0.10100000352E+00 0. -1.
       -3    1    3    3    0  502 -0.35885885546E+03 -0.69264026186E+03 -0.80520107091E+03  0.11211061436E+04  0.10100000352E+00 0.  1.
</event>
<event>
 5   0  0.2081874E-05  0.2381150E+04  0.7818609E-02  0.8446595E-01
        1   -1    0    0  501    0  0.00000000000E+00  0.00000000000E+00  0.18159879437E+04  0.18159879437E+04  0.50400001928E-02 0. -1.
       -1   -1    0    0    0  501  0.00000000000E+00  0.00000000000E+00 -0.78054942708E+03  0.78054942709E+03  0.50400001928E-02 0.  1.
    10030    2    1    2    0    0  0.00000000000E+00  0.00000000000E+00  0.10354385166E+04  0.25965373708E+04  0.23811495955E+04 0.  0.
        1    1    3    3  502    0  0.95764077621E+03  0.65092741703E+02 -0.25037898203E+03  0.99196902973E+03  0.50400001928E-02 0.  1.
       -1    1    3    3    0  502 -0.95764077621E+03 -0.65092741703E+02  0.12858174986E+04  0.16045683410E+04  0.50400001928E-02 0. -1.
</event>
<event>
 5   0  0.4959042E-05  0.2417282E+04  0.7818609E-02  0.8433062E-01
       -2   -1    0    0    0  501  0.00000000000E+00  0.00000000000E+00  0.14235704194E+04  0.14235704194E+04  0.25500000920E-02 0. -1.
        2   -1    0    0  501    0  0.00000000000E+00  0.00000000000E+00 -0.10261614657E+04  0.10261614657E+04  0.25500000920E-02 0.  1.
    10030    2    1    2    0    0  0.00000000000E+00  0.00000000000E+00  0.39740895378E+03  0.24497318851E+04  0.24172820341E+04 0.  0.
        4    1    3    3  502    0  0.11498172584E+04 -0.36809015856E+03  0.14100687998E+03  0.12155059217E+04  0.12699999809E+01 0.  1.
       -4    1    3    3    0  502 -0.11498172584E+04  0.36809015856E+03  0.25640207380E+03  0.12342259634E+04  0.12699999809E+01 0. -1.
</event>
<event>
 5   0  0.4959042E-05  0.2465537E+04  0.7818609E-02  0.8415367E-01
        2   -1    0    0  501    0  0.00000000000E+00  0.00000000000E+00  0.11516281891E+04  0.11516281891E+04  0.25500000920E-02 0. -1.
       -2   -1    0    0    0  501  0.00000000000E+00  0.00000000000E+00 -0.13196259608E+04  0.13196259608E+04  0.25500000920E-02 0.  1.
    10030    2    1    2    0    0  0.00000000000E+00  0.00000000000E+00 -0.16799777170E+03  0.24712541499E+04  0.24655372279E+04 0.  0.
        4    1    3    3  502    0 -0.46410970707E+03 -0.66070732908E+03  0.84971083120E+03  0.11721527650E+04  0.12699999809E+01 0. -1.
       -4    1    3    3    0  502  0.46410970707E+03  0.66070732908E+03 -0.10177086029E+04  0.12991013849E+04  0.12699999809E+01 0.  1.
</event>
<event>
 5   0  0.2081874E-05  0.2482512E+04  0.7818609E-02  0.8409242E-01
        1   -1    0    0  501    0  0.00000000000E+00  0.00000000000E+00  0.20730854998E+04  0.20730854998E+04  0.50400001928E-02 0.  1.
       -1   -1    0    0    0  501  0.00000000000E+00  0.00000000000E+00 -0.74319977995E+03  0.74319977997E+03  0.50400001928E-02 0. -1.
    10030    2    1    2    0    0  0.00000000000E+00  0.00000000000E+00  0.13298857198E+04  0.28162852797E+04  0.24825121851E+04 0.  0.
        1    1    3    3  502    0 -0.20643165524E+03  0.69378352970E+03 -0.47897803552E+03  0.86796864742E+03  0.50400001928E-02 0. -1.
       -1    1    3    3    0  502  0.20643165524E+03 -0.69378352970E+03  0.18088637553E+04  0.19483166323E+04  0.50400001928E-02 0.  1.
</event>
<event>
 5   0  0.2041718E-05  0.2511502E+04  0.7818609E-02  0.8398899E-01
        1   -1    0    0  501    0  0.00000000000E+00  0.00000000000E+00  0.10918686399E+04  0.10918686400E+04  0.50400001928E-02 0.  1.
       -1   -1    0    0    0  501  0.00000000000E+00  0.00000000000E+00 -0.14442307249E+04  0.14442307249E+04  0.50400001928E-02 0. -1.
    10030    2    1    2    0    0  0.00000000000E+00  0.00000000000E+00 -0.35236208493E+03  0.25360993648E+04  0.25115017319E+04 0.  0.
        4    1    3    3  502    0  0.72731514683E+03 -0.59058610812E+03 -0.10205097403E+04  0.13853595262E+04  0.12699999809E+01 0. -1.
       -4    1    3    3    0  502 -0.72731514683E+03  0.59058610812E+03  0.66814765538E+03  0.11507398386E+04  0.12699999809E+01 0.  1.
</event>
<event>
 5   0  0.4959042E-05  0.2609475E+04  0.7818609E-02  0.8364990E-01
        2   -1    0    0  501    0  0.00000000000E+00  0.00000000000E+00  0.88922042574E+03  0.88922042575E+03  0.25500000920E-02 0. -1.
       -2   -1    0    0    0  501  0.00000000000E+00  0.00000000000E+00 -0.19144179498E+04  0.19144179498E+04  0.25500000920E-02 0.  1.
    10030    2    1    2    0    0  0.00000000000E+00  0.00000000000E+00 -0.10251975240E+04  0.28036383755E+04  0.26094746938E+04 0.  0.
        4    1    3    3  502    0 -0.18537415533E+03 -0.12891572576E+04 -0.42904386753E+03  0.13712659353E+04  0.12699999809E+01 0.  1.
       -4    1    3    3    0  502  0.18537415533E+03  0.12891572576E+04 -0.59615365648E+03  0.14323724402E+04  0.12699999809E+01 0. -1.
</event>
<event>
 5   0  0.4959042E-05  0.1544863E+04  0.7818609E-02  0.8855156E-01
        2   -1    0    0  501    0  0.00000000000E+00  0.00000000000E+00  0.14903407097E+04  0.14903407097E+04  0.25500000920E-02 0. -1.
       -2   -1    0    0    0  501  0.00000000000E+00  0.00000000000E+00 -0.40034489449E+03  0.40034489450E+03  0.25500000920E-02 0.  1.
    10030    2    1    2    0    0  0.00000000000E+00  0.00000000000E+00  0.10899958152E+04  0.18906856042E+04  0.15448628343E+04 0.  0.
        4    1    3    3  502    0  0.44868568994E+03  0.25411330540E+02  0.13138701922E+04  0.13886040036E+04  0.12699999809E+01 0. -1.
       -4    1    3    3    0  502 -0.44868568994E+03 -0.25411330540E+02 -0.22387437697E+03  0.50208160058E+03  0.12699999809E+01 0.  1.
</event>
<event>
 5   0  0.5024070E-05  0.2552570E+04  0.7818609E-02  0.8384493E-01
        2   -1    0    0  501    0  0.00000000000E+00  0.00000000000E+00  0.11326735313E+04  0.11326735313E+04  0.25500000920E-02 0. -1.
       -2   -1    0    0    0  501  0.00000000000E+00  0.00000000000E+00 -0.14381045211E+04  0.14381045211E+04  0.25500000920E-02 0.  1.
    10030    2    1    2    0    0  0.00000000000E+00  0.00000000000E+00 -0.30543098979E+03  0.25707780524E+04  0.25525696278E+04 0.  0.
        5    1    3    3  502    0 -0.78813546790E+03  0.96206688414E+03 -0.44137937020E+03  0.13196848274E+04  0.46999998093E+01 0.  1.
       -5    1    3    3    0  502  0.78813546790E+03 -0.96206688414E+03  0.13594838041E+03  0.12510932249E+04  0.46999998093E+01 0. -1.
</event>
<event>
 5   0  0.5219468E-05  0.2625961E+04  0.7818609E-02  0.8359436E-01
       -2   -1    0    0    0  501  0.00000000000E+00  0.00000000000E+00  0.20153545582E+04  0.20153545582E+04  0.25500000920E-02 0.  1.
        2   -1    0    0  501    0  0.00000000000E+00  0.00000000000E+00 -0.85539197239E+03  0.85539197239E+03  0.25500000920E-02 0. -1.
    10030    2    1    2    0    0  0.00000000000E+00  0.00000000000E+00  0.11599625858E+04  0.28707465306E+04  0.26259612416E+04 0.  0.
        1    1    3    3  502    0 -0.18029018219E+03  0.40897744917E+03  0.19296293553E+04  0.19807161716E+04  0.50400001928E-02 0.  1.
       -1    1    3    3    0  502  0.18029018219E+03 -0.40897744917E+03 -0.76966676951E+03  0.89003035894E+03  0.50400001928E-02 0. -1.
</event>
<event>
 5   0  0.2066170E-05  0.2496691E+04  0.7818609E-02  0.8404165E-01
       -1   -1    0    0    0  501  0.00000000000E+00  0.00000000000E+00  0.15143331028E+04  0.15143331028E+04  0.50400001928E-02 0. -1.
        1   -1    0    0  501    0  0.00000000000E+00  0.00000000000E+00 -0.10290780397E+04  0.10290780398E+04  0.50400001928E-02 0.  1.
    10030    2    1    2    0    0  0.00000000000E+00  0.00000000000E+00  0.48525506306E+03  0.25434111426E+04  0.24966913634E+04 0.  0.
        5    1    3    3  502    0  0.33324161863E+03 -0.22234881869E+03  0.14470612606E+04  0.15014983702E+04  0.46999998093E+01 0. -1.
       -5    1    3    3    0  502 -0.33324161863E+03  0.22234881869E+03 -0.96180619759E+03  0.10419127724E+04  0.46999998093E+01 0.  1.
</event>
<event>
 5   0  0.5024070E-05  0.2455396E+04  0.7818609E-02  0.8419050E-01
       -2   -1    0    0    0  501  0.00000000000E+00  0.00000000000E+00  0.86665658610E+03  0.86665658610E+03  0.25500000920E-02 0. -1.
        2   -1    0    0  501    0  0.00000000000E+00  0.00000000000E+00 -0.17391462858E+04  0.17391462858E+04  0.25500000920E-02 0.  1.
    10030    2    1    2    0    0  0.00000000000E+00  0.00000000000E+00 -0.87248969968E+03  0.26058028719E+04  0.24553961658E+04 0.  0.
        5    1    3    3  502    0 -0.91739388847E+03  0.77686641260E+03 -0.70068180782E+03  0.13914417183E+04  0.46999998093E+01 0.  1.
       -5    1    3    3    0  502  0.91739388847E+03 -0.77686641260E+03 -0.17180789186E+03  0.12143611536E+04  0.46999998093E+01 0. -1.
</event>
<event>
 5   0  0.2036578E-05  0.2451627E+04  0.7818609E-02  0.8420424E-01
       -1   -1    0    0    0  501  0.00000000000E+00  0.00000000000E+00  0.13155326313E+04  0.13155326313E+04  0.50400001928E-02 0. -1.
        1   -1    0    0  501    0  0.00000000000E+00  0.00000000000E+00 -0.11422136583E+04  0.11422136583E+04  0.50400001928E-02 0.  1.
    10030    2    1    2    0    0  0.00000000000E+00  0.00000000000E+00  0.17331897301E+03  0.24577462896E+04  0.24516274916E+04 0.  0.
        2    1    3    3  502    0 -0.42062454015E+03  0.57089484535E+02  0.12395013921E+04  0.13101709484E+04  0.25500000920E-02 0. -1.
       -2    1    3    3    0  502  0.42062454015E+03 -0.57089484535E+02 -0.10661824191E+04  0.11475753412E+04  0.25500000920E-02 0.  1.
</event>
<event>
 5   0  0.5024070E-05  0.2435384E+04  0.7818609E-02  0.8426374E-01
       -2   -1    0    0    0  501  0.00000000000E+00  0.00000000000E+00  0.11983846599E+04  0.11983846599E+04  0.25500000920E-02 0. -1.
        2   -1    0    0  501    0  0.00000000000E+00  0.00000000000E+00 -0.12373107689E+04  0.12373107689E+04  0.25500000920E-02 0.  1.
    10030    2    1    2    0    0  0.00000000000E+00  0.00000000000E+00 -0.38926109053E+02  0.24356954288E+04  0.24353843598E+04 0.  0.
        5    1    3    3  502    0 -0.10635399784E+04 -0.52883922503E+03 -0.28775828039E+03  0.12221354792E+04  0.46999998093E+01 0.  1.
       -5    1    3    3    0  502  0.10635399784E+04  0.52883922503E+03  0.24883217134E+03  0.12135599496E+04  0.46999998093E+01 0. -1.
</event>
<event>
 5   0  0.2063930E-05  0.2441004E+04  0.7818609E-02  0.8424310E-01
       -1   -1    0    0    0  501  0.00000000000E+00  0.00000000000E+00  0.83473134210E+03  0.83473134212E+03  0.50400001928E-02 0. -1.
        1   -1    0    0  501    0  0.00000000000E+00  0.00000000000E+00 -0.17845569940E+04  0.17845569940E+04  0.50400001928E-02 0.  1.
    10030    2    1    2    0    0  0.00000000000E+00  0.00000000000E+00 -0.94982565189E+03  0.26192883361E+04  0.24410044282E+04 0.  0.
        3    1    3    3  502    0  0.40786610445E+03  0.11276683048E+04 -0.23108280958E+03  0.12212247294E+04  0.10100000352E+00 0. -1.
       -3    1    3    3    0  502 -0.40786610445E+03 -0.11276683048E+04 -0.71874284231E+03  0.13980636067E+04  0.10100000352E+00 0.  1.
</event>
<event>
 5   0  0.2041718E-05  0.2487052E+04  0.7818609E-02  0.8407613E-01
       -1   -1    0    0    0  501  0.00000000000E+00  0.00000000000E+00  0.37365212806E+04  0.37365212806E+04  0.50400001928E-02 0. -1.
        1   -1    0    0  501    0  0.00000000000E+00  0.00000000000E+00 -0.41384920515E+03  0.41384920518E+03  0.50400001928E-02 0.  1.
    10030    2    1    2    0    0  0.00000000000E+00  0.00000000000E+00  0.33226720754E+04  0.41503704858E+04  0.24870515572E+04 0.  0.
        4    1    3    3  502    0 -0.74038574280E+03 -0.72256151382E+03  0.50988374070E+03  0.11533643099E+04  0.12699999809E+01 0.  1.
       -4    1    3    3    0  502  0.74038574280E+03  0.72256151382E+03  0.28127883347E+04  0.29970061759E+04  0.12699999809E+01 0. -1.
</event>
<event>
 5   0  0.2063930E-05  0.2511944E+04  0.7818609E-02  0.8398743E-01
        1   -1    0    0  501    0  0.00000000000E+00  0.00000000000E+00  0.18009302735E+04  0.18009302735E+04  0.50400001928E-02 0.  1.
       -1   -1    0    0    0  501  0.00000000000E+00  0.00000000000E+00 -0.87591708329E+03  0.87591708330E+03  0.50400001928E-02 0. -1.
    10030    2    1    2    0    0  0.00000000000E+00  0.00000000000E+00  0.92501319025E+03  0.26768473568E+04  0.25119439424E+04 0.  0.
        3    1    3    3  502    0  0.62690188361E+03 -0.77241617853E+01  0.16222525154E+04  0.17391862661E+04  0.10100000352E+00 0.  1.
       -3    1    3    3    0  502 -0.62690188361E+03  0.77241617853E+01 -0.69723932514E+03  0.93766109073E+03  0.10100000352E+00 0. -1.
</event>
<event>
 5   0  0.2063930E-05  0.2518635E+04  0.7818609E-02  0.8396377E-01
        1   -1    0    0  501    0  0.00000000000E+00  0.00000000000E+00  0.10011891080E+04  0.10011891080E+04  0.50400001928E-02 0.  1.
       -1   -1    0    0    0  501  0.00000000000E+00  0.00000000000E+00 -0.15839971725E+04  0.15839971725E+04  0.50400001928E-02 0. -1.
    10030    2    1    2    0    0  0.00000000000E+00  0.00000000000E+00 -0.58280806453E+03  0.25851862805E+04  0.25186351195E+04 0.  0.
        3    1    3    3  502    0 -0.42430255044E+02 -0.39531862051E+03  0.93507695181E+03  0.10160935263E+04  0.10100000352E+00 0.  1.
       -3    1    3    3    0  502  0.42430255044E+02  0.39531862051E+03 -0.15178850163E+04  0.15690927542E+04  0.10100000352E+00 0. -1.
</event>
<event>
 5   0  0.4995256E-05  0.2420634E+04  0.7818609E-02  0.8431819E-01
        2   -1    0    0  501    0  0.00000000000E+00  0.00000000000E+00  0.15784758075E+04  0.15784758075E+04  0.25500000920E-02 0.  1.
       -2   -1    0    0    0  501  0.00000000000E+00  0.00000000000E+00 -0.92802670674E+03  0.92802670674E+03  0.25500000920E-02 0. -1.
    10030    2    1    2    0    0  0.00000000000E+00  0.00000000000E+00  0.65044910074E+03  0.25065025142E+04  0.24206343840E+04 0.  0.
        2    1    3    3  502    0 -0.71557421413E+03  0.94799856226E+03  0.84335121748E+02  0.11907393261E+04  0.25500000920E-02 0. -1.
       -2    1    3    3    0  502  0.71557421413E+03 -0.94799856226E+03  0.56611397899E+03  0.13157631881E+04  0.25500000920E-02 0.  1.
</event>
<event>
 5   0  0.2066170E-05  0.2480793E+04  0.7818609E-02  0.8409860E-01
        1   -1    0    0  501    0  0.00000000000E+00  0.00000000000E+00  0.18410796779E+04  0.18410796779E+04  0.50400001928E-02 0. -1.
       -1   -1    0    0    0  501  0.00000000000E+00  0.00000000000E+00 -0.83569642578E+03  0.83569642579E+03  0.50400001928E-02 0.  1.
    10030    2    1    2    0    0  0.00000000000E+00  0.00000000000E+00  0.10053832522E+04  0.26767761037E+04  0.24807931848E+04 0.  0.
        5    1    3    3  502    0 -0.13115649718E+03  0.12264308282E+03  0.18269717396E+04  0.18357808093E+04  0.46999998093E+01 0. -1.
       -5    1    3    3    0  502  0.13115649718E+03 -0.12264308282E+03 -0.82158848746E+03  0.84099529442E+03  0.46999998093E+01 0.  1.
</event>
<event>
 5   0  0.2036578E-05  0.2532272E+04  0.7818609E-02  0.8391578E-01
        1   -1    0    0  501    0  0.00000000000E+00  0.00000000000E+00  0.10755624013E+04  0.10755624013E+04  0.50400001928E-02 0.  1.
       -1   -1    0    0    0  501  0.00000000000E+00  0.00000000000E+00 -0.14904760663E+04  0.14904760663E+04  0.50400001928E-02 0. -1.
    10030    2    1    2    0    0  0.00000000000E+00  0.00000000000E+00 -0.41491366508E+03  0.25660384676E+04  0.25322717208E+04 0.  0.
        2    1    3    3  502    0  0.38418316898E+03  0.87521679690E+03  0.63397635313E+03  0.11469643261E+04  0.25500000920E-02 0.  1.
       -2    1    3    3    0  502 -0.38418316898E+03 -0.87521679690E+03 -0.10488900182E+04  0.14190741415E+04  0.25500000920E-02 0. -1.
</event>
<event>
 5   0  0.2063930E-05  0.2376023E+04  0.7818609E-02  0.8448535E-01
       -1   -1    0    0    0  501  0.00000000000E+00  0.00000000000E+00  0.12559939512E+04  0.12559939512E+04  0.50400001928E-02 0. -1.
        1   -1    0    0  501    0  0.00000000000E+00  0.00000000000E+00 -0.11237084402E+04  0.11237084402E+04  0.50400001928E-02 0.  1.
    10030    2    1    2    0    0  0.00000000000E+00  0.00000000000E+00  0.13228551101E+03  0.23797023915E+04  0.23760227304E+04 0.  0.
        3    1    3    3  502    0  0.57382365355E+03  0.58661694232E+03 -0.79424407679E+03  0.11420230672E+04  0.10100000352E+00 0.  1.
       -3    1    3    3    0  502 -0.57382365355E+03 -0.58661694232E+03  0.92652958780E+03  0.12376793242E+04  0.10100000352E+00 0. -1.
</event>
<event>
 5   0  0.5219468E-05  0.2404082E+04  0.7818609E-02  0.8437977E-01
        2   -1    0    0  501    0  0.00000000000E+00  0.00000000000E+00  0.11483291751E+04  0.11483291751E+04  0.25500000920E-02 0.  1.
       -2   -1    0    0    0  501  0.00000000000E+00  0.00000000000E+00 -0.12582650911E+04  0.12582650911E+04  0.25500000920E-02 0. -1.
    10030    2    1    2    0    0  0.00000000000E+00  0.00000000000E+00 -0.10993591598E+03  0.24065942662E+04  0.24040819571E+04 0.  0.
        1    1    3    3  502    0  0.10710252184E+04 -0.41600916248E+03  0.29859211868E+03  0.11871461136E+04  0.50400001928E-02 0.  1.
       -1    1    3    3    0  502 -0.10710252184E+04  0.41600916248E+03 -0.40852803466E+03  0.12194481526E+04  0.50400001928E-02 0. -1.
</event>
<event>
 5   0  0.4995256E-05  0.2520579E+04  0.7818609E-02  0.8395691E-01
       -2   -1    0    0    0  501  0.00000000000E+00  0.00000000000E+00  0.11044046010E+04  0.11044046010E+04  0.25500000920E-02 0.  1.
        2   -1    0    0  501    0  0.00000000000E+00  0.00000000000E+00 -0.14381770846E+04  0.14381770846E+04  0.25500000920E-02 0. -1.
    10030    2    1    2    0    0  0.00000000000E+00  0.00000000000E+00 -0.33377248369E+03  0.25425816856E+04  0.25205788139E+04 0.  0.
        2    1    3    3  502    0 -0.73309470525E+03 -0.75016794369E+03 -0.87166223318E+03  0.13638089453E+04  0.25500000920E-02 0. -1.
       -2    1    3    3    0  502  0.73309470525E+03  0.75016794369E+03  0.53788974949E+03  0.11787727403E+04  0.25500000920E-02 0.  1.
</event>
<event>
 5   0  0.2063930E-05  0.2294802E+04  0.7818609E-02  0.8479973E-01
       -1   -1    0    0    0  501  0.00000000000E+00  0.00000000000E+00  0.12544256262E+04  0.12544256262E+04  0.50400001928E-02 0. -1.
        1   -1    0    0  501    0  0.00000000000E+00  0.00000000000E+00 -0.10495074693E+04  0.10495074693E+04  0.50400001928E-02 0.  1.
    10030    2    1    2    0    0  0.00000000000E+00  0.00000000000E+00  0.20491815687E+03  0.23039330956E+04  0.22948020084E+04 0.  0.
        3    1    3    3  502    0  0.16224211823E+03 -0.11307370700E+04  0.21077826323E+03  0.11616007545E+04  0.10100000352E+00 0.  1.
       -3    1    3    3    0  502 -0.16224211823E+03  0.11307370700E+04 -0.58601063557E+01  0.11423323411E+04  0.10100000352E+00 0. -1.
</event>
<event>
 5   0  0.5219468E-05  0.2545456E+04  0.7818609E-02  0.8386968E-01
       -2   -1    0    0    0  501  0.00000000000E+00  0.00000000000E+00  0.58446145409E+03  0.58446145409E+03  0.25500000920E-02 0. -1.
        2   -1    0    0  501    0  0.00000000000E+00  0.00000000000E+00 -0.27715036934E+04  0.27715036934E+04  0.25500000920E-02 0.  1.
    10030    2    1    2    0    0  0.00000000000E+00  0.00000000000E+00 -0.21870422393E+04  0.33559651475E+04  0.25454564060E+04 0.  0.
        1    1    3    3  502    0 -0.57319423162E+03  0.72109675388E+02 -0.25886778630E+04  0.26523582923E+04  0.50400001928E-02 0.  1.
       -1    1    3    3    0  502  0.57319423162E+03 -0.72109675388E+02  0.40163562367E+03  0.70360685519E+03  0.50400001928E-02 0. -1.
</event>
<event>
 5   0  0.2081874E-05  0.2253502E+04  0.7818609E-02  0.8496483E-01
       -1   -1    0    0    0  501  0.00000000000E+00  0.00000000000E+00  0.13071198557E+04  0.13071198558E+04  0.50400001928E-02 0. -1.
        1   -1    0    0  501    0  0.00000000000E+00  0.00000000000E+00 -0.97127157209E+03  0.97127157210E+03  0.50400001928E-02 0.  1.
    10030    2    1    2    0    0  0.00000000000E+00  0.00000000000E+00  0.33584828366E+03  0.22783914279E+04  0.22535024803E+04 0.  0.
        1    1    3    3  502    0  0.38573638812E+03 -0.60447140541E+03 -0.71080685574E+03  0.10096656017E+04  0.50400001928E-02 0.  1.
       -1    1    3    3    0  502 -0.38573638812E+03  0.60447140541E+03  0.10466551394E+04  0.12687258261E+04  0.50400001928E-02 0. -1.
</event>
<event>
 5   0  0.2063930E-05  0.2535220E+04  0.7818609E-02  0.8390545E-01
        1   -1    0    0  501    0  0.00000000000E+00  0.00000000000E+00  0.14000266325E+04  0.14000266326E+04  0.50400001928E-02 0.  1.
       -1   -1    0    0    0  501  0.00000000000E+00  0.00000000000E+00 -0.11477172299E+04  0.11477172299E+04  0.50400001928E-02 0. -1.
    10030    2    1    2    0    0  0.00000000000E+00  0.00000000000E+00  0.25230940263E+03  0.25477438625E+04  0.25352196659E+04 0.  0.
        3    1    3    3  502    0  0.99345803013E+03  0.32084331166E+03  0.84868872368E+03  0.13454262701E+04  0.10100000352E+00 0.  1.
       -3    1    3    3    0  502 -0.99345803013E+03 -0.32084331166E+03 -0.59637932105E+03  0.12023175924E+04  0.10100000352E+00 0. -1.
</event>
<event>
 5   0  0.4959042E-05  0.2509170E+04  0.7818609E-02  0.8399726E-01
       -2   -1    0    0    0  501  0.00000000000E+00  0.00000000000E+00  0.64817117991E+03  0.64817117992E+03  0.25500000920E-02 0.  1.
        2   -1    0    0  501    0  0.00000000000E+00  0.00000000000E+00 -0.24283463524E+04  0.24283463524E+04  0.25500000920E-02 0. -1.
    10030    2    1    2    0    0  0.00000000000E+00  0.00000000000E+00 -0.17801751725E+04  0.30765175324E+04  0.25091704769E+04 0.  0.
        4    1    3    3  502    0 -0.12160048906E+04  0.30714014498E+03 -0.92846196971E+03  0.15604634583E+04  0.12699999809E+01 0. -1.
       -4    1    3    3    0  502  0.12160048906E+04 -0.30714014498E+03 -0.85171320282E+03  0.15160540740E+04  0.12699999809E+01 0.  1.
</event>
<event>
 5   0  0.2036578E-05  0.2569596E+04  0.7818609E-02  0.8378603E-01
       -1   -1    0    0    0  501  0.00000000000E+00  0.00000000000E+00  0.11659625563E+04  0.11659625563E+04  0.50400001928E-02 0. -1.
        1   -1    0    0  501    0  0.00000000000E+00  0.00000000000E+00 -0.14157450050E+04  0.14157450050E+04  0.50400001928E-02 0.  1.
    10030    2    1    2    0    0  0.00000000000E+00  0.00000000000E+00 -0.24978244866E+03  0.25817075613E+04  0.25695958165E+04 0.  0.
        2    1    3    3  502    0 -0.76847093928E+03  0.25785254717E+03  0.87663736454E+03  0.11939550199E+04  0.25500000920E-02 0. -1.
       -2    1    3    3    0  502  0.76847093928E+03 -0.25785254717E+03 -0.11264198132E+04  0.13877525414E+04  0.25500000920E-02 0.  1.
</event>
<event>
 5   0  0.5219468E-05  0.2501405E+04  0.7818609E-02  0.8402485E-01
        2   -1    0    0  501    0  0.00000000000E+00  0.00000000000E+00  0.18023373282E+04  0.18023373282E+04  0.25500000920E-02 0.  1.
       -2   -1    0    0    0  501  0.00000000000E+00  0.00000000000E+00 -0.86790424326E+03  0.86790424326E+03  0.25500000920E-02 0. -1.
    10030    2    1    2    0    0  0.00000000000E+00  0.00000000000E+00  0.93443308491E+03  0.26702415714E+04  0.25014045774E+04 0.  0.
        1    1    3    3  502    0  0.30285477617E+03 -0.10325618687E+04  0.11476996973E+04  0.15732512906E+04  0.50400001928E-02 0.  1.
       -1    1    3    3    0  502 -0.30285477617E+03  0.10325618687E+04 -0.21326661237E+03  0.10969902808E+04  0.50400001928E-02 0. -1.
</event>
<event>
 5   0  0.5024070E-05  0.2481882E+04  0.7818609E-02  0.8409469E-01
       -2   -1    0    0    0  501  0.00000000000E+00  0.00000000000E+00  0.82302718366E+03  0.82302718366E+03  0.25500000920E-02 0. -1.
        2   -1    0    0  501    0  0.00000000000E+00  0.00000000000E+00 -0.18710612571E+04  0.18710612571E+04  0.25500000920E-02 0.  1.
    10030    2    1    2    0    0  0.00000000000E+00  0.00000000000E+00 -0.10480340734E+04  0.26940884407E+04  0.24818817674E+04 0.  0.
        5    1    3    3  502    0  0.31672565039E+03  0.11854226642E+04 -0.72526037535E+03  0.14253303942E+04  0.46999998093E+01 0. -1.
       -5    1    3    3    0  502 -0.31672565039E+03 -0.11854226642E+04 -0.32277369806E+03  0.12687580465E+04  0.46999998093E+01 0.  1.
</event>
<event>
 5   0  0.4959042E-05  0.2465639E+04  0.7818609E-02  0.8415330E-01
        2   -1    0    0  501    0  0.00000000000E+00  0.00000000000E+00  0.14366145063E+04  0.14366145063E+04  0.25500000920E-02 0. -1.
       -2   -1    0    0    0  501  0.00000000000E+00  0.00000000000E+00 -0.10579344724E+04  0.10579344724E+04  0.25500000920E-02 0.  1.
    10030    2    1    2    0    0  0.00000000000E+00  0.00000000000E+00  0.37868003389E+03  0.24945489787E+04  0.24656390732E+04 0.  0.
        4    1    3    3  502    0 -0.11555643511E+04  0.27744737209E+03 -0.14243237541E+03  0.11969104429E+04  0.12699999809E+01 0.  1.
       -4    1    3    3    0  502  0.11555643511E+04 -0.27744737209E+03  0.52111240930E+03  0.12976385359E+04  0.12699999809E+01 0. -1.
</event>
<event>
 5   0  0.2063930E-05  0.2512146E+04  0.7818609E-02  0.8398671E-01
        1   -1    0    0  501    0  0.00000000000E+00  0.00000000000E+00  0.10799248481E+04  0.10799248481E+04  0.50400001928E-02 0. -1.
       -1   -1    0    0    0  501  0.00000000000E+00  0.00000000000E+00 -0.14609531489E+04  0.14609531489E+04  0.50400001928E-02 0.  1.
    10030    2    1    2    0    0  0.00000000000E+00  0.00000000000E+00 -0.38102830081E+03  0.25408779971E+04  0.25121461801E+04 0.  0.
        3    1    3    3  502    0 -0.11441313718E+04 -0.36310276026E+03 -0.56466304383E+03  0.13265461069E+04  0.10100000352E+00 0.  1.
       -3    1    3    3    0  502  0.11441313718E+04  0.36310276026E+03  0.18363474302E+03  0.12143318902E+04  0.10100000352E+00 0. -1.
</event>
<event>
 5   0  0.2063930E-05  0.2403583E+04  0.7818609E-02  0.8438163E-01
        1   -1    0    0  501    0  0.00000000000E+00  0.00000000000E+00  0.11409414851E+04  0.11409414851E+04  0.50400001928E-02 0.  1.
       -1   -1    0    0    0  501  0.00000000000E+00  0.00000000000E+00 -0.12658865444E+04  0.12658865444E+04  0.50400001928E-02 0. -1.
    10030    2    1    2    0    0  0.00000000000E+00  0.00000000000E+00 -0.12494505931E+03  0.24068280295E+04  0.24035827208E+04 0.  0.
        3    1    3    3  502    0  0.12632963382E+03  0.76119145635E+03  0.86014594432E+03  0.11555183535E+04  0.10100000352E+00 0.  1.
       -3    1    3    3    0  502 -0.12632963382E+03 -0.76119145635E+03 -0.98509100363E+03  0.12513096760E+04  0.10100000352E+00 0. -1.
</event>
<event>
 5   0  0.4959347E-05  0.2467416E+04  0.7818609E-02  0.8414686E-01
        2   -1    0    0  501    0  0.00000000000E+00  0.00000000000E+00  0.13831567279E+04  0.13831567279E+04  0.25500000920E-02 0.  1.
       -2   -1    0    0    0  501  0.00000000000E+00  0.00000000000E+00 -0.11004074173E+04  0.11004074174E+04  0.25500000920E-02 0. -1.
    10030    2    1    2    0    0  0.00000000000E+00  0.00000000000E+00  0.28274931051E+03  0.24835641452E+04  0.24674164000E+04 0.  0.
        3    1    3    3  502    0 -0.69331197761E+03  0.72576117439E+03  0.86344320616E+03  0.13239882783E+04  0.10100000352E+00 0.  1.
       -3    1    3    3    0  502  0.69331197761E+03 -0.72576117439E+03 -0.58069389564E+03  0.11595758669E+04  0.10100000352E+00 0. -1.
</event>
<event>
 5   0  0.4959042E-05  0.2347409E+04  0.7818609E-02  0.8459459E-01
        2   -1    0    0  501    0  0.00000000000E+00  0.00000000000E+00  0.14302928992E+04  0.14302928992E+04  0.25500000920E-02 0.  1.
       -2   -1    0    0    0  501  0.00000000000E+00  0.00000000000E+00 -0.96314713459E+03  0.96314713460E+03  0.25500000920E-02 0. -1.
    10030    2    1    2    0    0  0.00000000000E+00  0.00000000000E+00  0.46714576458E+03  0.23934400338E+04  0.23474092165E+04 0.  0.
        4    1    3    3  502    0  0.62713465947E+02 -0.10196638144E+04 -0.35562858434E+03  0.10817211175E+04  0.12699999809E+01 0. -1.
       -4    1    3    3    0  502 -0.62713465947E+02  0.10196638144E+04  0.82277434893E+03  0.13117189163E+04  0.12699999809E+01 0.  1.
</event>
<event>
 5   0  0.2036578E-05  0.2424611E+04  0.7818609E-02  0.8430347E-01
        1   -1    0    0  501    0  0.00000000000E+00  0.00000000000E+00  0.13848676424E+04  0.13848676424E+04  0.50400001928E-02 0. -1.
       -1   -1    0    0    0  501  0.00000000000E+00  0.00000000000E+00 -0.10612453335E+04  0.10612453335E+04  0.50400001928E-02 0.  1.
    10030    2    1    2    0    0  0.00000000000E+00  0.00000000000E+00  0.32362230896E+03  0.24461129759E+04  0.24246107506E+04 0.  0.
        2    1    3    3  502    0  0.75047623696E+03 -0.80690361997E+03 -0.34801812184E+03  0.11556057491E+04  0.25500000920E-02 0.  1.
       -2    1    3    3    0  502 -0.75047623696E+03  0.80690361997E+03  0.67164043080E+03  0.12905072268E+04  0.25500000920E-02 0. -1.
</event>
<event>
 5   0  0.2081874E-05  0.2466730E+04  0.7818609E-02  0.8414935E-01
        1   -1    0    0  501    0  0.00000000000E+00  0.00000000000E+00  0.14304208053E+04  0.14304208053E+04  0.50400001928E-02 0.  1.
       -1   -1    0    0    0  501  0.00000000000E+00  0.00000000000E+00 -0.10634554071E+04  0.10634554071E+04  0.50400001928E-02 0. -1.
    10030    2    1    2    0    0  0.00000000000E+00  0.00000000000E+00  0.36696539819E+03  0.24938762124E+04  0.24667296081E+04 0.  0.
        1    1    3    3  502    0 -0.38815764698E+03  0.38111461759E+03  0.13025854422E+04  0.14116102666E+04  0.50400001928E-02 0.  1.
       -1    1    3    3    0  502  0.38815764698E+03 -0.38111461759E+03 -0.93562004401E+03  0.10822659458E+04  0.50400001928E-02 0. -1.
</event>
<event>
 5   0  0.2036578E-05  0.2420399E+04  0.7818609E-02  0.8431906E-01
       -1   -1    0    0    0  501  0.00000000000E+00  0.00000000000E+00  0.81897105120E+03  0.81897105122E+03  0.50400001928E-02 0.  1.
        1   -1    0    0  501    0  0.00000000000E+00  0.00000000000E+00 -0.17883201198E+04  0.17883201198E+04  0.50400001928E-02 0. -1.
    10030    2    1    2    0    0  0.00000000000E+00  0.00000000000E+00 -0.96934906860E+03  0.26072911710E+04  0.24203986518E+04 0.  0.
        2    1    3    3  502    0  0.10102928087E+04 -0.36792713875E+03 -0.10830098315E+04  0.15260970591E+04  0.25500000920E-02 0. -1.
       -2    1    3    3    0  502 -0.10102928087E+04  0.36792713875E+03  0.11366076288E+03  0.10811941119E+04  0.25500000920E-02 0.  1.
</event>
<event>
 5   0  0.4959042E-05  0.2492721E+04  0.7818609E-02  0.8405583E-01
        2   -1    0    0  501    0  0.00000000000E+00  0.00000000000E+00  0.10493548959E+04  0.10493548959E+04  0.25500000920E-02 0.  1.
       -2   -1    0    0    0  501  0.00000000000E+00  0.00000000000E+00 -0.14803520982E+04  0.14803520982E+04  0.25500000920E-02 0. -1.
    10030    2    1    2    0    0  0.00000000000E+00  0.00000000000E+00 -0.43099720224E+03  0.25297069941E+04  0.24927211813E+04 0.  0.
        4    1    3    3  502    0  0.33934571911E+03  0.11358362387E+04 -0.60609060780E+03  0.13314003590E+04  0.12699999809E+01 0.  1.
       -4    1    3    3    0  502 -0.33934571911E+03 -0.11358362387E+04  0.17509340556E+03  0.11983066351E+04  0.12699999809E+01 0. -1.
</event>
<event>
 5   0  0.4959042E-05  0.2006526E+04  0.7818609E-02  0.8603576E-01
       -2   -1    0    0    0  501  0.00000000000E+00  0.00000000000E+00  0.53778674675E+03  0.53778674676E+03  0.25500000920E-02 0. -1.
        2   -1    0    0  501    0  0.00000000000E+00  0.00000000000E+00 -0.18716280214E+04  0.18716280215E+04  0.25500000920E-02 0.  1.
    10030    2    1    2    0    0  0.00000000000E+00  0.00000000000E+00 -0.13338412747E+04  0.24094147682E+04  0.20065260973E+04 0.  0.
        4    1    3    3  502    0  0.43638914252E+03  0.88542448762E+03 -0.45170409558E+03  0.10855644660E+04  0.12699999809E+01 0. -1.
       -4    1    3    3    0  502 -0.43638914252E+03 -0.88542448762E+03 -0.88213717911E+03  0.13238503022E+04  0.12699999809E+01 0.  1.
</event>
<event>
 5   0  0.5024070E-05  0.2493691E+04  0.7818609E-02  0.8405237E-01
        2   -1    0    0  501    0  0.00000000000E+00  0.00000000000E+00  0.25615806555E+04  0.25615806555E+04  0.25500000920E-02 0.  1.
       -2   -1    0    0    0  501  0.00000000000E+00  0.00000000000E+00 -0.60690022950E+03  0.60690022951E+03  0.25500000920E-02 0. -1.
    10030    2    1    2    0    0  0.00000000000E+00  0.00000000000E+00  0.19546804260E+04  0.31684808850E+04  0.24936911498E+04 0.  0.
        5    1    3    3  502    0  0.53334355342E+03  0.13591704886E+03  0.23988631473E+04  0.24611979359E+04  0.46999998093E+01 0.  1.
       -5    1    3    3    0  502 -0.53334355342E+03 -0.13591704886E+03 -0.44418272133E+03  0.70728294909E+03  0.46999998093E+01 0. -1.
</event>
<event>
 5   0  0.2063930E-05  0.2490271E+04  0.7818609E-02  0.8406460E-01
        1   -1    0    0  501    0  0.00000000000E+00  0.00000000000E+00  0.22299910123E+04  0.22299910123E+04  0.50400001928E-02 0.  1.
       -1   -1    0    0    0  501  0.00000000000E+00  0.00000000000E+00 -0.69523244784E+03  0.69523244786E+03  0.50400001928E-02 0. -1.
    10030    2    1    2    0    0  0.00000000000E+00  0.00000000000E+00  0.15347585645E+04  0.29252234602E+04  0.24902707565E+04 0.  0.
        3    1    3    3  502    0 -0.43393409481E+03 -0.11261471159E+04  0.11272474571E+04  0.16514214983E+04  0.10100000352E+00 0.  1.
       -3    1    3    3    0  502  0.43393409481E+03  0.11261471159E+04  0.40751110731E+03  0.12738019618E+04  0.10100000352E+00 0. -1.
</event>
<event>
 5   0  0.2036578E-05  0.2485559E+04  0.7818609E-02  0.8408148E-01
        1   -1    0    0  501    0  0.00000000000E+00  0.00000000000E+00  0.10149365810E+04  0.10149365811E+04  0.50400001928E-02 0. -1.
       -1   -1    0    0    0  501  0.00000000000E+00  0.00000000000E+00 -0.15217708193E+04  0.15217708193E+04  0.50400001928E-02 0.  1.
    10030    2    1    2    0    0  0.00000000000E+00  0.00000000000E+00 -0.50683423826E+03  0.25367074004E+04  0.24855589894E+04 0.  0.
        2    1    3    3  502    0 -0.54148083565E+03 -0.33012020564E+03  0.83737049187E+03  0.10504142927E+04  0.25500000920E-02 0. -1.
       -2    1    3    3    0  502  0.54148083565E+03  0.33012020564E+03 -0.13442047301E+04  0.14862931077E+04  0.25500000920E-02 0.  1.
</event>
<event>
 5   0  0.5219468E-05  0.1725415E+04  0.7818609E-02  0.8747001E-01
        2   -1    0    0  501    0  0.00000000000E+00  0.00000000000E+00  0.40017623786E+03  0.40017623787E+03  0.25500000920E-02 0.  1.
       -2   -1    0    0    0  501  0.00000000000E+00  0.00000000000E+00 -0.18598410848E+04  0.18598410848E+04  0.25500000920E-02 0. -1.
    10030    2    1    2    0    0  0.00000000000E+00  0.00000000000E+00 -0.14596648469E+04  0.22600173227E+04  0.17254149743E+04 0.  0.
        1    1    3    3  502    0  0.20977571844E+03 -0.56513916350E+03  0.78537330846E+02  0.60791137391E+03  0.50400001928E-02 0.  1.
       -1    1    3    3    0  502 -0.20977571844E+03  0.56513916350E+03 -0.15382021778E+04  0.16521059488E+04  0.50400001928E-02 0. -1.
</event>
<event>
 5   0  0.2041718E-05  0.2338405E+04  0.7818609E-02  0.8462930E-01
       -1   -1    0    0    0  501  0.00000000000E+00  0.00000000000E+00  0.92303828103E+03  0.92303828105E+03  0.50400001928E-02 0. -1.
        1   -1    0    0  501    0  0.00000000000E+00  0.00000000000E+00 -0.14810166233E+04  0.14810166233E+04  0.50400001928E-02 0.  1.
    10030    2    1    2    0    0  0.00000000000E+00  0.00000000000E+00 -0.55797834225E+03  0.24040549043E+04  0.23384054723E+04 0.  0.
        4    1    3    3  502    0  0.98914393685E+03  0.11091837471E+03 -0.90966471404E+03  0.13484065109E+04  0.12699999809E+01 0.  1.
       -4    1    3    3    0  502 -0.98914393685E+03 -0.11091837471E+03  0.35168637179E+03  0.10556483935E+04  0.12699999809E+01 0. -1.
</event>
<event>
 5   0  0.5219468E-05  0.2603503E+04  0.7818609E-02  0.8367012E-01
        2   -1    0    0  501    0  0.00000000000E+00  0.00000000000E+00  0.10972856461E+04  0.10972856461E+04  0.25500000920E-02 0.  1.
       -2   -1    0    0    0  501  0.00000000000E+00  0.00000000000E+00 -0.15443174410E+04  0.15443174410E+04  0.25500000920E-02 0. -1.
    10030    2    1    2    0    0  0.00000000000E+00  0.00000000000E+00 -0.44703179496E+03  0.26416030871E+04  0.26035033021E+04 0.  0.
        1    1    3    3  502    0 -0.48730677877E+03  0.21815556716E+03  0.98108061912E+03  0.11169507283E+04  0.50400001928E-02 0.  1.
       -1    1    3    3    0  502  0.48730677877E+03 -0.21815556716E+03 -0.14281124141E+04  0.15246523589E+04  0.50400001928E-02 0. -1.
</event>
<event>
 5   0  0.4995256E-05  0.2472548E+04  0.7818609E-02  0.8412831E-01
        2   -1    0    0  501    0  0.00000000000E+00  0.00000000000E+00  0.16218862742E+04  0.16218862742E+04  0.25500000920E-02 0. -1.
       -2   -1    0    0    0  501  0.00000000000E+00  0.00000000000E+00 -0.94234300973E+03  0.94234300974E+03  0.25500000920E-02 0.  1.
    10030    2    1    2    0    0  0.00000000000E+00  0.00000000000E+00  0.67954326445E+03  0.25642292839E+04  0.24725478301E+04 0.  0.
        2    1    3    3  502    0  0.11455026196E+04  0.15885842205E+02 -0.14215764416E+03  0.11543991542E+04  0.25500000920E-02 0.  1.
       -2    1    3    3    0  502 -0.11455026196E+04 -0.15885842205E+02  0.82170090861E+03  0.14098301297E+04  0.25500000920E-02 0. -1.
</event>
<event>
 5   0  0.2041718E-05  0.2418972E+04  0.7818609E-02  0.8432435E-01
       -1   -1    0    0    0  501  0.00000000000E+00  0.00000000000E+00  0.91629972103E+03  0.91629972104E+03  0.50400001928E-02 0.  1.
        1   -1    0    0  501    0  0.00000000000E+00  0.00000000000E+00 -0.15964823906E+04  0.15964823906E+04  0.50400001928E-02 0. -1.
    10030    2    1    2    0    0  0.00000000000E+00  0.00000000000E+00 -0.68018266956E+03  0.25127821116E+04  0.24189719876E+04 0.  0.
        4    1    3    3  502    0  0.40851171434E+03  0.89019665067E+03  0.39702084628E+03  0.10568628402E+04  0.12699999809E+01 0.  1.
       -4    1    3    3    0  502 -0.40851171434E+03 -0.89019665067E+03 -0.10772035158E+04  0.14559192715E+04  0.12699999809E+01 0. -1.
</event>
<event>
 5   0  0.4959042E-05  0.2508850E+04  0.7818609E-02  0.8399839E-01
        2   -1    0    0  501    0  0.00000000000E+00  0.00000000000E+00  0.14794654680E+04  0.14794654680E+04  0.25500000920E-02 0. -1.
       -2   -1    0    0    0  501  0.00000000000E+00  0.00000000000E+00 -0.10636155049E+04  0.10636155049E+04  0.25500000920E-02 0.  1.
    10030    2    1    2    0    0  0.00000000000E+00  0.00000000000E+00  0.41584996316E+03  0.25430809729E+04  0.25088502632E+04 0.  0.
        4    1    3    3  502    0 -0.31815864442E+03  0.10163129927E+04  0.87989049991E+03  0.13814217050E+04  0.12699999809E+01 0. -1.
       -4    1    3    3    0  502  0.31815864442E+03 -0.10163129927E+04 -0.46404053675E+03  0.11616592680E+04  0.12699999809E+01 0.  1.
</event>
<event>
 5   0  0.2063930E-05  0.1961965E+04  0.7818609E-02  0.8624613E-01
        1   -1    0    0  501    0  0.00000000000E+00  0.00000000000E+00  0.13672332507E+04  0.13672332507E+04  0.50400001928E-02 0.  1.
       -1   -1    0    0    0  501  0.00000000000E+00  0.00000000000E+00 -0.70384963044E+03  0.70384963046E+03  0.50400001928E-02 0. -1.
    10030    2    1    2    0    0  0.00000000000E+00  0.00000000000E+00  0.66338362026E+03  0.20710828812E+04  0.19619649520E+04 0.  0.
        3    1    3    3  502    0  0.51745513842E+03 -0.57628903855E+03 -0.30383652463E+03  0.83197687476E+03  0.10100000352E+00 0. -1.
       -3    1    3    3    0  502 -0.51745513842E+03  0.57628903855E+03  0.96722014489E+03  0.12391060064E+04  0.10100000352E+00 0.  1.
</event>
<event>
 5   0  0.5024070E-05  0.2395361E+04  0.7818609E-02  0.8441242E-01
       -2   -1    0    0    0  501  0.00000000000E+00  0.00000000000E+00  0.11270127344E+04  0.11270127344E+04  0.25500000920E-02 0.  1.
        2   -1    0    0  501    0  0.00000000000E+00  0.00000000000E+00 -0.12727797336E+04  0.12727797336E+04  0.25500000920E-02 0. -1.
    10030    2    1    2    0    0  0.00000000000E+00  0.00000000000E+00 -0.14576699925E+03  0.23997924680E+04  0.23953613238E+04 0.  0.
        5    1    3    3  502    0  0.61390471561E+03 -0.10206524755E+04  0.53072589267E+02  0.11922454720E+04  0.46999998093E+01 0. -1.
       -5    1    3    3    0  502 -0.61390471561E+03  0.10206524755E+04 -0.19883958852E+03  0.12075469960E+04  0.46999998093E+01 0.  1.
</event>
<event>
 5   0  0.5024070E-05  0.2492798E+04  0.7818609E-02  0.8405556E-01
       -2   -1    0    0    0  501  0.00000000000E+00  0.00000000000E+00  0.15754256757E+04  0.15754256757E+04  0.25500000920E-02 0.  1.
        2   -1    0    0  501    0  0.00000000000E+00  0.00000000000E+00 -0.98608905478E+03  0.98608905478E+03  0.25500000920E-02 0. -1.
    10030    2    1    2    0    0  0.00000000000E+00  0.00000000000E+00  0.58933662095E+03  0.25615147305E+04  0.24927976376E+04 0.  0.
        5    1    3    3  502    0 -0.21916533150E+03 -0.11912770192E+04 -0.72220973577E+01  0.12113003870E+04  0.46999998093E+01 0. -1.
       -5    1    3    3    0  502  0.21916533150E+03  0.11912770192E+04  0.59655871831E+03  0.13502143435E+04  0.46999998093E+01 0.  1.
</event>
<event>
 5   0  0.5219468E-05  0.2518872E+04  0.7818609E-02  0.8396293E-01
        2   -1    0    0  501    0  0.00000000000E+00  0.00000000000E+00  0.14428418614E+04  0.14428418614E+04  0.25500000920E-02 0. -1.
       -2   -1    0    0    0  501  0.00000000000E+00  0.00000000000E+00 -0.10993439853E+04  0.10993439853E+04  0.25500000920E-02 0.  1.
    10030    2    1    2    0    0  0.00000000000E+00  0.00000000000E+00  0.34349787607E+03  0.25421858468E+04  0.25188723843E+04 0.  0.
        1    1    3    3  502    0 -0.12583624327E+04 -0.42569768551E+02  0.20188032756E+03  0.12751642498E+04  0.50400001928E-02 0. -1.
       -1    1    3    3    0  502  0.12583624327E+04  0.42569768551E+02  0.14161754850E+03  0.12670215970E+04  0.50400001928E-02 0.  1.
</event>
<event>
 5   0  0.2041718E-05  0.2379181E+04  0.7818609E-02  0.8447339E-01
        1   -1    0    0  501    0  0.00000000000E+00  0.00000000000E+00  0.84720017746E+03  0.84720017748E+03  0.50400001928E-02 0.  1.
       -1   -1    0    0    0  501  0.00000000000E+00  0.00000000000E+00 -0.16703552673E+04  0.16703552673E+04  0.50400001928E-02 0. -1.
    10030    2    1    2    0    0  0.00000000000E+00  0.00000000000E+00 -0.82315508986E+03  0.25175554448E+04  0.23791807657E+04 0.  0.
        4    1    3    3  502    0  0.31238570550E+03  0.11172350358E+03  0.79725541618E+03  0.86353041741E+03  0.12699999809E+01 0.  1.
       -4    1    3    3    0  502 -0.31238570550E+03 -0.11172350358E+03 -0.16204105060E+04  0.16540250274E+04  0.12699999809E+01 0. -1.
</event>
<event>
 5   0  0.2063930E-05  0.2628831E+04  0.7818609E-02  0.8358473E-01
        1   -1    0    0  501    0  0.00000000000E+00  0.00000000000E+00  0.16885018850E+04  0.16885018850E+04  0.50400001928E-02 0.  1.
       -1   -1    0    0    0  501  0.00000000000E+00  0.00000000000E+00 -0.10232080533E+04  0.10232080533E+04  0.50400001928E-02 0. -1.
    10030    2    1    2    0    0  0.00000000000E+00  0.00000000000E+00  0.66529383164E+03  0.27117099383E+04  0.26288314718E+04 0.  0.
        3    1    3    3  502    0  0.13042500326E+04  0.11857086962E+03  0.21703527952E+03  0.13274906860E+04  0.10100000352E+00 0.  1.
       -3    1    3    3    0  502 -0.13042500326E+04 -0.11857086962E+03  0.44825855212E+03  0.13842192523E+04  0.10100000352E+00 0. -1.
</event>
<event>
 5   0  0.2063930E-05  0.2477216E+04  0.7818609E-02  0.8411148E-01
       -1   -1    0    0    0  501  0.00000000000E+00  0.00000000000E+00  0.13020640967E+04  0.13020640967E+04  0.50400001928E-02 0.  1.
        1   -1    0    0  501    0  0.00000000000E+00  0.00000000000E+00 -0.11782442772E+04  0.11782442772E+04  0.50400001928E-02 0. -1.
    10030    2    1    2    0    0  0.00000000000E+00  0.00000000000E+00  0.12381981952E+03  0.24803083739E+04  0.24772158327E+04 0.  0.
        3    1    3    3  502    0 -0.11209371565E+04  0.52468070504E+03  0.13273460547E+02  0.12377262000E+04  0.10100000352E+00 0.  1.
       -3    1    3    3    0  502  0.11209371565E+04 -0.52468070504E+03  0.11054635898E+03  0.12425821739E+04  0.10100000352E+00 0. -1.
</event>
<event>
 5   0  0.4959042E-05  0.2336336E+04  0.7818609E-02  0.8463731E-01
       -2   -1    0    0    0  501  0.00000000000E+00  0.00000000000E+00  0.10288766674E+04  0.10288766674E+04  0.25500000920E-02 0. -1.
        2   -1    0    0  501    0  0.00000000000E+00  0.00000000000E+00 -0.13263168115E+04  0.13263168115E+04  0.25500000920E-02 0.  1.
    10030    2    1    2    0    0  0.00000000000E+00  0.00000000000E+00 -0.29744014412E+03  0.23551934789E+04  0.23363359526E+04 0.  0.
        4    1    3    3  502    0 -0.25448934552E+03  0.91375731881E+03 -0.83605738955E+03  0.12644013746E+04  0.12699999809E+01 0.  1.
       -4    1    3    3    0  502  0.25448934552E+03 -0.91375731881E+03  0.53861724543E+03  0.10907921042E+04  0.12699999809E+01 0. -1.
</event>
<event>
 5   0  0.2066170E-05  0.2473125E+04  0.7818609E-02  0.8412623E-01
       -1   -1    0    0    0  501  0.00000000000E+00  0.00000000000E+00  0.11233320938E+04  0.11233320938E+04  0.50400001928E-02 0. -1.
        1   -1    0    0  501    0  0.00000000000E+00  0.00000000000E+00 -0.13612067706E+04  0.13612067706E+04  0.50400001928E-02 0.  1.
    10030    2    1    2    0    0  0.00000000000E+00  0.00000000000E+00 -0.23787467673E+03  0.24845388644E+04  0.24731253520E+04 0.  0.
        5    1    3    3  502    0 -0.68097755362E+03  0.18787805413E+03 -0.11385283240E+04  0.13398870946E+04  0.46999998093E+01 0.  1.
       -5    1    3    3    0  502  0.68097755362E+03 -0.18787805413E+03  0.90065364727E+03  0.11446517698E+04  0.46999998093E+01 0. -1.
</event>
<event>
 5   0  0.2041718E-05  0.1644728E+04  0.7818609E-02  0.8793532E-01
        1   -1    0    0  501    0  0.00000000000E+00  0.00000000000E+00  0.39612985626E+03  0.39612985630E+03  0.50400001928E-02 0.  1.
       -1   -1    0    0    0  501  0.00000000000E+00  0.00000000000E+00 -0.17072236864E+04  0.17072236864E+04  0.50400001928E-02 0. -1.
    10030    2    1    2    0    0  0.00000000000E+00  0.00000000000E+00 -0.13110938302E+04  0.21033535427E+04  0.16447276657E+04 0.  0.
        4    1    3    3  502    0 -0.53463703993E+02  0.15402735600E+03 -0.16863459422E+04  0.16942098582E+04  0.12699999809E+01 0. -1.
       -4    1    3    3    0  502  0.53463703993E+02 -0.15402735600E+03  0.37525211206E+03  0.40914368448E+03  0.12699999809E+01 0.  1.
</event>
<event>
 5   0  0.2036578E-05  0.2499982E+04  0.7818609E-02  0.8402992E-01
       -1   -1    0    0    0  501  0.00000000000E+00  0.00000000000E+00  0.78512341679E+03  0.78512341681E+03  0.50400001928E-02 0. -1.
        1   -1    0    0  501    0  0.00000000000E+00  0.00000000000E+00 -0.19901042536E+04  0.19901042536E+04  0.50400001928E-02 0.  1.
    10030    2    1    2    0    0  0.00000000000E+00  0.00000000000E+00 -0.12049808368E+04  0.27752276704E+04  0.24999819611E+04 0.  0.
        2    1    3    3  502    0  0.89234200564E+03  0.83569018213E+03 -0.89159635801E+03  0.15131412364E+04  0.25500000920E-02 0. -1.
       -2    1    3    3    0  502 -0.89234200564E+03 -0.83569018213E+03 -0.31338447883E+03  0.12620864341E+04  0.25500000920E-02 0.  1.
</event>
<event>
 5   0  0.4959347E-05  0.2509037E+04  0.7818609E-02  0.8399773E-01
        2   -1    0    0  501    0  0.00000000000E+00  0.00000000000E+00  0.10561586440E+04  0.10561586440E+04  0.25500000920E-02 0.  1.
       -2   -1    0    0    0  501  0.00000000000E+00  0.00000000000E+00 -0.14901331176E+04  0.14901331176E+04  0.25500000920E-02 0. -1.
    10030    2    1    2    0    0  0.00000000000E+00  0.00000000000E+00 -0.43397447362E+03  0.25462917616E+04  0.25090372439E+04 0.  0.
        3    1    3    3  502    0 -0.95592833866E+02  0.33431898540E+03 -0.14402517633E+04  0.14816316431E+04  0.10100000352E+00 0. -1.
       -3    1    3    3    0  502  0.95592833866E+02 -0.33431898540E+03  0.10062772897E+04  0.10646601185E+04  0.10100000352E+00 0.  1.
</event>
<event>
 5   0  0.4959042E-05  0.2697546E+04  0.7818609E-02  0.8335801E-01
       -2   -1    0    0    0  501  0.00000000000E+00  0.00000000000E+00  0.13072609672E+04  0.13072609672E+04  0.25500000920E-02 0. -1.
        2   -1    0    0  501    0  0.00000000000E+00  0.00000000000E+00 -0.13916037369E+04  0.13916037369E+04  0.25500000920E-02 0.  1.
    10030    2    1    2    0    0  0.00000000000E+00  0.00000000000E+00 -0.84342769704E+02  0.26988647041E+04  0.26975464756E+04 0.  0.
        4    1    3    3  502    0  0.55044682671E+03  0.86062471907E+03  0.83889567361E+03  0.13218979462E+04  0.12699999809E+01 0. -1.
       -4    1    3    3    0  502 -0.55044682671E+03 -0.86062471907E+03 -0.92323844331E+03  0.13769667578E+04  0.12699999809E+01 0.  1.
</event>
<event>
 5   0  0.4959347E-05  0.1576386E+04  0.7818609E-02  0.8835188E-01
        2   -1    0    0  501    0  0.00000000000E+00  0.00000000000E+00  0.13670515383E+04  0.13670515383E+04  0.25500000920E-02 0. -1.
       -2   -1    0    0    0  501  0.00000000000E+00  0.00000000000E+00 -0.45444361046E+03  0.45444361046E+03  0.25500000920E-02 0.  1.
    10030    2    1    2    0    0  0.00000000000E+00  0.00000000000E+00  0.91260792789E+03  0.18214951488E+04  0.15763855325E+04 0.  0.
        3    1    3    3  502    0 -0.84928066751E+02  0.74370176932E+03  0.17105339114E+03  0.76783095212E+03  0.10100000352E+00 0.  1.
       -3    1    3    3    0  502  0.84928066751E+02 -0.74370176932E+03  0.74155453674E+03  0.10536641967E+04  0.10100000352E+00 0. -1.
</event>
<event>
 5   0  0.4959347E-05  0.2498446E+04  0.7818609E-02  0.8403539E-01
        2   -1    0    0  501    0  0.00000000000E+00  0.00000000000E+00  0.26410799899E+04  0.26410799899E+04  0.25500000920E-02 0. -1.
       -2   -1    0    0    0  501  0.00000000000E+00  0.00000000000E+00 -0.59087880383E+03  0.59087880383E+03  0.25500000920E-02 0.  1.
    10030    2    1    2    0    0  0.00000000000E+00  0.00000000000E+00  0.20502011860E+04  0.32319587937E+04  0.24984460652E+04 0.  0.
        3    1    3    3  502    0  0.84819877270E+03 -0.85520399718E+03  0.59656733965E+03  0.13441382502E+04  0.10100000352E+00 0. -1.
       -3    1    3    3    0  502 -0.84819877270E+03  0.85520399718E+03  0.14536338464E+04  0.18878205435E+04  0.10100000352E+00 0.  1.
</event>
<event>
 5   0  0.2066170E-05  0.2491416E+04  0.7818609E-02  0.8406050E-01
        1   -1    0    0  501    0  0.00000000000E+00  0.00000000000E+00  0.93311820534E+03  0.93311820536E+03  0.50400001928E-02 0. -1.
       -1   -1    0    0    0  501  0.00000000000E+00  0.00000000000E+00 -0.16630136458E+04  0.16630136458E+04  0.50400001928E-02 0.  1.
    10030    2    1    2    0    0  0.00000000000E+00  0.00000000000E+00 -0.72989544047E+03  0.25961318512E+04  0.24914159096E+04 0.  0.
        5    1    3    3  502    0 -0.90527700597E+03  0.20253544828E+03  0.50139233381E+03  0.10544967652E+04  0.46999998093E+01 0. -1.
       -5    1    3    3    0  502  0.90527700597E+03 -0.20253544828E+03 -0.12312877743E+04  0.15416350860E+04  0.46999998093E+01 0.  1.
</event>
<event>
 5   0  0.2041718E-05  0.2530478E+04  0.7818609E-02  0.8392207E-01
        1   -1    0    0  501    0  0.00000000000E+00  0.00000000000E+00  0.17340525421E+04  0.17340525421E+04  0.50400001928E-02 0. -1.
       -1   -1    0    0    0  501  0.00000000000E+00  0.00000000000E+00 -0.92317232865E+03  0.92317232866E+03  0.50400001928E-02 0.  1.
    10030    2    1    2    0    0  0.00000000000E+00  0.00000000000E+00  0.81088021341E+03  0.26572248707E+04  0.25304776808E+04 0.  0.
        4    1    3    3  502    0 -0.22608572585E+02 -0.31523843261E+03  0.16919337673E+04  0.17211995534E+04  0.12699999809E+01 0. -1.
       -4    1    3    3    0  502  0.22608572585E+02  0.31523843261E+03 -0.88105355387E+03  0.93602531730E+03  0.12699999809E+01 0.  1.
</event>
<event>
 5   0  0.2066170E-05  0.2640669E+04  0.7818609E-02  0.8354517E-01
       -1   -1    0    0    0  501  0.00000000000E+00  0.00000000000E+00  0.11033590741E+04  0.11033590742E+04  0.50400001928E-02 0.  1.
        1   -1    0    0  501    0  0.00000000000E+00  0.00000000000E+00 -0.15799780375E+04  0.15799780375E+04  0.50400001928E-02 0. -1.
    10030    2    1    2    0    0  0.00000000000E+00  0.00000000000E+00 -0.47661896331E+03  0.26833371116E+04  0.26406689339E+04 0.  0.
        5    1    3    3  502    0  0.88403965697E+02  0.85228062037E+03  0.78244319863E+03  0.11603607052E+04  0.46999998093E+01 0.  1.
       -5    1    3    3    0  502 -0.88403965697E+02 -0.85228062037E+03 -0.12590621619E+04  0.15229764065E+04  0.46999998093E+01 0. -1.
</event>
<event>
 5   0  0.2081874E-05  0.2636885E+04  0.7818609E-02  0.8355779E-01
        1   -1    0    0  501    0  0.00000000000E+00  0.00000000000E+00  0.12701267777E+04  0.12701267777E+04  0.50400001928E-02 0.  1.
       -1   -1    0    0    0  501  0.00000000000E+00  0.00000000000E+00 -0.13685958703E+04  0.13685958703E+04  0.50400001928E-02 0. -1.
    10030    2    1    2    0    0  0.00000000000E+00  0.00000000000E+00 -0.98469092546E+02  0.26387226480E+04  0.26368847246E+04 0.  0.
        1    1    3    3  502    0  0.12176575385E+04  0.41296822322E+03  0.24261514257E+03  0.13084703825E+04  0.50400001928E-02 0. -1.
       -1    1    3    3    0  502 -0.12176575385E+04 -0.41296822322E+03 -0.34108423512E+03  0.13302522655E+04  0.50400001928E-02 0.  1.
</event>
<event>
 5   0  0.4959042E-05  0.2511313E+04  0.7818609E-02  0.8398966E-01
        2   -1    0    0  501    0  0.00000000000E+00  0.00000000000E+00  0.10449240904E+04  0.10449240904E+04  0.25500000920E-02 0. -1.
       -2   -1    0    0    0  501  0.00000000000E+00  0.00000000000E+00 -0.15088881746E+04  0.15088881746E+04  0.25500000920E-02 0.  1.
    10030    2    1    2    0    0  0.00000000000E+00  0.00000000000E+00 -0.46396408420E+03  0.25538122649E+04  0.25113132846E+04 0.  0.
        4    1    3    3  502    0 -0.43748012651E+03 -0.69194995770E+03  0.73622713851E+03  0.11010066382E+04  0.12699999809E+01 0. -1.
       -4    1    3    3    0  502  0.43748012651E+03  0.69194995770E+03 -0.12001912227E+04  0.14528056267E+04  0.12699999809E+01 0.  1.
</event>
<event>
 5   0  0.5219468E-05  0.2488064E+04  0.7818609E-02  0.8407250E-01
        2   -1    0    0  501    0  0.00000000000E+00  0.00000000000E+00  0.14318222729E+04  0.14318222729E+04  0.25500000920E-02 0.  1.
       -2   -1    0    0    0  501  0.00000000000E+00  0.00000000000E+00 -0.10808712890E+04  0.10808712890E+04  0.25500000920E-02 0. -1.
    10030    2    1    2    0    0  0.00000000000E+00  0.00000000000E+00  0.35095098389E+03  0.25126935620E+04  0.24880639749E+04 0.  0.
        1    1    3    3  502    0 -0.11749110780E+04 -0.73877451395E+02 -0.23067683047E+03  0.11996189892E+04  0.50400001928E-02 0. -1.
       -1    1    3    3    0  502  0.11749110780E+04  0.73877451395E+02  0.58162781437E+03  0.13130745727E+04  0.50400001928E-02 0.  1.
</event>
<event>
 5   0  0.4995256E-05  0.2474474E+04  0.7818609E-02  0.8412136E-01
        2   -1    0    0  501    0  0.00000000000E+00  0.00000000000E+00  0.89789264583E+03  0.89789264583E+03  0.25500000920E-02 0.  1.
       -2   -1    0    0    0  501  0.00000000000E+00  0.00000000000E+00 -0.17048312059E+04  0.17048312059E+04  0.25500000920E-02 0. -1.
    10030    2    1    2    0    0  0.00000000000E+00  0.00000000000E+00 -0.80693856002E+03  0.26027238517E+04  0.24744740064E+04 0.  0.
        2    1    3    3  502    0 -0.98477815371E+03  0.21146238296E+03 -0.11592149546E+04  0.15356704277E+04  0.25500000920E-02 0. -1.
       -2    1    3    3    0  502  0.98477815371E+03 -0.21146238296E+03  0.35227639461E+03  0.10670534240E+04  0.25500000920E-02 0.  1.
</event>
<event>
 5   0  0.2063930E-05  0.2464483E+04  0.7818609E-02  0.8415749E-01
        1   -1    0    0  501    0  0.00000000000E+00  0.00000000000E+00  0.24318912908E+04  0.24318912908E+04  0.50400001928E-02 0. -1.
       -1   -1    0    0    0  501  0.00000000000E+00  0.00000000000E+00 -0.62437781180E+03  0.62437781182E+03  0.50400001928E-02 0.  1.
    10030    2    1    2    0    0  0.00000000000E+00  0.00000000000E+00  0.18075134789E+04  0.30562691026E+04  0.24644828770E+04 0.  0.
        3    1    3    3  502    0  0.91339771417E+03 -0.45742430886E+03  0.17583524915E+04  0.20335525263E+04  0.10100000352E+00 0. -1.
       -3    1    3    3    0  502 -0.91339771417E+03  0.45742430886E+03  0.49160987469E+02  0.10227165763E+04  0.10100000352E+00 0.  1.
</event>
<event>
 5   0  0.4959347E-05  0.2510586E+04  0.7818609E-02  0.8399224E-01
       -2   -1    0    0    0  501  0.00000000000E+00  0.00000000000E+00  0.72943621918E+03  0.72943621919E+03  0.25500000920E-02 0.  1.
        2   -1    0    0  501    0  0.00000000000E+00  0.00000000000E+00 -0.21602444988E+04  0.21602444988E+04  0.25500000920E-02 0. -1.
    10030    2    1    2    0    0  0.00000000000E+00  0.00000000000E+00 -0.14308082796E+04  0.28896807180E+04  0.25105860509E+04 0.  0.
        3    1    3    3  502    0  0.98258436860E+03 -0.29997809787E+03 -0.15456416635E+04  0.18559275478E+04  0.10100000352E+00 0. -1.
       -3    1    3    3    0  502 -0.98258436860E+03  0.29997809787E+03  0.11483338386E+03  0.10337531702E+04  0.10100000352E+00 0.  1.
</event>
<event>
 5   0  0.5024070E-05  0.2499767E+04  0.7818609E-02  0.8403069E-01
        2   -1    0    0  501    0  0.00000000000E+00  0.00000000000E+00  0.15488248589E+04  0.15488248590E+04  0.25500000920E-02 0. -1.
       -2   -1    0    0    0  501  0.00000000000E+00  0.00000000000E+00 -0.10086412903E+04  0.10086412903E+04  0.25500000920E-02 0.  1.
    10030    2    1    2    0    0  0.00000000000E+00  0.00000000000E+00  0.54018356867E+03  0.25574661492E+04  0.24997669525E+04 0.  0.
        5    1    3    3  502    0 -0.10218892942E+04  0.48927560264E+03  0.81004086747E+03  0.13927801844E+04  0.46999998093E+01 0. -1.
       -5    1    3    3    0  502  0.10218892942E+04 -0.48927560264E+03 -0.26985729880E+03  0.11646859649E+04  0.46999998093E+01 0.  1.
</event>
<event>
 5   0  0.5219468E-05  0.2472947E+04  0.7818609E-02  0.8412687E-01
        2   -1    0    0  501    0  0.00000000000E+00  0.00000000000E+00  0.20277207636E+04  0.20277207636E+04  0.25500000920E-02 0.  1.
       -2   -1    0    0    0  501  0.00000000000E+00  0.00000000000E+00 -0.75398288629E+03  0.75398288630E+03  0.25500000920E-02 0. -1.
    10030    2    1    2    0    0  0.00000000000E+00  0.00000000000E+00  0.12737378773E+04  0.27817036499E+04  0.24729470305E+04 0.  0.
        1    1    3    3  502    0  0.36104824038E+03 -0.34691339766E+03 -0.63484373669E+03  0.80853652199E+03  0.50400001928E-02 0. -1.
       -1    1    3    3    0  502 -0.36104824038E+03  0.34691339766E+03  0.19085816140E+04  0.19731671279E+04  0.50400001928E-02 0.  1.
</event>
<event>
 5   0  0.2063930E-05  0.2481137E+04  0.7818609E-02  0.8409736E-01
        1   -1    0    0  501    0  0.00000000000E+00  0.00000000000E+00  0.10977432282E+04  0.10977432282E+04  0.50400001928E-02 0.  1.
       -1   -1    0    0    0  501  0.00000000000E+00  0.00000000000E+00 -0.14019770396E+04  0.14019770396E+04  0.50400001928E-02 0. -1.
    10030    2    1    2    0    0  0.00000000000E+00  0.00000000000E+00 -0.30423381149E+03  0.24997202678E+04  0.24811374821E+04 0.  0.
        3    1    3    3  502    0 -0.84230946077E+03 -0.59500317787E+03  0.54261040641E+03  0.11653068578E+04  0.10100000352E+00 0.  1.
       -3    1    3    3    0  502  0.84230946077E+03  0.59500317787E+03 -0.84684421789E+03  0.13344134101E+04  0.10100000352E+00 0. -1.
</event>
<event>
 5   0  0.2041718E-05  0.2479880E+04  0.7818609E-02  0.8410189E-01
       -1   -1    0    0    0  501  0.00000000000E+00  0.00000000000E+00  0.12771809929E+04  0.12771809929E+04  0.50400001928E-02 0. -1.
        1   -1    0    0  501    0  0.00000000000E+00  0.00000000000E+00 -0.12037844290E+04  0.12037844290E+04  0.50400001928E-02 0.  1.
    10030    2    1    2    0    0  0.00000000000E+00  0.00000000000E+00  0.73396563886E+02  0.24809654220E+04  0.24798795070E+04 0.  0.
        4    1    3    3  502    0  0.84033851976E+03  0.67569914344E+03 -0.57570604156E+03  0.12223654198E+04  0.12699999809E+01 0.  1.
       -4    1    3    3    0  502 -0.84033851976E+03 -0.67569914344E+03  0.64910260544E+03  0.12586000022E+04  0.12699999809E+01 0. -1.
</event>
<event>
 5   0  0.2063930E-05  0.2457689E+04  0.7818609E-02  0.8418216E-01
        1   -1    0    0  501    0  0.00000000000E+00  0.00000000000E+00  0.18999228796E+04  0.18999228796E+04  0.50400001928E-02 0.  1.
       -1   -1    0    0    0  501  0.00000000000E+00  0.00000000000E+00 -0.79479986358E+03  0.79479986360E+03  0.50400001928E-02 0. -1.
    10030    2    1    2    0    0  0.00000000000E+00  0.00000000000E+00  0.11051230160E+04  0.26947227432E+04  0.24576887074E+04 0.  0.
        3    1    3    3  502    0 -0.99586073029E+03 -0.39255240130E+03  0.12142758865E+04  0.16187346665E+04  0.10100000352E+00 0.  1.
       -3    1    3    3    0  502  0.99586073029E+03  0.39255240130E+03 -0.10915287044E+03  0.10759880767E+04  0.10100000352E+00 0. -1.
</event>
<event>
 5   0  0.4959042E-05  0.2822782E+04  0.7818609E-02  0.8296230E-01
       -2   -1    0    0    0  501  0.00000000000E+00  0.00000000000E+00  0.89730509088E+03  0.89730509088E+03  0.25500000920E-02 0.  1.
        2   -1    0    0  501    0  0.00000000000E+00  0.00000000000E+00 -0.22200073380E+04  0.22200073380E+04  0.25500000920E-02 0. -1.
    10030    2    1    2    0    0  0.00000000000E+00  0.00000000000E+00 -0.13227022471E+04  0.31173124289E+04  0.28227815262E+04 0.  0.
        4    1    3    3  502    0 -0.27640751111E+03  0.13839935873E+04 -0.64641549250E+03  0.15523188988E+04  0.12699999809E+01 0. -1.
       -4    1    3    3    0  502  0.27640751111E+03 -0.13839935873E+04 -0.67628675465E+03  0.15649935301E+04  0.12699999809E+01 0.  1.
</event>
<event>
 5   0  0.5024070E-05  0.2481844E+04  0.7818609E-02  0.8409482E-01
        2   -1    0    0  501    0  0.00000000000E+00  0.00000000000E+00  0.47312939296E+03  0.47312939297E+03  0.25500000920E-02 0.  1.
       -2   -1    0    0    0  501  0.00000000000E+00  0.00000000000E+00 -0.32546854005E+04  0.32546854005E+04  0.25500000920E-02 0. -1.
    10030    2    1    2    0    0  0.00000000000E+00  0.00000000000E+00 -0.27815560076E+04  0.37278147935E+04  0.24818439337E+04 0.  0.
        5    1    3    3  502    0 -0.76416543179E+03 -0.82647108128E+03 -0.60617245642E+03  0.12784640755E+04  0.46999998093E+01 0.  1.
       -5    1    3    3    0  502  0.76416543179E+03  0.82647108128E+03 -0.21753835512E+04  0.24493507180E+04  0.46999998093E+01 0. -1.
</event>
<event>
 5   0  0.4995256E-05  0.2546028E+04  0.7818609E-02  0.8386769E-01
        2   -1    0    0  501    0  0.00000000000E+00  0.00000000000E+00  0.12595728842E+04  0.12595728842E+04  0.25500000920E-02 0. -1.
       -2   -1    0    0    0  501  0.00000000000E+00  0.00000000000E+00 -0.12865990318E+04  0.12865990318E+04  0.25500000920E-02 0.  1.
    10030    2    1    2    0    0  0.00000000000E+00  0.00000000000E+00 -0.27026147531E+02  0.25461719160E+04  0.25460284785E+04 0.  0.
        2    1    3    3  502    0  0.61787472791E+03 -0.39849879017E+03 -0.10527995985E+04  0.12841173855E+04  0.25500000920E-02 0.  1.
       -2    1    3    3    0  502 -0.61787472791E+03  0.39849879017E+03  0.10257734510E+04  0.12620545305E+04  0.25500000920E-02 0. -1.
</event>
<event>
 5   0  0.4959347E-05  0.2529646E+04  0.7818609E-02  0.8392500E-01
        2   -1    0    0  501    0  0.00000000000E+00  0.00000000000E+00  0.21882684644E+04  0.21882684644E+04  0.25500000920E-02 0.  1.
       -2   -1    0    0    0  501  0.00000000000E+00  0.00000000000E+00 -0.73106962291E+03  0.73106962291E+03  0.25500000920E-02 0. -1.
    10030    2    1    2    0    0  0.00000000000E+00  0.00000000000E+00  0.14571988415E+04  0.29193380873E+04  0.25296455096E+04 0.  0.
        3    1    3    3  502    0  0.50858777812E+03 -0.45018371785E+03 -0.50275095650E+03  0.84503576394E+03  0.10100000352E+00 0. -1.
       -3    1    3    3    0  502 -0.50858777812E+03  0.45018371785E+03  0.19599497980E+04  0.20743023234E+04  0.10100000352E+00 0.  1.
</event>
<event>
 5   0  0.4995256E-05  0.2529995E+04  0.7818609E-02  0.8392377E-01
        2   -1    0    0  501    0  0.00000000000E+00  0.00000000000E+00  0.12574902405E+04  0.12574902405E+04  0.25500000920E-02 0. -1.
       -2   -1    0    0    0  501  0.00000000000E+00  0.00000000000E+00 -0.12725492661E+04  0.12725492661E+04  0.25500000920E-02 0.  1.
    10030    2    1    2    0    0  0.00000000000E+00  0.00000000000E+00 -0.15059025595E+02  0.25300395067E+04  0.25299946899E+04 0.  0.
        2    1    3    3  502    0 -0.53372331890E+03  0.66975129461E+03 -0.93856206551E+03  0.12705613439E+04  0.25500000920E-02 0. -1.
       -2    1    3    3    0  502  0.53372331890E+03 -0.66975129461E+03  0.92350303991E+03  0.12594781628E+04  0.25500000920E-02 0.  1.
</event>
<event>
 5   0  0.4959347E-05  0.2505395E+04  0.7818609E-02  0.8401066E-01
       -2   -1    0    0    0  501  0.00000000000E+00  0.00000000000E+00  0.11089056927E+04  0.11089056927E+04  0.25500000920E-02 0. -1.
        2   -1    0    0  501    0  0.00000000000E+00  0.00000000000E+00 -0.14151347350E+04  0.14151347350E+04  0.25500000920E-02 0.  1.
    10030    2    1    2    0    0  0.00000000000E+00  0.00000000000E+00 -0.30622904227E+03  0.25240404277E+04  0.25053949498E+04 0.  0.
        3    1    3    3  502    0  0.19072614825E+03 -0.97451951179E+03  0.61623507912E+03  0.11686789232E+04  0.10100000352E+00 0. -1.
       -3    1    3    3    0  502 -0.19072614825E+03  0.97451951179E+03 -0.92246412139E+03  0.13553615045E+04  0.10100000352E+00 0.  1.
</event>
<event>
 5   0  0.4959347E-05  0.2508934E+04  0.7818609E-02  0.8399810E-01
        2   -1    0    0  501    0  0.00000000000E+00  0.00000000000E+00  0.11787574057E+04  0.11787574057E+04  0.25500000920E-02 0.  1.
       -2   -1    0    0    0  501  0.00000000000E+00  0.00000000000E+00 -0.13350395587E+04  0.13350395587E+04  0.25500000920E-02 0. -1.
    10030    2    1    2    0    0  0.00000000000E+00  0.00000000000E+00 -0.15628215304E+03  0.25137969645E+04  0.25089342493E+04 0.  0.
        3    1    3    3  502    0  0.10062448758E+04  0.30980005026E+03  0.60522403842E+03  0.12144138373E+04  0.10100000352E+00 0. -1.
       -3    1    3    3    0  502 -0.10062448758E+04 -0.30980005026E+03 -0.76150619147E+03  0.12993831272E+04  0.10100000352E+00 0.  1.
</event>
<event>
 5   0  0.4959042E-05  0.2467366E+04  0.7818609E-02  0.8414705E-01
        2   -1    0    0  501    0  0.00000000000E+00  0.00000000000E+00  0.17146655044E+04  0.17146655044E+04  0.25500000920E-02 0. -1.
       -2   -1    0    0    0  501  0.00000000000E+00  0.00000000000E+00 -0.88762128314E+03  0.88762128314E+03  0.25500000920E-02 0.  1.
    10030    2    1    2    0    0  0.00000000000E+00  0.00000000000E+00  0.82704422127E+03  0.26022867875E+04  0.24673658790E+04 0.  0.
        4    1    3    3  502    0 -0.10753248770E+04 -0.41034228292E+03 -0.54913049002E+02  0.11522679533E+04  0.12699999809E+01 0.  1.
       -4    1    3    3    0  502  0.10753248770E+04  0.41034228292E+03  0.88195727027E+03  0.14500188343E+04  0.12699999809E+01 0. -1.
</event>
<event>
 5   0  0.2066170E-05  0.2415353E+04  0.7818609E-02  0.8433778E-01
        1   -1    0    0  501    0  0.00000000000E+00  0.00000000000E+00  0.15633503727E+04  0.15633503727E+04  0.50400001928E-02 0.  1.
       -1   -1    0    0    0  501  0.00000000000E+00  0.00000000000E+00 -0.93292121498E+03  0.93292121499E+03  0.50400001928E-02 0. -1.
    10030    2    1    2    0    0  0.00000000000E+00  0.00000000000E+00  0.63042915774E+03  0.24962715877E+04  0.24153531660E+04 0.  0.
        5    1    3    3  502    0 -0.32186304802E+03  0.15925582836E+03  0.15068838902E+04  0.15490898583E+04  0.46999998093E+01 0.  1.
       -5    1    3    3    0  502  0.32186304802E+03 -0.15925582836E+03 -0.87645473244E+03  0.94718172943E+03  0.46999998093E+01 0. -1.
</event>
<event>
 5   0  0.2036578E-05  0.2491079E+04  0.7818609E-02  0.8406171E-01
       -1   -1    0    0    0  501  0.00000000000E+00  0.00000000000E+00  0.12384006810E+04  0.12384006810E+04  0.50400001928E-02 0. -1.
        1   -1    0    0  501    0  0.00000000000E+00  0.00000000000E+00 -0.12527195101E+04  0.12527195101E+04  0.50400001928E-02 0.  1.
    10030    2    1    2    0    0  0.00000000000E+00  0.00000000000E+00 -0.14318829144E+02  0.24911201911E+04  0.24910790389E+04 0.  0.
        2    1    3    3  502    0  0.77524122671E+03  0.54009630493E+03  0.80443622279E+03  0.12408950861E+04  0.25500000920E-02 0. -1.
       -2    1    3    3    0  502 -0.77524122671E+03 -0.54009630493E+03 -0.81875505193E+03  0.12502251050E+04  0.25500000920E-02 0.  1.
</event>
<event>
 5   0  0.2036578E-05  0.2615007E+04  0.7818609E-02  0.8363121E-01
        1   -1    0    0  501    0  0.00000000000E+00  0.00000000000E+00  0.10698412191E+04  0.10698412191E+04  0.50400001928E-02 0. -1.
       -1   -1    0    0    0  501  0.00000000000E+00  0.00000000000E+00 -0.15979617519E+04  0.15979617519E+04  0.50400001928E-02 0.  1.
    10030    2    1    2    0    0  0.00000000000E+00  0.00000000000E+00 -0.52812053273E+03  0.26678029710E+04  0.26150069589E+04 0.  0.
        2    1    3    3  502    0 -0.11884629844E+04  0.37902052083E+03  0.13559441755E+03  0.12547855062E+04  0.25500000920E-02 0. -1.
       -2    1    3    3    0  502  0.11884629844E+04 -0.37902052083E+03 -0.66371495028E+03  0.14130174648E+04  0.25500000920E-02 0.  1.
</event>
<event>
 5   0  0.2063930E-05  0.2511014E+04  0.7818609E-02  0.8399072E-01
        1   -1    0    0  501    0  0.00000000000E+00  0.00000000000E+00  0.17988596864E+04  0.17988596864E+04  0.50400001928E-02 0. -1.
       -1   -1    0    0    0  501  0.00000000000E+00  0.00000000000E+00 -0.87627644373E+03  0.87627644374E+03  0.50400001928E-02 0.  1.
    10030    2    1    2    0    0  0.00000000000E+00  0.00000000000E+00  0.92258324265E+03  0.26751361301E+04  0.25110144315E+04 0.  0.
        3    1    3    3  502    0  0.57238966821E+03  0.55427242574E+02 -0.72771787638E+03  0.92751033919E+03  0.10100000352E+00 0.  1.
       -3    1    3    3    0  502 -0.57238966821E+03 -0.55427242574E+02  0.16503011190E+04  0.17476257909E+04  0.10100000352E+00 0. -1.
</event>
<event>
 5   0  0.5219468E-05  0.2550882E+04  0.7818609E-02  0.8385080E-01
        2   -1    0    0  501    0  0.00000000000E+00  0.00000000000E+00  0.15776689203E+04  0.15776689203E+04  0.25500000920E-02 0.  1.
       -2   -1    0    0    0  501  0.00000000000E+00  0.00000000000E+00 -0.10311093410E+04  0.10311093410E+04  0.25500000920E-02 0. -1.
    10030    2    1    2    0    0  0.00000000000E+00  0.00000000000E+00  0.54655957930E+03  0.26087782613E+04  0.25508815423E+04 0.  0.
        1    1    3    3  502    0  0.34409623741E+03 -0.11323430457E+04  0.75962147017E+03  0.14062815407E+04  0.50400001928E-02 0. -1.
       -1    1    3    3    0  502 -0.34409623741E+03  0.11323430457E+04 -0.21306189087E+03  0.12024967206E+04  0.50400001928E-02 0.  1.
</event>
<event>
 5   0  0.2063930E-05  0.1773763E+04  0.7818609E-02  0.8720378E-01
       -1   -1    0    0    0  501  0.00000000000E+00  0.00000000000E+00  0.10808195325E+04  0.10808195325E+04  0.50400001928E-02 0. -1.
        1   -1    0    0  501    0  0.00000000000E+00  0.00000000000E+00 -0.72774314934E+03  0.72774314936E+03  0.50400001928E-02 0.  1.
    10030    2    1    2    0    0  0.00000000000E+00  0.00000000000E+00  0.35307638315E+03  0.18085626819E+04  0.17737632429E+04 0.  0.
        3    1    3    3  502    0 -0.67082301520E+02  0.88212919342E+03  0.11280546974E+03  0.89183912970E+03  0.10100000352E+00 0. -1.
       -3    1    3    3    0  502  0.67082301520E+02 -0.88212919342E+03  0.24027091341E+03  0.91672355216E+03  0.10100000352E+00 0.  1.
</event>
<event>
 5   0  0.4959347E-05  0.2425414E+04  0.7818609E-02  0.8430050E-01
        2   -1    0    0  501    0  0.00000000000E+00  0.00000000000E+00  0.19438071648E+04  0.19438071648E+04  0.25500000920E-02 0. -1.
       -2   -1    0    0    0  501  0.00000000000E+00  0.00000000000E+00 -0.75658633668E+03  0.75658633669E+03  0.25500000920E-02 0.  1.
    10030    2    1    2    0    0  0.00000000000E+00  0.00000000000E+00  0.11872208281E+04  0.27003935015E+04  0.24254137314E+04 0.  0.
        3    1    3    3  502    0 -0.11346457786E+04  0.14669306565E+03  0.14587602962E+03  0.11533515182E+04  0.10100000352E+00 0.  1.
       -3    1    3    3    0  502  0.11346457786E+04 -0.14669306565E+03  0.10413447985E+04  0.15470419833E+04  0.10100000352E+00 0. -1.
</event>
<event>
 5   0  0.2081874E-05  0.2477930E+04  0.7818609E-02  0.8410890E-01
       -1   -1    0    0    0  501  0.00000000000E+00  0.00000000000E+00  0.20107858093E+04  0.20107858093E+04  0.50400001928E-02 0. -1.
        1   -1    0    0  501    0  0.00000000000E+00  0.00000000000E+00 -0.76340034530E+03  0.76340034532E+03  0.50400001928E-02 0.  1.
    10030    2    1    2    0    0  0.00000000000E+00  0.00000000000E+00  0.12473854640E+04  0.27741861546E+04  0.24779302502E+04 0.  0.
        1    1    3    3  502    0 -0.59217984258E+03  0.14806367327E+03  0.18307581763E+04  0.19298381583E+04  0.50400001928E-02 0. -1.
       -1    1    3    3    0  502  0.59217984258E+03 -0.14806367327E+03 -0.58337271231E+03  0.84434799627E+03  0.50400001928E-02 0.  1.
</event>
<event>
 5   0  0.4959042E-05  0.2291606E+04  0.7818609E-02  0.8481238E-01
        2   -1    0    0  501    0  0.00000000000E+00  0.00000000000E+00  0.13955188332E+04  0.13955188332E+04  0.25500000920E-02 0. -1.
       -2   -1    0    0    0  501  0.00000000000E+00  0.00000000000E+00 -0.94077141508E+03  0.94077141508E+03  0.25500000920E-02 0.  1.
    10030    2    1    2    0    0  0.00000000000E+00  0.00000000000E+00  0.45474741812E+03  0.23362902483E+04  0.22916057492E+04 0.  0.
        4    1    3    3  502    0 -0.96695178233E+03 -0.45210846715E+03  0.65198601043E+03  0.12507938224E+04  0.12699999809E+01 0. -1.
       -4    1    3    3    0  502  0.96695178233E+03  0.45210846715E+03 -0.19723859231E+03  0.10854964259E+04  0.12699999809E+01 0.  1.
</event>
<event>
 5   0  0.4959042E-05  0.2558957E+04  0.7818609E-02  0.8382278E-01
       -2   -1    0    0    0  501  0.00000000000E+00  0.00000000000E+00  0.10176462423E+04  0.10176462423E+04  0.25500000920E-02 0. -1.
        2   -1    0    0  501    0  0.00000000000E+00  0.00000000000E+00 -0.16086784550E+04  0.16086784550E+04  0.25500000920E-02 0.  1.
    10030    2    1    2    0    0  0.00000000000E+00  0.00000000000E+00 -0.59103221276E+03  0.26263246973E+04  0.25589572758E+04 0.  0.
        4    1    3    3  502    0  0.21466048409E+03  0.38705704959E+03  0.93657619439E+03  0.10358903725E+04  0.12699999809E+01 0. -1.
       -4    1    3    3    0  502 -0.21466048409E+03 -0.38705704959E+03 -0.15276084071E+04  0.15904343248E+04  0.12699999809E+01 0.  1.
</event>
<event>
 5   0  0.2066170E-05  0.2397076E+04  0.7818609E-02  0.8440599E-01
        1   -1    0    0  501    0  0.00000000000E+00  0.00000000000E+00  0.99758107120E+03  0.99758107121E+03  0.50400001928E-02 0.  1.
       -1   -1    0    0    0  501  0.00000000000E+00  0.00000000000E+00 -0.14399769931E+04  0.14399769931E+04  0.50400001928E-02 0. -1.
    10030    2    1    2    0    0  0.00000000000E+00  0.00000000000E+00 -0.44239592191E+03  0.24375580643E+04  0.23970763787E+04 0.  0.
        5    1    3    3  502    0 -0.50593962074E+03 -0.81651764961E+03 -0.95009861925E+03  0.13510682619E+04  0.46999998093E+01 0.  1.
       -5    1    3    3    0  502  0.50593962074E+03  0.81651764961E+03  0.50770269734E+03  0.10864898025E+04  0.46999998093E+01 0. -1.
</event>
<event>
 5   0  0.2063930E-05  0.2469695E+04  0.7818609E-02  0.8413862E-01
       -1   -1    0    0    0  501  0.00000000000E+00  0.00000000000E+00  0.98858182269E+03  0.98858182270E+03  0.50400001928E-02 0.  1.
        1   -1    0    0  501    0  0.00000000000E+00  0.00000000000E+00 -0.15424606358E+04  0.15424606358E+04  0.50400001928E-02 0. -1.
    10030    2    1    2    0    0  0.00000000000E+00  0.00000000000E+00 -0.55387881308E+03  0.25310424585E+04  0.24696951608E+04 0.  0.
        3    1    3    3  502    0  0.41026084674E+03 -0.10733412980E+04 -0.74035868678E+03  0.13669332463E+04  0.10100000352E+00 0. -1.
       -3    1    3    3    0  502 -0.41026084674E+03  0.10733412980E+04  0.18647987369E+03  0.11641092122E+04  0.10100000352E+00 0.  1.
</event>
<event>
 5   0  0.2036578E-05  0.2532963E+04  0.7818609E-02  0.8391336E-01
       -1   -1    0    0    0  501  0.00000000000E+00  0.00000000000E+00  0.31104504295E+04  0.31104504295E+04  0.50400001928E-02 0.  1.
        1   -1    0    0  501    0  0.00000000000E+00  0.00000000000E+00 -0.51567284089E+03  0.51567284091E+03  0.50400001928E-02 0. -1.
    10030    2    1    2    0    0  0.00000000000E+00  0.00000000000E+00  0.25947775886E+04  0.36261232704E+04  0.25329625417E+04 0.  0.
        2    1    3    3  502    0  0.78080229242E+03  0.76168123667E+03  0.37609081569E+03  0.11538001681E+04  0.25500000920E-02 0. -1.
       -2    1    3    3    0  502 -0.78080229242E+03 -0.76168123667E+03  0.22186867729E+04  0.24723231023E+04  0.25500000920E-02 0.  1.
</event>
<event>
 5   0  0.4959042E-05  0.2504757E+04  0.7818609E-02  0.8401293E-01
        2   -1    0    0  501    0  0.00000000000E+00  0.00000000000E+00  0.18412507185E+04  0.18412507185E+04  0.25500000920E-02 0. -1.
       -2   -1    0    0    0  501  0.00000000000E+00  0.00000000000E+00 -0.85184049771E+03  0.85184049771E+03  0.25500000920E-02 0.  1.
    10030    2    1    2    0    0  0.00000000000E+00  0.00000000000E+00  0.98941022079E+03  0.26930912162E+04  0.25047570169E+04 0.  0.
        4    1    3    3  502    0  0.10429329328E+04 -0.68618114992E+03  0.38774313618E+03  0.13072490296E+04  0.12699999809E+01 0. -1.
       -4    1    3    3    0  502 -0.10429329328E+04  0.68618114992E+03  0.60166708461E+03  0.13858421867E+04  0.12699999809E+01 0.  1.
</event>
<event>
 5   0  0.2063930E-05  0.2522222E+04  0.7818609E-02  0.8395111E-01
       -1   -1    0    0    0  501  0.00000000000E+00  0.00000000000E+00  0.18534095614E+04  0.18534095614E+04  0.50400001928E-02 0. -1.
        1   -1    0    0  501    0  0.00000000000E+00  0.00000000000E+00 -0.85809501524E+03  0.85809501525E+03  0.50400001928E-02 0.  1.
    10030    2    1    2    0    0  0.00000000000E+00  0.00000000000E+00  0.99531454616E+03  0.27115045767E+04  0.25222224373E+04 0.  0.
        3    1    3    3  502    0 -0.44312312595E+03 -0.67807292586E+03  0.15367658997E+04  0.17371788734E+04  0.10100000352E+00 0. -1.
       -3    1    3    3    0  502  0.44312312595E+03  0.67807292586E+03 -0.54145135354E+03  0.97432570324E+03  0.10100000352E+00 0.  1.
</event>
<event>
 5   0  0.4995256E-05  0.2452944E+04  0.7818609E-02  0.8419944E-01
       -2   -1    0    0    0  501  0.00000000000E+00  0.00000000000E+00  0.96319458165E+03  0.96319458166E+03  0.25500000920E-02 0.  1.
        2   -1    0    0  501    0  0.00000000000E+00  0.00000000000E+00 -0.15617128524E+04  0.15617128524E+04  0.25500000920E-02 0. -1.
    10030    2    1    2    0    0  0.00000000000E+00  0.00000000000E+00 -0.59851827072E+03  0.25249074340E+04  0.24529438294E+04 0.  0.
        2    1    3    3  502    0 -0.10648799138E+04  0.59327219776E+03 -0.43847577222E+03  0.12954544123E+04  0.25500000920E-02 0. -1.
       -2    1    3    3    0  502  0.10648799138E+04 -0.59327219776E+03 -0.16004249850E+03  0.12294530218E+04  0.25500000920E-02 0.  1.
</event>
<event>
 5   0  0.4959042E-05  0.2037196E+04  0.7818609E-02  0.8589425E-01
       -2   -1    0    0    0  501  0.00000000000E+00  0.00000000000E+00  0.72358350468E+03  0.72358350469E+03  0.25500000920E-02 0. -1.
        2   -1    0    0  501    0  0.00000000000E+00  0.00000000000E+00 -0.14338939920E+04  0.14338939920E+04  0.25500000920E-02 0.  1.
    10030    2    1    2    0    0  0.00000000000E+00  0.00000000000E+00 -0.71031048733E+03  0.21574774967E+04  0.20371961517E+04 0.  0.
        4    1    3    3  502    0  0.73499704123E+03  0.59323307989E+03 -0.75897457211E+03  0.12116889666E+04  0.12699999809E+01 0.  1.
       -4    1    3    3    0  502 -0.73499704123E+03 -0.59323307989E+03  0.48664084777E+02  0.94578853014E+03  0.12699999809E+01 0. -1.
</event>
<event>
 5   0  0.2066170E-05  0.2473902E+04  0.7818609E-02  0.8412343E-01
       -1   -1    0    0    0  501  0.00000000000E+00  0.00000000000E+00  0.72749835958E+03  0.72749835960E+03  0.50400001928E-02 0.  1.
        1   -1    0    0  501    0  0.00000000000E+00  0.00000000000E+00 -0.21031629653E+04  0.21031629653E+04  0.50400001928E-02 0. -1.
    10030    2    1    2    0    0  0.00000000000E+00  0.00000000000E+00 -0.13756646057E+04  0.28306613249E+04  0.24739018632E+04 0.  0.
        5    1    3    3  502    0  0.26370686917E+03 -0.51083148252E+03 -0.19410080411E+04  0.20243577801E+04  0.46999998093E+01 0. -1.
       -5    1    3    3    0  502 -0.26370686917E+03  0.51083148252E+03  0.56534343538E+03  0.80630354477E+03  0.46999998093E+01 0.  1.
</event>
<event>
 5   0  0.2036578E-05  0.2471029E+04  0.7818609E-02  0.8413380E-01
       -1   -1    0    0    0  501  0.00000000000E+00  0.00000000000E+00  0.11170620868E+04  0.11170620868E+04  0.50400001928E-02 0. -1.
        1   -1    0    0  501    0  0.00000000000E+00  0.00000000000E+00 -0.13665271804E+04  0.13665271804E+04  0.50400001928E-02 0.  1.
    10030    2    1    2    0    0  0.00000000000E+00  0.00000000000E+00 -0.24946509366E+03  0.24835892672E+04  0.24710286958E+04 0.  0.
        2    1    3    3  502    0  0.11768124162E+04 -0.28772107161E+03  0.11903860584E+03  0.12173089450E+04  0.25500000920E-02 0. -1.
       -2    1    3    3    0  502 -0.11768124162E+04  0.28772107161E+03 -0.36850369950E+03  0.12662803222E+04  0.25500000920E-02 0.  1.
</event>
<event>
 5   0  0.4995256E-05  0.2535656E+04  0.7818609E-02  0.8390392E-01
        2   -1    0    0  501    0  0.00000000000E+00  0.00000000000E+00  0.19244370059E+04  0.19244370059E+04  0.25500000920E-02 0.  1.
       -2   -1    0    0    0  501  0.00000000000E+00  0.00000000000E+00 -0.83525078815E+03  0.83525078815E+03  0.25500000920E-02 0. -1.
    10030    2    1    2    0    0  0.00000000000E+00  0.00000000000E+00  0.10891862177E+04  0.27596877940E+04  0.25356557542E+04 0.  0.
        2    1    3    3  502    0 -0.15878204168E+01 -0.52247620733E+03 -0.71263263551E+03  0.88364539358E+03  0.25500000920E-02 0. -1.
       -2    1    3    3    0  502  0.15878204168E+01  0.52247620733E+03  0.18018188532E+04  0.18760424004E+04  0.25500000920E-02 0.  1.
</event>
<event>
 5   0  0.4959347E-05  0.2509697E+04  0.7818609E-02  0.8399539E-01
       -2   -1    0    0    0  501  0.00000000000E+00  0.00000000000E+00  0.18934224499E+04  0.18934224499E+04  0.25500000920E-02 0. -1.
        2   -1    0    0  501    0  0.00000000000E+00  0.00000000000E+00 -0.83163942674E+03  0.83163942674E+03  0.25500000920E-02 0.  1.
    10030    2    1    2    0    0  0.00000000000E+00  0.00000000000E+00  0.10617830231E+04  0.27250618766E+04  0.25096970023E+04 0.  0.
        3    1    3    3  502    0 -0.22353317038E+03  0.12298737848E+04  0.41151059129E+03  0.13160157984E+04  0.10100000352E+00 0.  1.
       -3    1    3    3    0  502  0.22353317038E+03 -0.12298737848E+04  0.65027243185E+03  0.14090460782E+04  0.10100000352E+00 0. -1.
</event>
<event>
 5   0  0.5024070E-05  0.2507340E+04  0.7818609E-02  0.8400375E-01
       -2   -1    0    0    0  501  0.00000000000E+00  0.00000000000E+00  0.91435935008E+03  0.91435935008E+03  0.25500000920E-02 0.  1.
        2   -1    0    0  501    0  0.00000000000E+00  0.00000000000E+00 -0.17188964310E+04  0.17188964310E+04  0.25500000920E-02 0. -1.
    10030    2    1    2    0    0  0.00000000000E+00  0.00000000000E+00 -0.80453708093E+03  0.26332557811E+04  0.25073404424E+04 0.  0.
        5    1    3    3  502    0 -0.45873333373E+03 -0.88220155526E+03 -0.12041234552E+04  0.15616181483E+04  0.46999998093E+01 0. -1.
       -5    1    3    3    0  502  0.45873333373E+03  0.88220155526E+03  0.39958637429E+03  0.10716376328E+04  0.46999998093E+01 0.  1.
</event>
<event>
 5   0  0.2036578E-05  0.2273099E+04  0.7818609E-02  0.8488604E-01
       -1   -1    0    0    0  501  0.00000000000E+00  0.00000000000E+00  0.10242619015E+04  0.10242619015E+04  0.50400001928E-02 0.  1.
        1   -1    0    0  501    0  0.00000000000E+00  0.00000000000E+00 -0.12611473614E+04  0.12611473614E+04  0.50400001928E-02 0. -1.
    10030    2    1    2    0    0  0.00000000000E+00  0.00000000000E+00 -0.23688545988E+03  0.22854092629E+04  0.22730993770E+04 0.  0.
        2    1    3    3  502    0 -0.12540602731E+02  0.10661560075E+04  0.27726112529E+03  0.11016894438E+04  0.25500000920E-02 0.  1.
       -2    1    3    3    0  502  0.12540602731E+02 -0.10661560075E+04 -0.51414658516E+03  0.11837198191E+04  0.25500000920E-02 0. -1.
</event>
<event>
 5   0  0.4995256E-05  0.2039583E+04  0.7818609E-02  0.8588335E-01
        2   -1    0    0  501    0  0.00000000000E+00  0.00000000000E+00  0.12587124477E+04  0.12587124477E+04  0.25500000920E-02 0.  1.
       -2   -1    0    0    0  501  0.00000000000E+00  0.00000000000E+00 -0.82622123283E+03  0.82622123283E+03  0.25500000920E-02 0. -1.
    10030    2    1    2    0    0  0.00000000000E+00  0.00000000000E+00  0.43249121489E+03  0.20849336805E+04  0.20395832421E+04 0.  0.
        2    1    3    3  502    0  0.50419470634E+02  0.23864069910E+03 -0.79596513592E+03  0.83249744978E+03  0.25500000920E-02 0. -1.
       -2    1    3    3    0  502 -0.50419470634E+02 -0.23864069910E+03  0.12284563508E+04  0.12524362308E+04  0.25500000920E-02 0.  1.
</event>
<event>
 5   0  0.2036578E-05  0.2401990E+04  0.7818609E-02  0.8438759E-01
       -1   -1    0    0    0  501  0.00000000000E+00  0.00000000000E+00  0.11873638763E+04  0.11873638763E+04  0.50400001928E-02 0.  1.
        1   -1    0    0  501    0  0.00000000000E+00  0.00000000000E+00 -0.12147822321E+04  0.12147822321E+04  0.50400001928E-02 0. -1.
    10030    2    1    2    0    0  0.00000000000E+00  0.00000000000E+00 -0.27418355770E+02  0.24021461084E+04  0.24019896252E+04 0.  0.
        2    1    3    3  502    0  0.12288512052E+03 -0.28922354546E+03  0.11455201360E+04  0.11878414853E+04  0.25500000920E-02 0.  1.
       -2    1    3    3    0  502 -0.12288512052E+03  0.28922354546E+03 -0.11729384918E+04  0.12143046231E+04  0.25500000920E-02 0. -1.
</event>
<event>
 5   0  0.5024070E-05  0.2527643E+04  0.7818609E-02  0.8393203E-01
       -2   -1    0    0    0  501  0.00000000000E+00  0.00000000000E+00  0.12023686888E+04  0.12023686888E+04  0.25500000920E-02 0. -1.
        2   -1    0    0  501    0  0.00000000000E+00  0.00000000000E+00 -0.13284150550E+04  0.13284150550E+04  0.25500000920E-02 0.  1.
    10030    2    1    2    0    0  0.00000000000E+00  0.00000000000E+00 -0.12604636618E+03  0.25307837438E+04  0.25276429082E+04 0.  0.
        5    1    3    3  502    0 -0.12442634053E+04  0.15693144471E+03  0.93387695815E+02  0.12576017859E+04  0.46999998093E+01 0. -1.
       -5    1    3    3    0  502  0.12442634053E+04 -0.15693144471E+03 -0.21943406199E+03  0.12731819578E+04  0.46999998093E+01 0.  1.
</event>
<event>
 5   0  0.2081874E-05  0.2481996E+04  0.7818609E-02  0.8409428E-01
       -1   -1    0    0    0  501  0.00000000000E+00  0.00000000000E+00  0.13347944070E+04  0.13347944070E+04  0.50400001928E-02 0.  1.
        1   -1    0    0  501    0  0.00000000000E+00  0.00000000000E+00 -0.11537930440E+04  0.11537930440E+04  0.50400001928E-02 0. -1.
    10030    2    1    2    0    0  0.00000000000E+00  0.00000000000E+00  0.18100136301E+03  0.24885874510E+04  0.24819963754E+04 0.  0.
        1    1    3    3  502    0  0.84935405985E+03  0.63218486414E+03 -0.55853312129E+03  0.11970878285E+04  0.50400001928E-02 0. -1.
       -1    1    3    3    0  502 -0.84935405985E+03 -0.63218486414E+03  0.73953448431E+03  0.12914996225E+04  0.50400001928E-02 0.  1.
</event>
<event>
 5   0  0.2041718E-05  0.2407770E+04  0.7818609E-02  0.8436600E-01
        1   -1    0    0  501    0  0.00000000000E+00  0.00000000000E+00  0.11929822969E+04  0.11929822970E+04  0.50400001928E-02 0.  1.
       -1   -1    0    0    0  501  0.00000000000E+00  0.00000000000E+00 -0.12148874770E+04  0.12148874770E+04  0.50400001928E-02 0. -1.
    10030    2    1    2    0    0  0.00000000000E+00  0.00000000000E+00 -0.21905180011E+02  0.24078697739E+04  0.24077701326E+04 0.  0.
        4    1    3    3  502    0 -0.26654805791E+03 -0.88872864448E+03  0.75618486460E+03  0.11969559863E+04  0.12699999809E+01 0.  1.
       -4    1    3    3    0  502  0.26654805791E+03  0.88872864448E+03 -0.77809004461E+03  0.12109137877E+04  0.12699999809E+01 0. -1.
</event>
<event>
 5   0  0.2081874E-05  0.2479065E+04  0.7818609E-02  0.8410482E-01
       -1   -1    0    0    0  501  0.00000000000E+00  0.00000000000E+00  0.13720380956E+04  0.13720380956E+04  0.50400001928E-02 0.  1.
        1   -1    0    0  501    0  0.00000000000E+00  0.00000000000E+00 -0.11198234540E+04  0.11198234540E+04  0.50400001928E-02 0. -1.
    10030    2    1    2    0    0  0.00000000000E+00  0.00000000000E+00  0.25221464164E+03  0.24918615496E+04  0.24790646940E+04 0.  0.
        1    1    3    3  502    0  0.73974211399E+01  0.12217357553E+04  0.33634593151E+03  0.12672101496E+04  0.50400001928E-02 0.  1.
       -1    1    3    3    0  502 -0.73974211399E+01 -0.12217357553E+04 -0.84131289871E+02  0.12246514000E+04  0.50400001928E-02 0. -1.
</event>
<event>
 5   0  0.5024070E-05  0.2528819E+04  0.7818609E-02  0.8392790E-01
       -2   -1    0    0    0  501  0.00000000000E+00  0.00000000000E+00  0.90088392646E+03  0.90088392646E+03  0.25500000920E-02 0.  1.
        2   -1    0    0  501    0  0.00000000000E+00  0.00000000000E+00 -0.17746258677E+04  0.17746258677E+04  0.25500000920E-02 0. -1.
    10030    2    1    2    0    0  0.00000000000E+00  0.00000000000E+00 -0.87374194129E+03  0.26755097942E+04  0.25288194240E+04 0.  0.
        5    1    3    3  502    0  0.34223359623E+03 -0.85260169993E+02 -0.17215188927E+04  0.17572827089E+04  0.46999998093E+01 0. -1.
       -5    1    3    3    0  502 -0.34223359623E+03  0.85260169993E+02  0.84777695139E+03  0.91822708536E+03  0.46999998093E+01 0.  1.
</event>
<event>
 5   0  0.2066170E-05  0.2926260E+04  0.7818609E-02  0.8265107E-01
        1   -1    0    0  501    0  0.00000000000E+00  0.00000000000E+00  0.16694848985E+04  0.16694848986E+04  0.50400001928E-02 0.  1.
       -1   -1    0    0    0  501  0.00000000000E+00  0.00000000000E+00 -0.12822814439E+04  0.12822814439E+04  0.50400001928E-02 0. -1.
    10030    2    1    2    0    0  0.00000000000E+00  0.00000000000E+00  0.38720345463E+03  0.29517663425E+04  0.29262600748E+04 0.  0.
        5    1    3    3  502    0  0.11594611920E+03 -0.53263757236E+03 -0.11760185641E+04  0.12962206754E+04  0.46999998093E+01 0. -1.
       -5    1    3    3    0  502 -0.11594611920E+03  0.53263757236E+03  0.15632220188E+04  0.16555456671E+04  0.46999998093E+01 0.  1.
</event>
<event>
 5   0  0.2063930E-05  0.2477489E+04  0.7818609E-02  0.8411049E-01
       -1   -1    0    0    0  501  0.00000000000E+00  0.00000000000E+00  0.88956048746E+03  0.88956048747E+03  0.50400001928E-02 0.  1.
        1   -1    0    0  501    0  0.00000000000E+00  0.00000000000E+00 -0.17249960784E+04  0.17249960784E+04  0.50400001928E-02 0. -1.
    10030    2    1    2    0    0  0.00000000000E+00  0.00000000000E+00 -0.83543559097E+03  0.26145565659E+04  0.24774893359E+04 0.  0.
        3    1    3    3  502    0 -0.99299397035E+03 -0.66247012288E+03 -0.68367497886E+02  0.11956495364E+04  0.10100000352E+00 0.  1.
       -3    1    3    3    0  502  0.99299397035E+03  0.66247012288E+03 -0.76706809308E+03  0.14189070295E+04  0.10100000352E+00 0. -1.
</event>
<event>
 5   0  0.5219468E-05  0.2455687E+04  0.7818609E-02  0.8418945E-01
        2   -1    0    0  501    0  0.00000000000E+00  0.00000000000E+00  0.18617154382E+04  0.18617154382E+04  0.25500000920E-02 0. -1.
       -2   -1    0    0    0  501  0.00000000000E+00  0.00000000000E+00 -0.80979053815E+03  0.80979053816E+03  0.25500000920E-02 0.  1.
    10030    2    1    2    0    0  0.00000000000E+00  0.00000000000E+00  0.10519249001E+04  0.26715059764E+04  0.24556869073E+04 0.  0.
        1    1    3    3  502    0 -0.86847390102E+03  0.10092948478E+03 -0.41187167894E+03  0.96647398185E+03  0.50400001928E-02 0.  1.
       -1    1    3    3    0  502  0.86847390102E+03 -0.10092948478E+03  0.14637965790E+04  0.17050319945E+04  0.50400001928E-02 0. -1.
</event>
<event>
 5   0  0.2063930E-05  0.2521776E+04  0.7818609E-02  0.8395268E-01
       -1   -1    0    0    0  501  0.00000000000E+00  0.00000000000E+00  0.89617432388E+03  0.89617432389E+03  0.50400001928E-02 0. -1.
        1   -1    0    0  501    0  0.00000000000E+00  0.00000000000E+00 -0.17740286283E+04  0.17740286283E+04  0.50400001928E-02 0.  1.
    10030    2    1    2    0    0  0.00000000000E+00  0.00000000000E+00 -0.87785430444E+03  0.26702029522E+04  0.25217762839E+04 0.  0.
        3    1    3    3  502    0 -0.90845018341E+00  0.65855940052E+03 -0.15774519021E+04  0.17094021830E+04  0.10100000352E+00 0.  1.
       -3    1    3    3    0  502  0.90845018341E+00 -0.65855940052E+03  0.69959759771E+03  0.96080076926E+03  0.10100000352E+00 0. -1.
</event>
<event>
 5   0  0.4959347E-05  0.1939034E+04  0.7818609E-02  0.8635667E-01
       -2   -1    0    0    0  501  0.00000000000E+00  0.00000000000E+00  0.49567748879E+03  0.49567748879E+03  0.25500000920E-02 0. -1.
        2   -1    0    0  501    0  0.00000000000E+00  0.00000000000E+00 -0.18963202718E+04  0.18963202718E+04  0.25500000920E-02 0.  1.
    10030    2    1    2    0    0  0.00000000000E+00  0.00000000000E+00 -0.14006427830E+04  0.23919977606E+04  0.19390340588E+04 0.  0.
        3    1    3    3  502    0 -0.76092635226E+03 -0.57221009747E+03 -0.92620867877E+03  0.13282679835E+04  0.10100000352E+00 0.  1.
       -3    1    3    3    0  502  0.76092635226E+03  0.57221009747E+03 -0.47443410428E+03  0.10637297771E+04  0.10100000352E+00 0. -1.
</event>
<event>
 5   0  0.2081874E-05  0.2492925E+04  0.7818609E-02  0.8405511E-01
       -1   -1    0    0    0  501  0.00000000000E+00  0.00000000000E+00  0.88014191206E+03  0.88014191208E+03  0.50400001928E-02 0. -1.
        1   -1    0    0  501    0  0.00000000000E+00  0.00000000000E+00 -0.17652473120E+04  0.17652473120E+04  0.50400001928E-02 0.  1.
    10030    2    1    2    0    0  0.00000000000E+00  0.00000000000E+00 -0.88510539989E+03  0.26453892240E+04  0.24929245030E+04 0.  0.
        1    1    3    3  502    0 -0.48341364540E+02 -0.76319391058E+03 -0.14870621691E+04  0.16721709624E+04  0.50400001928E-02 0.  1.
       -1    1    3    3    0  502  0.48341364540E+02  0.76319391058E+03  0.60195676924E+03  0.97321826161E+03  0.50400001928E-02 0. -1.
</event>
<event>
 5   0  0.2081874E-05  0.2500966E+04  0.7818609E-02  0.8402642E-01
        1   -1    0    0  501    0  0.00000000000E+00  0.00000000000E+00  0.19208388541E+04  0.19208388541E+04  0.50400001928E-02 0.  1.
       -1   -1    0    0    0  501  0.00000000000E+00  0.00000000000E+00 -0.81407519535E+03  0.81407519537E+03  0.50400001928E-02 0. -1.
    10030    2    1    2    0    0  0.00000000000E+00  0.00000000000E+00  0.11067636587E+04  0.27349140494E+04  0.25009656258E+04 0.  0.
        1    1    3    3  502    0 -0.80875315131E+03 -0.90297328576E+03  0.21763582582E+03  0.12315874988E+04  0.50400001928E-02 0. -1.
       -1    1    3    3    0  502  0.80875315131E+03  0.90297328576E+03  0.88912783288E+03  0.15033265506E+04  0.50400001928E-02 0.  1.
</event>
<event>
 5   0  0.5219468E-05  0.2243251E+04  0.7818609E-02  0.8500639E-01
        2   -1    0    0  501    0  0.00000000000E+00  0.00000000000E+00  0.87489874374E+03  0.87489874374E+03  0.25500000920E-02 0.  1.
       -2   -1    0    0    0  501  0.00000000000E+00  0.00000000000E+00 -0.14379307669E+04  0.14379307669E+04  0.25500000920E-02 0. -1.
    10030    2    1    2    0    0  0.00000000000E+00  0.00000000000E+00 -0.56303202312E+03  0.23128295106E+04  0.22432510528E+04 0.  0.
        1    1    3    3  502    0  0.65927359205E+02  0.28998371732E+03 -0.13965438006E+04  0.14278555809E+04  0.50400001928E-02 0. -1.
       -1    1    3    3    0  502 -0.65927359205E+02 -0.28998371732E+03  0.83351177747E+03  0.88497392968E+03  0.50400001928E-02 0.  1.
</event>
<event>
 5   0  0.2063930E-05  0.2484791E+04  0.7818609E-02  0.8408424E-01
        1   -1    0    0  501    0  0.00000000000E+00  0.00000000000E+00  0.13991380162E+04  0.13991380162E+04  0.50400001928E-02 0. -1.
       -1   -1    0    0    0  501  0.00000000000E+00  0.00000000000E+00 -0.11032126991E+04  0.11032126991E+04  0.50400001928E-02 0.  1.
    10030    2    1    2    0    0  0.00000000000E+00  0.00000000000E+00  0.29592531708E+03  0.25023507152E+04  0.24847912002E+04 0.  0.
        3    1    3    3  502    0 -0.99853707033E+03  0.40203549111E+03  0.77269969343E+03  0.13250560907E+04  0.10100000352E+00 0. -1.
       -3    1    3    3    0  502  0.99853707033E+03 -0.40203549111E+03 -0.47677437635E+03  0.11772946246E+04  0.10100000352E+00 0.  1.
</event>
<event>
 5   0  0.2081874E-05  0.2514912E+04  0.7818609E-02  0.8397692E-01
        1   -1    0    0  501    0  0.00000000000E+00  0.00000000000E+00  0.27986486542E+04  0.27986486542E+04  0.50400001928E-02 0.  1.
       -1   -1    0    0    0  501  0.00000000000E+00  0.00000000000E+00 -0.56498555115E+03  0.56498555117E+03  0.50400001928E-02 0. -1.
    10030    2    1    2    0    0  0.00000000000E+00  0.00000000000E+00  0.22336631031E+04  0.33636342054E+04  0.25149123662E+04 0.  0.
        1    1    3    3  502    0 -0.95066168775E+03  0.44456387034E+03  0.19039293984E+03  0.10666040272E+04  0.50400001928E-02 0. -1.
       -1    1    3    3    0  502  0.95066168775E+03 -0.44456387034E+03  0.20432701632E+04  0.22970301782E+04  0.50400001928E-02 0.  1.
</event>
<event>
 5   0  0.4959347E-05  0.2510964E+04  0.7818609E-02  0.8399090E-01
       -2   -1    0    0    0  501  0.00000000000E+00  0.00000000000E+00  0.15620035780E+04  0.15620035780E+04  0.25500000920E-02 0.  1.
        2   -1    0    0  501    0  0.00000000000E+00  0.00000000000E+00 -0.10091109956E+04  0.10091109956E+04  0.25500000920E-02 0. -1.
    10030    2    1    2    0    0  0.00000000000E+00  0.00000000000E+00  0.55289258237E+03  0.25711145737E+04  0.25109639470E+04 0.  0.
        3    1    3    3  502    0 -0.36976159988E+03  0.68819142346E+03  0.12827936536E+04  0.15019622645E+04  0.10100000352E+00 0.  1.
       -3    1    3    3    0  502  0.36976159988E+03 -0.68819142346E+03 -0.72990107127E+03  0.10691523091E+04  0.10100000352E+00 0. -1.
</event>
<event>
 5   0  0.5024070E-05  0.2562551E+04  0.7818609E-02  0.8381034E-01
       -2   -1    0    0    0  501  0.00000000000E+00  0.00000000000E+00  0.13884702398E+04  0.13884702398E+04  0.25500000920E-02 0.  1.
        2   -1    0    0  501    0  0.00000000000E+00  0.00000000000E+00 -0.11823564116E+04  0.11823564116E+04  0.25500000920E-02 0. -1.
    10030    2    1    2    0    0  0.00000000000E+00  0.00000000000E+00  0.20611382821E+03  0.25708266513E+04  0.25625508309E+04 0.  0.
        5    1    3    3  502    0  0.37967660711E+02  0.59690739296E+03  0.12398114235E+04  0.13765516463E+04  0.46999998093E+01 0.  1.
       -5    1    3    3    0  502 -0.37967660711E+02 -0.59690739296E+03 -0.10336975953E+04  0.11942750050E+04  0.46999998093E+01 0. -1.
</event>
<event>
 5   0  0.4995256E-05  0.2485103E+04  0.7818609E-02  0.8408312E-01
        2   -1    0    0  501    0  0.00000000000E+00  0.00000000000E+00  0.18733422465E+04  0.18733422465E+04  0.25500000920E-02 0. -1.
       -2   -1    0    0    0  501  0.00000000000E+00  0.00000000000E+00 -0.82416021793E+03  0.82416021794E+03  0.25500000920E-02 0.  1.
    10030    2    1    2    0    0  0.00000000000E+00  0.00000000000E+00  0.10491820285E+04  0.26975024644E+04  0.24851029388E+04 0.  0.
        2    1    3    3  502    0 -0.20378670506E+03  0.54667061703E+03 -0.66624150258E+03  0.88558202581E+03  0.25500000920E-02 0.  1.
       -2    1    3    3    0  502  0.20378670506E+03 -0.54667061703E+03  0.17154235311E+04  0.18119204386E+04  0.25500000920E-02 0. -1.
</event>
<event>
 5   0  0.4995256E-05  0.2553584E+04  0.7818609E-02  0.8384141E-01
        2   -1    0    0  501    0  0.00000000000E+00  0.00000000000E+00  0.11454471574E+04  0.11454471574E+04  0.25500000920E-02 0. -1.
       -2   -1    0    0    0  501  0.00000000000E+00  0.00000000000E+00 -0.14231981092E+04  0.14231981092E+04  0.25500000920E-02 0.  1.
    10030    2    1    2    0    0  0.00000000000E+00  0.00000000000E+00 -0.27775095182E+03  0.25686452666E+04  0.25535843269E+04 0.  0.
        2    1    3    3  502    0 -0.63159438642E+02 -0.38767753492E+03  0.10831623156E+04  0.11521820983E+04  0.25500000920E-02 0. -1.
       -2    1    3    3    0  502  0.63159438642E+02  0.38767753492E+03 -0.13609132674E+04  0.14164631683E+04  0.25500000920E-02 0.  1.
</event>
<event>
 5   0  0.4959347E-05  0.2671192E+04  0.7818609E-02  0.8344413E-01
       -2   -1    0    0    0  501  0.00000000000E+00  0.00000000000E+00  0.12863053892E+04  0.12863053892E+04  0.25500000920E-02 0.  1.
        2   -1    0    0  501    0  0.00000000000E+00  0.00000000000E+00 -0.13867749829E+04  0.13867749829E+04  0.25500000920E-02 0. -1.
    10030    2    1    2    0    0  0.00000000000E+00  0.00000000000E+00 -0.10046959368E+03  0.26730803720E+04  0.26711915948E+04 0.  0.
        3    1    3    3  502    0 -0.10443157761E+04 -0.58312160000E+03 -0.64495282666E+03  0.13588930787E+04  0.10100000352E+00 0. -1.
       -3    1    3    3    0  502  0.10443157761E+04  0.58312160000E+03  0.54448323298E+03  0.13141872933E+04  0.10100000352E+00 0.  1.
</event>
<event>
 5   0  0.2036578E-05  0.2470907E+04  0.7818609E-02  0.8413424E-01
       -1   -1    0    0    0  501  0.00000000000E+00  0.00000000000E+00  0.95758707720E+03  0.95758707721E+03  0.50400001928E-02 0. -1.
        1   -1    0    0  501    0  0.00000000000E+00  0.00000000000E+00 -0.15939488687E+04  0.15939488687E+04  0.50400001928E-02 0.  1.
    10030    2    1    2    0    0  0.00000000000E+00  0.00000000000E+00 -0.63636179150E+03  0.25515359459E+04  0.24709065854E+04 0.  0.
        2    1    3    3  502    0 -0.10665250692E+04 -0.51591520285E+03  0.43535954274E+02  0.11855545534E+04  0.25500000920E-02 0. -1.
       -2    1    3    3    0  502  0.10665250692E+04  0.51591520285E+03 -0.67989774578E+03  0.13659813925E+04  0.25500000920E-02 0.  1.
</event>
<event>
 5   0  0.5219468E-05  0.2420159E+04  0.7818609E-02  0.8431995E-01
        2   -1    0    0  501    0  0.00000000000E+00  0.00000000000E+00  0.14754933615E+04  0.14754933615E+04  0.25500000920E-02 0. -1.
       -2   -1    0    0    0  501  0.00000000000E+00  0.00000000000E+00 -0.99240858952E+03  0.99240858953E+03  0.25500000920E-02 0.  1.
    10030    2    1    2    0    0  0.00000000000E+00  0.00000000000E+00  0.48308477194E+03  0.24679019510E+04  0.24201589086E+04 0.  0.
        1    1    3    3  502    0 -0.11266682151E+03 -0.74672945736E+03 -0.72262230064E+03  0.10452184865E+04  0.50400001928E-02 0.  1.
       -1    1    3    3    0  502  0.11266682151E+03  0.74672945736E+03  0.12057070726E+04  0.14226834645E+04  0.50400001928E-02 0. -1.
</event>
<event>
 5   0  0.2063930E-05  0.2528247E+04  0.7818609E-02  0.8392991E-01
       -1   -1    0    0    0  501  0.00000000000E+00  0.00000000000E+00  0.13356288969E+04  0.13356288969E+04  0.50400001928E-02 0. -1.
        1   -1    0    0  501    0  0.00000000000E+00  0.00000000000E+00 -0.11964464964E+04  0.11964464964E+04  0.50400001928E-02 0.  1.
    10030    2    1    2    0    0  0.00000000000E+00  0.00000000000E+00  0.13918240043E+03  0.25320753933E+04  0.25282472302E+04 0.  0.
        3    1    3    3  502    0  0.67147258380E+03 -0.48310464175E+03 -0.88775522288E+03  0.12134145506E+04  0.10100000352E+00 0.  1.
       -3    1    3    3    0  502 -0.67147258380E+03  0.48310464175E+03  0.10269376233E+04  0.13186608427E+04  0.10100000352E+00 0. -1.
</event>
<event>
 5   0  0.2063930E-05  0.2486444E+04  0.7818609E-02  0.8407831E-01
        1   -1    0    0  501    0  0.00000000000E+00  0.00000000000E+00  0.14315855698E+04  0.14315855699E+04  0.50400001928E-02 0. -1.
       -1   -1    0    0    0  501  0.00000000000E+00  0.00000000000E+00 -0.10796431259E+04  0.10796431259E+04  0.50400001928E-02 0.  1.
    10030    2    1    2    0    0  0.00000000000E+00  0.00000000000E+00  0.35194244396E+03  0.25112286958E+04  0.24864444652E+04 0.  0.
        3    1    3    3  502    0  0.35324250395E+03  0.11846775125E+04  0.30904356232E+03  0.12742641048E+04  0.10100000352E+00 0. -1.
       -3    1    3    3    0  502 -0.35324250395E+03 -0.11846775125E+04  0.42898881643E+02  0.12369645910E+04  0.10100000352E+00 0.  1.
</event>
<event>
 5   0  0.2041718E-05  0.2451013E+04  0.7818609E-02  0.8420648E-01
        1   -1    0    0  501    0  0.00000000000E+00  0.00000000000E+00  0.14989956102E+04  0.14989956102E+04  0.50400001928E-02 0.  1.
       -1   -1    0    0    0  501  0.00000000000E+00  0.00000000000E+00 -0.10019153088E+04  0.10019153088E+04  0.50400001928E-02 0. -1.
    10030    2    1    2    0    0  0.00000000000E+00  0.00000000000E+00  0.49708030141E+03  0.25009109191E+04  0.24510133821E+04 0.  0.
        4    1    3    3  502    0 -0.57919271808E+03 -0.22330091057E+03 -0.82963471681E+03  0.10361577474E+04  0.12699999809E+01 0. -1.
       -4    1    3    3    0  502  0.57919271808E+03  0.22330091057E+03  0.13267150182E+04  0.14647531716E+04  0.12699999809E+01 0.  1.
</event>
<event>
 5   0  0.4959042E-05  0.1763478E+04  0.7818609E-02  0.8725966E-01
       -2   -1    0    0    0  501  0.00000000000E+00  0.00000000000E+00  0.18769230283E+04  0.18769230283E+04  0.25500000920E-02 0. -1.
        2   -1    0    0  501    0  0.00000000000E+00  0.00000000000E+00 -0.41422222307E+03  0.41422222308E+03  0.25500000920E-02 0.  1.
    10030    2    1    2    0    0  0.00000000000E+00  0.00000000000E+00  0.14627008052E+04  0.22911452514E+04  0.17634775069E+04 0.  0.
        4    1    3    3  502    0  0.80503763209E+03  0.10437510267E+03  0.11785574509E+04  0.14310761787E+04  0.12699999809E+01 0. -1.
       -4    1    3    3    0  502 -0.80503763209E+03 -0.10437510267E+03  0.28414335433E+03  0.86006907272E+03  0.12699999809E+01 0.  1.
</event>
<event>
 5   0  0.2063930E-05  0.2484588E+04  0.7818609E-02  0.8408497E-01
        1   -1    0    0  501    0  0.00000000000E+00  0.00000000000E+00  0.19162873974E+04  0.19162873974E+04  0.50400001928E-02 0. -1.
       -1   -1    0    0    0  501  0.00000000000E+00  0.00000000000E+00 -0.80535627777E+03  0.80535627779E+03  0.50400001928E-02 0.  1.
    10030    2    1    2    0    0  0.00000000000E+00  0.00000000000E+00  0.11109311197E+04  0.27216436752E+04  0.24845877610E+04 0.  0.
        3    1    3    3  502    0  0.67067090078E+03  0.11880315003E+03 -0.58259191038E+03  0.89628510522E+03  0.10100000352E+00 0.  1.
       -3    1    3    3    0  502 -0.67067090078E+03 -0.11880315003E+03  0.16935230300E+04  0.18253585700E+04  0.10100000352E+00 0. -1.
</event>
<event>
 5   0  0.5024070E-05  0.2274760E+04  0.7818609E-02  0.8487940E-01
       -2   -1    0    0    0  501  0.00000000000E+00  0.00000000000E+00  0.23489091061E+04  0.23489091061E+04  0.25500000920E-02 0.  1.
        2   -1    0    0  501    0  0.00000000000E+00  0.00000000000E+00 -0.55073808023E+03  0.55073808023E+03  0.25500000920E-02 0. -1.
    10030    2    1    2    0    0  0.00000000000E+00  0.00000000000E+00  0.17981710259E+04  0.28996471864E+04  0.22747603757E+04 0.  0.
        5    1    3    3  502    0 -0.66627234651E+02  0.12335945136E+03  0.23378394454E+04  0.23420444285E+04  0.46999998093E+01 0.  1.
       -5    1    3    3    0  502  0.66627234651E+02 -0.12335945136E+03 -0.53966841947E+03  0.55760275789E+03  0.46999998093E+01 0. -1.
</event>
<event>
 5   0  0.2063930E-05  0.2479111E+04  0.7818609E-02  0.8410465E-01
        1   -1    0    0  501    0  0.00000000000E+00  0.00000000000E+00  0.22619375996E+04  0.22619375996E+04  0.50400001928E-02 0. -1.
       -1   -1    0    0    0  501  0.00000000000E+00  0.00000000000E+00 -0.67928414503E+03  0.67928414505E+03  0.50400001928E-02 0.  1.
    10030    2    1    2    0    0  0.00000000000E+00  0.00000000000E+00  0.15826534545E+04  0.29412217446E+04  0.24791114122E+04 0.  0.
        3    1    3    3  502    0 -0.94716618213E+03 -0.12397855288E+03 -0.14585835836E+03  0.96631730247E+03  0.10100000352E+00 0.  1.
       -3    1    3    3    0  502  0.94716618213E+03  0.12397855288E+03  0.17285118129E+04  0.19749044422E+04  0.10100000352E+00 0. -1.
</event>
<event>
 5   0  0.5219468E-05  0.2464004E+04  0.7818609E-02  0.8415923E-01
        2   -1    0    0  501    0  0.00000000000E+00  0.00000000000E+00  0.10209372088E+04  0.10209372088E+04  0.25500000920E-02 0.  1.
       -2   -1    0    0    0  501  0.00000000000E+00  0.00000000000E+00 -0.14867012727E+04  0.14867012727E+04  0.25500000920E-02 0. -1.
    10030    2    1    2    0    0  0.00000000000E+00  0.00000000000E+00 -0.46576406392E+03  0.25076384814E+04  0.24640037724E+04 0.  0.
        1    1    3    3  502    0  0.10393287127E+04  0.35169722592E+03  0.33733792511E+03  0.11479076564E+04  0.50400001928E-02 0.  1.
       -1    1    3    3    0  502 -0.10393287127E+04 -0.35169722592E+03 -0.80310198903E+03  0.13597308251E+04  0.50400001928E-02 0. -1.
</event>
<event>
 5   0  0.2063930E-05  0.2511501E+04  0.7818609E-02  0.8398900E-01
       -1   -1    0    0    0  501  0.00000000000E+00  0.00000000000E+00  0.71190826824E+03  0.71190826826E+03  0.50400001928E-02 0.  1.
        1   -1    0    0  501    0  0.00000000000E+00  0.00000000000E+00 -0.22150452802E+04  0.22150452802E+04  0.50400001928E-02 0. -1.
    10030    2    1    2    0    0  0.00000000000E+00  0.00000000000E+00 -0.15031370120E+04  0.29269535485E+04  0.25115007860E+04 0.  0.
        3    1    3    3  502    0 -0.88302652084E+03  0.46395879008E+03  0.13745338173E+03  0.10069195786E+04  0.10100000352E+00 0.  1.
       -3    1    3    3    0  502  0.88302652084E+03 -0.46395879008E+03 -0.16405903937E+04  0.19200339699E+04  0.10100000352E+00 0. -1.
</event>
<event>
 5   0  0.5024070E-05  0.2490754E+04  0.7818609E-02  0.8406287E-01
       -2   -1    0    0    0  501  0.00000000000E+00  0.00000000000E+00  0.79324206433E+03  0.79324206433E+03  0.25500000920E-02 0. -1.
        2   -1    0    0  501    0  0.00000000000E+00  0.00000000000E+00 -0.19552220423E+04  0.19552220423E+04  0.25500000920E-02 0.  1.
    10030    2    1    2    0    0  0.00000000000E+00  0.00000000000E+00 -0.11619799779E+04  0.27484641066E+04  0.24907543990E+04 0.  0.
        5    1    3    3  502    0  0.74158644847E+03  0.96755819324E+03 -0.30004350792E+03  0.12554551025E+04  0.46999998093E+01 0. -1.
       -5    1    3    3    0  502 -0.74158644847E+03 -0.96755819324E+03 -0.86193647001E+03  0.14930090041E+04  0.46999998093E+01 0.  1.
</event>
<event>
 5   0  0.4959347E-05  0.2417672E+04  0.7818609E-02  0.8432917E-01
        2   -1    0    0  501    0  0.00000000000E+00  0.00000000000E+00  0.20040352865E+04  0.20040352865E+04  0.25500000920E-02 0. -1.
       -2   -1    0    0    0  501  0.00000000000E+00  0.00000000000E+00 -0.72917092769E+03  0.72917092769E+03  0.25500000920E-02 0.  1.
    10030    2    1    2    0    0  0.00000000000E+00  0.00000000000E+00  0.12748643588E+04  0.27332062142E+04  0.24176718297E+04 0.  0.
        3    1    3    3  502    0  0.12081817419E+04  0.85217899743E+01  0.59352353103E+03  0.13461225555E+04  0.10100000352E+00 0.  1.
       -3    1    3    3    0  502 -0.12081817419E+04 -0.85217899743E+01  0.68134082780E+03  0.13870836587E+04  0.10100000352E+00 0. -1.
</event>
<event>
 5   0  0.4959347E-05  0.2437346E+04  0.7818609E-02  0.8425653E-01
       -2   -1    0    0    0  501  0.00000000000E+00  0.00000000000E+00  0.88099943040E+03  0.88099943040E+03  0.25500000920E-02 0.  1.
        2   -1    0    0  501    0  0.00000000000E+00  0.00000000000E+00 -0.16857720605E+04  0.16857720605E+04  0.25500000920E-02 0. -1.
    10030    2    1    2    0    0  0.00000000000E+00  0.00000000000E+00 -0.80477263007E+03  0.25667714909E+04  0.24373462824E+04 0.  0.
        3    1    3    3  502    0  0.16082022572E+03  0.43347224673E+03  0.78505339190E+03  0.91108186900E+03  0.10100000352E+00 0.  1.
       -3    1    3    3    0  502 -0.16082022572E+03 -0.43347224673E+03 -0.15898260220E+04  0.16556896219E+04  0.10100000352E+00 0. -1.
</event>
<event>
 5   0  0.2081874E-05  0.2483623E+04  0.7818609E-02  0.8408843E-01
        1   -1    0    0  501    0  0.00000000000E+00  0.00000000000E+00  0.23519335458E+04  0.23519335458E+04  0.50400001928E-02 0.  1.
       -1   -1    0    0    0  501  0.00000000000E+00  0.00000000000E+00 -0.65567169595E+03  0.65567169597E+03  0.50400001928E-02 0. -1.
    10030    2    1    2    0    0  0.00000000000E+00  0.00000000000E+00  0.16962618499E+04  0.30076052418E+04  0.24836233666E+04 0.  0.
        1    1    3    3  502    0 -0.54886982888E+03  0.46650194079E+03 -0.37681905650E+03  0.81294203433E+03  0.50400001928E-02 0. -1.
       -1    1    3    3    0  502  0.54886982888E+03 -0.46650194079E+03  0.20730809064E+04  0.21946632075E+04  0.50400001928E-02 0.  1.
</event>
<event>
 5   0  0.2041718E-05  0.2467970E+04  0.7818609E-02  0.8414486E-01
       -1   -1    0    0    0  501  0.00000000000E+00  0.00000000000E+00  0.65882149021E+03  0.65882149023E+03  0.50400001928E-02 0. -1.
        1   -1    0    0  501    0  0.00000000000E+00  0.00000000000E+00 -0.23112761922E+04  0.23112761922E+04  0.50400001928E-02 0.  1.
    10030    2    1    2    0    0  0.00000000000E+00  0.00000000000E+00 -0.16524547020E+04  0.29700976824E+04  0.24679695503E+04 0.  0.
        4    1    3    3  502    0  0.55339683731E+03  0.85346314973E+03  0.14532042011E+02  0.10172807875E+04  0.12699999809E+01 0. -1.
       -4    1    3    3    0  502 -0.55339683731E+03 -0.85346314973E+03 -0.16669867440E+04  0.19528168949E+04  0.12699999809E+01 0.  1.
</event>
<event>
 5   0  0.2081874E-05  0.2485116E+04  0.7818609E-02  0.8408307E-01
        1   -1    0    0  501    0  0.00000000000E+00  0.00000000000E+00  0.10618210072E+04  0.10618210072E+04  0.50400001928E-02 0. -1.
       -1   -1    0    0    0  501  0.00000000000E+00  0.00000000000E+00 -0.14540593882E+04  0.14540593882E+04  0.50400001928E-02 0.  1.
    10030    2    1    2    0    0  0.00000000000E+00  0.00000000000E+00 -0.39223838104E+03  0.25158803954E+04  0.24851163387E+04 0.  0.
        1    1    3    3  502    0  0.73480038724E+03  0.36784627106E+03  0.74746413083E+03  0.11108308220E+04  0.50400001928E-02 0. -1.
       -1    1    3    3    0  502 -0.73480038724E+03 -0.36784627106E+03 -0.11397025119E+04  0.14050495734E+04  0.50400001928E-02 0.  1.
</event>
<event>
 5   0  0.1692125E-05  0.2444128E+04  0.7818609E-02  0.8423165E-01
        3   -1    0    0  501    0  0.00000000000E+00  0.00000000000E+00  0.24811975742E+04  0.24811975763E+04  0.10100000352E+00 0.  1.
       -3   -1    0    0    0  501  0.00000000000E+00  0.00000000000E+00 -0.60190310123E+03  0.60190310970E+03  0.10100000352E+00 0. -1.
    10030    2    1    2    0    0  0.00000000000E+00  0.00000000000E+00  0.18792944730E+04  0.30831006860E+04  0.24441280907E+04 0.  0.
        1    1    3    3  502    0 -0.68378012101E+02  0.31029532795E+03 -0.54888590104E+03  0.63421957985E+03  0.50400001928E-02 0. -1.
       -1    1    3    3    0  502  0.68378012101E+02 -0.31029532795E+03  0.24281803740E+04  0.24488811061E+04  0.50400001928E-02 0.  1.
</event>
<event>
 5   0  0.2066170E-05  0.2460462E+04  0.7818609E-02  0.8417208E-01
       -1   -1    0    0    0  501  0.00000000000E+00  0.00000000000E+00  0.11690331155E+04  0.11690331156E+04  0.50400001928E-02 0.  1.
        1   -1    0    0  501    0  0.00000000000E+00  0.00000000000E+00 -0.12946320441E+04  0.12946320441E+04  0.50400001928E-02 0. -1.
    10030    2    1    2    0    0  0.00000000000E+00  0.00000000000E+00 -0.12559892852E+03  0.24636651596E+04  0.24604615274E+04 0.  0.
        5    1    3    3  502    0 -0.54077962455E+03  0.10437847964E+04 -0.42592346763E+03  0.12503448300E+04  0.46999998093E+01 0. -1.
       -5    1    3    3    0  502  0.54077962455E+03 -0.10437847964E+04  0.30032453912E+03  0.12133203297E+04  0.46999998093E+01 0.  1.
</event>
<event>
 5   0  0.2041718E-05  0.2481361E+04  0.7818609E-02  0.8409656E-01
        1   -1    0    0  501    0  0.00000000000E+00  0.00000000000E+00  0.11794659272E+04  0.11794659272E+04  0.50400001928E-02 0.  1.
       -1   -1    0    0    0  501  0.00000000000E+00  0.00000000000E+00 -0.13050724724E+04  0.13050724724E+04  0.50400001928E-02 0. -1.
    10030    2    1    2    0    0  0.00000000000E+00  0.00000000000E+00 -0.12560654525E+03  0.24845383996E+04  0.24813613310E+04 0.  0.
        4    1    3    3  502    0  0.11710378122E+04  0.36868008688E+03  0.11640168272E+03  0.12332094423E+04  0.12699999809E+01 0.  1.
       -4    1    3    3    0  502 -0.11710378122E+04 -0.36868008688E+03 -0.24200822796E+03  0.12513289573E+04  0.12699999809E+01 0. -1.
</event>
<event>
 5   0  0.2036578E-05  0.2487440E+04  0.7818609E-02  0.8407474E-01
        1   -1    0    0  501    0  0.00000000000E+00  0.00000000000E+00  0.13466149562E+04  0.13466149562E+04  0.50400001928E-02 0.  1.
       -1   -1    0    0    0  501  0.00000000000E+00  0.00000000000E+00 -0.11486870640E+04  0.11486870640E+04  0.50400001928E-02 0. -1.
    10030    2    1    2    0    0  0.00000000000E+00  0.00000000000E+00  0.19792789222E+03  0.24953020202E+04  0.24874397925E+04 0.  0.
        2    1    3    3  502    0  0.42848926950E+03  0.11300758827E+04 -0.19550197685E+03  0.12242939098E+04  0.25500000920E-02 0. -1.
       -2    1    3    3    0  502 -0.42848926950E+03 -0.11300758827E+04  0.39342986907E+03  0.12710081103E+04  0.25500000920E-02 0.  1.
</event>
<event>
 5   0  0.4995256E-05  0.2389483E+04  0.7818609E-02  0.8443451E-01
        2   -1    0    0  501    0  0.00000000000E+00  0.00000000000E+00  0.13739436398E+04  0.13739436398E+04  0.25500000920E-02 0. -1.
       -2   -1    0    0    0  501  0.00000000000E+00  0.00000000000E+00 -0.10389125933E+04  0.10389125933E+04  0.25500000920E-02 0.  1.
    10030    2    1    2    0    0  0.00000000000E+00  0.00000000000E+00  0.33503104653E+03  0.24128562330E+04  0.23894830820E+04 0.  0.
        2    1    3    3  502    0  0.11016859922E+04 -0.44879326264E+03  0.27941433225E+03  0.12219655425E+04  0.25500000920E-02 0.  1.
       -2    1    3    3    0  502 -0.11016859922E+04  0.44879326264E+03  0.55616714282E+02  0.11908906906E+04  0.25500000920E-02 0. -1.
</event>
<event>
 5   0  0.2066170E-05  0.2415888E+04  0.7818609E-02  0.8433579E-01
       -1   -1    0    0    0  501  0.00000000000E+00  0.00000000000E+00  0.81266052821E+03  0.81266052822E+03  0.50400001928E-02 0.  1.
        1   -1    0    0  501    0  0.00000000000E+00  0.00000000000E+00 -0.17954964156E+04  0.17954964156E+04  0.50400001928E-02 0. -1.
    10030    2    1    2    0    0  0.00000000000E+00  0.00000000000E+00 -0.98283588736E+03  0.26081569438E+04  0.24158882967E+04 0.  0.
        5    1    3    3  502    0 -0.35031701447E+03  0.10220125177E+04 -0.10746690910E+04  0.15238659200E+04  0.46999998093E+01 0. -1.
       -5    1    3    3    0  502  0.35031701447E+03 -0.10220125177E+04  0.91833203624E+02  0.10842910238E+04  0.46999998093E+01 0.  1.
</event>
<event>
 5   0  0.2063930E-05  0.2490674E+04  0.7818609E-02  0.8406316E-01
       -1   -1    0    0    0  501  0.00000000000E+00  0.00000000000E+00  0.12977676137E+04  0.12977676137E+04  0.50400001928E-02 0.  1.
        1   -1    0    0  501    0  0.00000000000E+00  0.00000000000E+00 -0.11950243278E+04  0.11950243278E+04  0.50400001928E-02 0. -1.
    10030    2    1    2    0    0  0.00000000000E+00  0.00000000000E+00  0.10274328583E+03  0.24927919415E+04  0.24906737002E+04 0.  0.
        3    1    3    3  502    0  0.24955973692E+03  0.11606420983E+04 -0.32510477305E+03  0.12308790624E+04  0.10100000352E+00 0. -1.
       -3    1    3    3    0  502 -0.24955973692E+03 -0.11606420983E+04  0.42784805889E+03  0.12619128791E+04  0.10100000352E+00 0.  1.
</event>
<event>
 5   0  0.4995256E-05  0.2522466E+04  0.7818609E-02  0.8395025E-01
        2   -1    0    0  501    0  0.00000000000E+00  0.00000000000E+00  0.16386440228E+04  0.16386440228E+04  0.25500000920E-02 0.  1.
       -2   -1    0    0    0  501  0.00000000000E+00  0.00000000000E+00 -0.97074681448E+03  0.97074681448E+03  0.25500000920E-02 0. -1.
    10030    2    1    2    0    0  0.00000000000E+00  0.00000000000E+00  0.66789720833E+03  0.26093908373E+04  0.25224658295E+04 0.  0.
        2    1    3    3  502    0  0.41400867071E+03  0.88770703666E+03  0.11558607029E+04  0.15150712613E+04  0.25500000920E-02 0.  1.
       -2    1    3    3    0  502 -0.41400867071E+03 -0.88770703666E+03 -0.48796349456E+03  0.10943195760E+04  0.25500000920E-02 0. -1.
</event>
<event>
 5   0  0.2036578E-05  0.2554817E+04  0.7818609E-02  0.8383713E-01
        1   -1    0    0  501    0  0.00000000000E+00  0.00000000000E+00  0.15414715835E+04  0.15414715835E+04  0.50400001928E-02 0.  1.
       -1   -1    0    0    0  501  0.00000000000E+00  0.00000000000E+00 -0.10585812704E+04  0.10585812704E+04  0.50400001928E-02 0. -1.
    10030    2    1    2    0    0  0.00000000000E+00  0.00000000000E+00  0.48289031315E+03  0.26000528540E+04  0.25548173690E+04 0.  0.
        2    1    3    3  502    0  0.80601921205E+03  0.80290526920E+03  0.83263430957E+03  0.14098240085E+04  0.25500000920E-02 0.  1.
       -2    1    3    3    0  502 -0.80601921205E+03 -0.80290526920E+03 -0.34974399642E+03  0.11902288454E+04  0.25500000920E-02 0. -1.
</event>
<event>
 5   0  0.2066170E-05  0.2522537E+04  0.7818609E-02  0.8395000E-01
        1   -1    0    0  501    0  0.00000000000E+00  0.00000000000E+00  0.16117188805E+04  0.16117188805E+04  0.50400001928E-02 0.  1.
       -1   -1    0    0    0  501  0.00000000000E+00  0.00000000000E+00 -0.98701994875E+03  0.98701994876E+03  0.50400001928E-02 0. -1.
    10030    2    1    2    0    0  0.00000000000E+00  0.00000000000E+00  0.62469893174E+03  0.25987388293E+04  0.25225373629E+04 0.  0.
        5    1    3    3  502    0  0.94524108878E+03 -0.84649763382E+02 -0.54348658227E+03  0.10936389045E+04  0.46999998093E+01 0. -1.
       -5    1    3    3    0  502 -0.94524108878E+03  0.84649763382E+02  0.11681855140E+04  0.15050999247E+04  0.46999998093E+01 0.  1.
</event>
<event>
 5   0  0.5219468E-05  0.2514788E+04  0.7818609E-02  0.8397736E-01
       -2   -1    0    0    0  501  0.00000000000E+00  0.00000000000E+00  0.11162223175E+04  0.11162223175E+04  0.25500000920E-02 0. -1.
        2   -1    0    0  501    0  0.00000000000E+00  0.00000000000E+00 -0.14164201168E+04  0.14164201168E+04  0.25500000920E-02 0.  1.
    10030    2    1    2    0    0  0.00000000000E+00  0.00000000000E+00 -0.30019779929E+03  0.25326424343E+04  0.25147880589E+04 0.  0.
        1    1    3    3  502    0  0.28997673941E+03  0.12003039406E+04  0.88699904029E+02  0.12380160469E+04  0.50400001928E-02 0. -1.
       -1    1    3    3    0  502 -0.28997673941E+03 -0.12003039406E+04 -0.38889770332E+03  0.12946263874E+04  0.50400001928E-02 0.  1.
</event>
<event>
 5   0  0.4995256E-05  0.2483363E+04  0.7818609E-02  0.8408936E-01
       -2   -1    0    0    0  501  0.00000000000E+00  0.00000000000E+00  0.12108139533E+04  0.12108139533E+04  0.25500000920E-02 0.  1.
        2   -1    0    0  501    0  0.00000000000E+00  0.00000000000E+00 -0.12733363834E+04  0.12733363834E+04  0.25500000920E-02 0. -1.
    10030    2    1    2    0    0  0.00000000000E+00  0.00000000000E+00 -0.62522430125E+02  0.24841503367E+04  0.24833634130E+04 0.  0.
        2    1    3    3  502    0  0.39066225863E+03 -0.26327394451E+03 -0.11804695868E+04  0.12709990620E+04  0.25500000920E-02 0. -1.
       -2    1    3    3    0  502 -0.39066225863E+03  0.26327394451E+03  0.11179471567E+04  0.12131512747E+04  0.25500000920E-02 0.  1.
</event>
<event>
 5   0  0.4959042E-05  0.2598043E+04  0.7818609E-02  0.8368866E-01
       -2   -1    0    0    0  501  0.00000000000E+00  0.00000000000E+00  0.11278323352E+04  0.11278323352E+04  0.25500000920E-02 0.  1.
        2   -1    0    0  501    0  0.00000000000E+00  0.00000000000E+00 -0.14961950328E+04  0.14961950328E+04  0.25500000920E-02 0. -1.
    10030    2    1    2    0    0  0.00000000000E+00  0.00000000000E+00 -0.36836269758E+03  0.26240273680E+04  0.25980432158E+04 0.  0.
        4    1    3    3  502    0  0.10929560957E+04  0.48738873222E+03 -0.69456168725E+03  0.13836612135E+04  0.12699999809E+01 0. -1.
       -4    1    3    3    0  502 -0.10929560957E+04 -0.48738873222E+03  0.32619898967E+03  0.12403661545E+04  0.12699999809E+01 0.  1.
</event>
<event>
 5   0  0.5024070E-05  0.2440410E+04  0.7818609E-02  0.8424528E-01
        2   -1    0    0  501    0  0.00000000000E+00  0.00000000000E+00  0.13937845192E+04  0.13937845192E+04  0.25500000920E-02 0. -1.
       -2   -1    0    0    0  501  0.00000000000E+00  0.00000000000E+00 -0.10682430035E+04  0.10682430035E+04  0.25500000920E-02 0.  1.
    10030    2    1    2    0    0  0.00000000000E+00  0.00000000000E+00  0.32554151576E+03  0.24620275227E+04  0.24404102615E+04 0.  0.
        5    1    3    3  502    0 -0.88682008384E+03 -0.34243332821E+03 -0.60896807682E+03  0.11289706170E+04  0.46999998093E+01 0. -1.
       -5    1    3    3    0  502  0.88682008384E+03  0.34243332821E+03  0.93450959259E+03  0.13330569058E+04  0.46999998093E+01 0.  1.
</event>
<event>
 5   0  0.4959042E-05  0.2515538E+04  0.7818609E-02  0.8397471E-01
       -2   -1    0    0    0  501  0.00000000000E+00  0.00000000000E+00  0.95028556921E+03  0.95028556921E+03  0.25500000920E-02 0.  1.
        2   -1    0    0  501    0  0.00000000000E+00  0.00000000000E+00 -0.16647451066E+04  0.16647451066E+04  0.25500000920E-02 0. -1.
    10030    2    1    2    0    0  0.00000000000E+00  0.00000000000E+00 -0.71445953740E+03  0.26150306758E+04  0.25155383131E+04 0.  0.
        4    1    3    3  502    0 -0.35246541807E+03 -0.91973404678E+03  0.45590858785E+03  0.10853556289E+04  0.12699999809E+01 0.  1.
       -4    1    3    3    0  502  0.35246541807E+03  0.91973404678E+03 -0.11703681253E+04  0.15296750469E+04  0.12699999809E+01 0. -1.
</event>
<event>
 5   0  0.5219468E-05  0.2467088E+04  0.7818609E-02  0.8414805E-01
        2   -1    0    0  501    0  0.00000000000E+00  0.00000000000E+00  0.73079062334E+03  0.73079062335E+03  0.25500000920E-02 0. -1.
       -2   -1    0    0    0  501  0.00000000000E+00  0.00000000000E+00 -0.20821701494E+04  0.20821701494E+04  0.25500000920E-02 0.  1.
    10030    2    1    2    0    0  0.00000000000E+00  0.00000000000E+00 -0.13513795261E+04  0.28129607728E+04  0.24670876931E+04 0.  0.
        1    1    3    3  502    0 -0.53812783931E+03  0.46479492032E+03  0.47359870465E+03  0.85434865393E+03  0.50400001928E-02 0. -1.
       -1    1    3    3    0  502  0.53812783931E+03 -0.46479492032E+03 -0.18249782307E+04  0.19586121188E+04  0.50400001928E-02 0.  1.
</event>
<event>
 5   0  0.2041718E-05  0.2433751E+04  0.7818609E-02  0.8426975E-01
        1   -1    0    0  501    0  0.00000000000E+00  0.00000000000E+00  0.10804011136E+04  0.10804011136E+04  0.50400001928E-02 0.  1.
       -1   -1    0    0    0  501  0.00000000000E+00  0.00000000000E+00 -0.13705885526E+04  0.13705885526E+04  0.50400001928E-02 0. -1.
    10030    2    1    2    0    0  0.00000000000E+00  0.00000000000E+00 -0.29018743895E+03  0.24509896662E+04  0.24337505201E+04 0.  0.
        4    1    3    3  502    0 -0.94383163784E+03  0.58544944463E+03  0.35563494887E+03  0.11662105481E+04  0.12699999809E+01 0.  1.
       -4    1    3    3    0  502  0.94383163784E+03 -0.58544944463E+03 -0.64582238782E+03  0.12847791181E+04  0.12699999809E+01 0. -1.
</event>
<event>
 5   0  0.4995256E-05  0.2450519E+04  0.7818609E-02  0.8420829E-01
       -2   -1    0    0    0  501  0.00000000000E+00  0.00000000000E+00  0.91278440083E+03  0.91278440083E+03  0.25500000920E-02 0. -1.
        2   -1    0    0  501    0  0.00000000000E+00  0.00000000000E+00 -0.16447041553E+04  0.16447041553E+04  0.25500000920E-02 0.  1.
    10030    2    1    2    0    0  0.00000000000E+00  0.00000000000E+00 -0.73191975444E+03  0.25574885561E+04  0.24505185548E+04 0.  0.
        2    1    3    3  502    0 -0.56545559831E+03  0.10869726243E+04 -0.36253371123E+03  0.12777637542E+04  0.25500000920E-02 0. -1.
       -2    1    3    3    0  502  0.56545559831E+03 -0.10869726243E+04 -0.36938604321E+03  0.12797248019E+04  0.25500000920E-02 0.  1.
</event>
<event>
 5   0  0.4959347E-05  0.2569914E+04  0.7818609E-02  0.8378493E-01
       -2   -1    0    0    0  501  0.00000000000E+00  0.00000000000E+00  0.25073571104E+04  0.25073571104E+04  0.25500000920E-02 0. -1.
        2   -1    0    0  501    0  0.00000000000E+00  0.00000000000E+00 -0.65850782734E+03  0.65850782735E+03  0.25500000920E-02 0.  1.
    10030    2    1    2    0    0  0.00000000000E+00  0.00000000000E+00  0.18488492831E+04  0.31658649378E+04  0.25699138376E+04 0.  0.
        3    1    3    3  502    0  0.10905975337E+04  0.59636958777E+03  0.13256040098E+04  0.18172192126E+04  0.10100000352E+00 0. -1.
       -3    1    3    3    0  502 -0.10905975337E+04 -0.59636958777E+03  0.52324527327E+03  0.13486457251E+04  0.10100000352E+00 0.  1.
</event>
<event>
 5   0  0.1692125E-05  0.2485858E+04  0.7818609E-02  0.8408041E-01
        4   -1    0    0  501    0  0.00000000000E+00  0.00000000000E+00  0.93203720479E+03  0.93203807005E+03  0.12699999809E+01 0. -1.
       -4   -1    0    0    0  501  0.00000000000E+00  0.00000000000E+00 -0.16575210093E+04  0.16575214959E+04  0.12699999809E+01 0.  1.
    10030    2    1    2    0    0  0.00000000000E+00  0.00000000000E+00 -0.72548380455E+03  0.25895595659E+04  0.24858584020E+04 0.  0.
        5    1    3    3  502    0 -0.26090352692E+03  0.88643449426E+03  0.50320843803E+03  0.10521775445E+04  0.46999998093E+01 0. -1.
       -5    1    3    3    0  502  0.26090352692E+03 -0.88643449426E+03 -0.12286922426E+04  0.15373820215E+04  0.46999998093E+01 0.  1.
</event>
<event>
 5   0  0.5219468E-05  0.1882800E+04  0.7818609E-02  0.8663465E-01
        2   -1    0    0  501    0  0.00000000000E+00  0.00000000000E+00  0.12599430930E+04  0.12599430930E+04  0.25500000920E-02 0.  1.
       -2   -1    0    0    0  501  0.00000000000E+00  0.00000000000E+00 -0.70339232288E+03  0.70339232289E+03  0.25500000920E-02 0. -1.
    10030    2    1    2    0    0  0.00000000000E+00  0.00000000000E+00  0.55655077013E+03  0.19633354159E+04  0.18828003600E+04 0.  0.
        1    1    3    3  502    0 -0.22255757015E+03  0.41104258071E+03  0.11303860745E+04  0.12232172958E+04  0.50400001928E-02 0.  1.
       -1    1    3    3    0  502  0.22255757015E+03 -0.41104258071E+03 -0.57383530437E+03  0.74011812014E+03  0.50400001928E-02 0. -1.
</event>
<event>
 5   0  0.2081874E-05  0.1794109E+04  0.7818609E-02  0.8709439E-01
        1   -1    0    0  501    0  0.00000000000E+00  0.00000000000E+00  0.16471120318E+04  0.16471120318E+04  0.50400001928E-02 0.  1.
       -1   -1    0    0    0  501  0.00000000000E+00  0.00000000000E+00 -0.48855615078E+03  0.48855615080E+03  0.50400001928E-02 0. -1.
    10030    2    1    2    0    0  0.00000000000E+00  0.00000000000E+00  0.11585558810E+04  0.21356681826E+04  0.17941089311E+04 0.  0.
        1    1    3    3  502    0  0.42983783055E+03  0.60555780861E+03  0.11783184274E+04  0.13928011835E+04  0.50400001928E-02 0.  1.
       -1    1    3    3    0  502 -0.42983783055E+03 -0.60555780861E+03 -0.19762546442E+02  0.74286699914E+03  0.50400001928E-02 0. -1.
</event>
<event>
 5   0  0.4995256E-05  0.2467076E+04  0.7818609E-02  0.8414810E-01
       -2   -1    0    0    0  501  0.00000000000E+00  0.00000000000E+00  0.72804109080E+03  0.72804109081E+03  0.25500000920E-02 0.  1.
        2   -1    0    0  501    0  0.00000000000E+00  0.00000000000E+00 -0.20900136874E+04  0.20900136874E+04  0.25500000920E-02 0. -1.
    10030    2    1    2    0    0  0.00000000000E+00  0.00000000000E+00 -0.13619725966E+04  0.28180547782E+04  0.24670758763E+04 0.  0.
        2    1    3    3  502    0 -0.56128686799E+03  0.83379445403E+03 -0.14978134690E+04  0.18038019092E+04  0.25500000920E-02 0. -1.
       -2    1    3    3    0  502  0.56128686799E+03 -0.83379445403E+03  0.13584087235E+03  0.10142528690E+04  0.25500000920E-02 0.  1.
</event>
<event>
 5   0  0.2066170E-05  0.2757815E+04  0.7818609E-02  0.8316486E-01
       -1   -1    0    0    0  501  0.00000000000E+00  0.00000000000E+00  0.13167476234E+04  0.13167476234E+04  0.50400001928E-02 0. -1.
        1   -1    0    0  501    0  0.00000000000E+00  0.00000000000E+00 -0.14440019026E+04  0.14440019026E+04  0.50400001928E-02 0.  1.
    10030    2    1    2    0    0  0.00000000000E+00  0.00000000000E+00 -0.12725427919E+03  0.27607495259E+04  0.27578151304E+04 0.  0.
        5    1    3    3  502    0 -0.47352285806E+03 -0.11550006412E+04  0.52275512411E+03  0.13533459972E+04  0.46999998093E+01 0. -1.
       -5    1    3    3    0  502  0.47352285806E+03  0.11550006412E+04 -0.65000940330E+03  0.14074035287E+04  0.46999998093E+01 0.  1.
</event>
<event>
 5   0  0.5024070E-05  0.2498008E+04  0.7818609E-02  0.8403695E-01
       -2   -1    0    0    0  501  0.00000000000E+00  0.00000000000E+00  0.81781034172E+03  0.81781034173E+03  0.25500000920E-02 0.  1.
        2   -1    0    0  501    0  0.00000000000E+00  0.00000000000E+00 -0.19075467452E+04  0.19075467452E+04  0.25500000920E-02 0. -1.
    10030    2    1    2    0    0  0.00000000000E+00  0.00000000000E+00 -0.10897364035E+04  0.27253570869E+04  0.24980083711E+04 0.  0.
        5    1    3    3  502    0  0.31849420029E+03  0.58102811772E+03  0.61024361575E+03  0.90080607778E+03  0.46999998093E+01 0.  1.
       -5    1    3    3    0  502 -0.31849420029E+03 -0.58102811772E+03 -0.16999800192E+04  0.18245510092E+04  0.46999998093E+01 0. -1.
</event>
<event>
 5   0  0.2041718E-05  0.2497519E+04  0.7818609E-02  0.8403870E-01
        1   -1    0    0  501    0  0.00000000000E+00  0.00000000000E+00  0.17400270760E+04  0.17400270760E+04  0.50400001928E-02 0.  1.
       -1   -1    0    0    0  501  0.00000000000E+00  0.00000000000E+00 -0.89619280750E+03  0.89619280752E+03  0.50400001928E-02 0. -1.
    10030    2    1    2    0    0  0.00000000000E+00  0.00000000000E+00  0.84383426846E+03  0.26362198835E+04  0.24975185688E+04 0.  0.
        4    1    3    3  502    0  0.20087172273E+03 -0.12173490044E+04  0.21857896484E+03  0.12530229145E+04  0.12699999809E+01 0. -1.
       -4    1    3    3    0  502 -0.20087172273E+03  0.12173490044E+04  0.62525530362E+03  0.13831969690E+04  0.12699999809E+01 0.  1.
</event>
<event>
 5   0  0.4959042E-05  0.2443384E+04  0.7818609E-02  0.8423437E-01
        2   -1    0    0  501    0  0.00000000000E+00  0.00000000000E+00  0.15711124528E+04  0.15711124528E+04  0.25500000920E-02 0. -1.
       -2   -1    0    0    0  501  0.00000000000E+00  0.00000000000E+00 -0.94998416054E+03  0.94998416055E+03  0.25500000920E-02 0.  1.
    10030    2    1    2    0    0  0.00000000000E+00  0.00000000000E+00  0.62112829227E+03  0.25210966134E+04  0.24433844925E+04 0.  0.
        4    1    3    3  502    0  0.38356278750E+03 -0.39909219568E+03  0.14343014510E+04  0.15374060159E+04  0.12699999809E+01 0. -1.
       -4    1    3    3    0  502 -0.38356278750E+03  0.39909219568E+03 -0.81317315869E+03  0.98369059746E+03  0.12699999809E+01 0.  1.
</event>
<event>
 5   0  0.2081874E-05  0.2514494E+04  0.7818609E-02  0.8397840E-01
        1   -1    0    0  501    0  0.00000000000E+00  0.00000000000E+00  0.81890271166E+03  0.81890271167E+03  0.50400001928E-02 0.  1.
       -1   -1    0    0    0  501  0.00000000000E+00  0.00000000000E+00 -0.19302295718E+04  0.19302295718E+04  0.50400001928E-02 0. -1.
    10030    2    1    2    0    0  0.00000000000E+00  0.00000000000E+00 -0.11113268601E+04  0.27491322835E+04  0.25144941682E+04 0.  0.
        1    1    3    3  502    0  0.69525770702E+03  0.24715104035E+03  0.55726565853E+03  0.92466855149E+03  0.50400001928E-02 0.  1.
       -1    1    3    3    0  502 -0.69525770702E+03 -0.24715104035E+03 -0.16685925187E+04  0.18244637320E+04  0.50400001928E-02 0. -1.
</event>
<event>
 5   0  0.5219468E-05  0.2470384E+04  0.7818609E-02  0.8413613E-01
        2   -1    0    0  501    0  0.00000000000E+00  0.00000000000E+00  0.13155004636E+04  0.13155004636E+04  0.25500000920E-02 0.  1.
       -2   -1    0    0    0  501  0.00000000000E+00  0.00000000000E+00 -0.11597863248E+04  0.11597863248E+04  0.25500000920E-02 0. -1.
    10030    2    1    2    0    0  0.00000000000E+00  0.00000000000E+00  0.15571413886E+03  0.24752867884E+04  0.24703841385E+04 0.  0.
        1    1    3    3  502    0  0.78231478939E+03  0.66211763146E+03 -0.61291901437E+03  0.11941883879E+04  0.50400001928E-02 0.  1.
       -1    1    3    3    0  502 -0.78231478939E+03 -0.66211763146E+03  0.76863315323E+03  0.12810984005E+04  0.50400001928E-02 0. -1.
</event>
<event>
 5   0  0.2041718E-05  0.2110062E+04  0.7818609E-02  0.8556824E-01
        1   -1    0    0  501    0  0.00000000000E+00  0.00000000000E+00  0.12466641151E+04  0.12466641151E+04  0.50400001928E-02 0.  1.
       -1   -1    0    0    0  501  0.00000000000E+00  0.00000000000E+00 -0.89285551236E+03  0.89285551237E+03  0.50400001928E-02 0. -1.
    10030    2    1    2    0    0  0.00000000000E+00  0.00000000000E+00  0.35380860270E+03  0.21395196274E+04  0.21100624893E+04 0.  0.
        4    1    3    3  502    0 -0.14766605593E+03  0.10077052633E+04  0.45609188523E+03  0.11159285741E+04  0.12699999809E+01 0. -1.
       -4    1    3    3    0  502  0.14766605593E+03 -0.10077052633E+04 -0.10228328253E+03  0.10235910534E+04  0.12699999809E+01 0.  1.
</event>
<event>
 5   0  0.4959347E-05  0.2541968E+04  0.7818609E-02  0.8388185E-01
        2   -1    0    0  501    0  0.00000000000E+00  0.00000000000E+00  0.18834155708E+04  0.18834155708E+04  0.25500000920E-02 0. -1.
       -2   -1    0    0    0  501  0.00000000000E+00  0.00000000000E+00 -0.85769709577E+03  0.85769709578E+03  0.25500000920E-02 0.  1.
    10030    2    1    2    0    0  0.00000000000E+00  0.00000000000E+00  0.10257184750E+04  0.27411126666E+04  0.25419677930E+04 0.  0.
        3    1    3    3  502    0 -0.57217863993E+03  0.42564888516E+03  0.16473428398E+04  0.17950776617E+04  0.10100000352E+00 0. -1.
       -3    1    3    3    0  502  0.57217863993E+03 -0.42564888516E+03 -0.62162436477E+03  0.94603500490E+03  0.10100000352E+00 0.  1.
</event>
<event>
 5   0  0.2063930E-05  0.2495110E+04  0.7818609E-02  0.8404730E-01
        1   -1    0    0  501    0  0.00000000000E+00  0.00000000000E+00  0.14471659058E+04  0.14471659058E+04  0.50400001928E-02 0.  1.
       -1   -1    0    0    0  501  0.00000000000E+00  0.00000000000E+00 -0.10754768100E+04  0.10754768100E+04  0.50400001928E-02 0. -1.
    10030    2    1    2    0    0  0.00000000000E+00  0.00000000000E+00  0.37168909584E+03  0.25226427158E+04  0.24951099149E+04 0.  0.
        3    1    3    3  502    0  0.54949540739E+03  0.59223290608E+03  0.11469702904E+04  0.14029347366E+04  0.10100000352E+00 0. -1.
       -3    1    3    3    0  502 -0.54949540739E+03 -0.59223290608E+03 -0.77528119459E+03  0.11197079792E+04  0.10100000352E+00 0.  1.
</event>
<event>
 5   0  0.5219468E-05  0.2515647E+04  0.7818609E-02  0.8397432E-01
       -2   -1    0    0    0  501  0.00000000000E+00  0.00000000000E+00  0.75919137588E+03  0.75919137588E+03  0.25500000920E-02 0. -1.
        2   -1    0    0  501    0  0.00000000000E+00  0.00000000000E+00 -0.20839540499E+04  0.20839540499E+04  0.25500000920E-02 0.  1.
    10030    2    1    2    0    0  0.00000000000E+00  0.00000000000E+00 -0.13247626740E+04  0.28431454258E+04  0.25156469883E+04 0.  0.
        1    1    3    3  502    0  0.64930364509E+03  0.33895106048E+03  0.49330459338E+03  0.88308123454E+03  0.50400001928E-02 0. -1.
       -1    1    3    3    0  502 -0.64930364509E+03 -0.33895106048E+03 -0.18180672674E+04  0.19600641912E+04  0.50400001928E-02 0.  1.
</event>
<event>
 5   0  0.2041718E-05  0.2535095E+04  0.7818609E-02  0.8390588E-01
        1   -1    0    0  501    0  0.00000000000E+00  0.00000000000E+00  0.13631870942E+04  0.13631870942E+04  0.50400001928E-02 0.  1.
       -1   -1    0    0    0  501  0.00000000000E+00  0.00000000000E+00 -0.11786177163E+04  0.11786177163E+04  0.50400001928E-02 0. -1.
    10030    2    1    2    0    0  0.00000000000E+00  0.00000000000E+00  0.18456937784E+03  0.25418048105E+04  0.25350948384E+04 0.  0.
        4    1    3    3  502    0  0.32183790472E+03 -0.62523621009E+03 -0.96510368117E+03  0.11941217206E+04  0.12699999809E+01 0. -1.
       -4    1    3    3    0  502 -0.32183790472E+03  0.62523621009E+03  0.11496730590E+04  0.13476830899E+04  0.12699999809E+01 0.  1.
</event>
<event>
 5   0  0.4959347E-05  0.2457150E+04  0.7818609E-02  0.8418412E-01
       -2   -1    0    0    0  501  0.00000000000E+00  0.00000000000E+00  0.11771051419E+04  0.11771051419E+04  0.25500000920E-02 0.  1.
        2   -1    0    0  501    0  0.00000000000E+00  0.00000000000E+00 -0.12822955052E+04  0.12822955052E+04  0.25500000920E-02 0. -1.
    10030    2    1    2    0    0  0.00000000000E+00  0.00000000000E+00 -0.10519036334E+03  0.24594006471E+04  0.24571500831E+04 0.  0.
        3    1    3    3  502    0 -0.75496173664E+03  0.69433681510E+03  0.62428288812E+03  0.12007497538E+04  0.10100000352E+00 0.  1.
       -3    1    3    3    0  502  0.75496173664E+03 -0.69433681510E+03 -0.72947325146E+03  0.12586508934E+04  0.10100000352E+00 0. -1.
</event>
<event>
 5   0  0.2041718E-05  0.1950968E+04  0.7818609E-02  0.8629894E-01
       -1   -1    0    0    0  501  0.00000000000E+00  0.00000000000E+00  0.11674371030E+04  0.11674371030E+04  0.50400001928E-02 0.  1.
        1   -1    0    0  501    0  0.00000000000E+00  0.00000000000E+00 -0.81509240771E+03  0.81509240772E+03  0.50400001928E-02 0. -1.
    10030    2    1    2    0    0  0.00000000000E+00  0.00000000000E+00  0.35234469525E+03  0.19825295107E+04  0.19509680870E+04 0.  0.
        4    1    3    3  502    0 -0.23927752286E+03 -0.90778836568E+03 -0.93132004060E+02  0.94340268862E+03  0.12699999809E+01 0. -1.
       -4    1    3    3    0  502  0.23927752286E+03  0.90778836568E+03  0.44547669931E+03  0.10391268221E+04  0.12699999809E+01 0.  1.
</event>
<event>
 5   0  0.1692125E-05  0.2492181E+04  0.7818609E-02  0.8405776E-01
       -3   -1    0    0    0  501  0.00000000000E+00  0.00000000000E+00  0.11070534802E+04  0.11070534848E+04  0.10100000352E+00 0. -1.
        3   -1    0    0  501    0  0.00000000000E+00  0.00000000000E+00 -0.14025896797E+04  0.14025896834E+04  0.10100000352E+00 0.  1.
    10030    2    1    2    0    0  0.00000000000E+00  0.00000000000E+00 -0.29553619953E+03  0.25096431682E+04  0.24921812106E+04 0.  0.
        1    1    3    3  502    0  0.10687747697E+04  0.38268299739E+03 -0.66519319909E+03  0.13157536916E+04  0.50400001928E-02 0.  1.
       -1    1    3    3    0  502 -0.10687747697E+04 -0.38268299739E+03  0.36965699956E+03  0.11938894766E+04  0.50400001928E-02 0. -1.
</event>
<event>
 5   0  0.2041718E-05  0.2036588E+04  0.7818609E-02  0.8589703E-01
       -1   -1    0    0    0  501  0.00000000000E+00  0.00000000000E+00  0.89634132188E+03  0.89634132190E+03  0.50400001928E-02 0.  1.
        1   -1    0    0  501    0  0.00000000000E+00  0.00000000000E+00 -0.11568385544E+04  0.11568385544E+04  0.50400001928E-02 0. -1.
    10030    2    1    2    0    0  0.00000000000E+00  0.00000000000E+00 -0.26049723251E+03  0.20531798763E+04  0.20365875371E+04 0.  0.
        4    1    3    3  502    0  0.55523058004E+02  0.74531843552E+03  0.56700608686E+03  0.93812573557E+03  0.12699999809E+01 0.  1.
       -4    1    3    3    0  502 -0.55523058004E+02 -0.74531843552E+03 -0.82750331937E+03  0.11150541407E+04  0.12699999809E+01 0. -1.
</event>
<event>
 5   0  0.2066170E-05  0.2463132E+04  0.7818609E-02  0.8416239E-01
       -1   -1    0    0    0  501  0.00000000000E+00  0.00000000000E+00  0.79895807017E+03  0.79895807019E+03  0.50400001928E-02 0. -1.
        1   -1    0    0  501    0  0.00000000000E+00  0.00000000000E+00 -0.18984158305E+04  0.18984158305E+04  0.50400001928E-02 0.  1.
    10030    2    1    2    0    0  0.00000000000E+00  0.00000000000E+00 -0.10994577603E+04  0.26973739007E+04  0.24631318668E+04 0.  0.
        5    1    3    3  502    0  0.55916974018E+02  0.86579608640E+03 -0.15069251916E+04  0.17388430620E+04  0.46999998093E+01 0. -1.
       -5    1    3    3    0  502 -0.55916974018E+02 -0.86579608640E+03  0.40746743126E+03  0.95853083870E+03  0.46999998093E+01 0.  1.
</event>
<event>
 5   0  0.4995256E-05  0.2488727E+04  0.7818609E-02  0.8407013E-01
       -2   -1    0    0    0  501  0.00000000000E+00  0.00000000000E+00  0.74627669461E+03  0.74627669462E+03  0.25500000920E-02 0. -1.
        2   -1    0    0  501    0  0.00000000000E+00  0.00000000000E+00 -0.20748877273E+04  0.20748877273E+04  0.25500000920E-02 0.  1.
    10030    2    1    2    0    0  0.00000000000E+00  0.00000000000E+00 -0.13286110327E+04  0.28211644219E+04  0.24887268672E+04 0.  0.
        2    1    3    3  502    0  0.10285680719E+04 -0.23243944373E+03 -0.14132047339E+04  0.17632719568E+04  0.25500000920E-02 0.  1.
       -2    1    3    3    0  502 -0.10285680719E+04  0.23243944373E+03  0.84593701185E+02  0.10578924652E+04  0.25500000920E-02 0. -1.
</event>
<event>
 5   0  0.4959042E-05  0.2505242E+04  0.7818609E-02  0.8401120E-01
        2   -1    0    0  501    0  0.00000000000E+00  0.00000000000E+00  0.12217052369E+04  0.12217052369E+04  0.25500000920E-02 0.  1.
       -2   -1    0    0    0  501  0.00000000000E+00  0.00000000000E+00 -0.12843193650E+04  0.12843193650E+04  0.25500000920E-02 0. -1.
    10030    2    1    2    0    0  0.00000000000E+00  0.00000000000E+00 -0.62614128134E+02  0.25060246019E+04  0.25052422590E+04 0.  0.
        4    1    3    3  502    0  0.49748175269E+02  0.21462603482E+03  0.12021712195E+04  0.12221933029E+04  0.12699999809E+01 0.  1.
       -4    1    3    3    0  502 -0.49748175269E+02 -0.21462603482E+03 -0.12647853476E+04  0.12838312990E+04  0.12699999809E+01 0. -1.
</event>
<event>
 5   0  0.5024070E-05  0.2520395E+04  0.7818609E-02  0.8395756E-01
        2   -1    0    0  501    0  0.00000000000E+00  0.00000000000E+00  0.21885838737E+04  0.21885838737E+04  0.25500000920E-02 0.  1.
       -2   -1    0    0    0  501  0.00000000000E+00  0.00000000000E+00 -0.72562772119E+03  0.72562772119E+03  0.25500000920E-02 0. -1.
    10030    2    1    2    0    0  0.00000000000E+00  0.00000000000E+00  0.14629561525E+04  0.29142115949E+04  0.25203945159E+04 0.  0.
        5    1    3    3  502    0 -0.10824502339E+04  0.18281534029E+03  0.14470058142E+04  0.18163061068E+04  0.46999998093E+01 0.  1.
       -5    1    3    3    0  502  0.10824502339E+04 -0.18281534029E+03  0.15950338321E+02  0.10979054881E+04  0.46999998093E+01 0. -1.
</event>
<event>
 5   0  0.1692125E-05  0.2546697E+04  0.7818609E-02  0.8386536E-01
        4   -1    0    0  501    0  0.00000000000E+00  0.00000000000E+00  0.10278672066E+04  0.10278679912E+04  0.12699999809E+01 0.  1.
       -4   -1    0    0    0  501  0.00000000000E+00  0.00000000000E+00 -0.15774557924E+04  0.15774563036E+04  0.12699999809E+01 0. -1.
    10030    2    1    2    0    0  0.00000000000E+00  0.00000000000E+00 -0.54958858580E+03  0.26053242948E+04  0.25466972862E+04 0.  0.
        1    1    3    3  502    0  0.38263670756E+03  0.73477580463E+03  0.71447815830E+03  0.10939768607E+04  0.50400001928E-02 0.  1.
       -1    1    3    3    0  502 -0.38263670756E+03 -0.73477580463E+03 -0.12640667441E+04  0.15113474341E+04  0.50400001928E-02 0. -1.
</event>
<event>
 5   0  0.2041718E-05  0.2557485E+04  0.7818609E-02  0.8382788E-01
        1   -1    0    0  501    0  0.00000000000E+00  0.00000000000E+00  0.10480950382E+04  0.10480950382E+04  0.50400001928E-02 0. -1.
       -1   -1    0    0    0  501  0.00000000000E+00  0.00000000000E+00 -0.15601469364E+04  0.15601469364E+04  0.50400001928E-02 0.  1.
    10030    2    1    2    0    0  0.00000000000E+00  0.00000000000E+00 -0.51205189826E+03  0.26082419746E+04  0.25574849074E+04 0.  0.
        4    1    3    3  502    0 -0.64963373774E+03  0.10995825645E+04 -0.19092458101E+03  0.12913402409E+04  0.12699999809E+01 0. -1.
       -4    1    3    3    0  502  0.64963373774E+03 -0.10995825645E+04 -0.32112731725E+03  0.13169017337E+04  0.12699999809E+01 0.  1.
</event>
<event>
 5   0  0.2081874E-05  0.2475979E+04  0.7818609E-02  0.8411594E-01
        1   -1    0    0  501    0  0.00000000000E+00  0.00000000000E+00  0.13182773761E+04  0.13182773761E+04  0.50400001928E-02 0.  1.
       -1   -1    0    0    0  501  0.00000000000E+00  0.00000000000E+00 -0.11625912023E+04  0.11625912023E+04  0.50400001928E-02 0. -1.
    10030    2    1    2    0    0  0.00000000000E+00  0.00000000000E+00  0.15568617379E+03  0.24808685784E+04  0.24759787395E+04 0.  0.
        1    1    3    3  502    0 -0.27193891532E+03 -0.83995228601E+03  0.94739745449E+03  0.12950029163E+04  0.50400001928E-02 0.  1.
       -1    1    3    3    0  502  0.27193891532E+03  0.83995228601E+03 -0.79171128070E+03  0.11858656621E+04  0.50400001928E-02 0. -1.
</event>
<event>
 5   0  0.4959347E-05  0.2482771E+04  0.7818609E-02  0.8409149E-01
       -2   -1    0    0    0  501  0.00000000000E+00  0.00000000000E+00  0.82380836775E+03  0.82380836776E+03  0.25500000920E-02 0. -1.
        2   -1    0    0  501    0  0.00000000000E+00  0.00000000000E+00 -0.18706260351E+04  0.18706260351E+04  0.25500000920E-02 0.  1.
    10030    2    1    2    0    0  0.00000000000E+00  0.00000000000E+00 -0.10468176673E+04  0.26944344029E+04  0.24827705336E+04 0.  0.
        3    1    3    3  502    0  0.10247546163E+03  0.23598742517E+03  0.79455769961E+03  0.83517257694E+03  0.10100000352E+00 0. -1.
       -3    1    3    3    0  502 -0.10247546163E+03 -0.23598742517E+03 -0.18413753669E+04  0.18592618259E+04  0.10100000352E+00 0.  1.
</event>
<event>
 5   0  0.5219468E-05  0.2676399E+04  0.7818609E-02  0.8342703E-01
        2   -1    0    0  501    0  0.00000000000E+00  0.00000000000E+00  0.21628265583E+04  0.21628265583E+04  0.25500000920E-02 0.  1.
       -2   -1    0    0    0  501  0.00000000000E+00  0.00000000000E+00 -0.82798055218E+03  0.82798055218E+03  0.25500000920E-02 0. -1.
    10030    2    1    2    0    0  0.00000000000E+00  0.00000000000E+00  0.13348460061E+04  0.29908071105E+04  0.26763993185E+04 0.  0.
        1    1    3    3  502    0  0.52029145111E+03 -0.14475902933E+03  0.20356422228E+04  0.21060621144E+04  0.50400001928E-02 0.  1.
       -1    1    3    3    0  502 -0.52029145111E+03  0.14475902933E+03 -0.70079621668E+03  0.88474499603E+03  0.50400001928E-02 0. -1.
</event>
<event>
 5   0  0.5024070E-05  0.2489450E+04  0.7818609E-02  0.8406754E-01
       -2   -1    0    0    0  501  0.00000000000E+00  0.00000000000E+00  0.11005489665E+04  0.11005489665E+04  0.25500000920E-02 0. -1.
        2   -1    0    0  501    0  0.00000000000E+00  0.00000000000E+00 -0.14077884104E+04  0.14077884104E+04  0.25500000920E-02 0.  1.
    10030    2    1    2    0    0  0.00000000000E+00  0.00000000000E+00 -0.30723944390E+03  0.25083373769E+04  0.24894498028E+04 0.  0.
        5    1    3    3  502    0 -0.74404024478E+03 -0.15064519215E+03  0.84028619038E+03  0.11324278483E+04  0.46999998093E+01 0. -1.
       -5    1    3    3    0  502  0.74404024478E+03  0.15064519215E+03 -0.11475256343E+04  0.13759095287E+04  0.46999998093E+01 0.  1.
</event>
<event>
 5   0  0.2063930E-05  0.2452377E+04  0.7818609E-02  0.8420151E-01
       -1   -1    0    0    0  501  0.00000000000E+00  0.00000000000E+00  0.54896260968E+03  0.54896260971E+03  0.50400001928E-02 0. -1.
        1   -1    0    0  501    0  0.00000000000E+00  0.00000000000E+00 -0.27388711000E+04  0.27388711000E+04  0.50400001928E-02 0.  1.
    10030    2    1    2    0    0  0.00000000000E+00  0.00000000000E+00 -0.21899084903E+04  0.32878337097E+04  0.24523766649E+04 0.  0.
        3    1    3    3  502    0 -0.10159403498E+04  0.31892651756E+03 -0.19101105153E+04  0.21868633037E+04  0.10100000352E+00 0.  1.
       -3    1    3    3    0  502  0.10159403498E+04 -0.31892651756E+03 -0.27979797494E+03  0.11009704060E+04  0.10100000352E+00 0. -1.
</event>
<event>
 5   0  0.4995256E-05  0.2448488E+04  0.7818609E-02  0.8421570E-01
       -2   -1    0    0    0  501  0.00000000000E+00  0.00000000000E+00  0.14295372134E+04  0.14295372134E+04  0.25500000920E-02 0. -1.
        2   -1    0    0  501    0  0.00000000000E+00  0.00000000000E+00 -0.10484326722E+04  0.10484326722E+04  0.25500000920E-02 0.  1.
    10030    2    1    2    0    0  0.00000000000E+00  0.00000000000E+00  0.38110454125E+03  0.24779698856E+04  0.24484881218E+04 0.  0.
        2    1    3    3  502    0 -0.59295998191E+03  0.10120059041E+04 -0.16440728932E+03  0.11843931978E+04  0.25500000920E-02 0.  1.
       -2    1    3    3    0  502  0.59295998191E+03 -0.10120059041E+04  0.54551183057E+03  0.12935766879E+04  0.25500000920E-02 0. -1.
</event>
<event>
 5   0  0.2081874E-05  0.2504691E+04  0.7818609E-02  0.8401316E-01
        1   -1    0    0  501    0  0.00000000000E+00  0.00000000000E+00  0.13503164960E+04  0.13503164961E+04  0.50400001928E-02 0.  1.
       -1   -1    0    0    0  501  0.00000000000E+00  0.00000000000E+00 -0.11614830799E+04  0.11614830800E+04  0.50400001928E-02 0. -1.
    10030    2    1    2    0    0  0.00000000000E+00  0.00000000000E+00  0.18883341611E+03  0.25117995760E+04  0.25046914083E+04 0.  0.
        1    1    3    3  502    0  0.10678238970E+04  0.32186259058E+03  0.66570555600E+03  0.12988484475E+04  0.50400001928E-02 0.  1.
       -1    1    3    3    0  502 -0.10678238970E+04 -0.32186259058E+03 -0.47687213989E+03  0.12129511285E+04  0.50400001928E-02 0. -1.
</event>
<event>
 5   0  0.4959347E-05  0.2507468E+04  0.7818609E-02  0.8400330E-01
        2   -1    0    0  501    0  0.00000000000E+00  0.00000000000E+00  0.21426150276E+04  0.21426150276E+04  0.25500000920E-02 0. -1.
       -2   -1    0    0    0  501  0.00000000000E+00  0.00000000000E+00 -0.73361255387E+03  0.73361255387E+03  0.25500000920E-02 0.  1.
    10030    2    1    2    0    0  0.00000000000E+00  0.00000000000E+00  0.14090024737E+04  0.28762275814E+04  0.25074682709E+04 0.  0.
        3    1    3    3  502    0 -0.84366863039E+02 -0.62960700199E+03  0.19443534433E+04  0.20454909111E+04  0.10100000352E+00 0. -1.
       -3    1    3    3    0  502  0.84366863039E+02  0.62960700199E+03 -0.53535096965E+03  0.83073667034E+03  0.10100000352E+00 0.  1.
</event>
<event>
 5   0  0.4995256E-05  0.2517040E+04  0.7818609E-02  0.8396940E-01
       -2   -1    0    0    0  501  0.00000000000E+00  0.00000000000E+00  0.79671540061E+03  0.79671540061E+03  0.25500000920E-02 0. -1.
        2   -1    0    0  501    0  0.00000000000E+00  0.00000000000E+00 -0.19880024603E+04  0.19880024603E+04  0.25500000920E-02 0.  1.
    10030    2    1    2    0    0  0.00000000000E+00  0.00000000000E+00 -0.11912870597E+04  0.27847178609E+04  0.25170396712E+04 0.  0.
        2    1    3    3  502    0 -0.93786463203E+03 -0.64120041914E+03 -0.11946503148E+04  0.16486107546E+04  0.25500000920E-02 0.  1.
       -2    1    3    3    0  502  0.93786463203E+03  0.64120041914E+03  0.33632551036E+01  0.11361071063E+04  0.25500000920E-02 0. -1.
</event>
<event>
 5   0  0.2081874E-05  0.2498495E+04  0.7818609E-02  0.8403522E-01
       -1   -1    0    0    0  501  0.00000000000E+00  0.00000000000E+00  0.80815888572E+03  0.80815888574E+03  0.50400001928E-02 0. -1.
        1   -1    0    0  501    0  0.00000000000E+00  0.00000000000E+00 -0.19310801282E+04  0.19310801282E+04  0.50400001928E-02 0.  1.
    10030    2    1    2    0    0  0.00000000000E+00  0.00000000000E+00 -0.11229212425E+04  0.27392390140E+04  0.24984951989E+04 0.  0.
        1    1    3    3  502    0 -0.11574332038E+04  0.27986757432E+03 -0.14738920934E+03  0.11998754350E+04  0.50400001928E-02 0. -1.
       -1    1    3    3    0  502  0.11574332038E+04 -0.27986757432E+03 -0.97553203315E+03  0.15393635790E+04  0.50400001928E-02 0.  1.
</event>
<event>
 5   0  0.5024070E-05  0.2524926E+04  0.7818609E-02  0.8394159E-01
       -2   -1    0    0    0  501  0.00000000000E+00  0.00000000000E+00  0.65071625363E+03  0.65071625364E+03  0.25500000920E-02 0.  1.
        2   -1    0    0  501    0  0.00000000000E+00  0.00000000000E+00 -0.24493201149E+04  0.24493201149E+04  0.25500000920E-02 0. -1.
    10030    2    1    2    0    0  0.00000000000E+00  0.00000000000E+00 -0.17986038612E+04  0.31000363685E+04  0.25249256695E+04 0.  0.
        5    1    3    3  502    0 -0.51623952883E+03 -0.24750503256E+03  0.48216312149E+03  0.74850875613E+03  0.46999998093E+01 0.  1.
       -5    1    3    3    0  502  0.51623952883E+03  0.24750503256E+03 -0.22807669827E+04  0.23515276124E+04  0.46999998093E+01 0. -1.
</event>
<event>
 5   0  0.4995256E-05  0.2444063E+04  0.7818609E-02  0.8423189E-01
       -2   -1    0    0    0  501  0.00000000000E+00  0.00000000000E+00  0.72015780022E+03  0.72015780023E+03  0.25500000920E-02 0. -1.
        2   -1    0    0  501    0  0.00000000000E+00  0.00000000000E+00 -0.20736586045E+04  0.20736586045E+04  0.25500000920E-02 0.  1.
    10030    2    1    2    0    0  0.00000000000E+00  0.00000000000E+00 -0.13535008043E+04  0.27938164047E+04  0.24440633536E+04 0.  0.
        2    1    3    3  502    0  0.63060449824E+03  0.28252839856E+02  0.51936439311E+03  0.81743478577E+03  0.25500000920E-02 0. -1.
       -2    1    3    3    0  502 -0.63060449824E+03 -0.28252839856E+02 -0.18728651974E+04  0.19763816190E+04  0.25500000920E-02 0.  1.
</event>
<event>
 5   0  0.1692125E-05  0.1669315E+04  0.7818609E-02  0.8779061E-01
        4   -1    0    0  501    0  0.00000000000E+00  0.00000000000E+00  0.41209348951E+03  0.41209544646E+03  0.12699999809E+01 0. -1.
       -4   -1    0    0    0  501  0.00000000000E+00  0.00000000000E+00 -0.16905159079E+04  0.16905163850E+04  0.12699999809E+01 0.  1.
    10030    2    1    2    0    0  0.00000000000E+00  0.00000000000E+00 -0.12784224184E+04  0.21026118314E+04  0.16693150193E+04 0.  0.
        2    1    3    3  502    0  0.75660705038E+03 -0.54074462875E+02 -0.10778491901E+04  0.13180049897E+04  0.25500000920E-02 0. -1.
       -2    1    3    3    0  502 -0.75660705038E+03  0.54074462875E+02 -0.20057322835E+03  0.78460684177E+03  0.25500000920E-02 0.  1.
</event>
<event>
 5   0  0.2081874E-05  0.2407815E+04  0.7818609E-02  0.8436583E-01
       -1   -1    0    0    0  501  0.00000000000E+00  0.00000000000E+00  0.14812696407E+04  0.14812696407E+04  0.50400001928E-02 0. -1.
        1   -1    0    0  501    0  0.00000000000E+00  0.00000000000E+00 -0.97848061006E+03  0.97848061007E+03  0.50400001928E-02 0.  1.
    10030    2    1    2    0    0  0.00000000000E+00  0.00000000000E+00  0.50278903065E+03  0.24597502508E+04  0.24078152934E+04 0.  0.
        1    1    3    3  502    0 -0.79315264579E+02  0.96069688417E+02 -0.97187805548E+03  0.97983021539E+03  0.50400001928E-02 0.  1.
       -1    1    3    3    0  502  0.79315264579E+02 -0.96069688417E+02  0.14746670861E+04  0.14799200354E+04  0.50400001928E-02 0. -1.
</event>
<event>
 5   0  0.4959042E-05  0.2438457E+04  0.7818609E-02  0.8425245E-01
       -2   -1    0    0    0  501  0.00000000000E+00  0.00000000000E+00  0.78597284932E+03  0.78597284932E+03  0.25500000920E-02 0. -1.
        2   -1    0    0  501    0  0.00000000000E+00  0.00000000000E+00 -0.18913093298E+04  0.18913093298E+04  0.25500000920E-02 0.  1.
    10030    2    1    2    0    0  0.00000000000E+00  0.00000000000E+00 -0.11053364805E+04  0.26772821791E+04  0.24384567110E+04 0.  0.
        4    1    3    3  502    0 -0.14756607739E+03  0.98282633020E+03 -0.13280921658E+04  0.16587808042E+04  0.12699999809E+01 0.  1.
       -4    1    3    3    0  502  0.14756607739E+03 -0.98282633020E+03  0.22275568532E+03  0.10185013750E+04  0.12699999809E+01 0. -1.
</event>
<event>
 5   0  0.4959347E-05  0.2473608E+04  0.7818609E-02  0.8412449E-01
       -2   -1    0    0    0  501  0.00000000000E+00  0.00000000000E+00  0.13521621828E+04  0.13521621828E+04  0.25500000920E-02 0. -1.
        2   -1    0    0  501    0  0.00000000000E+00  0.00000000000E+00 -0.11312874038E+04  0.11312874039E+04  0.25500000920E-02 0.  1.
    10030    2    1    2    0    0  0.00000000000E+00  0.00000000000E+00  0.22087477899E+03  0.24834495867E+04  0.24736079280E+04 0.  0.
        3    1    3    3  502    0  0.94521879997E+03  0.75611558559E+03 -0.14461010018E+03  0.12190412010E+04  0.10100000352E+00 0.  1.
       -3    1    3    3    0  502 -0.94521879997E+03 -0.75611558559E+03  0.36548487918E+03  0.12644083856E+04  0.10100000352E+00 0. -1.
</event>
<event>
 5   0  0.1692125E-05  0.2524858E+04  0.7818609E-02  0.8394183E-01
        4   -1    0    0  501    0  0.00000000000E+00  0.00000000000E+00  0.16083560567E+04  0.16083565581E+04  0.12699999809E+01 0. -1.
       -4   -1    0    0    0  501  0.00000000000E+00  0.00000000000E+00 -0.99090295613E+03  0.99090376998E+03  0.12699999809E+01 0.  1.
    10030    2    1    2    0    0  0.00000000000E+00  0.00000000000E+00  0.61745310055E+03  0.25992603281E+04  0.25248576042E+04 0.  0.
        1    1    3    3  502    0  0.44288508583E+03  0.11383301034E+04  0.63716374963E+03  0.13776502703E+04  0.50400001928E-02 0.  1.
       -1    1    3    3    0  502 -0.44288508583E+03 -0.11383301034E+04 -0.19710649077E+02  0.12216100577E+04  0.50400001928E-02 0. -1.
</event>
<event>
 5   0  0.4959347E-05  0.2864339E+04  0.7818609E-02  0.8283567E-01
       -2   -1    0    0    0  501  0.00000000000E+00  0.00000000000E+00  0.11411333925E+04  0.11411333925E+04  0.25500000920E-02 0.  1.
        2   -1    0    0  501    0  0.00000000000E+00  0.00000000000E+00 -0.17974323128E+04  0.17974323128E+04  0.25500000920E-02 0. -1.
    10030    2    1    2    0    0  0.00000000000E+00  0.00000000000E+00 -0.65629892024E+03  0.29385657053E+04  0.28643393883E+04 0.  0.
        3    1    3    3  502    0 -0.92458409034E+03 -0.43090995912E+03 -0.13594715562E+04  0.16996182087E+04  0.10100000352E+00 0. -1.
       -3    1    3    3    0  502  0.92458409034E+03  0.43090995912E+03  0.70317263599E+03  0.12389474965E+04  0.10100000352E+00 0.  1.
</event>
<event>
 5   0  0.2063930E-05  0.2525392E+04  0.7818609E-02  0.8393995E-01
       -1   -1    0    0    0  501  0.00000000000E+00  0.00000000000E+00  0.60108247217E+03  0.60108247219E+03  0.50400001928E-02 0.  1.
        1   -1    0    0  501    0  0.00000000000E+00  0.00000000000E+00 -0.26525497991E+04  0.26525497992E+04  0.50400001928E-02 0. -1.
    10030    2    1    2    0    0  0.00000000000E+00  0.00000000000E+00 -0.20514673270E+04  0.32536322713E+04  0.25253920019E+04 0.  0.
        3    1    3    3  502    0 -0.49021306270E+03 -0.94104663888E+03 -0.14386201150E+03  0.10707819161E+04  0.10100000352E+00 0.  1.
       -3    1    3    3    0  502  0.49021306270E+03  0.94104663888E+03 -0.19076053155E+04  0.21828503552E+04  0.10100000352E+00 0. -1.
</event>
<event>
 5   0  0.2063930E-05  0.2005297E+04  0.7818609E-02  0.8604148E-01
       -1   -1    0    0    0  501  0.00000000000E+00  0.00000000000E+00  0.81309076453E+03  0.81309076455E+03  0.50400001928E-02 0. -1.
        1   -1    0    0  501    0  0.00000000000E+00  0.00000000000E+00 -0.12363986658E+04  0.12363986658E+04  0.50400001928E-02 0.  1.
    10030    2    1    2    0    0  0.00000000000E+00  0.00000000000E+00 -0.42330790128E+03  0.20494894304E+04  0.20052973211E+04 0.  0.
        3    1    3    3  502    0 -0.77616069750E+03  0.25044980622E+03 -0.80773397481E+03  0.11478609315E+04  0.10100000352E+00 0. -1.
       -3    1    3    3    0  502  0.77616069750E+03 -0.25044980622E+03  0.38442607353E+03  0.90162849888E+03  0.10100000352E+00 0.  1.
</event>
<event>
 5   0  0.4959042E-05  0.2483607E+04  0.7818609E-02  0.8408849E-01
       -2   -1    0    0    0  501  0.00000000000E+00  0.00000000000E+00  0.13670957270E+04  0.13670957270E+04  0.25500000920E-02 0. -1.
        2   -1    0    0  501    0  0.00000000000E+00  0.00000000000E+00 -0.11279944913E+04  0.11279944913E+04  0.25500000920E-02 0.  1.
    10030    2    1    2    0    0  0.00000000000E+00  0.00000000000E+00  0.23910123576E+03  0.24950902183E+04  0.24836074159E+04 0.  0.
        4    1    3    3  502    0 -0.82222212373E+02  0.76460657372E+03 -0.85999130294E+03  0.11536768867E+04  0.12699999809E+01 0.  1.
       -4    1    3    3    0  502  0.82222212373E+02 -0.76460657372E+03  0.10990925387E+04  0.13414133316E+04  0.12699999809E+01 0. -1.
</event>
<event>
 5   0  0.2066170E-05  0.2463598E+04  0.7818609E-02  0.8416070E-01
        1   -1    0    0  501    0  0.00000000000E+00  0.00000000000E+00  0.20864149027E+04  0.20864149027E+04  0.50400001928E-02 0. -1.
       -1   -1    0    0    0  501  0.00000000000E+00  0.00000000000E+00 -0.72724200416E+03  0.72724200418E+03  0.50400001928E-02 0.  1.
    10030    2    1    2    0    0  0.00000000000E+00  0.00000000000E+00  0.13591728985E+04  0.28136569069E+04  0.24635978206E+04 0.  0.
        5    1    3    3  502    0 -0.81479966830E+03 -0.53436848586E+03  0.15402260233E+04  0.18225713898E+04  0.46999998093E+01 0. -1.
       -5    1    3    3    0  502  0.81479966830E+03  0.53436848586E+03 -0.18105312477E+03  0.99108551706E+03  0.46999998093E+01 0.  1.
</event>
<event>
 5   0  0.2066170E-05  0.2445724E+04  0.7818609E-02  0.8422581E-01
        1   -1    0    0  501    0  0.00000000000E+00  0.00000000000E+00  0.12538430082E+04  0.12538430082E+04  0.50400001928E-02 0.  1.
       -1   -1    0    0    0  501  0.00000000000E+00  0.00000000000E+00 -0.11926469237E+04  0.11926469238E+04  0.50400001928E-02 0. -1.
    10030    2    1    2    0    0  0.00000000000E+00  0.00000000000E+00  0.61196084474E+02  0.24464899320E+04  0.24457244380E+04 0.  0.
        5    1    3    3  502    0  0.18416161839E+03  0.59786122551E+03 -0.10204526589E+04  0.11969541619E+04  0.46999998093E+01 0. -1.
       -5    1    3    3    0  502 -0.18416161839E+03 -0.59786122551E+03  0.10816487434E+04  0.12495357701E+04  0.46999998093E+01 0.  1.
</event>
<event>
 5   0  0.1692125E-05  0.2357144E+04  0.7818609E-02  0.8455725E-01
       -3   -1    0    0    0  501  0.00000000000E+00  0.00000000000E+00  0.94616416883E+03  0.94616417422E+03  0.10100000352E+00 0. -1.
        3   -1    0    0  501    0  0.00000000000E+00  0.00000000000E+00 -0.14680666604E+04  0.14680666639E+04  0.10100000352E+00 0.  1.
    10030    2    1    2    0    0  0.00000000000E+00  0.00000000000E+00 -0.52190249157E+03  0.24142308381E+04  0.23571441044E+04 0.  0.
        5    1    3    3  502    0  0.98484269024E+02 -0.89241144696E+03  0.52102651006E+03  0.10380693889E+04  0.46999998093E+01 0. -1.
       -5    1    3    3    0  502 -0.98484269024E+02  0.89241144696E+03 -0.10429290016E+04  0.13761614492E+04  0.46999998093E+01 0.  1.
</event>
<event>
 5   0  0.2063930E-05  0.2443903E+04  0.7818609E-02  0.8423248E-01
        1   -1    0    0  501    0  0.00000000000E+00  0.00000000000E+00  0.18124542507E+04  0.18124542507E+04  0.50400001928E-02 0. -1.
       -1   -1    0    0    0  501  0.00000000000E+00  0.00000000000E+00 -0.82383596613E+03  0.82383596615E+03  0.50400001928E-02 0.  1.
    10030    2    1    2    0    0  0.00000000000E+00  0.00000000000E+00  0.98861828454E+03  0.26362902168E+04  0.24439026157E+04 0.  0.
        3    1    3    3  502    0  0.10245914627E+03  0.12148630848E+04  0.58309779429E+03  0.13514411713E+04  0.10100000352E+00 0.  1.
       -3    1    3    3    0  502 -0.10245914627E+03 -0.12148630848E+04  0.40552049025E+03  0.12848490455E+04  0.10100000352E+00 0. -1.
</event>
<event>
 5   0  0.4959347E-05  0.2777275E+04  0.7818609E-02  0.8310358E-01
       -2   -1    0    0    0  501  0.00000000000E+00  0.00000000000E+00  0.99632618515E+03  0.99632618515E+03  0.25500000920E-02 0.  1.
        2   -1    0    0  501    0  0.00000000000E+00  0.00000000000E+00 -0.19354251142E+04  0.19354251142E+04  0.25500000920E-02 0. -1.
    10030    2    1    2    0    0  0.00000000000E+00  0.00000000000E+00 -0.93909892905E+03  0.29317512994E+04  0.27772754424E+04 0.  0.
        3    1    3    3  502    0  0.66524386892E+03  0.44382739849E+03  0.72884003540E+03  0.10820073808E+04  0.10100000352E+00 0.  1.
       -3    1    3    3    0  502 -0.66524386892E+03 -0.44382739849E+03 -0.16679389644E+04  0.18497439185E+04  0.10100000352E+00 0. -1.
</event>
<event>
 5   0  0.2036578E-05  0.1541496E+04  0.7818609E-02  0.8857318E-01
       -1   -1    0    0    0  501  0.00000000000E+00  0.00000000000E+00  0.62774069836E+03  0.62774069838E+03  0.50400001928E-02 0.  1.
        1   -1    0    0  501    0  0.00000000000E+00  0.00000000000E+00 -0.94633370039E+03  0.94633370041E+03  0.50400001928E-02 0. -1.
    10030    2    1    2    0    0  0.00000000000E+00  0.00000000000E+00 -0.31859300204E+03  0.15740743988E+04  0.15414956088E+04 0.  0.
        2    1    3    3  502    0 -0.35949861791E+03  0.50537804255E+03  0.30798380572E+03  0.69245956327E+03  0.25500000920E-02 0.  1.
       -2    1    3    3    0  502  0.35949861791E+03 -0.50537804255E+03 -0.62657680776E+03  0.88161483552E+03  0.25500000920E-02 0. -1.
</event>
<event>
 5   0  0.2063930E-05  0.2500163E+04  0.7818609E-02  0.8402928E-01
        1   -1    0    0  501    0  0.00000000000E+00  0.00000000000E+00  0.11407920930E+04  0.11407920930E+04  0.50400001928E-02 0. -1.
       -1   -1    0    0    0  501  0.00000000000E+00  0.00000000000E+00 -0.13698405815E+04  0.13698405815E+04  0.50400001928E-02 0.  1.
    10030    2    1    2    0    0  0.00000000000E+00  0.00000000000E+00 -0.22904848850E+03  0.25106326745E+04  0.25001626379E+04 0.  0.
        3    1    3    3  502    0  0.49982622588E+03  0.27958350054E+03  0.10013041711E+04  0.11535177689E+04  0.10100000352E+00 0. -1.
       -3    1    3    3    0  502 -0.49982622588E+03 -0.27958350054E+03 -0.12303526596E+04  0.13571149056E+04  0.10100000352E+00 0.  1.
</event>
<event>
 5   0  0.2036578E-05  0.2401574E+04  0.7818609E-02  0.8438914E-01
        1   -1    0    0  501    0  0.00000000000E+00  0.00000000000E+00  0.11317034320E+04  0.11317034320E+04  0.50400001928E-02 0. -1.
       -1   -1    0    0    0  501  0.00000000000E+00  0.00000000000E+00 -0.12740877738E+04  0.12740877738E+04  0.50400001928E-02 0.  1.
    10030    2    1    2    0    0  0.00000000000E+00  0.00000000000E+00 -0.14238434184E+03  0.24057912058E+04  0.24015740724E+04 0.  0.
        2    1    3    3  502    0 -0.74091587042E+03 -0.66646794747E+03  0.59987492660E+03  0.11631791692E+04  0.25500000920E-02 0. -1.
       -2    1    3    3    0  502  0.74091587042E+03  0.66646794747E+03 -0.74225926844E+03  0.12426120367E+04  0.25500000920E-02 0.  1.
</event>
<event>
 5   0  0.2063930E-05  0.2446288E+04  0.7818609E-02  0.8422375E-01
        1   -1    0    0  501    0  0.00000000000E+00  0.00000000000E+00  0.17078770502E+04  0.17078770502E+04  0.50400001928E-02 0.  1.
       -1   -1    0    0    0  501  0.00000000000E+00  0.00000000000E+00 -0.87598866597E+03  0.87598866598E+03  0.50400001928E-02 0. -1.
    10030    2    1    2    0    0  0.00000000000E+00  0.00000000000E+00  0.83188838423E+03  0.25838657162E+04  0.24462877499E+04 0.  0.
        3    1    3    3  502    0  0.90735736922E+03  0.19602449584E+03 -0.42531454114E+03  0.10210854360E+04  0.10100000352E+00 0. -1.
       -3    1    3    3    0  502 -0.90735736922E+03 -0.19602449584E+03  0.12572029254E+04  0.15627802802E+04  0.10100000352E+00 0.  1.
</event>
<event>
 5   0  0.5024070E-05  0.2489652E+04  0.7818609E-02  0.8406681E-01
       -2   -1    0    0    0  501  0.00000000000E+00  0.00000000000E+00  0.10425392703E+04  0.10425392703E+04  0.25500000920E-02 0.  1.
        2   -1    0    0  501    0  0.00000000000E+00  0.00000000000E+00 -0.14863633810E+04  0.14863633810E+04  0.25500000920E-02 0. -1.
    10030    2    1    2    0    0  0.00000000000E+00  0.00000000000E+00 -0.44382411074E+03  0.25289026513E+04  0.24896523409E+04 0.  0.
        5    1    3    3  502    0 -0.82993640170E+03  0.87921668433E+03  0.78990664903E+02  0.12116426965E+04  0.46999998093E+01 0.  1.
       -5    1    3    3    0  502  0.82993640170E+03 -0.87921668433E+03 -0.52281477565E+03  0.13172599548E+04  0.46999998093E+01 0. -1.
</event>
<event>
 5   0  0.5219468E-05  0.1667498E+04  0.7818609E-02  0.8780122E-01
        2   -1    0    0  501    0  0.00000000000E+00  0.00000000000E+00  0.12377784120E+04  0.12377784120E+04  0.25500000920E-02 0. -1.
       -2   -1    0    0    0  501  0.00000000000E+00  0.00000000000E+00 -0.56160062161E+03  0.56160062162E+03  0.25500000920E-02 0.  1.
    10030    2    1    2    0    0  0.00000000000E+00  0.00000000000E+00  0.67617779043E+03  0.17993790337E+04  0.16674976769E+04 0.  0.
        1    1    3    3  502    0  0.61544275939E+03  0.41891765361E+03 -0.66929640460E+02  0.74749004501E+03  0.50400001928E-02 0.  1.
       -1    1    3    3    0  502 -0.61544275939E+03 -0.41891765361E+03  0.74310743089E+03  0.10518889887E+04  0.50400001928E-02 0. -1.
</event>
<event>
 5   0  0.2081874E-05  0.2477099E+04  0.7818609E-02  0.8411190E-01
        1   -1    0    0  501    0  0.00000000000E+00  0.00000000000E+00  0.12083439673E+04  0.12083439673E+04  0.50400001928E-02 0. -1.
       -1   -1    0    0    0  501  0.00000000000E+00  0.00000000000E+00 -0.12695097463E+04  0.12695097463E+04  0.50400001928E-02 0.  1.
    10030    2    1    2    0    0  0.00000000000E+00  0.00000000000E+00 -0.61165778977E+02  0.24778537136E+04  0.24770986604E+04 0.  0.
        1    1    3    3  502    0  0.30855780897E+03  0.11892034381E+04  0.12628233526E+03  0.12350546412E+04  0.50400001928E-02 0.  1.
       -1    1    3    3    0  502 -0.30855780897E+03 -0.11892034381E+04 -0.18744811423E+03  0.12427990723E+04  0.50400001928E-02 0. -1.
</event>
<event>
 5   0  0.4995256E-05  0.2489728E+04  0.7818609E-02  0.8406654E-01
        2   -1    0    0  501    0  0.00000000000E+00  0.00000000000E+00  0.11811583933E+04  0.11811583933E+04  0.25500000920E-02 0. -1.
       -2   -1    0    0    0  501  0.00000000000E+00  0.00000000000E+00 -0.13120054147E+04  0.13120054147E+04  0.25500000920E-02 0.  1.
    10030    2    1    2    0    0  0.00000000000E+00  0.00000000000E+00 -0.13084702135E+03  0.24931638080E+04  0.24897278628E+04 0.  0.
        2    1    3    3  502    0  0.75048305371E+03  0.65892225150E+03  0.67875944155E+03  0.12075254560E+04  0.25500000920E-02 0. -1.
       -2    1    3    3    0  502 -0.75048305371E+03 -0.65892225150E+03 -0.80960646290E+03  0.12856383520E+04  0.25500000920E-02 0.  1.
</event>
<event>
 5   0  0.5024070E-05  0.2498177E+04  0.7818609E-02  0.8403635E-01
       -2   -1    0    0    0  501  0.00000000000E+00  0.00000000000E+00  0.14099723953E+04  0.14099723953E+04  0.25500000920E-02 0.  1.
        2   -1    0    0  501    0  0.00000000000E+00  0.00000000000E+00 -0.11065618376E+04  0.11065618376E+04  0.25500000920E-02 0. -1.
    10030    2    1    2    0    0  0.00000000000E+00  0.00000000000E+00  0.30341055769E+03  0.25165342328E+04  0.24981766508E+04 0.  0.
        5    1    3    3  502    0 -0.83204266878E+03  0.16723351379E+03  0.10749209850E+04  0.13695763085E+04  0.46999998093E+01 0.  1.
       -5    1    3    3    0  502  0.83204266878E+03 -0.16723351379E+03 -0.77151042729E+03  0.11469579243E+04  0.46999998093E+01 0. -1.
</event>
<event>
 5   0  0.2036578E-05  0.1951356E+04  0.7818609E-02  0.8629707E-01
       -1   -1    0    0    0  501  0.00000000000E+00  0.00000000000E+00  0.69582819952E+03  0.69582819954E+03  0.50400001928E-02 0.  1.
        1   -1    0    0  501    0  0.00000000000E+00  0.00000000000E+00 -0.13680790128E+04  0.13680790128E+04  0.50400001928E-02 0. -1.
    10030    2    1    2    0    0  0.00000000000E+00  0.00000000000E+00 -0.67225081328E+03  0.20639072123E+04  0.19513564065E+04 0.  0.
        2    1    3    3  502    0 -0.15301815655E+03  0.14147336964E+03 -0.13442646070E+04  0.13603222427E+04  0.25500000920E-02 0. -1.
       -2    1    3    3    0  502  0.15301815655E+03 -0.14147336964E+03  0.67201379368E+03  0.70358496961E+03  0.25500000920E-02 0.  1.
</event>
<event>
 5   0  0.4995256E-05  0.2443480E+04  0.7818609E-02  0.8423402E-01
        2   -1    0    0  501    0  0.00000000000E+00  0.00000000000E+00  0.87500149952E+03  0.87500149952E+03  0.25500000920E-02 0.  1.
       -2   -1    0    0    0  501  0.00000000000E+00  0.00000000000E+00 -0.17058811592E+04  0.17058811592E+04  0.25500000920E-02 0. -1.
    10030    2    1    2    0    0  0.00000000000E+00  0.00000000000E+00 -0.83087965970E+03  0.25808826587E+04  0.24434799548E+04 0.  0.
        2    1    3    3  502    0  0.39128036028E+03  0.80154141934E+03 -0.12973019074E+04  0.15743446910E+04  0.25500000920E-02 0. -1.
       -2    1    3    3    0  502 -0.39128036028E+03 -0.80154141934E+03  0.46642224771E+03  0.10065379677E+04  0.25500000920E-02 0.  1.
</event>
<event>
 5   0  0.4959347E-05  0.2061617E+04  0.7818609E-02  0.8578342E-01
       -2   -1    0    0    0  501  0.00000000000E+00  0.00000000000E+00  0.65380475639E+03  0.65380475639E+03  0.25500000920E-02 0.  1.
        2   -1    0    0  501    0  0.00000000000E+00  0.00000000000E+00 -0.16252041990E+04  0.16252041990E+04  0.25500000920E-02 0. -1.
    10030    2    1    2    0    0  0.00000000000E+00  0.00000000000E+00 -0.97139944258E+03  0.22790089554E+04  0.20616170696E+04 0.  0.
        3    1    3    3  502    0 -0.56732578835E+03  0.47033846495E+03  0.31105817633E+03  0.79989625640E+03  0.10100000352E+00 0.  1.
       -3    1    3    3    0  502  0.56732578835E+03 -0.47033846495E+03 -0.12824576189E+04  0.14791126990E+04  0.10100000352E+00 0. -1.
</event>
<event>
 5   0  0.1692125E-05  0.2537027E+04  0.7818609E-02  0.8389912E-01
        3   -1    0    0  501    0  0.00000000000E+00  0.00000000000E+00  0.75577906869E+03  0.75577907544E+03  0.10100000352E+00 0. -1.
       -3   -1    0    0    0  501  0.00000000000E+00  0.00000000000E+00 -0.21290959365E+04  0.21290959389E+04  0.10100000352E+00 0.  1.
    10030    2    1    2    0    0  0.00000000000E+00  0.00000000000E+00 -0.13733168678E+04  0.28848750143E+04  0.25370267300E+04 0.  0.
        1    1    3    3  502    0  0.85508429477E+03  0.82551330664E+02  0.37466195249E+03  0.93720619505E+03  0.50400001928E-02 0. -1.
       -1    1    3    3    0  502 -0.85508429477E+03 -0.82551330664E+02 -0.17479788203E+04  0.19476688193E+04  0.50400001928E-02 0.  1.
</event>
<event>
 5   0  0.2066170E-05  0.2471058E+04  0.7818609E-02  0.8413370E-01
        1   -1    0    0  501    0  0.00000000000E+00  0.00000000000E+00  0.17407552384E+04  0.17407552384E+04  0.50400001928E-02 0. -1.
       -1   -1    0    0    0  501  0.00000000000E+00  0.00000000000E+00 -0.87693622838E+03  0.87693622839E+03  0.50400001928E-02 0.  1.
    10030    2    1    2    0    0  0.00000000000E+00  0.00000000000E+00  0.86381901004E+03  0.26176914668E+04  0.24710575334E+04 0.  0.
        5    1    3    3  502    0  0.80460893736E+03 -0.34435294339E+03  0.13557460368E+04  0.16137050220E+04  0.46999998093E+01 0. -1.
       -5    1    3    3    0  502 -0.80460893736E+03  0.34435294339E+03 -0.49192702677E+03  0.10039864448E+04  0.46999998093E+01 0.  1.
</event>
<event>
 5   0  0.5219468E-05  0.2459440E+04  0.7818609E-02  0.8417580E-01
        2   -1    0    0  501    0  0.00000000000E+00  0.00000000000E+00  0.21954836513E+04  0.21954836513E+04  0.25500000920E-02 0.  1.
       -2   -1    0    0    0  501  0.00000000000E+00  0.00000000000E+00 -0.68878256569E+03  0.68878256569E+03  0.25500000920E-02 0. -1.
    10030    2    1    2    0    0  0.00000000000E+00  0.00000000000E+00  0.15067010856E+04  0.28842662169E+04  0.24594396616E+04 0.  0.
        1    1    3    3  502    0 -0.18552961689E+03 -0.29663822204E+03  0.21358806703E+04  0.21643478720E+04  0.50400001928E-02 0.  1.
       -1    1    3    3    0  502  0.18552961689E+03  0.29663822204E+03 -0.62917958470E+03  0.71991834492E+03  0.50400001928E-02 0. -1.
</event>
<event>
 5   0  0.2041718E-05  0.2458581E+04  0.7818609E-02  0.8417892E-01
       -1   -1    0    0    0  501  0.00000000000E+00  0.00000000000E+00  0.95677301057E+03  0.95677301059E+03  0.50400001928E-02 0.  1.
        1   -1    0    0  501    0  0.00000000000E+00  0.00000000000E+00 -0.15794290591E+04  0.15794290591E+04  0.50400001928E-02 0. -1.
    10030    2    1    2    0    0  0.00000000000E+00  0.00000000000E+00 -0.62265604857E+03  0.25362020697E+04  0.24585809695E+04 0.  0.
        4    1    3    3  502    0  0.47662982856E+03  0.91693810764E+01 -0.14801915915E+04  0.15550655393E+04  0.12699999809E+01 0. -1.
       -4    1    3    3    0  502 -0.47662982856E+03 -0.91693810764E+01  0.85753554295E+03  0.98113653043E+03  0.12699999809E+01 0.  1.
</event>
<event>
 5   0  0.2036578E-05  0.2312371E+04  0.7818609E-02  0.8473059E-01
        1   -1    0    0  501    0  0.00000000000E+00  0.00000000000E+00  0.15201319462E+04  0.15201319462E+04  0.50400001928E-02 0. -1.
       -1   -1    0    0    0  501  0.00000000000E+00  0.00000000000E+00 -0.87937403892E+03  0.87937403893E+03  0.50400001928E-02 0.  1.
    10030    2    1    2    0    0  0.00000000000E+00  0.00000000000E+00  0.64075790731E+03  0.23995059852E+04  0.23123707049E+04 0.  0.
        2    1    3    3  502    0 -0.93506024606E+03 -0.20357148358E+03 -0.35290455471E+03  0.10199610960E+04  0.25500000920E-02 0.  1.
       -2    1    3    3    0  502  0.93506024606E+03  0.20357148358E+03  0.99366246201E+03  0.13795448891E+04  0.25500000920E-02 0. -1.
</event>
<event>
 5   0  0.4959042E-05  0.2499701E+04  0.7818609E-02  0.8403092E-01
        2   -1    0    0  501    0  0.00000000000E+00  0.00000000000E+00  0.10394425848E+04  0.10394425848E+04  0.25500000920E-02 0.  1.
       -2   -1    0    0    0  501  0.00000000000E+00  0.00000000000E+00 -0.15028500773E+04  0.15028500773E+04  0.25500000920E-02 0. -1.
    10030    2    1    2    0    0  0.00000000000E+00  0.00000000000E+00 -0.46340749254E+03  0.25422926621E+04  0.24997010773E+04 0.  0.
        4    1    3    3  502    0  0.51044755674E+03 -0.13181796354E+03 -0.13842343304E+04  0.14812288743E+04  0.12699999809E+01 0. -1.
       -4    1    3    3    0  502 -0.51044755674E+03  0.13181796354E+03  0.92082683784E+03  0.10610637878E+04  0.12699999809E+01 0.  1.
</event>
<event>
 5   0  0.4995256E-05  0.2466915E+04  0.7818609E-02  0.8414868E-01
        2   -1    0    0  501    0  0.00000000000E+00  0.00000000000E+00  0.19027706075E+04  0.19027706075E+04  0.25500000920E-02 0.  1.
       -2   -1    0    0    0  501  0.00000000000E+00  0.00000000000E+00 -0.79957989802E+03  0.79957989802E+03  0.25500000920E-02 0. -1.
    10030    2    1    2    0    0  0.00000000000E+00  0.00000000000E+00  0.11031907095E+04  0.27023505055E+04  0.24669147762E+04 0.  0.
        2    1    3    3  502    0  0.23682858169E+03  0.11194864411E+04  0.10560670867E+04  0.15571176451E+04  0.25500000920E-02 0.  1.
       -2    1    3    3    0  502 -0.23682858169E+03 -0.11194864411E+04  0.47123622777E+02  0.11452328605E+04  0.25500000920E-02 0. -1.
</event>
<event>
 5   0  0.5024070E-05  0.2488791E+04  0.7818609E-02  0.8406990E-01
        2   -1    0    0  501    0  0.00000000000E+00  0.00000000000E+00  0.18575703537E+04  0.18575703537E+04  0.25500000920E-02 0.  1.
       -2   -1    0    0    0  501  0.00000000000E+00  0.00000000000E+00 -0.83362668154E+03  0.83362668155E+03  0.25500000920E-02 0. -1.
    10030    2    1    2    0    0  0.00000000000E+00  0.00000000000E+00  0.10239436721E+04  0.26911970352E+04  0.24887910396E+04 0.  0.
        5    1    3    3  502    0  0.32118936591E+03  0.76147127604E+03  0.15179529936E+04  0.17283531160E+04  0.46999998093E+01 0.  1.
       -5    1    3    3    0  502 -0.32118936591E+03 -0.76147127604E+03 -0.49400932145E+03  0.96284391917E+03  0.46999998093E+01 0. -1.
</event>
<event>
 5   0  0.2036578E-05  0.2134468E+04  0.7818609E-02  0.8546210E-01
       -1   -1    0    0    0  501  0.00000000000E+00  0.00000000000E+00  0.60131205743E+03  0.60131205745E+03  0.50400001928E-02 0.  1.
        1   -1    0    0  501    0  0.00000000000E+00  0.00000000000E+00 -0.18941726107E+04  0.18941726107E+04  0.50400001928E-02 0. -1.
    10030    2    1    2    0    0  0.00000000000E+00  0.00000000000E+00 -0.12928605533E+04  0.24954846682E+04  0.21344683926E+04 0.  0.
        2    1    3    3  502    0 -0.10568378483E+04 -0.10420090371E+03 -0.52256380102E+03  0.11835695975E+04  0.25500000920E-02 0. -1.
       -2    1    3    3    0  502  0.10568378483E+04  0.10420090371E+03 -0.77029675226E+03  0.13119150706E+04  0.25500000920E-02 0.  1.
</event>
<event>
 5   0  0.4959042E-05  0.2476296E+04  0.7818609E-02  0.8411479E-01
       -2   -1    0    0    0  501  0.00000000000E+00  0.00000000000E+00  0.68339466017E+03  0.68339466018E+03  0.25500000920E-02 0.  1.
        2   -1    0    0  501    0  0.00000000000E+00  0.00000000000E+00 -0.22432291069E+04  0.22432291069E+04  0.25500000920E-02 0. -1.
    10030    2    1    2    0    0  0.00000000000E+00  0.00000000000E+00 -0.15598344467E+04  0.29266237671E+04  0.24762962611E+04 0.  0.
        4    1    3    3  502    0  0.34358693552E+03 -0.28368642122E+03 -0.21451924182E+04  0.21909774284E+04  0.12699999809E+01 0. -1.
       -4    1    3    3    0  502 -0.34358693552E+03  0.28368642122E+03  0.58535797150E+03  0.73564633863E+03  0.12699999809E+01 0.  1.
</event>
<event>
 5   0  0.4959347E-05  0.2033102E+04  0.7818609E-02  0.8591299E-01
        2   -1    0    0  501    0  0.00000000000E+00  0.00000000000E+00  0.20572968205E+04  0.20572968205E+04  0.25500000920E-02 0. -1.
       -2   -1    0    0    0  501  0.00000000000E+00  0.00000000000E+00 -0.50229797642E+03  0.50229797643E+03  0.25500000920E-02 0.  1.
    10030    2    1    2    0    0  0.00000000000E+00  0.00000000000E+00  0.15549988441E+04  0.25595947969E+04  0.20331020927E+04 0.  0.
        3    1    3    3  502    0 -0.42633980672E+03 -0.76423731219E+03  0.14287016902E+04  0.16754142263E+04  0.10100000352E+00 0. -1.
       -3    1    3    3    0  502  0.42633980672E+03  0.76423731219E+03  0.12629715393E+03  0.88418057061E+03  0.10100000352E+00 0.  1.
</event>
<event>
 5   0  0.2063930E-05  0.2550193E+04  0.7818609E-02  0.8385319E-01
        1   -1    0    0  501    0  0.00000000000E+00  0.00000000000E+00  0.27538380885E+04  0.27538380885E+04  0.50400001928E-02 0.  1.
       -1   -1    0    0    0  501  0.00000000000E+00  0.00000000000E+00 -0.59040171325E+03  0.59040171327E+03  0.50400001928E-02 0. -1.
    10030    2    1    2    0    0  0.00000000000E+00  0.00000000000E+00  0.21634363753E+04  0.33442398018E+04  0.25501927186E+04 0.  0.
        3    1    3    3  502    0  0.48293896691E+03  0.19852088843E+03 -0.44377488155E+03  0.68525669978E+03  0.10100000352E+00 0. -1.
       -3    1    3    3    0  502 -0.48293896691E+03 -0.19852088843E+03  0.26072112568E+04  0.26589831020E+04  0.10100000352E+00 0.  1.
</event>
<event>
 5   0  0.4959347E-05  0.2628312E+04  0.7818609E-02  0.8358647E-01
        2   -1    0    0  501    0  0.00000000000E+00  0.00000000000E+00  0.17349901429E+04  0.17349901429E+04  0.25500000920E-02 0. -1.
       -2   -1    0    0    0  501  0.00000000000E+00  0.00000000000E+00 -0.99539835314E+03  0.99539835315E+03  0.25500000920E-02 0.  1.
    10030    2    1    2    0    0  0.00000000000E+00  0.00000000000E+00  0.73959178980E+03  0.27303884961E+04  0.26283122577E+04 0.  0.
        3    1    3    3  502    0 -0.10030519930E+04  0.81859500706E+03  0.60392692189E+03  0.14286143018E+04  0.10100000352E+00 0. -1.
       -3    1    3    3    0  502  0.10030519930E+04 -0.81859500706E+03  0.13566486791E+03  0.13017741943E+04  0.10100000352E+00 0.  1.
</event>
<event>
 5   0  0.2036578E-05  0.2296604E+04  0.7818609E-02  0.8479261E-01
        1   -1    0    0  501    0  0.00000000000E+00  0.00000000000E+00  0.16790857345E+04  0.16790857345E+04  0.50400001928E-02 0. -1.
       -1   -1    0    0    0  501  0.00000000000E+00  0.00000000000E+00 -0.78530670538E+03  0.78530670540E+03  0.50400001928E-02 0.  1.
    10030    2    1    2    0    0  0.00000000000E+00  0.00000000000E+00  0.89377902915E+03  0.24643924399E+04  0.22966038285E+04 0.  0.
        2    1    3    3  502    0  0.69212640358E+03  0.64156736208E+03  0.11488620487E+04  0.14867856757E+04  0.25500000920E-02 0. -1.
       -2    1    3    3    0  502 -0.69212640358E+03 -0.64156736208E+03 -0.25508301951E+03  0.97760676423E+03  0.25500000920E-02 0.  1.
</event>
<event>
 5   0  0.2081874E-05  0.2417065E+04  0.7818609E-02  0.8433142E-01
       -1   -1    0    0    0  501  0.00000000000E+00  0.00000000000E+00  0.78142536787E+03  0.78142536789E+03  0.50400001928E-02 0. -1.
        1   -1    0    0  501    0  0.00000000000E+00  0.00000000000E+00 -0.18690860884E+04  0.18690860884E+04  0.50400001928E-02 0.  1.
    10030    2    1    2    0    0  0.00000000000E+00  0.00000000000E+00 -0.10876607205E+04  0.26505114563E+04  0.24170653977E+04 0.  0.
        1    1    3    3  502    0 -0.51097742320E+02 -0.36920363437E+03 -0.18044848107E+04  0.18425763851E+04  0.50400001928E-02 0.  1.
       -1    1    3    3    0  502  0.51097742320E+02  0.36920363437E+03  0.71682409019E+03  0.80793507116E+03  0.50400001928E-02 0. -1.
</event>
<event>
 5   0  0.4959042E-05  0.2260827E+04  0.7818609E-02  0.8493528E-01
        2   -1    0    0  501    0  0.00000000000E+00  0.00000000000E+00  0.15869143066E+04  0.15869143066E+04  0.25500000920E-02 0.  1.
       -2   -1    0    0    0  501  0.00000000000E+00  0.00000000000E+00 -0.80523250375E+03  0.80523250375E+03  0.25500000920E-02 0. -1.
    10030    2    1    2    0    0  0.00000000000E+00  0.00000000000E+00  0.78168180289E+03  0.23921468104E+04  0.22608272648E+04 0.  0.
        4    1    3    3  502    0 -0.79153796823E+03  0.65900381446E+03 -0.10206646537E+03  0.10350060671E+04  0.12699999809E+01 0. -1.
       -4    1    3    3    0  502  0.79153796823E+03 -0.65900381446E+03  0.88374826826E+03  0.13571407433E+04  0.12699999809E+01 0.  1.
</event>
<event>
 5   0  0.4959042E-05  0.2471680E+04  0.7818609E-02  0.8413145E-01
       -2   -1    0    0    0  501  0.00000000000E+00  0.00000000000E+00  0.87465581003E+03  0.87465581004E+03  0.25500000920E-02 0.  1.
        2   -1    0    0  501    0  0.00000000000E+00  0.00000000000E+00 -0.17461734129E+04  0.17461734129E+04  0.25500000920E-02 0. -1.
    10030    2    1    2    0    0  0.00000000000E+00  0.00000000000E+00 -0.87151760282E+03  0.26208292229E+04  0.24716801742E+04 0.  0.
        4    1    3    3  502    0  0.10001959765E+04 -0.27084990509E+03  0.27833918944E+03  0.10729519932E+04  0.12699999809E+01 0. -1.
       -4    1    3    3    0  502 -0.10001959765E+04  0.27084990509E+03 -0.11498567923E+04  0.15478772297E+04  0.12699999809E+01 0.  1.
</event>
<event>
 5   0  0.4959042E-05  0.2397987E+04  0.7818609E-02  0.8440257E-01
       -2   -1    0    0    0  501  0.00000000000E+00  0.00000000000E+00  0.54443577406E+03  0.54443577407E+03  0.25500000920E-02 0.  1.
        2   -1    0    0  501    0  0.00000000000E+00  0.00000000000E+00 -0.26405058903E+04  0.26405058903E+04  0.25500000920E-02 0. -1.
    10030    2    1    2    0    0  0.00000000000E+00  0.00000000000E+00 -0.20960701162E+04  0.31849416644E+04  0.23979873797E+04 0.  0.
        4    1    3    3  502    0  0.29200798822E+03  0.93624116680E+03 -0.13191533305E+03  0.98955518067E+03  0.12699999809E+01 0.  1.
       -4    1    3    3    0  502 -0.29200798822E+03 -0.93624116680E+03 -0.19641547832E+04  0.21953864837E+04  0.12699999809E+01 0. -1.
</event>
<event>
 5   0  0.2081874E-05  0.2500005E+04  0.7818609E-02  0.8402984E-01
       -1   -1    0    0    0  501  0.00000000000E+00  0.00000000000E+00  0.89737140094E+03  0.89737140096E+03  0.50400001928E-02 0.  1.
        1   -1    0    0  501    0  0.00000000000E+00  0.00000000000E+00 -0.17412032881E+04  0.17412032881E+04  0.50400001928E-02 0. -1.
    10030    2    1    2    0    0  0.00000000000E+00  0.00000000000E+00 -0.84383188714E+03  0.26385746890E+04  0.25000048272E+04 0.  0.
        1    1    3    3  502    0  0.18963374052E+03 -0.41736698333E+03 -0.16492790884E+04  0.17118053820E+04  0.50400001928E-02 0. -1.
       -1    1    3    3    0  502 -0.18963374052E+03  0.41736698333E+03  0.80544720131E+03  0.92676930702E+03  0.50400001928E-02 0.  1.
</event>
<event>
 5   0  0.4959347E-05  0.2428759E+04  0.7818609E-02  0.8428814E-01
        2   -1    0    0  501    0  0.00000000000E+00  0.00000000000E+00  0.16039539717E+04  0.16039539717E+04  0.25500000920E-02 0. -1.
       -2   -1    0    0    0  501  0.00000000000E+00  0.00000000000E+00 -0.91942659898E+03  0.91942659898E+03  0.25500000920E-02 0.  1.
    10030    2    1    2    0    0  0.00000000000E+00  0.00000000000E+00  0.68452737271E+03  0.25233805707E+04  0.24287593089E+04 0.  0.
        3    1    3    3  502    0  0.72469828688E+03 -0.75356036237E+03  0.98413258565E+03  0.14358125863E+04  0.10100000352E+00 0. -1.
       -3    1    3    3    0  502 -0.72469828688E+03  0.75356036237E+03 -0.29960521294E+03  0.10875679843E+04  0.10100000352E+00 0.  1.
</event>
<event>
 5   0  0.4959347E-05  0.2534048E+04  0.7818609E-02  0.8390955E-01
       -2   -1    0    0    0  501  0.00000000000E+00  0.00000000000E+00  0.84500810408E+03  0.84500810408E+03  0.25500000920E-02 0.  1.
        2   -1    0    0  501    0  0.00000000000E+00  0.00000000000E+00 -0.18998039482E+04  0.18998039482E+04  0.25500000920E-02 0. -1.
    10030    2    1    2    0    0  0.00000000000E+00  0.00000000000E+00 -0.10547958442E+04  0.27448120523E+04  0.25340479336E+04 0.  0.
        3    1    3    3  502    0 -0.11495978462E+04 -0.52656040916E+03 -0.44001164574E+03  0.13388246081E+04  0.10100000352E+00 0.  1.
       -3    1    3    3    0  502  0.11495978462E+04  0.52656040916E+03 -0.61478419841E+03  0.14059874443E+04  0.10100000352E+00 0. -1.
</event>
<event>
 5   0  0.2036578E-05  0.2457729E+04  0.7818609E-02  0.8418201E-01
       -1   -1    0    0    0  501  0.00000000000E+00  0.00000000000E+00  0.95875451788E+03  0.95875451789E+03  0.50400001928E-02 0.  1.
        1   -1    0    0  501    0  0.00000000000E+00  0.00000000000E+00 -0.15750726522E+04  0.15750726522E+04  0.50400001928E-02 0. -1.
    10030    2    1    2    0    0  0.00000000000E+00  0.00000000000E+00 -0.61631813432E+03  0.25338271701E+04  0.24577290504E+04 0.  0.
        2    1    3    3  502    0  0.99261377704E+03 -0.72428884665E+03 -0.29247021286E+03  0.12630974900E+04  0.25500000920E-02 0. -1.
       -2    1    3    3    0  502 -0.99261377704E+03  0.72428884665E+03 -0.32384792146E+03  0.12707296801E+04  0.25500000920E-02 0.  1.
</event>
<event>
 5   0  0.2081874E-05  0.2320125E+04  0.7818609E-02  0.8470028E-01
       -1   -1    0    0    0  501  0.00000000000E+00  0.00000000000E+00  0.18896672527E+04  0.18896672527E+04  0.50400001928E-02 0. -1.
        1   -1    0    0  501    0  0.00000000000E+00  0.00000000000E+00 -0.71215992219E+03  0.71215992221E+03  0.50400001928E-02 0.  1.
    10030    2    1    2    0    0  0.00000000000E+00  0.00000000000E+00  0.11775073305E+04  0.26018271749E+04  0.23201252412E+04 0.  0.
        1    1    3    3  502    0  0.14355401059E+03  0.28472134703E+03 -0.66205145211E+03  0.73483748181E+03  0.50400001928E-02 0.  1.
       -1    1    3    3    0  502 -0.14355401059E+03 -0.28472134703E+03  0.18395587826E+04  0.18669896931E+04  0.50400001928E-02 0. -1.
</event>
<event>
 5   0  0.2036578E-05  0.2466114E+04  0.7818609E-02  0.8415158E-01
       -1   -1    0    0    0  501  0.00000000000E+00  0.00000000000E+00  0.10724966330E+04  0.10724966330E+04  0.50400001928E-02 0.  1.
        1   -1    0    0  501    0  0.00000000000E+00  0.00000000000E+00 -0.14176549372E+04  0.14176549372E+04  0.50400001928E-02 0. -1.
    10030    2    1    2    0    0  0.00000000000E+00  0.00000000000E+00 -0.34515830424E+03  0.24901515702E+04  0.24661144717E+04 0.  0.
        2    1    3    3  502    0 -0.14113973906E+03 -0.83011305154E+03 -0.10821487828E+04  0.13711506454E+04  0.25500000920E-02 0. -1.
       -2    1    3    3    0  502  0.14113973906E+03  0.83011305154E+03  0.73699047855E+03  0.11190009248E+04  0.25500000920E-02 0.  1.
</event>
<event>
 5   0  0.4959347E-05  0.2465073E+04  0.7818609E-02  0.8415535E-01
        2   -1    0    0  501    0  0.00000000000E+00  0.00000000000E+00  0.12523166321E+04  0.12523166322E+04  0.25500000920E-02 0. -1.
       -2   -1    0    0    0  501  0.00000000000E+00  0.00000000000E+00 -0.12130688538E+04  0.12130688538E+04  0.25500000920E-02 0.  1.
    10030    2    1    2    0    0  0.00000000000E+00  0.00000000000E+00  0.39247778378E+02  0.24653854859E+04  0.24650730630E+04 0.  0.
        3    1    3    3  502    0  0.86908459854E+03 -0.34703545745E+03 -0.78260285150E+03  0.12199216702E+04  0.10100000352E+00 0.  1.
       -3    1    3    3    0  502 -0.86908459854E+03  0.34703545745E+03  0.82185062988E+03  0.12454638157E+04  0.10100000352E+00 0. -1.
</event>
<event>
 5   0  0.2036578E-05  0.2477498E+04  0.7818609E-02  0.8411046E-01
        1   -1    0    0  501    0  0.00000000000E+00  0.00000000000E+00  0.13282168669E+04  0.13282168669E+04  0.50400001928E-02 0. -1.
       -1   -1    0    0    0  501  0.00000000000E+00  0.00000000000E+00 -0.11553077379E+04  0.11553077380E+04  0.50400001928E-02 0.  1.
    10030    2    1    2    0    0  0.00000000000E+00  0.00000000000E+00  0.17290912895E+03  0.24835246049E+04  0.24774981122E+04 0.  0.
        2    1    3    3  502    0  0.11528278473E+04  0.39781838793E+02 -0.36620179810E+03  0.12102472463E+04  0.25500000920E-02 0. -1.
       -2    1    3    3    0  502 -0.11528278473E+04 -0.39781838793E+02  0.53911092705E+03  0.12732773586E+04  0.25500000920E-02 0.  1.
</event>
<event>
 5   0  0.4959042E-05  0.2468484E+04  0.7818609E-02  0.8414300E-01
        2   -1    0    0  501    0  0.00000000000E+00  0.00000000000E+00  0.15145525978E+04  0.15145525978E+04  0.25500000920E-02 0. -1.
       -2   -1    0    0    0  501  0.00000000000E+00  0.00000000000E+00 -0.10058110626E+04  0.10058110626E+04  0.25500000920E-02 0.  1.
    10030    2    1    2    0    0  0.00000000000E+00  0.00000000000E+00  0.50874153517E+03  0.25203636605E+04  0.24684843591E+04 0.  0.
        4    1    3    3  502    0  0.45876695175E+03  0.71459595877E+03 -0.66013057622E+03  0.10755875096E+04  0.12699999809E+01 0.  1.
       -4    1    3    3    0  502 -0.45876695175E+03 -0.71459595877E+03  0.11688721114E+04  0.14447761508E+04  0.12699999809E+01 0. -1.
</event>
<event>
 5   0  0.2063930E-05  0.2443478E+04  0.7818609E-02  0.8423403E-01
       -1   -1    0    0    0  501  0.00000000000E+00  0.00000000000E+00  0.13045622655E+04  0.13045622655E+04  0.50400001928E-02 0.  1.
        1   -1    0    0  501    0  0.00000000000E+00  0.00000000000E+00 -0.11441735466E+04  0.11441735466E+04  0.50400001928E-02 0. -1.
    10030    2    1    2    0    0  0.00000000000E+00  0.00000000000E+00  0.16038871896E+03  0.24487358121E+04  0.24434775498E+04 0.  0.
        3    1    3    3  502    0 -0.82003937683E+03 -0.30127274679E+03 -0.77570195386E+03  0.11683079127E+04  0.10100000352E+00 0. -1.
       -3    1    3    3    0  502  0.82003937683E+03  0.30127274679E+03  0.93609067282E+03  0.12804278994E+04  0.10100000352E+00 0.  1.
</event>
<event>
 5   0  0.2081874E-05  0.2151860E+04  0.7818609E-02  0.8538736E-01
        1   -1    0    0  501    0  0.00000000000E+00  0.00000000000E+00  0.86525468748E+03  0.86525468750E+03  0.50400001928E-02 0.  1.
       -1   -1    0    0    0  501  0.00000000000E+00  0.00000000000E+00 -0.13379017122E+04  0.13379017122E+04  0.50400001928E-02 0. -1.
    10030    2    1    2    0    0  0.00000000000E+00  0.00000000000E+00 -0.47264702472E+03  0.22031563997E+04  0.21518603374E+04 0.  0.
        1    1    3    3  502    0  0.93400638376E+03  0.11288441138E+03 -0.77079726693E+03  0.12162397962E+04  0.50400001928E-02 0. -1.
       -1    1    3    3    0  502 -0.93400638376E+03 -0.11288441138E+03  0.29815024221E+03  0.98691660347E+03  0.50400001928E-02 0.  1.
</event>
<event>
 5   0  0.4959042E-05  0.2488222E+04  0.7818609E-02  0.8407194E-01
        2   -1    0    0  501    0  0.00000000000E+00  0.00000000000E+00  0.12584952020E+04  0.12584952020E+04  0.25500000920E-02 0. -1.
       -2   -1    0    0    0  501  0.00000000000E+00  0.00000000000E+00 -0.12298910169E+04  0.12298910169E+04  0.25500000920E-02 0.  1.
    10030    2    1    2    0    0  0.00000000000E+00  0.00000000000E+00  0.28604185171E+02  0.24883862189E+04  0.24882218098E+04 0.  0.
        4    1    3    3  502    0 -0.46007969227E+03  0.75448444036E+03 -0.86147846476E+03  0.12341259466E+04  0.12699999809E+01 0.  1.
       -4    1    3    3    0  502  0.46007969227E+03 -0.75448444036E+03  0.89008264993E+03  0.12542602723E+04  0.12699999809E+01 0. -1.
</event>
<event>
 5   0  0.5024070E-05  0.2509357E+04  0.7818609E-02  0.8399660E-01
        2   -1    0    0  501    0  0.00000000000E+00  0.00000000000E+00  0.12420956962E+04  0.12420956962E+04  0.25500000920E-02 0. -1.
       -2   -1    0    0    0  501  0.00000000000E+00  0.00000000000E+00 -0.12673888508E+04  0.12673888508E+04  0.25500000920E-02 0.  1.
    10030    2    1    2    0    0  0.00000000000E+00  0.00000000000E+00 -0.25293154609E+02  0.25094845469E+04  0.25093570785E+04 0.  0.
        5    1    3    3  502    0  0.24007500045E+03  0.10024102998E+04  0.70274542885E+03  0.12475318204E+04  0.46999998093E+01 0. -1.
       -5    1    3    3    0  502 -0.24007500045E+03 -0.10024102998E+04 -0.72803858346E+03  0.12619527266E+04  0.46999998093E+01 0.  1.
</event>
<event>
 5   0  0.2036578E-05  0.2514555E+04  0.7818609E-02  0.8397818E-01
       -1   -1    0    0    0  501  0.00000000000E+00  0.00000000000E+00  0.90219108800E+03  0.90219108801E+03  0.50400001928E-02 0.  1.
        1   -1    0    0  501    0  0.00000000000E+00  0.00000000000E+00 -0.17521199659E+04  0.17521199659E+04  0.50400001928E-02 0. -1.
    10030    2    1    2    0    0  0.00000000000E+00  0.00000000000E+00 -0.84992887789E+03  0.26543110539E+04  0.25145552437E+04 0.  0.
        2    1    3    3  502    0  0.67325945663E+03 -0.92417820324E+03 -0.97686494859E+03  0.15038779123E+04  0.25500000920E-02 0. -1.
       -2    1    3    3    0  502 -0.67325945663E+03  0.92417820324E+03  0.12693607070E+03  0.11504331416E+04  0.25500000920E-02 0.  1.
</event>
<event>
 5   0  0.2041718E-05  0.2450008E+04  0.7818609E-02  0.8421015E-01
        1   -1    0    0  501    0  0.00000000000E+00  0.00000000000E+00  0.13251785188E+04  0.13251785189E+04  0.50400001928E-02 0.  1.
       -1   -1    0    0    0  501  0.00000000000E+00  0.00000000000E+00 -0.11324017160E+04  0.11324017160E+04  0.50400001928E-02 0. -1.
    10030    2    1    2    0    0  0.00000000000E+00  0.00000000000E+00  0.19277680289E+03  0.24575802348E+04  0.24500076969E+04 0.  0.
        4    1    3    3  502    0 -0.60272924609E+03  0.16465681073E+03 -0.96054684326E+03  0.11458823065E+04  0.12699999809E+01 0. -1.
       -4    1    3    3    0  502  0.60272924609E+03 -0.16465681073E+03  0.11533236462E+04  0.13116979283E+04  0.12699999809E+01 0.  1.
</event>
<event>
 5   0  0.2081874E-05  0.2576678E+04  0.7818609E-02  0.8376167E-01
        1   -1    0    0  501    0  0.00000000000E+00  0.00000000000E+00  0.11858016184E+04  0.11858016184E+04  0.50400001928E-02 0.  1.
       -1   -1    0    0    0  501  0.00000000000E+00  0.00000000000E+00 -0.13997424341E+04  0.13997424341E+04  0.50400001928E-02 0. -1.
    10030    2    1    2    0    0  0.00000000000E+00  0.00000000000E+00 -0.21394081564E+03  0.25855440525E+04  0.25766775846E+04 0.  0.
        1    1    3    3  502    0  0.11633264265E+04 -0.35373046415E+03  0.32036264032E+03  0.12574123577E+04  0.50400001928E-02 0.  1.
       -1    1    3    3    0  502 -0.11633264265E+04  0.35373046415E+03 -0.53430345596E+03  0.13281316949E+04  0.50400001928E-02 0. -1.
</event>
<event>
 5   0  0.2066170E-05  0.2473426E+04  0.7818609E-02  0.8412514E-01
       -1   -1    0    0    0  501  0.00000000000E+00  0.00000000000E+00  0.73688698564E+03  0.73688698566E+03  0.50400001928E-02 0.  1.
        1   -1    0    0  501    0  0.00000000000E+00  0.00000000000E+00 -0.20755687473E+04  0.20755687473E+04  0.50400001928E-02 0. -1.
    10030    2    1    2    0    0  0.00000000000E+00  0.00000000000E+00 -0.13386817616E+04  0.28124557329E+04  0.24734264474E+04 0.  0.
        5    1    3    3  502    0 -0.57136893178E+03 -0.47477413449E+03 -0.17935818882E+04  0.19413477315E+04  0.46999998093E+01 0. -1.
       -5    1    3    3    0  502  0.57136893178E+03  0.47477413449E+03  0.45490012657E+03  0.87110800142E+03  0.46999998093E+01 0.  1.
</event>
<event>
 5   0  0.2063930E-05  0.2572173E+04  0.7818609E-02  0.8377715E-01
       -1   -1    0    0    0  501  0.00000000000E+00  0.00000000000E+00  0.11527255680E+04  0.11527255681E+04  0.50400001928E-02 0. -1.
        1   -1    0    0  501    0  0.00000000000E+00  0.00000000000E+00 -0.14348762754E+04  0.14348762754E+04  0.50400001928E-02 0.  1.
    10030    2    1    2    0    0  0.00000000000E+00  0.00000000000E+00 -0.28215070734E+03  0.25876018435E+04  0.25721730654E+04 0.  0.
        3    1    3    3  502    0 -0.44842925453E+03  0.43639596222E+03  0.98926947402E+03  0.11705487323E+04  0.10100000352E+00 0. -1.
       -3    1    3    3    0  502  0.44842925453E+03 -0.43639596222E+03 -0.12714201814E+04  0.14170531112E+04  0.10100000352E+00 0.  1.
</event>
<event>
 5   0  0.5219468E-05  0.1836222E+04  0.7818609E-02  0.8687271E-01
        2   -1    0    0  501    0  0.00000000000E+00  0.00000000000E+00  0.15445204988E+04  0.15445204988E+04  0.25500000920E-02 0.  1.
       -2   -1    0    0    0  501  0.00000000000E+00  0.00000000000E+00 -0.54575359803E+03  0.54575359804E+03  0.25500000920E-02 0. -1.
    10030    2    1    2    0    0  0.00000000000E+00  0.00000000000E+00  0.99876690080E+03  0.20902740969E+04  0.18362217943E+04 0.  0.
        1    1    3    3  502    0 -0.14698906549E+03 -0.44555805699E+03  0.13977474733E+04  0.14743899643E+04  0.50400001928E-02 0.  1.
       -1    1    3    3    0  502  0.14698906549E+03  0.44555805699E+03 -0.39898057252E+03  0.61588413260E+03  0.50400001928E-02 0. -1.
</event>
<event>
 5   0  0.2066170E-05  0.1545734E+04  0.7818609E-02  0.8854597E-01
        1   -1    0    0  501    0  0.00000000000E+00  0.00000000000E+00  0.20164945630E+04  0.20164945630E+04  0.50400001928E-02 0. -1.
       -1   -1    0    0    0  501  0.00000000000E+00  0.00000000000E+00 -0.29621887886E+03  0.29621887890E+03  0.50400001928E-02 0.  1.
    10030    2    1    2    0    0  0.00000000000E+00  0.00000000000E+00  0.17202756841E+04  0.23127134419E+04  0.15457344646E+04 0.  0.
        5    1    3    3  502    0 -0.61610044984E+03 -0.45584507281E+03  0.10092111031E+04  0.12672425322E+04  0.46999998093E+01 0.  1.
       -5    1    3    3    0  502  0.61610044984E+03  0.45584507281E+03  0.71106458102E+03  0.10454709097E+04  0.46999998093E+01 0. -1.
</event>
<event>
 5   0  0.2081874E-05  0.2502871E+04  0.7818609E-02  0.8401964E-01
       -1   -1    0    0    0  501  0.00000000000E+00  0.00000000000E+00  0.84957967103E+03  0.84957967104E+03  0.50400001928E-02 0.  1.
        1   -1    0    0  501    0  0.00000000000E+00  0.00000000000E+00 -0.18433706192E+04  0.18433706192E+04  0.50400001928E-02 0. -1.
    10030    2    1    2    0    0  0.00000000000E+00  0.00000000000E+00 -0.99379094819E+03  0.26929502903E+04  0.25028705155E+04 0.  0.
        1    1    3    3  502    0 -0.26488924604E+03  0.55448661343E+03  0.67606611320E+03  0.91361212042E+03  0.50400001928E-02 0.  1.
       -1    1    3    3    0  502  0.26488924604E+03 -0.55448661343E+03 -0.16698570614E+04  0.17793381698E+04  0.50400001928E-02 0. -1.
</event>
<event>
 5   0  0.2063930E-05  0.2064015E+04  0.7818609E-02  0.8577263E-01
       -1   -1    0    0    0  501  0.00000000000E+00  0.00000000000E+00  0.11488886514E+04  0.11488886514E+04  0.50400001928E-02 0. -1.
        1   -1    0    0  501    0  0.00000000000E+00  0.00000000000E+00 -0.92701691941E+03  0.92701691942E+03  0.50400001928E-02 0.  1.
    10030    2    1    2    0    0  0.00000000000E+00  0.00000000000E+00  0.22187173200E+03  0.20759055708E+04  0.20640147465E+04 0.  0.
        3    1    3    3  502    0 -0.98156853587E+03 -0.31601577602E+03  0.69510635478E+02  0.10335252778E+04  0.10100000352E+00 0. -1.
       -3    1    3    3    0  502  0.98156853587E+03  0.31601577602E+03  0.15236109653E+03  0.10423802930E+04  0.10100000352E+00 0.  1.
</event>
<event>
 5   0  0.2041718E-05  0.2545080E+04  0.7818609E-02  0.8387099E-01
        1   -1    0    0  501    0  0.00000000000E+00  0.00000000000E+00  0.15904836712E+04  0.15904836712E+04  0.50400001928E-02 0. -1.
       -1   -1    0    0    0  501  0.00000000000E+00  0.00000000000E+00 -0.10181540936E+04  0.10181540937E+04  0.50400001928E-02 0.  1.
    10030    2    1    2    0    0  0.00000000000E+00  0.00000000000E+00  0.57232957758E+03  0.26086377649E+04  0.25450795357E+04 0.  0.
        4    1    3    3  502    0  0.21628342634E+03  0.12283349413E+03 -0.99299544167E+03  0.10236738484E+04  0.12699999809E+01 0.  1.
       -4    1    3    3    0  502 -0.21628342634E+03 -0.12283349413E+03  0.15653250192E+04  0.15849639165E+04  0.12699999809E+01 0. -1.
</event>
<event>
 5   0  0.2063930E-05  0.2413341E+04  0.7818609E-02  0.8434526E-01
       -1   -1    0    0    0  501  0.00000000000E+00  0.00000000000E+00  0.11390715890E+04  0.11390715890E+04  0.50400001928E-02 0. -1.
        1   -1    0    0  501    0  0.00000000000E+00  0.00000000000E+00 -0.12782812904E+04  0.12782812904E+04  0.50400001928E-02 0.  1.
    10030    2    1    2    0    0  0.00000000000E+00  0.00000000000E+00 -0.13920970138E+03  0.24173528794E+04  0.24133411699E+04 0.  0.
        3    1    3    3  502    0  0.10442346837E+04 -0.46530975146E+03  0.31719071700E+03  0.11864017871E+04  0.10100000352E+00 0. -1.
       -3    1    3    3    0  502 -0.10442346837E+04  0.46530975146E+03 -0.45640041839E+03  0.12309510922E+04  0.10100000352E+00 0.  1.
</event>
<event>
 5   0  0.5219468E-05  0.2847352E+04  0.7818609E-02  0.8288716E-01
        2   -1    0    0  501    0  0.00000000000E+00  0.00000000000E+00  0.13182961117E+04  0.13182961117E+04  0.25500000920E-02 0.  1.
       -2   -1    0    0    0  501  0.00000000000E+00  0.00000000000E+00 -0.15374797323E+04  0.15374797323E+04  0.25500000920E-02 0. -1.
    10030    2    1    2    0    0  0.00000000000E+00  0.00000000000E+00 -0.21918362057E+03  0.28557758440E+04  0.28473521404E+04 0.  0.
        1    1    3    3  502    0  0.98389877676E+03 -0.57285094291E+02  0.92083031204E+03  0.13488020049E+04  0.50400001928E-02 0.  1.
       -1    1    3    3    0  502 -0.98389877676E+03  0.57285094291E+02 -0.11400139326E+04  0.15069738390E+04  0.50400001928E-02 0. -1.
</event>
<event>
 5   0  0.5024070E-05  0.2447422E+04  0.7818609E-02  0.8421960E-01
       -2   -1    0    0    0  501  0.00000000000E+00  0.00000000000E+00  0.70081571937E+03  0.70081571937E+03  0.25500000920E-02 0. -1.
        2   -1    0    0  501    0  0.00000000000E+00  0.00000000000E+00 -0.21367501781E+04  0.21367501781E+04  0.25500000920E-02 0.  1.
    10030    2    1    2    0    0  0.00000000000E+00  0.00000000000E+00 -0.14359344587E+04  0.28375658974E+04  0.24474215927E+04 0.  0.
        5    1    3    3  502    0  0.94824039583E+03  0.72440449824E+03 -0.10323455657E+04  0.15778723594E+04  0.46999998093E+01 0.  1.
       -5    1    3    3    0  502 -0.94824039583E+03 -0.72440449824E+03 -0.40358889296E+03  0.12596935381E+04  0.46999998093E+01 0. -1.
</event>
<event>
 5   0  0.2063930E-05  0.2508677E+04  0.7818609E-02  0.8399901E-01
       -1   -1    0    0    0  501  0.00000000000E+00  0.00000000000E+00  0.79856677004E+03  0.79856677006E+03  0.50400001928E-02 0. -1.
        1   -1    0    0  501    0  0.00000000000E+00  0.00000000000E+00 -0.19702362924E+04  0.19702362924E+04  0.50400001928E-02 0.  1.
    10030    2    1    2    0    0  0.00000000000E+00  0.00000000000E+00 -0.11716695223E+04  0.27688030624E+04  0.25086771273E+04 0.  0.
        3    1    3    3  502    0 -0.70421954396E+03  0.99694965969E+03 -0.90482122911E+03  0.15193864738E+04  0.10100000352E+00 0. -1.
       -3    1    3    3    0  502  0.70421954396E+03 -0.99694965969E+03 -0.26684829322E+03  0.12494165886E+04  0.10100000352E+00 0.  1.
</event>
<event>
 5   0  0.2036578E-05  0.2485366E+04  0.7818609E-02  0.8408218E-01
       -1   -1    0    0    0  501  0.00000000000E+00  0.00000000000E+00  0.70075361769E+03  0.70075361771E+03  0.50400001928E-02 0.  1.
        1   -1    0    0  501    0  0.00000000000E+00  0.00000000000E+00 -0.22037139747E+04  0.22037139748E+04  0.50400001928E-02 0. -1.
    10030    2    1    2    0    0  0.00000000000E+00  0.00000000000E+00 -0.15029603571E+04  0.29044675925E+04  0.24853655990E+04 0.  0.
        2    1    3    3  502    0  0.89450885536E+03  0.35094127978E+03 -0.16723668764E+04  0.19287604422E+04  0.25500000920E-02 0. -1.
       -2    1    3    3    0  502 -0.89450885536E+03 -0.35094127978E+03  0.16940651938E+03  0.97570715022E+03  0.25500000920E-02 0.  1.
</event>
<event>
 5   0  0.2041718E-05  0.2159110E+04  0.7818609E-02  0.8535643E-01
        1   -1    0    0  501    0  0.00000000000E+00  0.00000000000E+00  0.88024014542E+03  0.88024014544E+03  0.50400001928E-02 0. -1.
       -1   -1    0    0    0  501  0.00000000000E+00  0.00000000000E+00 -0.13240005853E+04  0.13240005853E+04  0.50400001928E-02 0.  1.
    10030    2    1    2    0    0  0.00000000000E+00  0.00000000000E+00 -0.44376043988E+03  0.22042407308E+04  0.21591095088E+04 0.  0.
        4    1    3    3  502    0  0.79641483616E+03 -0.56333636479E+03  0.25018369209E+03  0.10070838812E+04  0.12699999809E+01 0. -1.
       -4    1    3    3    0  502 -0.79641483616E+03  0.56333636479E+03 -0.69394413197E+03  0.11971568495E+04  0.12699999809E+01 0.  1.
</event>
<event>
 5   0  0.2036578E-05  0.2411252E+04  0.7818609E-02  0.8435303E-01
       -1   -1    0    0    0  501  0.00000000000E+00  0.00000000000E+00  0.23319201750E+04  0.23319201750E+04  0.50400001928E-02 0. -1.
        1   -1    0    0  501    0  0.00000000000E+00  0.00000000000E+00 -0.62332081247E+03  0.62332081250E+03  0.50400001928E-02 0.  1.
    10030    2    1    2    0    0  0.00000000000E+00  0.00000000000E+00  0.17085993625E+04  0.29552409875E+04  0.24112522706E+04 0.  0.
        2    1    3    3  502    0  0.70758191141E+03  0.89602828829E+03  0.37963228646E+03  0.12031872372E+04  0.25500000920E-02 0.  1.
       -2    1    3    3    0  502 -0.70758191141E+03 -0.89602828829E+03  0.13289670761E+04  0.17520537503E+04  0.25500000920E-02 0. -1.
</event>
<event>
 5   0  0.2081874E-05  0.2482957E+04  0.7818609E-02  0.8409082E-01
        1   -1    0    0  501    0  0.00000000000E+00  0.00000000000E+00  0.11732893217E+04  0.11732893217E+04  0.50400001928E-02 0.  1.
       -1   -1    0    0    0  501  0.00000000000E+00  0.00000000000E+00 -0.13136309463E+04  0.13136309463E+04  0.50400001928E-02 0. -1.
    10030    2    1    2    0    0  0.00000000000E+00  0.00000000000E+00 -0.14034162462E+03  0.24869202681E+04  0.24829572385E+04 0.  0.
        1    1    3    3  502    0  0.69550461416E+03  0.81840870116E+03  0.55351857205E+03  0.12082641599E+04  0.50400001928E-02 0.  1.
       -1    1    3    3    0  502 -0.69550461416E+03 -0.81840870116E+03 -0.69386019667E+03  0.12786561082E+04  0.50400001928E-02 0. -1.
</event>
<event>
 5   0  0.2066170E-05  0.2518366E+04  0.7818609E-02  0.8396472E-01
        1   -1    0    0  501    0  0.00000000000E+00  0.00000000000E+00  0.13443410920E+04  0.13443410921E+04  0.50400001928E-02 0.  1.
       -1   -1    0    0    0  501  0.00000000000E+00  0.00000000000E+00 -0.11794195576E+04  0.11794195576E+04  0.50400001928E-02 0. -1.
    10030    2    1    2    0    0  0.00000000000E+00  0.00000000000E+00  0.16492153440E+03  0.25237606497E+04  0.25183662769E+04 0.  0.
        5    1    3    3  502    0 -0.34074361368E+03 -0.84934431261E+03  0.94919955036E+03  0.13185195668E+04  0.46999998093E+01 0.  1.
       -5    1    3    3    0  502  0.34074361368E+03  0.84934431261E+03 -0.78427801595E+03  0.12052410829E+04  0.46999998093E+01 0. -1.
</event>
<event>
 5   0  0.5024070E-05  0.2415764E+04  0.7818609E-02  0.8433625E-01
        2   -1    0    0  501    0  0.00000000000E+00  0.00000000000E+00  0.20170880981E+04  0.20170880981E+04  0.25500000920E-02 0. -1.
       -2   -1    0    0    0  501  0.00000000000E+00  0.00000000000E+00 -0.72330964267E+03  0.72330964267E+03  0.25500000920E-02 0.  1.
    10030    2    1    2    0    0  0.00000000000E+00  0.00000000000E+00  0.12937784554E+04  0.27403977408E+04  0.24157642861E+04 0.  0.
        5    1    3    3  502    0 -0.99590848658E+03 -0.63341990778E+03  0.35567632754E+03  0.12327133621E+04  0.46999998093E+01 0.  1.
       -5    1    3    3    0  502  0.99590848658E+03  0.63341990778E+03  0.93810212787E+03  0.15076843786E+04  0.46999998093E+01 0. -1.
</event>
<event>
 5   0  0.4959042E-05  0.2489273E+04  0.7818609E-02  0.8406817E-01
       -2   -1    0    0    0  501  0.00000000000E+00  0.00000000000E+00  0.94065859263E+03  0.94065859263E+03  0.25500000920E-02 0.  1.
        2   -1    0    0  501    0  0.00000000000E+00  0.00000000000E+00 -0.16468463147E+04  0.16468463147E+04  0.25500000920E-02 0. -1.
    10030    2    1    2    0    0  0.00000000000E+00  0.00000000000E+00 -0.70618772207E+03  0.25875049073E+04  0.24892730960E+04 0.  0.
        4    1    3    3  502    0  0.10023896710E+04  0.54324692122E+03 -0.87200957060E+03  0.14353761089E+04  0.12699999809E+01 0. -1.
       -4    1    3    3    0  502 -0.10023896710E+04 -0.54324692122E+03  0.16582184854E+03  0.11521287984E+04  0.12699999809E+01 0.  1.
</event>
<event>
 5   0  0.2066170E-05  0.2509503E+04  0.7818609E-02  0.8399608E-01
       -1   -1    0    0    0  501  0.00000000000E+00  0.00000000000E+00  0.10649983491E+04  0.10649983491E+04  0.50400001928E-02 0. -1.
        1   -1    0    0  501    0  0.00000000000E+00  0.00000000000E+00 -0.14783132093E+04  0.14783132093E+04  0.50400001928E-02 0.  1.
    10030    2    1    2    0    0  0.00000000000E+00  0.00000000000E+00 -0.41331486014E+03  0.25433115584E+04  0.25095028411E+04 0.  0.
        5    1    3    3  502    0  0.10306943282E+04  0.38564520280E+03 -0.81754335949E+03  0.13709311636E+04  0.46999998093E+01 0.  1.
       -5    1    3    3    0  502 -0.10306943282E+04 -0.38564520280E+03  0.40422849935E+03  0.11723803949E+04  0.46999998093E+01 0. -1.
</event>
<event>
 5   0  0.1692125E-05  0.2525471E+04  0.7818609E-02  0.8393967E-01
       -3   -1    0    0    0  501  0.00000000000E+00  0.00000000000E+00  0.11722122957E+04  0.11722123000E+04  0.10100000352E+00 0.  1.
        3   -1    0    0  501    0  0.00000000000E+00  0.00000000000E+00 -0.13602492048E+04  0.13602492085E+04  0.10100000352E+00 0. -1.
    10030    2    1    2    0    0  0.00000000000E+00  0.00000000000E+00 -0.18803690911E+03  0.25324615086E+04  0.25254709290E+04 0.  0.
        3    1    3    3  502    0  0.71437191692E+03 -0.86755677772E+03 -0.67138895365E+03  0.13091008882E+04  0.10100000352E+00 0. -1.
       -3    1    3    3    0  502 -0.71437191692E+03  0.86755677772E+03  0.48335204454E+03  0.12233606204E+04  0.10100000352E+00 0.  1.
</event>
<event>
 5   0  0.4959347E-05  0.2410965E+04  0.7818609E-02  0.8435410E-01
       -2   -1    0    0    0  501  0.00000000000E+00  0.00000000000E+00  0.83468744281E+03  0.83468744281E+03  0.25500000920E-02 0. -1.
        2   -1    0    0  501    0  0.00000000000E+00  0.00000000000E+00 -0.17409973603E+04  0.17409973603E+04  0.25500000920E-02 0.  1.
    10030    2    1    2    0    0  0.00000000000E+00  0.00000000000E+00 -0.90630991752E+03  0.25756848031E+04  0.24109654785E+04 0.  0.
        3    1    3    3  502    0 -0.50061928021E+03  0.89998921197E+03  0.21622151386E+03  0.10523079391E+04  0.10100000352E+00 0. -1.
       -3    1    3    3    0  502  0.50061928021E+03 -0.89998921197E+03 -0.11225314314E+04  0.15233768641E+04  0.10100000352E+00 0.  1.
</event>
<event>
 5   0  0.4959042E-05  0.2511368E+04  0.7818609E-02  0.8398947E-01
        2   -1    0    0  501    0  0.00000000000E+00  0.00000000000E+00  0.21315710010E+04  0.21315710010E+04  0.25500000920E-02 0.  1.
       -2   -1    0    0    0  501  0.00000000000E+00  0.00000000000E+00 -0.73970918577E+03  0.73970918578E+03  0.25500000920E-02 0. -1.
    10030    2    1    2    0    0  0.00000000000E+00  0.00000000000E+00  0.13918618152E+04  0.28712801868E+04  0.25113682721E+04 0.  0.
        4    1    3    3  502    0 -0.39929894147E+03 -0.11488035524E+04  0.33883671075E+03  0.12625375939E+04  0.12699999809E+01 0. -1.
       -4    1    3    3    0  502  0.39929894147E+03  0.11488035524E+04  0.10530251045E+04  0.16087425929E+04  0.12699999809E+01 0.  1.
</event>
<event>
 5   0  0.4959042E-05  0.2318580E+04  0.7818609E-02  0.8470631E-01
       -2   -1    0    0    0  501  0.00000000000E+00  0.00000000000E+00  0.10798518519E+04  0.10798518519E+04  0.25500000920E-02 0.  1.
        2   -1    0    0  501    0  0.00000000000E+00  0.00000000000E+00 -0.12445717756E+04  0.12445717756E+04  0.25500000920E-02 0. -1.
    10030    2    1    2    0    0  0.00000000000E+00  0.00000000000E+00 -0.16471992375E+03  0.23244236275E+04  0.23185798556E+04 0.  0.
        4    1    3    3  502    0  0.88350452226E+03 -0.65656727289E+03 -0.44699456409E+03  0.11880515889E+04  0.12699999809E+01 0.  1.
       -4    1    3    3    0  502 -0.88350452226E+03  0.65656727289E+03  0.28227464034E+03  0.11363720386E+04  0.12699999809E+01 0. -1.
</event>
<event>
 5   0  0.2081874E-05  0.2463349E+04  0.7818609E-02  0.8416160E-01
        1   -1    0    0  501    0  0.00000000000E+00  0.00000000000E+00  0.12720292907E+04  0.12720292907E+04  0.50400001928E-02 0.  1.
       -1   -1    0    0    0  501  0.00000000000E+00  0.00000000000E+00 -0.11926002875E+04  0.11926002875E+04  0.50400001928E-02 0. -1.
    10030    2    1    2    0    0  0.00000000000E+00  0.00000000000E+00  0.79429003152E+02  0.24646295782E+04  0.24633493442E+04 0.  0.
        1    1    3    3  502    0  0.95918918379E+03  0.26660200133E+03 -0.68585338525E+03  0.12089315049E+04  0.50400001928E-02 0. -1.
       -1    1    3    3    0  502 -0.95918918379E+03 -0.26660200133E+03  0.76528238840E+03  0.12556980734E+04  0.50400001928E-02 0.  1.
</event>
<event>
 5   0  0.2063930E-05  0.2529507E+04  0.7818609E-02  0.8392548E-01
       -1   -1    0    0    0  501  0.00000000000E+00  0.00000000000E+00  0.83424408243E+03  0.83424408245E+03  0.50400001928E-02 0.  1.
        1   -1    0    0  501    0  0.00000000000E+00  0.00000000000E+00 -0.19174256114E+04  0.19174256114E+04  0.50400001928E-02 0. -1.
    10030    2    1    2    0    0  0.00000000000E+00  0.00000000000E+00 -0.10831815290E+04  0.27516696939E+04  0.25295066474E+04 0.  0.
        3    1    3    3  502    0 -0.28806705106E+03 -0.11473840960E+04 -0.54943284138E+02  0.11842684089E+04  0.10100000352E+00 0.  1.
       -3    1    3    3    0  502  0.28806705106E+03  0.11473840960E+04 -0.10282382448E+04  0.15674012849E+04  0.10100000352E+00 0. -1.
</event>
<event>
 5   0  0.2063930E-05  0.2433254E+04  0.7818609E-02  0.8427158E-01
        1   -1    0    0  501    0  0.00000000000E+00  0.00000000000E+00  0.12924189104E+04  0.12924189104E+04  0.50400001928E-02 0. -1.
       -1   -1    0    0    0  501  0.00000000000E+00  0.00000000000E+00 -0.11452794203E+04  0.11452794203E+04  0.50400001928E-02 0.  1.
    10030    2    1    2    0    0  0.00000000000E+00  0.00000000000E+00  0.14713949008E+03  0.24376983307E+04  0.24332536082E+04 0.  0.
        3    1    3    3  502    0 -0.18522140380E+03 -0.29373848611E+03  0.12417148807E+04  0.12893584148E+04  0.10100000352E+00 0. -1.
       -3    1    3    3    0  502  0.18522140380E+03  0.29373848611E+03 -0.10945753906E+04  0.11483399159E+04  0.10100000352E+00 0.  1.
</event>
<event>
 5   0  0.4959042E-05  0.2628758E+04  0.7818609E-02  0.8358498E-01
        2   -1    0    0  501    0  0.00000000000E+00  0.00000000000E+00  0.15324843715E+04  0.15324843715E+04  0.25500000920E-02 0.  1.
       -2   -1    0    0    0  501  0.00000000000E+00  0.00000000000E+00 -0.11273145913E+04  0.11273145913E+04  0.25500000920E-02 0. -1.
    10030    2    1    2    0    0  0.00000000000E+00  0.00000000000E+00  0.40516978023E+03  0.26597989628E+04  0.26287578762E+04 0.  0.
        4    1    3    3  502    0 -0.30646046297E+03  0.34426276319E+03 -0.10428666408E+04  0.11401786303E+04  0.12699999809E+01 0. -1.
       -4    1    3    3    0  502  0.30646046297E+03 -0.34426276319E+03  0.14480364211E+04  0.15196203326E+04  0.12699999809E+01 0.  1.
</event>
<event>
 5   0  0.2041718E-05  0.2519024E+04  0.7818609E-02  0.8396239E-01
       -1   -1    0    0    0  501  0.00000000000E+00  0.00000000000E+00  0.77775688757E+03  0.77775688759E+03  0.50400001928E-02 0.  1.
        1   -1    0    0  501    0  0.00000000000E+00  0.00000000000E+00 -0.20396733224E+04  0.20396733224E+04  0.50400001928E-02 0. -1.
    10030    2    1    2    0    0  0.00000000000E+00  0.00000000000E+00 -0.12619164348E+04  0.28174302100E+04  0.25190236004E+04 0.  0.
        4    1    3    3  502    0 -0.25420023315E+03  0.19431364585E+03  0.73154278077E+03  0.79845601287E+03  0.12699999809E+01 0.  1.
       -4    1    3    3    0  502  0.25420023315E+03 -0.19431364585E+03 -0.19934592156E+04  0.20189741971E+04  0.12699999809E+01 0. -1.
</event>
<event>
 5   0  0.4959347E-05  0.2564621E+04  0.7818609E-02  0.8380319E-01
       -2   -1    0    0    0  501  0.00000000000E+00  0.00000000000E+00  0.68671978310E+03  0.68671978310E+03  0.25500000920E-02 0. -1.
        2   -1    0    0  501    0  0.00000000000E+00  0.00000000000E+00 -0.23944554738E+04  0.23944554738E+04  0.25500000920E-02 0.  1.
    10030    2    1    2    0    0  0.00000000000E+00  0.00000000000E+00 -0.17077356908E+04  0.30811752569E+04  0.25646207857E+04 0.  0.
        3    1    3    3  502    0  0.11534187943E+04 -0.53261454443E+03 -0.64485342496E+03  0.14247417723E+04  0.10100000352E+00 0. -1.
       -3    1    3    3    0  502 -0.11534187943E+04  0.53261454443E+03 -0.10628822658E+04  0.16564334846E+04  0.10100000352E+00 0.  1.
</event>
<event>
 5   0  0.2066170E-05  0.2464869E+04  0.7818609E-02  0.8415609E-01
        1   -1    0    0  501    0  0.00000000000E+00  0.00000000000E+00  0.20558103769E+04  0.20558103769E+04  0.50400001928E-02 0. -1.
       -1   -1    0    0    0  501  0.00000000000E+00  0.00000000000E+00 -0.73883040850E+03  0.73883040851E+03  0.50400001928E-02 0.  1.
    10030    2    1    2    0    0  0.00000000000E+00  0.00000000000E+00  0.13169799684E+04  0.27946407854E+04  0.24648693439E+04 0.  0.
        5    1    3    3  502    0 -0.23344616229E+03  0.23571913806E+03 -0.68724235451E+03  0.76314138045E+03  0.46999998093E+01 0.  1.
       -5    1    3    3    0  502  0.23344616229E+03 -0.23571913806E+03  0.20042223229E+04  0.20314994050E+04  0.46999998093E+01 0. -1.
</event>
<event>
 5   0  0.4959347E-05  0.2538817E+04  0.7818609E-02  0.8389286E-01
        2   -1    0    0  501    0  0.00000000000E+00  0.00000000000E+00  0.19192065654E+04  0.19192065654E+04  0.25500000920E-02 0. -1.
       -2   -1    0    0    0  501  0.00000000000E+00  0.00000000000E+00 -0.83961650903E+03  0.83961650904E+03  0.25500000920E-02 0.  1.
    10030    2    1    2    0    0  0.00000000000E+00  0.00000000000E+00  0.10795900563E+04  0.27588230744E+04  0.25388166665E+04 0.  0.
        3    1    3    3  502    0 -0.12259300961E+04  0.14281528964E+03  0.86232666941E+03  0.15056254854E+04  0.10100000352E+00 0.  1.
       -3    1    3    3    0  502  0.12259300961E+04 -0.14281528964E+03  0.21726338693E+03  0.12531975890E+04  0.10100000352E+00 0. -1.
</event>
<event>
 5   0  0.5219468E-05  0.2366239E+04  0.7818609E-02  0.8452252E-01
       -2   -1    0    0    0  501  0.00000000000E+00  0.00000000000E+00  0.87371002071E+03  0.87371002071E+03  0.25500000920E-02 0.  1.
        2   -1    0    0  501    0  0.00000000000E+00  0.00000000000E+00 -0.16021016836E+04  0.16021016836E+04  0.25500000920E-02 0. -1.
    10030    2    1    2    0    0  0.00000000000E+00  0.00000000000E+00 -0.72839166286E+03  0.24758117043E+04  0.23662394597E+04 0.  0.
        1    1    3    3  502    0  0.87099766448E+03  0.12702962131E+03 -0.11913729731E+04  0.14812639931E+04  0.50400001928E-02 0. -1.
       -1    1    3    3    0  502 -0.87099766448E+03 -0.12702962131E+03  0.46298131020E+03  0.99454771120E+03  0.50400001928E-02 0.  1.
</event>
<event>
 5   0  0.2066170E-05  0.2293205E+04  0.7818609E-02  0.8480605E-01
       -1   -1    0    0    0  501  0.00000000000E+00  0.00000000000E+00  0.14053629991E+04  0.14053629991E+04  0.50400001928E-02 0. -1.
        1   -1    0    0  501    0  0.00000000000E+00  0.00000000000E+00 -0.93548594157E+03  0.93548594158E+03  0.50400001928E-02 0.  1.
    10030    2    1    2    0    0  0.00000000000E+00  0.00000000000E+00  0.46987705751E+03  0.23408489407E+04  0.22932050309E+04 0.  0.
        5    1    3    3  502    0  0.99363952548E+02  0.73074504493E+03 -0.66126205356E+03  0.99053072100E+03  0.46999998093E+01 0.  1.
       -5    1    3    3    0  502 -0.99363952548E+02 -0.73074504493E+03  0.11311391111E+04  0.13503182197E+04  0.46999998093E+01 0. -1.
</event>
<event>
 5   0  0.2036578E-05  0.2349337E+04  0.7818609E-02  0.8458718E-01
        1   -1    0    0  501    0  0.00000000000E+00  0.00000000000E+00  0.13910112519E+04  0.13910112520E+04  0.50400001928E-02 0. -1.
       -1   -1    0    0    0  501  0.00000000000E+00  0.00000000000E+00 -0.99197375014E+03  0.99197375015E+03  0.50400001928E-02 0.  1.
    10030    2    1    2    0    0  0.00000000000E+00  0.00000000000E+00  0.39903750180E+03  0.23829850021E+04  0.23493374795E+04 0.  0.
        2    1    3    3  502    0  0.83211159144E+03  0.50381277128E+02  0.10389576006E+04  0.13320588836E+04  0.25500000920E-02 0. -1.
       -2    1    3    3    0  502 -0.83211159144E+03 -0.50381277128E+02 -0.63992009876E+03  0.10509261185E+04  0.25500000920E-02 0.  1.
</event>
<event>
 5   0  0.4995256E-05  0.2560249E+04  0.7818609E-02  0.8381830E-01
        2   -1    0    0  501    0  0.00000000000E+00  0.00000000000E+00  0.15344164662E+04  0.15344164662E+04  0.25500000920E-02 0.  1.
       -2   -1    0    0    0  501  0.00000000000E+00  0.00000000000E+00 -0.10679752209E+04  0.10679752209E+04  0.25500000920E-02 0. -1.
    10030    2    1    2    0    0  0.00000000000E+00  0.00000000000E+00  0.46644124532E+03  0.26023916872E+04  0.25602490227E+04 0.  0.
        2    1    3    3  502    0  0.82188211314E+03 -0.43312417833E+03  0.11284169956E+04  0.14616469060E+04  0.25500000920E-02 0.  1.
       -2    1    3    3    0  502 -0.82188211314E+03  0.43312417833E+03 -0.66197575031E+03  0.11407447812E+04  0.25500000920E-02 0. -1.
</event>
<event>
 5   0  0.4995256E-05  0.1646495E+04  0.7818609E-02  0.8792483E-01
        2   -1    0    0  501    0  0.00000000000E+00  0.00000000000E+00  0.14264590991E+04  0.14264590991E+04  0.25500000920E-02 0.  1.
       -2   -1    0    0    0  501  0.00000000000E+00  0.00000000000E+00 -0.47511780812E+03  0.47511780812E+03  0.25500000920E-02 0. -1.
    10030    2    1    2    0    0  0.00000000000E+00  0.00000000000E+00  0.95134129101E+03  0.19015769072E+04  0.16464946044E+04 0.  0.
        2    1    3    3  502    0 -0.78083299512E+03 -0.13627004600E+03  0.73253796986E+03  0.10792967938E+04  0.25500000920E-02 0.  1.
       -2    1    3    3    0  502  0.78083299512E+03  0.13627004600E+03  0.21880332114E+03  0.82228011350E+03  0.25500000920E-02 0. -1.
</event>
<event>
 5   0  0.2063930E-05  0.2489056E+04  0.7818609E-02  0.8406895E-01
       -1   -1    0    0    0  501  0.00000000000E+00  0.00000000000E+00  0.92798753692E+03  0.92798753694E+03  0.50400001928E-02 0. -1.
        1   -1    0    0  501    0  0.00000000000E+00  0.00000000000E+00 -0.16690416028E+04  0.16690416028E+04  0.50400001928E-02 0.  1.
    10030    2    1    2    0    0  0.00000000000E+00  0.00000000000E+00 -0.74105406583E+03  0.25970291397E+04  0.24890558901E+04 0.  0.
        3    1    3    3  502    0 -0.12225630673E+04 -0.17898737404E+03 -0.21523216713E+03  0.12542016702E+04  0.10100000352E+00 0.  1.
       -3    1    3    3    0  502  0.12225630673E+04  0.17898737404E+03 -0.52582189870E+03  0.13428274695E+04  0.10100000352E+00 0. -1.
</event>
<event>
 5   0  0.2036578E-05  0.2469078E+04  0.7818609E-02  0.8414085E-01
       -1   -1    0    0    0  501  0.00000000000E+00  0.00000000000E+00  0.57609522935E+03  0.57609522938E+03  0.50400001928E-02 0.  1.
        1   -1    0    0  501    0  0.00000000000E+00  0.00000000000E+00 -0.26455456236E+04  0.26455456236E+04  0.50400001928E-02 0. -1.
    10030    2    1    2    0    0  0.00000000000E+00  0.00000000000E+00 -0.20694503942E+04  0.32216408530E+04  0.24690777329E+04 0.  0.
        2    1    3    3  502    0  0.11426508279E+04 -0.39913003802E+03 -0.13520092009E+04  0.18146307010E+04  0.25500000920E-02 0. -1.
       -2    1    3    3    0  502 -0.11426508279E+04  0.39913003802E+03 -0.71744119337E+03  0.14070101520E+04  0.25500000920E-02 0.  1.
</event>
<event>
 5   0  0.5219468E-05  0.2454732E+04  0.7818609E-02  0.8419292E-01
        2   -1    0    0  501    0  0.00000000000E+00  0.00000000000E+00  0.20240709573E+04  0.20240709573E+04  0.25500000920E-02 0.  1.
       -2   -1    0    0    0  501  0.00000000000E+00  0.00000000000E+00 -0.74425610467E+03  0.74425610468E+03  0.25500000920E-02 0. -1.
    10030    2    1    2    0    0  0.00000000000E+00  0.00000000000E+00  0.12798148526E+04  0.27683270619E+04  0.24547318927E+04 0.  0.
        1    1    3    3  502    0  0.39892572220E+03  0.11599080700E+03 -0.66255087708E+03  0.78202894057E+03  0.50400001928E-02 0. -1.
       -1    1    3    3    0  502 -0.39892572220E+03 -0.11599080700E+03  0.19423657297E+04  0.19862981214E+04  0.50400001928E-02 0.  1.
</event>
<event>
 5   0  0.2041718E-05  0.2393701E+04  0.7818609E-02  0.8441866E-01
        1   -1    0    0  501    0  0.00000000000E+00  0.00000000000E+00  0.11661166314E+04  0.11661166314E+04  0.50400001928E-02 0.  1.
       -1   -1    0    0    0  501  0.00000000000E+00  0.00000000000E+00 -0.12283944709E+04  0.12283944709E+04  0.50400001928E-02 0. -1.
    10030    2    1    2    0    0  0.00000000000E+00  0.00000000000E+00 -0.62277839463E+02  0.23945111023E+04  0.23937010862E+04 0.  0.
        4    1    3    3  502    0 -0.57111191492E+03 -0.64340180630E+03  0.80119727242E+03  0.11756076667E+04  0.12699999809E+01 0.  1.
       -4    1    3    3    0  502  0.57111191492E+03  0.64340180630E+03 -0.86347511188E+03  0.12189034357E+04  0.12699999809E+01 0. -1.
</event>
<event>
 5   0  0.5219468E-05  0.2500356E+04  0.7818609E-02  0.8402859E-01
       -2   -1    0    0    0  501  0.00000000000E+00  0.00000000000E+00  0.14295742152E+04  0.14295742152E+04  0.25500000920E-02 0.  1.
        2   -1    0    0  501    0  0.00000000000E+00  0.00000000000E+00 -0.10932939649E+04  0.10932939649E+04  0.25500000920E-02 0. -1.
    10030    2    1    2    0    0  0.00000000000E+00  0.00000000000E+00  0.33628025034E+03  0.25228681801E+04  0.25003558642E+04 0.  0.
        1    1    3    3  502    0  0.21652027439E+03 -0.76567195116E+03 -0.80480850382E+03  0.11317470097E+04  0.50400001928E-02 0. -1.
       -1    1    3    3    0  502 -0.21652027439E+03  0.76567195116E+03  0.11410887542E+04  0.13911211705E+04  0.50400001928E-02 0.  1.
</event>
<event>
 5   0  0.2081874E-05  0.2269415E+04  0.7818609E-02  0.8490079E-01
        1   -1    0    0  501    0  0.00000000000E+00  0.00000000000E+00  0.10770255384E+04  0.10770255384E+04  0.50400001928E-02 0.  1.
       -1   -1    0    0    0  501  0.00000000000E+00  0.00000000000E+00 -0.11954789638E+04  0.11954789638E+04  0.50400001928E-02 0. -1.
    10030    2    1    2    0    0  0.00000000000E+00  0.00000000000E+00 -0.11845342544E+03  0.22725045023E+04  0.22694152328E+04 0.  0.
        1    1    3    3  502    0 -0.56506909439E+02  0.15084935679E+02  0.10755152285E+04  0.10771042627E+04  0.50400001928E-02 0.  1.
       -1    1    3    3    0  502  0.56506909439E+02 -0.15084935679E+02 -0.11939686539E+04  0.11954002395E+04  0.50400001928E-02 0. -1.
</event>
<event>
 5   0  0.4959042E-05  0.2521939E+04  0.7818609E-02  0.8395211E-01
        2   -1    0    0  501    0  0.00000000000E+00  0.00000000000E+00  0.13551486657E+04  0.13551486657E+04  0.25500000920E-02 0. -1.
       -2   -1    0    0    0  501  0.00000000000E+00  0.00000000000E+00 -0.11733355812E+04  0.11733355812E+04  0.25500000920E-02 0.  1.
    10030    2    1    2    0    0  0.00000000000E+00  0.00000000000E+00  0.18181308458E+03  0.25284842469E+04  0.25219390534E+04 0.  0.
        4    1    3    3  502    0  0.10681664483E+03 -0.65684318150E+03  0.11647557442E+04  0.13414582801E+04  0.12699999809E+01 0. -1.
       -4    1    3    3    0  502 -0.10681664483E+03  0.65684318150E+03 -0.98294265966E+03  0.11870259668E+04  0.12699999809E+01 0.  1.
</event>
<event>
 5   0  0.1692125E-05  0.2432986E+04  0.7818609E-02  0.8427256E-01
       -3   -1    0    0    0  501  0.00000000000E+00  0.00000000000E+00  0.99571331730E+03  0.99571332242E+03  0.10100000352E+00 0. -1.
        3   -1    0    0  501    0  0.00000000000E+00  0.00000000000E+00 -0.14862261031E+04  0.14862261065E+04  0.10100000352E+00 0.  1.
    10030    2    1    2    0    0  0.00000000000E+00  0.00000000000E+00 -0.49051278580E+03  0.24819394290E+04  0.24329859301E+04 0.  0.
        3    1    3    3  502    0 -0.24352496909E+03  0.11316911326E+04  0.13620042601E+03  0.11655813127E+04  0.10100000352E+00 0. -1.
       -3    1    3    3    0  502  0.24352496909E+03 -0.11316911326E+04 -0.62671321181E+03  0.13163581163E+04  0.10100000352E+00 0.  1.
</event>
<event>
 5   0  0.4959347E-05  0.2527478E+04  0.7818609E-02  0.8393261E-01
        2   -1    0    0  501    0  0.00000000000E+00  0.00000000000E+00  0.17575044401E+04  0.17575044401E+04  0.25500000920E-02 0. -1.
       -2   -1    0    0    0  501  0.00000000000E+00  0.00000000000E+00 -0.90869508453E+03  0.90869508454E+03  0.25500000920E-02 0.  1.
    10030    2    1    2    0    0  0.00000000000E+00  0.00000000000E+00  0.84880935554E+03  0.26661995246E+04  0.25274775138E+04 0.  0.
        3    1    3    3  502    0 -0.84169559171E+03  0.90562267395E+03  0.70035705137E+03  0.14209517607E+04  0.10100000352E+00 0. -1.
       -3    1    3    3    0  502  0.84169559171E+03 -0.90562267395E+03  0.14845230417E+03  0.12452477639E+04  0.10100000352E+00 0.  1.
</event>
<event>
 5   0  0.4995256E-05  0.2296715E+04  0.7818609E-02  0.8479217E-01
       -2   -1    0    0    0  501  0.00000000000E+00  0.00000000000E+00  0.81504837667E+03  0.81504837667E+03  0.25500000920E-02 0. -1.
        2   -1    0    0  501    0  0.00000000000E+00  0.00000000000E+00 -0.16179713932E+04  0.16179713932E+04  0.25500000920E-02 0.  1.
    10030    2    1    2    0    0  0.00000000000E+00  0.00000000000E+00 -0.80292301656E+03  0.24330197699E+04  0.22967150085E+04 0.  0.
        2    1    3    3  502    0 -0.45567700365E+03  0.26350870448E+03  0.67972029412E+03  0.85970811746E+03  0.25500000920E-02 0. -1.
       -2    1    3    3    0  502  0.45567700365E+03 -0.26350870448E+03 -0.14826433107E+04  0.15733116524E+04  0.25500000920E-02 0.  1.
</event>
<event>
 5   0  0.5219468E-05  0.2497896E+04  0.7818609E-02  0.8403735E-01
        2   -1    0    0  501    0  0.00000000000E+00  0.00000000000E+00  0.11498853521E+04  0.11498853521E+04  0.25500000920E-02 0.  1.
       -2   -1    0    0    0  501  0.00000000000E+00  0.00000000000E+00 -0.13565449698E+04  0.13565449698E+04  0.25500000920E-02 0. -1.
    10030    2    1    2    0    0  0.00000000000E+00  0.00000000000E+00 -0.20665961775E+03  0.25064303219E+04  0.24978960669E+04 0.  0.
        1    1    3    3  502    0 -0.41995494791E+03  0.98536664255E+03  0.54117428331E+03  0.12000746575E+04  0.50400001928E-02 0.  1.
       -1    1    3    3    0  502  0.41995494791E+03 -0.98536664255E+03 -0.74783390106E+03  0.13063556645E+04  0.50400001928E-02 0. -1.
</event>
<event>
 5   0  0.2041718E-05  0.2479811E+04  0.7818609E-02  0.8410213E-01
       -1   -1    0    0    0  501  0.00000000000E+00  0.00000000000E+00  0.83035651425E+03  0.83035651426E+03  0.50400001928E-02 0.  1.
        1   -1    0    0  501    0  0.00000000000E+00  0.00000000000E+00 -0.18514525103E+04  0.18514525103E+04  0.50400001928E-02 0. -1.
    10030    2    1    2    0    0  0.00000000000E+00  0.00000000000E+00 -0.10210959960E+04  0.26818090245E+04  0.24798110031E+04 0.  0.
        4    1    3    3  502    0  0.10721831582E+03  0.10740131836E+04 -0.11704707200E+04  0.15921694021E+04  0.12699999809E+01 0.  1.
       -4    1    3    3    0  502 -0.10721831582E+03 -0.10740131836E+04  0.14937472397E+03  0.10896396224E+04  0.12699999809E+01 0. -1.
</event>
<event>
 5   0  0.4995256E-05  0.2597935E+04  0.7818609E-02  0.8368903E-01
       -2   -1    0    0    0  501  0.00000000000E+00  0.00000000000E+00  0.89314052435E+03  0.89314052436E+03  0.25500000920E-02 0. -1.
        2   -1    0    0  501    0  0.00000000000E+00  0.00000000000E+00 -0.18891954522E+04  0.18891954522E+04  0.25500000920E-02 0.  1.
    10030    2    1    2    0    0  0.00000000000E+00  0.00000000000E+00 -0.99605492788E+03  0.27823359766E+04  0.25979353470E+04 0.  0.
        2    1    3    3  502    0 -0.22936278467E+03 -0.18203146871E+03 -0.18533878078E+04  0.18763765903E+04  0.25500000920E-02 0.  1.
       -2    1    3    3    0  502  0.22936278467E+03  0.18203146871E+03  0.85733287992E+03  0.90595938628E+03  0.25500000920E-02 0. -1.
</event>
<event>
 5   0  0.2066170E-05  0.2449783E+04  0.7818609E-02  0.8421097E-01
        1   -1    0    0  501    0  0.00000000000E+00  0.00000000000E+00  0.14195031518E+04  0.14195031518E+04  0.50400001928E-02 0. -1.
       -1   -1    0    0    0  501  0.00000000000E+00  0.00000000000E+00 -0.10569611341E+04  0.10569611341E+04  0.50400001928E-02 0.  1.
    10030    2    1    2    0    0  0.00000000000E+00  0.00000000000E+00  0.36254201773E+03  0.24764642860E+04  0.24497833874E+04 0.  0.
        5    1    3    3  502    0  0.36619870119E+03 -0.66449284388E+03 -0.79080756534E+03  0.10959246889E+04  0.46999998093E+01 0.  1.
       -5    1    3    3    0  502 -0.36619870119E+03  0.66449284388E+03  0.11533495831E+04  0.13805395971E+04  0.46999998093E+01 0. -1.
</event>
<event>
 5   0  0.2041718E-05  0.2519851E+04  0.7818609E-02  0.8395947E-01
       -1   -1    0    0    0  501  0.00000000000E+00  0.00000000000E+00  0.96385052173E+03  0.96385052175E+03  0.50400001928E-02 0. -1.
        1   -1    0    0  501    0  0.00000000000E+00  0.00000000000E+00 -0.16469487378E+04  0.16469487378E+04  0.50400001928E-02 0.  1.
    10030    2    1    2    0    0  0.00000000000E+00  0.00000000000E+00 -0.68309821604E+03  0.26107992595E+04  0.25198511069E+04 0.  0.
        4    1    3    3  502    0  0.11528839868E+04 -0.13970207907E+03  0.16470980527E+03  0.11729403611E+04  0.12699999809E+01 0. -1.
       -4    1    3    3    0  502 -0.11528839868E+04  0.13970207907E+03 -0.84780802131E+03  0.14378588984E+04  0.12699999809E+01 0.  1.
</event>
<event>
 5   0  0.2036578E-05  0.2493207E+04  0.7818609E-02  0.8405409E-01
        1   -1    0    0  501    0  0.00000000000E+00  0.00000000000E+00  0.11519532256E+04  0.11519532256E+04  0.50400001928E-02 0. -1.
       -1   -1    0    0    0  501  0.00000000000E+00  0.00000000000E+00 -0.13490309790E+04  0.13490309790E+04  0.50400001928E-02 0.  1.
    10030    2    1    2    0    0  0.00000000000E+00  0.00000000000E+00 -0.19707775338E+03  0.25009842047E+04  0.24932072419E+04 0.  0.
        2    1    3    3  502    0  0.55010917721E+03  0.90715431761E+03  0.55808028420E+03  0.11987504605E+04  0.25500000920E-02 0. -1.
       -2    1    3    3    0  502 -0.55010917721E+03 -0.90715431761E+03 -0.75515803757E+03  0.13022337442E+04  0.25500000920E-02 0.  1.
</event>
<event>
 5   0  0.2066170E-05  0.2541641E+04  0.7818609E-02  0.8388299E-01
       -1   -1    0    0    0  501  0.00000000000E+00  0.00000000000E+00  0.85575951524E+03  0.85575951525E+03  0.50400001928E-02 0. -1.
        1   -1    0    0  501    0  0.00000000000E+00  0.00000000000E+00 -0.18871950646E+04  0.18871950646E+04  0.50400001928E-02 0.  1.
    10030    2    1    2    0    0  0.00000000000E+00  0.00000000000E+00 -0.10314355494E+04  0.27429545799E+04  0.25416413073E+04 0.  0.
        5    1    3    3  502    0 -0.67844282645E+03 -0.31662358275E+03 -0.16239041255E+04  0.17881895483E+04  0.46999998093E+01 0.  1.
       -5    1    3    3    0  502  0.67844282645E+03  0.31662358275E+03  0.59246857607E+03  0.95476503159E+03  0.46999998093E+01 0. -1.
</event>
<event>
 5   0  0.4959347E-05  0.2441237E+04  0.7818609E-02  0.8424224E-01
       -2   -1    0    0    0  501  0.00000000000E+00  0.00000000000E+00  0.69029499518E+03  0.69029499519E+03  0.25500000920E-02 0.  1.
        2   -1    0    0  501    0  0.00000000000E+00  0.00000000000E+00 -0.21583662196E+04  0.21583662196E+04  0.25500000920E-02 0. -1.
    10030    2    1    2    0    0  0.00000000000E+00  0.00000000000E+00 -0.14680712244E+04  0.28486612148E+04  0.24412368989E+04 0.  0.
        3    1    3    3  502    0 -0.13655654730E+03 -0.14136349821E+03  0.67170823657E+03  0.69987377042E+03  0.10100000352E+00 0.  1.
       -3    1    3    3    0  502  0.13655654730E+03  0.14136349821E+03 -0.21397794610E+04  0.21487874444E+04  0.10100000352E+00 0. -1.
</event>
<event>
 5   0  0.4959042E-05  0.2530571E+04  0.7818609E-02  0.8392175E-01
       -2   -1    0    0    0  501  0.00000000000E+00  0.00000000000E+00  0.12171631363E+04  0.12171631363E+04  0.25500000920E-02 0. -1.
        2   -1    0    0  501    0  0.00000000000E+00  0.00000000000E+00 -0.13153101150E+04  0.13153101150E+04  0.25500000920E-02 0.  1.
    10030    2    1    2    0    0  0.00000000000E+00  0.00000000000E+00 -0.98146978748E+02  0.25324732513E+04  0.25305706746E+04 0.  0.
        4    1    3    3  502    0  0.86340468155E+03  0.86251528056E+03 -0.38330830081E+03  0.12791900249E+04  0.12699999809E+01 0. -1.
       -4    1    3    3    0  502 -0.86340468155E+03 -0.86251528056E+03  0.28516132206E+03  0.12532832265E+04  0.12699999809E+01 0.  1.
</event>
<event>
 5   0  0.5024070E-05  0.2463608E+04  0.7818609E-02  0.8416066E-01
        2   -1    0    0  501    0  0.00000000000E+00  0.00000000000E+00  0.17761042127E+04  0.17761042127E+04  0.25500000920E-02 0. -1.
       -2   -1    0    0    0  501  0.00000000000E+00  0.00000000000E+00 -0.85430841056E+03  0.85430841057E+03  0.25500000920E-02 0.  1.
    10030    2    1    2    0    0  0.00000000000E+00  0.00000000000E+00  0.92179580217E+03  0.26304126233E+04  0.24636077342E+04 0.  0.
        5    1    3    3  502    0  0.10679343171E+04 -0.20905599654E+03  0.10771516293E+04  0.15311648631E+04  0.46999998093E+01 0. -1.
       -5    1    3    3    0  502 -0.10679343171E+04  0.20905599654E+03 -0.15535582717E+03  0.10992477602E+04  0.46999998093E+01 0.  1.
</event>
<event>
 5   0  0.2036578E-05  0.2505341E+04  0.7818609E-02  0.8401085E-01
        1   -1    0    0  501    0  0.00000000000E+00  0.00000000000E+00  0.14091080883E+04  0.14091080883E+04  0.50400001928E-02 0.  1.
       -1   -1    0    0    0  501  0.00000000000E+00  0.00000000000E+00 -0.11136002623E+04  0.11136002623E+04  0.50400001928E-02 0. -1.
    10030    2    1    2    0    0  0.00000000000E+00  0.00000000000E+00  0.29550782604E+03  0.25227083506E+04  0.25053408045E+04 0.  0.
        2    1    3    3  502    0 -0.61304436419E+03 -0.10040787253E+04  0.58106909655E+03  0.13121123328E+04  0.25500000920E-02 0.  1.
       -2    1    3    3    0  502  0.61304436419E+03  0.10040787253E+04 -0.28556127051E+03  0.12105960178E+04  0.25500000920E-02 0. -1.
</event>
<event>
 5   0  0.2036578E-05  0.2513119E+04  0.7818609E-02  0.8398327E-01
        1   -1    0    0  501    0  0.00000000000E+00  0.00000000000E+00  0.14815546069E+04  0.14815546069E+04  0.50400001928E-02 0. -1.
       -1   -1    0    0    0  501  0.00000000000E+00  0.00000000000E+00 -0.10657328507E+04  0.10657328507E+04  0.50400001928E-02 0.  1.
    10030    2    1    2    0    0  0.00000000000E+00  0.00000000000E+00  0.41582175619E+03  0.25472874576E+04  0.25131187116E+04 0.  0.
        2    1    3    3  502    0  0.39526858832E+03  0.72024612153E+03  0.11716002773E+04  0.14309573516E+04  0.25500000920E-02 0. -1.
       -2    1    3    3    0  502 -0.39526858832E+03 -0.72024612153E+03 -0.75577852109E+03  0.11163301059E+04  0.25500000920E-02 0.  1.
</event>
<event>
 5   0  0.1692125E-05  0.2538470E+04  0.7818609E-02  0.8389407E-01
       -3   -1    0    0    0  501  0.00000000000E+00  0.00000000000E+00  0.13040579770E+04  0.13040579809E+04  0.10100000352E+00 0.  1.
        3   -1    0    0  501    0  0.00000000000E+00  0.00000000000E+00 -0.12353420667E+04  0.12353420708E+04  0.10100000352E+00 0. -1.
    10030    2    1    2    0    0  0.00000000000E+00  0.00000000000E+00  0.68715910319E+02  0.25394000517E+04  0.25384701586E+04 0.  0.
        3    1    3    3  502    0 -0.29237634661E+03 -0.70783937591E+03  0.10468735589E+04  0.12970985964E+04  0.10100000352E+00 0.  1.
       -3    1    3    3    0  502  0.29237634661E+03  0.70783937591E+03 -0.97815764862E+03  0.12423014553E+04  0.10100000352E+00 0. -1.
</event>
<event>
 5   0  0.2041718E-05  0.2524607E+04  0.7818609E-02  0.8394271E-01
       -1   -1    0    0    0  501  0.00000000000E+00  0.00000000000E+00  0.96833460613E+03  0.96833460614E+03  0.50400001928E-02 0. -1.
        1   -1    0    0  501    0  0.00000000000E+00  0.00000000000E+00 -0.16455162218E+04  0.16455162218E+04  0.50400001928E-02 0.  1.
    10030    2    1    2    0    0  0.00000000000E+00  0.00000000000E+00 -0.67718161569E+03  0.26138508280E+04  0.25246071398E+04 0.  0.
        4    1    3    3  502    0 -0.15453863223E+03  0.63704312875E+03 -0.14554745939E+04  0.15962813170E+04  0.12699999809E+01 0.  1.
       -4    1    3    3    0  502  0.15453863223E+03 -0.63704312875E+03  0.77829297821E+03  0.10175695109E+04  0.12699999809E+01 0. -1.
</event>
<event>
 5   0  0.2063930E-05  0.2366420E+04  0.7818609E-02  0.8452183E-01
        1   -1    0    0  501    0  0.00000000000E+00  0.00000000000E+00  0.10693269344E+04  0.10693269344E+04  0.50400001928E-02 0.  1.
       -1   -1    0    0    0  501  0.00000000000E+00  0.00000000000E+00 -0.13092217371E+04  0.13092217371E+04  0.50400001928E-02 0. -1.
    10030    2    1    2    0    0  0.00000000000E+00  0.00000000000E+00 -0.23989480269E+03  0.23785486716E+04  0.23664201374E+04 0.  0.
        3    1    3    3  502    0 -0.60600828122E+02 -0.50489735211E+03 -0.11937826409E+04  0.12975788225E+04  0.10100000352E+00 0. -1.
       -3    1    3    3    0  502  0.60600828122E+02  0.50489735211E+03  0.95388783824E+03  0.10809698491E+04  0.10100000352E+00 0.  1.
</event>
<event>
 5   0  0.4959042E-05  0.2498662E+04  0.7818609E-02  0.8403462E-01
       -2   -1    0    0    0  501  0.00000000000E+00  0.00000000000E+00  0.16834754061E+04  0.16834754061E+04  0.25500000920E-02 0.  1.
        2   -1    0    0  501    0  0.00000000000E+00  0.00000000000E+00 -0.92714651839E+03  0.92714651840E+03  0.25500000920E-02 0. -1.
    10030    2    1    2    0    0  0.00000000000E+00  0.00000000000E+00  0.75632888772E+03  0.26106219245E+04  0.24986623314E+04 0.  0.
        4    1    3    3  502    0 -0.66097056667E+03 -0.16647837019E+03 -0.71575961962E+03  0.98838787109E+03  0.12699999809E+01 0. -1.
       -4    1    3    3    0  502  0.66097056667E+03  0.16647837019E+03  0.14720885073E+04  0.16222340534E+04  0.12699999809E+01 0.  1.
</event>
<event>
 5   0  0.5024070E-05  0.2476768E+04  0.7818609E-02  0.8411309E-01
       -2   -1    0    0    0  501  0.00000000000E+00  0.00000000000E+00  0.11847503887E+04  0.11847503887E+04  0.25500000920E-02 0. -1.
        2   -1    0    0  501    0  0.00000000000E+00  0.00000000000E+00 -0.12944454633E+04  0.12944454633E+04  0.25500000920E-02 0.  1.
    10030    2    1    2    0    0  0.00000000000E+00  0.00000000000E+00 -0.10969507452E+03  0.24791958520E+04  0.24767678662E+04 0.  0.
        5    1    3    3  502    0 -0.39284355932E+03  0.64053434247E+03 -0.10401713706E+04  0.12831947928E+04  0.46999998093E+01 0.  1.
       -5    1    3    3    0  502  0.39284355932E+03 -0.64053434247E+03  0.93047629612E+03  0.11960010592E+04  0.46999998093E+01 0. -1.
</event>
<event>
 5   0  0.2066170E-05  0.2540186E+04  0.7818609E-02  0.8388807E-01
       -1   -1    0    0    0  501  0.00000000000E+00  0.00000000000E+00  0.10314432404E+04  0.10314432404E+04  0.50400001928E-02 0. -1.
        1   -1    0    0  501    0  0.00000000000E+00  0.00000000000E+00 -0.15639604648E+04  0.15639604648E+04  0.50400001928E-02 0.  1.
    10030    2    1    2    0    0  0.00000000000E+00  0.00000000000E+00 -0.53251722445E+03  0.25954037052E+04  0.25401861740E+04 0.  0.
        5    1    3    3  502    0 -0.81448580465E+03 -0.15967693394E+03 -0.12485255426E+04  0.14992404643E+04  0.46999998093E+01 0.  1.
       -5    1    3    3    0  502  0.81448580465E+03  0.15967693394E+03  0.71600831813E+03  0.10961632410E+04  0.46999998093E+01 0. -1.
</event>
<event>
 5   0  0.5219468E-05  0.2457387E+04  0.7818609E-02  0.8418326E-01
        2   -1    0    0  501    0  0.00000000000E+00  0.00000000000E+00  0.14479457018E+04  0.14479457018E+04  0.25500000920E-02 0.  1.
       -2   -1    0    0    0  501  0.00000000000E+00  0.00000000000E+00 -0.10426413655E+04  0.10426413655E+04  0.25500000920E-02 0. -1.
    10030    2    1    2    0    0  0.00000000000E+00  0.00000000000E+00  0.40530433636E+03  0.24905870673E+04  0.24573872985E+04 0.  0.
        1    1    3    3  502    0  0.55835580975E+03  0.61096093528E+03  0.11230252352E+04  0.13950699458E+04  0.50400001928E-02 0.  1.
       -1    1    3    3    0  502 -0.55835580975E+03 -0.61096093528E+03 -0.71772089889E+03  0.10955171215E+04  0.50400001928E-02 0. -1.
</event>
<event>
 5   0  0.4995256E-05  0.2508077E+04  0.7818609E-02  0.8400114E-01
        2   -1    0    0  501    0  0.00000000000E+00  0.00000000000E+00  0.16194962728E+04  0.16194962728E+04  0.25500000920E-02 0. -1.
       -2   -1    0    0    0  501  0.00000000000E+00  0.00000000000E+00 -0.97105015235E+03  0.97105015235E+03  0.25500000920E-02 0.  1.
    10030    2    1    2    0    0  0.00000000000E+00  0.00000000000E+00  0.64844612042E+03  0.25905464251E+04  0.25080766355E+04 0.  0.
        2    1    3    3  502    0  0.41343036437E+02 -0.34570038703E+02  0.16182996507E+04  0.16191967433E+04  0.25500000920E-02 0. -1.
       -2    1    3    3    0  502 -0.41343036437E+02  0.34570038703E+02 -0.96985353023E+03  0.97134968181E+03  0.25500000920E-02 0.  1.
</event>
<event>
 5   0  0.4995256E-05  0.2489236E+04  0.7818609E-02  0.8406830E-01
        2   -1    0    0  501    0  0.00000000000E+00  0.00000000000E+00  0.17620420258E+04  0.17620420258E+04  0.25500000920E-02 0. -1.
       -2   -1    0    0    0  501  0.00000000000E+00  0.00000000000E+00 -0.87913591504E+03  0.87913591504E+03  0.25500000920E-02 0.  1.
    10030    2    1    2    0    0  0.00000000000E+00  0.00000000000E+00  0.88290611078E+03  0.26411779409E+04  0.24892363718E+04 0.  0.
        2    1    3    3  502    0  0.70149088463E+03 -0.94721821271E+03  0.86555388020E+03  0.14623595055E+04  0.25500000920E-02 0. -1.
       -2    1    3    3    0  502 -0.70149088463E+03  0.94721821271E+03  0.17352230583E+02  0.11788184354E+04  0.25500000920E-02 0.  1.
</event>
<event>
 5   0  0.2041718E-05  0.2498749E+04  0.7818609E-02  0.8403431E-01
        1   -1    0    0  501    0  0.00000000000E+00  0.00000000000E+00  0.19048202696E+04  0.19048202696E+04  0.50400001928E-02 0.  1.
       -1   -1    0    0    0  501  0.00000000000E+00  0.00000000000E+00 -0.81946669366E+03  0.81946669368E+03  0.50400001928E-02 0. -1.
    10030    2    1    2    0    0  0.00000000000E+00  0.00000000000E+00  0.10853535759E+04  0.27242869633E+04  0.24987491017E+04 0.  0.
        4    1    3    3  502    0  0.89852950175E+03  0.57941863880E+03 -0.16208515987E+03  0.10813669296E+04  0.12699999809E+01 0.  1.
       -4    1    3    3    0  502 -0.89852950175E+03 -0.57941863880E+03  0.12474387358E+04  0.16429200336E+04  0.12699999809E+01 0. -1.
</event>
<event>
 5   0  0.2081874E-05  0.2116016E+04  0.7818609E-02  0.8554221E-01
       -1   -1    0    0    0  501  0.00000000000E+00  0.00000000000E+00  0.56407104677E+03  0.56407104679E+03  0.50400001928E-02 0. -1.
        1   -1    0    0  501    0  0.00000000000E+00  0.00000000000E+00 -0.19844686596E+04  0.19844686596E+04  0.50400001928E-02 0.  1.
    10030    2    1    2    0    0  0.00000000000E+00  0.00000000000E+00 -0.14203976128E+04  0.25485397064E+04  0.21160163649E+04 0.  0.
        1    1    3    3  502    0 -0.37592539992E+03  0.29432170192E+02  0.48039339832E+03  0.61070776655E+03  0.50400001928E-02 0. -1.
       -1    1    3    3    0  502  0.37592539992E+03 -0.29432170192E+02 -0.19007910111E+04  0.19378319398E+04  0.50400001928E-02 0.  1.
</event>
<event>
 5   0  0.5024070E-05  0.2639475E+04  0.7818609E-02  0.8354915E-01
        2   -1    0    0  501    0  0.00000000000E+00  0.00000000000E+00  0.11755076296E+04  0.11755076296E+04  0.25500000920E-02 0.  1.
       -2   -1    0    0    0  501  0.00000000000E+00  0.00000000000E+00 -0.14816634923E+04  0.14816634923E+04  0.25500000920E-02 0. -1.
    10030    2    1    2    0    0  0.00000000000E+00  0.00000000000E+00 -0.30615586272E+03  0.26571711219E+04  0.26394747505E+04 0.  0.
        5    1    3    3  502    0 -0.19318232786E+03  0.91582594250E+03  0.78355124106E+03  0.12206683440E+04  0.46999998093E+01 0.  1.
       -5    1    3    3    0  502  0.19318232786E+03 -0.91582594250E+03 -0.10897071038E+04  0.14365027779E+04  0.46999998093E+01 0. -1.
</event>
<event>
 5   0  0.2066170E-05  0.2533133E+04  0.7818609E-02  0.8391276E-01
       -1   -1    0    0    0  501  0.00000000000E+00  0.00000000000E+00  0.10322457387E+04  0.10322457388E+04  0.50400001928E-02 0.  1.
        1   -1    0    0  501    0  0.00000000000E+00  0.00000000000E+00 -0.15540780186E+04  0.15540780186E+04  0.50400001928E-02 0. -1.
    10030    2    1    2    0    0  0.00000000000E+00  0.00000000000E+00 -0.52183227990E+03  0.25863237574E+04  0.25331327738E+04 0.  0.
        5    1    3    3  502    0 -0.23688336735E+03 -0.12441155804E+04 -0.27643448086E+03  0.12962929528E+04  0.46999998093E+01 0. -1.
       -5    1    3    3    0  502  0.23688336735E+03  0.12441155804E+04 -0.24539779904E+03  0.12900308046E+04  0.46999998093E+01 0.  1.
</event>
<event>
 5   0  0.4995256E-05  0.2462910E+04  0.7818609E-02  0.8416319E-01
        2   -1    0    0  501    0  0.00000000000E+00  0.00000000000E+00  0.20382964430E+04  0.20382964430E+04  0.25500000920E-02 0.  1.
       -2   -1    0    0    0  501  0.00000000000E+00  0.00000000000E+00 -0.74399466048E+03  0.74399466049E+03  0.25500000920E-02 0. -1.
    10030    2    1    2    0    0  0.00000000000E+00  0.00000000000E+00  0.12943017825E+04  0.27822911034E+04  0.24629102055E+04 0.  0.
        2    1    3    3  502    0  0.30527656110E+03  0.10557590433E+04  0.19533916778E+02  0.10991826555E+04  0.25500000920E-02 0. -1.
       -2    1    3    3    0  502 -0.30527656110E+03 -0.10557590433E+04  0.12747678657E+04  0.16831084480E+04  0.25500000920E-02 0.  1.
</event>
<event>
 5   0  0.4959042E-05  0.2627232E+04  0.7818609E-02  0.8359009E-01
        2   -1    0    0  501    0  0.00000000000E+00  0.00000000000E+00  0.17094354309E+04  0.17094354309E+04  0.25500000920E-02 0.  1.
       -2   -1    0    0    0  501  0.00000000000E+00  0.00000000000E+00 -0.10094487329E+04  0.10094487329E+04  0.25500000920E-02 0. -1.
    10030    2    1    2    0    0  0.00000000000E+00  0.00000000000E+00  0.69998669800E+03  0.27188841639E+04  0.26272323306E+04 0.  0.
        4    1    3    3  502    0 -0.41984026116E+03  0.12326240899E+04  0.52911470337E+03  0.14055575315E+04  0.12699999809E+01 0.  1.
       -4    1    3    3    0  502  0.41984026116E+03 -0.12326240899E+04  0.17087199463E+03  0.13133266324E+04  0.12699999809E+01 0. -1.
</event>
<event>
 5   0  0.2041718E-05  0.2264502E+04  0.7818609E-02  0.8492050E-01
        1   -1    0    0  501    0  0.00000000000E+00  0.00000000000E+00  0.96275022136E+03  0.96275022137E+03  0.50400001928E-02 0.  1.
       -1   -1    0    0    0  501  0.00000000000E+00  0.00000000000E+00 -0.13315944532E+04  0.13315944532E+04  0.50400001928E-02 0. -1.
    10030    2    1    2    0    0  0.00000000000E+00  0.00000000000E+00 -0.36884423185E+03  0.22943446746E+04  0.22645024660E+04 0.  0.
        4    1    3    3  502    0 -0.53567198771E+03  0.13385397103E+03  0.81710338111E+03  0.98616474906E+03  0.12699999809E+01 0.  1.
       -4    1    3    3    0  502  0.53567198771E+03 -0.13385397103E+03 -0.11859476130E+04  0.13081799255E+04  0.12699999809E+01 0. -1.
</event>
<event>
 5   0  0.5024070E-05  0.2490501E+04  0.7818609E-02  0.8406377E-01
        2   -1    0    0  501    0  0.00000000000E+00  0.00000000000E+00  0.20283714521E+04  0.20283714521E+04  0.25500000920E-02 0. -1.
       -2   -1    0    0    0  501  0.00000000000E+00  0.00000000000E+00 -0.76447974611E+03  0.76447974612E+03  0.25500000920E-02 0.  1.
    10030    2    1    2    0    0  0.00000000000E+00  0.00000000000E+00  0.12638917060E+04  0.27928511982E+04  0.24905010683E+04 0.  0.
        5    1    3    3  502    0  0.19949760552E+03  0.64881507038E+03  0.18026515163E+04  0.19262229542E+04  0.46999998093E+01 0. -1.
       -5    1    3    3    0  502 -0.19949760552E+03 -0.64881507038E+03 -0.53875981029E+03  0.86662824402E+03  0.46999998093E+01 0.  1.
</event>
<event>
 5   0  0.4959347E-05  0.2507556E+04  0.7818609E-02  0.8400299E-01
       -2   -1    0    0    0  501  0.00000000000E+00  0.00000000000E+00  0.99126868039E+03  0.99126868039E+03  0.25500000920E-02 0.  1.
        2   -1    0    0  501    0  0.00000000000E+00  0.00000000000E+00 -0.15858048234E+04  0.15858048234E+04  0.25500000920E-02 0. -1.
    10030    2    1    2    0    0  0.00000000000E+00  0.00000000000E+00 -0.59453614305E+03  0.25770735038E+04  0.25075555066E+04 0.  0.
        3    1    3    3  502    0 -0.43582212373E+03 -0.85105107819E+03  0.53622118170E+03  0.10962490717E+04  0.10100000352E+00 0.  1.
       -3    1    3    3    0  502  0.43582212373E+03  0.85105107819E+03 -0.11307573247E+04  0.14808244322E+04  0.10100000352E+00 0. -1.
</event>
<event>
 5   0  0.4959042E-05  0.2506171E+04  0.7818609E-02  0.8400790E-01
        2   -1    0    0  501    0  0.00000000000E+00  0.00000000000E+00  0.15319394773E+04  0.15319394773E+04  0.25500000920E-02 0. -1.
       -2   -1    0    0    0  501  0.00000000000E+00  0.00000000000E+00 -0.10249906769E+04  0.10249906769E+04  0.25500000920E-02 0.  1.
    10030    2    1    2    0    0  0.00000000000E+00  0.00000000000E+00  0.50694880038E+03  0.25569301541E+04  0.25061713283E+04 0.  0.
        4    1    3    3  502    0 -0.25461542080E+03  0.10938121425E+04  0.82058125397E+03  0.13909023053E+04  0.12699999809E+01 0. -1.
       -4    1    3    3    0  502  0.25461542080E+03 -0.10938121425E+04 -0.31363245359E+03  0.11660278489E+04  0.12699999809E+01 0.  1.
</event>
<event>
 5   0  0.2036578E-05  0.2464641E+04  0.7818609E-02  0.8415692E-01
       -1   -1    0    0    0  501  0.00000000000E+00  0.00000000000E+00  0.12911945870E+04  0.12911945870E+04  0.50400001928E-02 0.  1.
        1   -1    0    0  501    0  0.00000000000E+00  0.00000000000E+00 -0.11761309402E+04  0.11761309402E+04  0.50400001928E-02 0. -1.
    10030    2    1    2    0    0  0.00000000000E+00  0.00000000000E+00  0.11506364683E+03  0.24673255272E+04  0.24646410721E+04 0.  0.
        2    1    3    3  502    0 -0.12424329269E+00 -0.72002240158E+03  0.10587119199E+04  0.12803527653E+04  0.25500000920E-02 0.  1.
       -2    1    3    3    0  502  0.12424329269E+00  0.72002240158E+03 -0.94364827307E+03  0.11869727619E+04  0.25500000920E-02 0. -1.
</event>
<event>
 5   0  0.5024070E-05  0.2568074E+04  0.7818609E-02  0.8379127E-01
       -2   -1    0    0    0  501  0.00000000000E+00  0.00000000000E+00  0.95920778510E+03  0.95920778510E+03  0.25500000920E-02 0.  1.
        2   -1    0    0  501    0  0.00000000000E+00  0.00000000000E+00 -0.17188678404E+04  0.17188678404E+04  0.25500000920E-02 0. -1.
    10030    2    1    2    0    0  0.00000000000E+00  0.00000000000E+00 -0.75966005530E+03  0.26780756255E+04  0.25680743090E+04 0.  0.
        5    1    3    3  502    0 -0.75084661914E+03 -0.16098847827E+03 -0.14530079191E+04  0.16434543007E+04  0.46999998093E+01 0. -1.
       -5    1    3    3    0  502  0.75084661914E+03  0.16098847827E+03  0.69334786376E+03  0.10346213248E+04  0.46999998093E+01 0.  1.
</event>
<event>
 5   0  0.2066170E-05  0.2502193E+04  0.7818609E-02  0.8402205E-01
        1   -1    0    0  501    0  0.00000000000E+00  0.00000000000E+00  0.12336557904E+04  0.12336557904E+04  0.50400001928E-02 0.  1.
       -1   -1    0    0    0  501  0.00000000000E+00  0.00000000000E+00 -0.12687838760E+04  0.12687838760E+04  0.50400001928E-02 0. -1.
    10030    2    1    2    0    0  0.00000000000E+00  0.00000000000E+00 -0.35128085560E+02  0.25024396664E+04  0.25021930984E+04 0.  0.
        5    1    3    3  502    0  0.83797587636E+03  0.74885924058E+03  0.53224166848E+03  0.12435019161E+04  0.46999998093E+01 0.  1.
       -5    1    3    3    0  502 -0.83797587636E+03 -0.74885924058E+03 -0.56736975404E+03  0.12589377504E+04  0.46999998093E+01 0. -1.
</event>
<event>
 5   0  0.4959042E-05  0.2475869E+04  0.7818609E-02  0.8411633E-01
       -2   -1    0    0    0  501  0.00000000000E+00  0.00000000000E+00  0.57957660425E+03  0.57957660426E+03  0.25500000920E-02 0. -1.
        2   -1    0    0  501    0  0.00000000000E+00  0.00000000000E+00 -0.26441407387E+04  0.26441407387E+04  0.25500000920E-02 0.  1.
    10030    2    1    2    0    0  0.00000000000E+00  0.00000000000E+00 -0.20645641345E+04  0.32237173430E+04  0.24758692296E+04 0.  0.
        4    1    3    3  502    0 -0.51467942833E+02 -0.12323465073E+04 -0.89477106280E+03  0.15237925486E+04  0.12699999809E+01 0.  1.
       -4    1    3    3    0  502  0.51467942833E+02  0.12323465073E+04 -0.11697930717E+04  0.16999247944E+04  0.12699999809E+01 0. -1.
</event>
<event>
 5   0  0.2081874E-05  0.2426381E+04  0.7818609E-02  0.8429693E-01
       -1   -1    0    0    0  501  0.00000000000E+00  0.00000000000E+00  0.10915895501E+04  0.10915895501E+04  0.50400001928E-02 0. -1.
        1   -1    0    0  501    0  0.00000000000E+00  0.00000000000E+00 -0.13483373953E+04  0.13483373953E+04  0.50400001928E-02 0.  1.
    10030    2    1    2    0    0  0.00000000000E+00  0.00000000000E+00 -0.25674784525E+03  0.24399269454E+04  0.24263808528E+04 0.  0.
        1    1    3    3  502    0  0.38899740670E+03 -0.74659293554E+03 -0.10068131367E+04  0.13123995909E+04  0.50400001928E-02 0.  1.
       -1    1    3    3    0  502 -0.38899740670E+03  0.74659293554E+03  0.75006529146E+03  0.11275273546E+04  0.50400001928E-02 0. -1.
</event>
<event>
 5   0  0.5024070E-05  0.2485748E+04  0.7818609E-02  0.8408081E-01
        2   -1    0    0  501    0  0.00000000000E+00  0.00000000000E+00  0.10040136028E+04  0.10040136028E+04  0.25500000920E-02 0.  1.
       -2   -1    0    0    0  501  0.00000000000E+00  0.00000000000E+00 -0.15385605323E+04  0.15385605323E+04  0.25500000920E-02 0. -1.
    10030    2    1    2    0    0  0.00000000000E+00  0.00000000000E+00 -0.53454692954E+03  0.25425741351E+04  0.24857479383E+04 0.  0.
        5    1    3    3  502    0 -0.42532744672E+03 -0.11201798629E+04 -0.60498370555E+03  0.13422867563E+04  0.46999998093E+01 0.  1.
       -5    1    3    3    0  502  0.42532744672E+03  0.11201798629E+04  0.70436776008E+02  0.12002873788E+04  0.46999998093E+01 0. -1.
</event>
<event>
 5   0  0.2066170E-05  0.2510172E+04  0.7818609E-02  0.8399371E-01
        1   -1    0    0  501    0  0.00000000000E+00  0.00000000000E+00  0.10742821122E+04  0.10742821122E+04  0.50400001928E-02 0. -1.
       -1   -1    0    0    0  501  0.00000000000E+00  0.00000000000E+00 -0.14663195785E+04  0.14663195786E+04  0.50400001928E-02 0.  1.
    10030    2    1    2    0    0  0.00000000000E+00  0.00000000000E+00 -0.39203746631E+03  0.25406016908E+04  0.25101720213E+04 0.  0.
        5    1    3    3  502    0  0.69032251656E+03 -0.75486576893E+03 -0.93205613829E+03  0.13838779718E+04  0.46999998093E+01 0.  1.
       -5    1    3    3    0  502 -0.69032251656E+03  0.75486576893E+03  0.54001867198E+03  0.11567237190E+04  0.46999998093E+01 0. -1.
</event>
<event>
 5   0  0.2066170E-05  0.2571973E+04  0.7818609E-02  0.8377784E-01
       -1   -1    0    0    0  501  0.00000000000E+00  0.00000000000E+00  0.22137682852E+04  0.22137682852E+04  0.50400001928E-02 0.  1.
        1   -1    0    0  501    0  0.00000000000E+00  0.00000000000E+00 -0.74703473085E+03  0.74703473086E+03  0.50400001928E-02 0. -1.
    10030    2    1    2    0    0  0.00000000000E+00  0.00000000000E+00  0.14667335543E+04  0.29608030161E+04  0.25719734020E+04 0.  0.
        5    1    3    3  502    0  0.31802452489E+02  0.52457505992E+03  0.20844951660E+04  0.21497284891E+04  0.46999998093E+01 0.  1.
       -5    1    3    3    0  502 -0.31802452489E+02 -0.52457505992E+03 -0.61776161169E+03  0.81107452700E+03  0.46999998093E+01 0. -1.
</event>
<event>
 5   0  0.5024070E-05  0.2466468E+04  0.7818609E-02  0.8415030E-01
        2   -1    0    0  501    0  0.00000000000E+00  0.00000000000E+00  0.28091995463E+04  0.28091995463E+04  0.25500000920E-02 0.  1.
       -2   -1    0    0    0  501  0.00000000000E+00  0.00000000000E+00 -0.54138770431E+03  0.54138770432E+03  0.25500000920E-02 0. -1.
    10030    2    1    2    0    0  0.00000000000E+00  0.00000000000E+00  0.22678118420E+04  0.33505872506E+04  0.24664679956E+04 0.  0.
        5    1    3    3  502    0 -0.82976472175E+03  0.22746324431E+03 -0.66307074286E+02  0.86294133002E+03  0.46999998093E+01 0. -1.
       -5    1    3    3    0  502  0.82976472175E+03 -0.22746324431E+03  0.23341189163E+04  0.24876459206E+04  0.46999998093E+01 0.  1.
</event>
<event>
 5   0  0.2041718E-05  0.2520838E+04  0.7818609E-02  0.8395599E-01
        1   -1    0    0  501    0  0.00000000000E+00  0.00000000000E+00  0.11509892265E+04  0.11509892265E+04  0.50400001928E-02 0.  1.
       -1   -1    0    0    0  501  0.00000000000E+00  0.00000000000E+00 -0.13802526446E+04  0.13802526446E+04  0.50400001928E-02 0. -1.
    10030    2    1    2    0    0  0.00000000000E+00  0.00000000000E+00 -0.22926341811E+03  0.25312418710E+04  0.25208378954E+04 0.  0.
        4    1    3    3  502    0 -0.32261785831E+03 -0.11026209814E+04 -0.63522977594E+03  0.13127733209E+04  0.12699999809E+01 0.  1.
       -4    1    3    3    0  502  0.32261785831E+03  0.11026209814E+04  0.40596635783E+03  0.12184685501E+04  0.12699999809E+01 0. -1.
</event>
<event>
 5   0  0.2041718E-05  0.2566609E+04  0.7818609E-02  0.8379633E-01
       -1   -1    0    0    0  501  0.00000000000E+00  0.00000000000E+00  0.10260167155E+04  0.10260167155E+04  0.50400001928E-02 0.  1.
        1   -1    0    0  501    0  0.00000000000E+00  0.00000000000E+00 -0.16051101210E+04  0.16051101210E+04  0.50400001928E-02 0. -1.
    10030    2    1    2    0    0  0.00000000000E+00  0.00000000000E+00 -0.57909340547E+03  0.26311268366E+04  0.25666085128E+04 0.  0.
        4    1    3    3  502    0  0.21937316634E+03 -0.12118427373E+04  0.80328839091E+02  0.12341562873E+04  0.12699999809E+01 0.  1.
       -4    1    3    3    0  502 -0.21937316634E+03  0.12118427373E+04 -0.65942224456E+03  0.13969705493E+04  0.12699999809E+01 0. -1.
</event>
<event>
 5   0  0.2066170E-05  0.2449440E+04  0.7818609E-02  0.8421222E-01
       -1   -1    0    0    0  501  0.00000000000E+00  0.00000000000E+00  0.80058352470E+03  0.80058352471E+03  0.50400001928E-02 0.  1.
        1   -1    0    0  501    0  0.00000000000E+00  0.00000000000E+00 -0.18735578380E+04  0.18735578380E+04  0.50400001928E-02 0. -1.
    10030    2    1    2    0    0  0.00000000000E+00  0.00000000000E+00 -0.10729743133E+04  0.26741413627E+04  0.24494403750E+04 0.  0.
        5    1    3    3  502    0 -0.34149678706E+02  0.89359982135E+02  0.79648855123E+03  0.80222659467E+03  0.46999998093E+01 0.  1.
       -5    1    3    3    0  502  0.34149678706E+02 -0.89359982135E+02 -0.18694628645E+04  0.18719147680E+04  0.46999998093E+01 0. -1.
</event>
<event>
 5   0  0.2041718E-05  0.2492983E+04  0.7818609E-02  0.8405490E-01
        1   -1    0    0  501    0  0.00000000000E+00  0.00000000000E+00  0.16947560391E+04  0.16947560391E+04  0.50400001928E-02 0.  1.
       -1   -1    0    0    0  501  0.00000000000E+00  0.00000000000E+00 -0.91679358721E+03  0.91679358723E+03  0.50400001928E-02 0. -1.
    10030    2    1    2    0    0  0.00000000000E+00  0.00000000000E+00  0.77796245191E+03  0.26115496264E+04  0.24929833281E+04 0.  0.
        4    1    3    3  502    0 -0.32729229273E+03 -0.46538581383E+03  0.15507983121E+04  0.16518720345E+04  0.12699999809E+01 0.  1.
       -4    1    3    3    0  502  0.32729229273E+03  0.46538581383E+03 -0.77283586021E+03  0.95967759186E+03  0.12699999809E+01 0. -1.
</event>
<event>
 5   0  0.2041718E-05  0.2555253E+04  0.7818609E-02  0.8383561E-01
       -1   -1    0    0    0  501  0.00000000000E+00  0.00000000000E+00  0.21395861088E+04  0.21395861088E+04  0.50400001928E-02 0. -1.
        1   -1    0    0  501    0  0.00000000000E+00  0.00000000000E+00 -0.76291857959E+03  0.76291857961E+03  0.50400001928E-02 0.  1.
    10030    2    1    2    0    0  0.00000000000E+00  0.00000000000E+00  0.13766675292E+04  0.29025046884E+04  0.25552534082E+04 0.  0.
        4    1    3    3  502    0  0.77124061638E+03 -0.96649970403E+02  0.18401216065E+04  0.19975491095E+04  0.12699999809E+01 0. -1.
       -4    1    3    3    0  502 -0.77124061638E+03  0.96649970403E+02 -0.46345407731E+03  0.90495557892E+03  0.12699999809E+01 0.  1.
</event>
<event>
 5   0  0.2041718E-05  0.2508326E+04  0.7818609E-02  0.8400025E-01
       -1   -1    0    0    0  501  0.00000000000E+00  0.00000000000E+00  0.14793230360E+04  0.14793230360E+04  0.50400001928E-02 0.  1.
        1   -1    0    0  501    0  0.00000000000E+00  0.00000000000E+00 -0.10632735916E+04  0.10632735916E+04  0.50400001928E-02 0. -1.
    10030    2    1    2    0    0  0.00000000000E+00  0.00000000000E+00  0.41604944443E+03  0.25425966276E+04  0.25083262289E+04 0.  0.
        4    1    3    3  502    0 -0.89807893007E+03  0.83772407978E+03 -0.49605386852E+02  0.12291418575E+04  0.12699999809E+01 0. -1.
       -4    1    3    3    0  502  0.89807893007E+03 -0.83772407978E+03  0.46565483129E+03  0.13134547702E+04  0.12699999809E+01 0.  1.
</event>
<event>
 5   0  0.2081874E-05  0.2485753E+04  0.7818609E-02  0.8408079E-01
       -1   -1    0    0    0  501  0.00000000000E+00  0.00000000000E+00  0.11581860337E+04  0.11581860338E+04  0.50400001928E-02 0.  1.
        1   -1    0    0  501    0  0.00000000000E+00  0.00000000000E+00 -0.13337594369E+04  0.13337594369E+04  0.50400001928E-02 0. -1.
    10030    2    1    2    0    0  0.00000000000E+00  0.00000000000E+00 -0.17557340312E+03  0.24919454706E+04  0.24857526443E+04 0.  0.
        1    1    3    3  502    0 -0.10440850396E+04 -0.44401350645E+03  0.42090232022E+03  0.12101323593E+04  0.50400001928E-02 0.  1.
       -1    1    3    3    0  502  0.10440850396E+04  0.44401350645E+03 -0.59647572334E+03  0.12818131113E+04  0.50400001928E-02 0. -1.
</event>
<event>
 5   0  0.4995256E-05  0.2486128E+04  0.7818609E-02  0.8407944E-01
       -2   -1    0    0    0  501  0.00000000000E+00  0.00000000000E+00  0.11037152859E+04  0.11037152859E+04  0.25500000920E-02 0. -1.
        2   -1    0    0  501    0  0.00000000000E+00  0.00000000000E+00 -0.14000055239E+04  0.14000055239E+04  0.25500000920E-02 0.  1.
    10030    2    1    2    0    0  0.00000000000E+00  0.00000000000E+00 -0.29629023801E+03  0.25037208098E+04  0.24861275085E+04 0.  0.
        2    1    3    3  502    0  0.58135847728E+02 -0.11691870301E+04  0.27293985522E+03  0.12020292229E+04  0.25500000920E-02 0. -1.
       -2    1    3    3    0  502 -0.58135847728E+02  0.11691870301E+04 -0.56923009323E+03  0.13016915869E+04  0.25500000920E-02 0.  1.
</event>
<event>
 5   0  0.2081874E-05  0.2545328E+04  0.7818609E-02  0.8387013E-01
        1   -1    0    0  501    0  0.00000000000E+00  0.00000000000E+00  0.27433154026E+04  0.27433154026E+04  0.50400001928E-02 0.  1.
       -1   -1    0    0    0  501  0.00000000000E+00  0.00000000000E+00 -0.59040737919E+03  0.59040737921E+03  0.50400001928E-02 0. -1.
    10030    2    1    2    0    0  0.00000000000E+00  0.00000000000E+00  0.21529080234E+04  0.33337227818E+04  0.25453280002E+04 0.  0.
        1    1    3    3  502    0  0.11687096759E+04  0.50054225593E+03  0.10018010124E+04  0.16186507112E+04  0.50400001928E-02 0. -1.
       -1    1    3    3    0  502 -0.11687096759E+04 -0.50054225593E+03  0.11511070110E+04  0.17150720705E+04  0.50400001928E-02 0.  1.
</event>
<event>
 5   0  0.2081874E-05  0.2472742E+04  0.7818609E-02  0.8412761E-01
       -1   -1    0    0    0  501  0.00000000000E+00  0.00000000000E+00  0.11415345929E+04  0.11415345929E+04  0.50400001928E-02 0.  1.
        1   -1    0    0  501    0  0.00000000000E+00  0.00000000000E+00 -0.13390857362E+04  0.13390857362E+04  0.50400001928E-02 0. -1.
    10030    2    1    2    0    0  0.00000000000E+00  0.00000000000E+00 -0.19755114327E+03  0.24806203291E+04  0.24727415480E+04 0.  0.
        1    1    3    3  502    0 -0.42304276054E+02  0.88318677100E+03 -0.96570738142E+03  0.13093507058E+04  0.50400001928E-02 0. -1.
       -1    1    3    3    0  502  0.42304276054E+02 -0.88318677100E+03  0.76815623815E+03  0.11712696233E+04  0.50400001928E-02 0.  1.
</event>
<event>
 5   0  0.5024070E-05  0.2432815E+04  0.7818609E-02  0.8427319E-01
       -2   -1    0    0    0  501  0.00000000000E+00  0.00000000000E+00  0.98609031866E+03  0.98609031866E+03  0.25500000920E-02 0.  1.
        2   -1    0    0  501    0  0.00000000000E+00  0.00000000000E+00 -0.15005194368E+04  0.15005194368E+04  0.25500000920E-02 0. -1.
    10030    2    1    2    0    0  0.00000000000E+00  0.00000000000E+00 -0.51442911818E+03  0.24866097555E+04  0.24328153975E+04 0.  0.
        5    1    3    3  502    0  0.96100709606E+03  0.23272098814E+03 -0.98135179076E+03  0.13931141820E+04  0.46999998093E+01 0. -1.
       -5    1    3    3    0  502 -0.96100709606E+03 -0.23272098814E+03  0.46692267257E+03  0.10934955735E+04  0.46999998093E+01 0.  1.
</event>
<event>
 5   0  0.2036578E-05  0.2520824E+04  0.7818609E-02  0.8395604E-01
       -1   -1    0    0    0  501  0.00000000000E+00  0.00000000000E+00  0.80757735670E+03  0.80757735672E+03  0.50400001928E-02 0. -1.
        1   -1    0    0  501    0  0.00000000000E+00  0.00000000000E+00 -0.19671654135E+04  0.19671654135E+04  0.50400001928E-02 0.  1.
    10030    2    1    2    0    0  0.00000000000E+00  0.00000000000E+00 -0.11595880568E+04  0.27747427703E+04  0.25208238692E+04 0.  0.
        2    1    3    3  502    0  0.38760601222E+03 -0.11833744605E+04 -0.79443527561E+03  0.14770717456E+04  0.25500000920E-02 0. -1.
       -2    1    3    3    0  502 -0.38760601222E+03  0.11833744605E+04 -0.36515278122E+03  0.12976710246E+04  0.25500000920E-02 0.  1.
</event>
<event>
 5   0  0.2063930E-05  0.2420516E+04  0.7818609E-02  0.8431862E-01
       -1   -1    0    0    0  501  0.00000000000E+00  0.00000000000E+00  0.57162936362E+03  0.57162936365E+03  0.50400001928E-02 0. -1.
        1   -1    0    0  501    0  0.00000000000E+00  0.00000000000E+00 -0.25623668466E+04  0.25623668466E+04  0.50400001928E-02 0.  1.
    10030    2    1    2    0    0  0.00000000000E+00  0.00000000000E+00 -0.19907374830E+04  0.31339962103E+04  0.24205157549E+04 0.  0.
        3    1    3    3  502    0  0.38565197087E+03  0.11462754908E+04 -0.93675759481E+03  0.15297678729E+04  0.10100000352E+00 0. -1.
       -3    1    3    3    0  502 -0.38565197087E+03 -0.11462754908E+04 -0.10539798882E+04  0.16042283374E+04  0.10100000352E+00 0.  1.
</event>
<event>
 5   0  0.2041718E-05  0.2254508E+04  0.7818609E-02  0.8496077E-01
        1   -1    0    0  501    0  0.00000000000E+00  0.00000000000E+00  0.15270923276E+04  0.15270923276E+04  0.50400001928E-02 0. -1.
       -1   -1    0    0    0  501  0.00000000000E+00  0.00000000000E+00 -0.83210558289E+03  0.83210558290E+03  0.50400001928E-02 0.  1.
    10030    2    1    2    0    0  0.00000000000E+00  0.00000000000E+00  0.69498674471E+03  0.23591979105E+04  0.22545084177E+04 0.  0.
        4    1    3    3  502    0 -0.88332287528E+03  0.57639978602E+03 -0.68725553918E+02  0.10569866745E+04  0.12699999809E+01 0.  1.
       -4    1    3    3    0  502  0.88332287528E+03 -0.57639978602E+03  0.76371229863E+03  0.13022112361E+04  0.12699999809E+01 0. -1.
</event>
<event>
 5   0  0.2041718E-05  0.2525308E+04  0.7818609E-02  0.8394024E-01
        1   -1    0    0  501    0  0.00000000000E+00  0.00000000000E+00  0.94868858460E+03  0.94868858462E+03  0.50400001928E-02 0. -1.
       -1   -1    0    0    0  501  0.00000000000E+00  0.00000000000E+00 -0.16805256476E+04  0.16805256476E+04  0.50400001928E-02 0.  1.
    10030    2    1    2    0    0  0.00000000000E+00  0.00000000000E+00 -0.73183706302E+03  0.26292142323E+04  0.25253082965E+04 0.  0.
        4    1    3    3  502    0 -0.28229023058E+02  0.12161167756E+02  0.94829834683E+03  0.94879720660E+03  0.12699999809E+01 0. -1.
       -4    1    3    3    0  502  0.28229023058E+02 -0.12161167756E+02 -0.16801354099E+04  0.16804170257E+04  0.12699999809E+01 0.  1.
</event>
<event>
 5   0  0.4959042E-05  0.2490029E+04  0.7818609E-02  0.8406546E-01
        2   -1    0    0  501    0  0.00000000000E+00  0.00000000000E+00  0.10729989108E+04  0.10729989108E+04  0.25500000920E-02 0.  1.
       -2   -1    0    0    0  501  0.00000000000E+00  0.00000000000E+00 -0.14446066271E+04  0.14446066271E+04  0.25500000920E-02 0. -1.
    10030    2    1    2    0    0  0.00000000000E+00  0.00000000000E+00 -0.37160771634E+03  0.25176055379E+04  0.24900291865E+04 0.  0.
        4    1    3    3  502    0  0.11417305269E+04 -0.32108126750E+03  0.19709581869E+03  0.12022853867E+04  0.12699999809E+01 0.  1.
       -4    1    3    3    0  502 -0.11417305269E+04  0.32108126750E+03 -0.56870353503E+03  0.13153201512E+04  0.12699999809E+01 0. -1.
</event>
<event>
 5   0  0.1692125E-05  0.2499863E+04  0.7818609E-02  0.8403034E-01
        3   -1    0    0  501    0  0.00000000000E+00  0.00000000000E+00  0.11591390597E+04  0.11591390641E+04  0.10100000352E+00 0. -1.
       -3   -1    0    0    0  501  0.00000000000E+00  0.00000000000E+00 -0.13478350680E+04  0.13478350718E+04  0.10100000352E+00 0.  1.
    10030    2    1    2    0    0  0.00000000000E+00  0.00000000000E+00 -0.18869600826E+03  0.25069741359E+04  0.24998626231E+04 0.  0.
        5    1    3    3  502    0  0.89100986976E+03  0.58073828850E+03  0.56414055040E+03  0.12039236680E+04  0.46999998093E+01 0. -1.
       -5    1    3    3    0  502 -0.89100986976E+03 -0.58073828850E+03 -0.75283655866E+03  0.13030504679E+04  0.46999998093E+01 0.  1.
</event>
<event>
 5   0  0.2063930E-05  0.2504142E+04  0.7818609E-02  0.8401511E-01
       -1   -1    0    0    0  501  0.00000000000E+00  0.00000000000E+00  0.94883885020E+03  0.94883885021E+03  0.50400001928E-02 0.  1.
        1   -1    0    0  501    0  0.00000000000E+00  0.00000000000E+00 -0.16522111371E+04  0.16522111371E+04  0.50400001928E-02 0. -1.
    10030    2    1    2    0    0  0.00000000000E+00  0.00000000000E+00 -0.70337228688E+03  0.26010499873E+04  0.25041422608E+04 0.  0.
        3    1    3    3  502    0  0.48054333845E+03 -0.95369974434E+03  0.32722660761E+03  0.11169343604E+04  0.10100000352E+00 0.  1.
       -3    1    3    3    0  502 -0.48054333845E+03  0.95369974434E+03 -0.10305988945E+04  0.14841156269E+04  0.10100000352E+00 0. -1.
</event>
<event>
 5   0  0.4995256E-05  0.2189304E+04  0.7818609E-02  0.8522893E-01
       -2   -1    0    0    0  501  0.00000000000E+00  0.00000000000E+00  0.76522910351E+03  0.76522910352E+03  0.25500000920E-02 0. -1.
        2   -1    0    0  501    0  0.00000000000E+00  0.00000000000E+00 -0.15658878549E+04  0.15658878549E+04  0.25500000920E-02 0.  1.
    10030    2    1    2    0    0  0.00000000000E+00  0.00000000000E+00 -0.80065875134E+03  0.23311169584E+04  0.21893039619E+04 0.  0.
        2    1    3    3  502    0  0.33223508183E+03  0.53563062848E+03 -0.13532781427E+04  0.14928637082E+04  0.25500000920E-02 0.  1.
       -2    1    3    3    0  502 -0.33223508183E+03 -0.53563062848E+03  0.55261939133E+03  0.83825325019E+03  0.25500000920E-02 0. -1.
</event>
<event>
 5   0  0.5024070E-05  0.2504626E+04  0.7818609E-02  0.8401339E-01
        2   -1    0    0  501    0  0.00000000000E+00  0.00000000000E+00  0.23941917467E+04  0.23941917467E+04  0.25500000920E-02 0.  1.
       -2   -1    0    0    0  501  0.00000000000E+00  0.00000000000E+00 -0.65503859000E+03  0.65503859001E+03  0.25500000920E-02 0. -1.
    10030    2    1    2    0    0  0.00000000000E+00  0.00000000000E+00  0.17391531567E+04  0.30492303367E+04  0.25046261086E+04 0.  0.
        5    1    3    3  502    0 -0.17682399589E+03 -0.99761593704E+03  0.17656661910E+04  0.20357071182E+04  0.46999998093E+01 0.  1.
       -5    1    3    3    0  502  0.17682399589E+03  0.99761593704E+03 -0.26513034273E+02  0.10135232185E+04  0.46999998093E+01 0. -1.
</event>
<event>
 5   0  0.4959347E-05  0.2491349E+04  0.7818609E-02  0.8406074E-01
       -2   -1    0    0    0  501  0.00000000000E+00  0.00000000000E+00  0.11096537184E+04  0.11096537184E+04  0.25500000920E-02 0.  1.
        2   -1    0    0  501    0  0.00000000000E+00  0.00000000000E+00 -0.13983686694E+04  0.13983686694E+04  0.25500000920E-02 0. -1.
    10030    2    1    2    0    0  0.00000000000E+00  0.00000000000E+00 -0.28871495104E+03  0.25080223878E+04  0.24913490271E+04 0.  0.
        3    1    3    3  502    0 -0.65624188980E+03 -0.84884959709E+03  0.49273328706E+03  0.11806714864E+04  0.10100000352E+00 0.  1.
       -3    1    3    3    0  502  0.65624188980E+03  0.84884959709E+03 -0.78144823810E+03  0.13273509014E+04  0.10100000352E+00 0. -1.
</event>
<event>
 5   0  0.2036578E-05  0.2482530E+04  0.7818609E-02  0.8409236E-01
       -1   -1    0    0    0  501  0.00000000000E+00  0.00000000000E+00  0.10152568567E+04  0.10152568567E+04  0.50400001928E-02 0.  1.
        1   -1    0    0  501    0  0.00000000000E+00  0.00000000000E+00 -0.15175857832E+04  0.15175857832E+04  0.50400001928E-02 0. -1.
    10030    2    1    2    0    0  0.00000000000E+00  0.00000000000E+00 -0.50232892651E+03  0.25328426398E+04  0.24825304606E+04 0.  0.
        2    1    3    3  502    0  0.11336011693E+04  0.50097644913E+03 -0.32118744463E+03  0.12803087082E+04  0.25500000920E-02 0. -1.
       -2    1    3    3    0  502 -0.11336011693E+04 -0.50097644913E+03 -0.18114148188E+03  0.12525339317E+04  0.25500000920E-02 0.  1.
</event>
<event>
 5   0  0.4959347E-05  0.2371861E+04  0.7818609E-02  0.8450114E-01
       -2   -1    0    0    0  501  0.00000000000E+00  0.00000000000E+00  0.72915350973E+03  0.72915350973E+03  0.25500000920E-02 0. -1.
        2   -1    0    0  501    0  0.00000000000E+00  0.00000000000E+00 -0.19288547075E+04  0.19288547075E+04  0.25500000920E-02 0.  1.
    10030    2    1    2    0    0  0.00000000000E+00  0.00000000000E+00 -0.11997011978E+04  0.26580082172E+04  0.23718610244E+04 0.  0.
        3    1    3    3  502    0  0.16004201484E+03  0.10938103262E+04 -0.10810705725E+04  0.15462044073E+04  0.10100000352E+00 0.  1.
       -3    1    3    3    0  502 -0.16004201484E+03 -0.10938103262E+04 -0.11863062526E+03  0.11118038099E+04  0.10100000352E+00 0. -1.
</event>
<event>
 5   0  0.2066170E-05  0.1884926E+04  0.7818609E-02  0.8662396E-01
       -1   -1    0    0    0  501  0.00000000000E+00  0.00000000000E+00  0.71543459954E+03  0.71543459956E+03  0.50400001928E-02 0. -1.
        1   -1    0    0  501    0  0.00000000000E+00  0.00000000000E+00 -0.12415348227E+04  0.12415348227E+04  0.50400001928E-02 0.  1.
    10030    2    1    2    0    0  0.00000000000E+00  0.00000000000E+00 -0.52610022311E+03  0.19569694222E+04  0.18849264906E+04 0.  0.
        5    1    3    3  502    0 -0.84071603705E+03 -0.18551448629E+03  0.13500397199E+03  0.87147417749E+03  0.46999998093E+01 0. -1.
       -5    1    3    3    0  502  0.84071603705E+03  0.18551448629E+03 -0.66110419510E+03  0.10854952447E+04  0.46999998093E+01 0.  1.
</event>
<event>
 5   0  0.2063930E-05  0.2426758E+04  0.7818609E-02  0.8429553E-01
        1   -1    0    0  501    0  0.00000000000E+00  0.00000000000E+00  0.76415964015E+03  0.76415964017E+03  0.50400001928E-02 0. -1.
       -1   -1    0    0    0  501  0.00000000000E+00  0.00000000000E+00 -0.19266772776E+04  0.19266772776E+04  0.50400001928E-02 0.  1.
    10030    2    1    2    0    0  0.00000000000E+00  0.00000000000E+00 -0.11625176374E+04  0.26908369178E+04  0.24267583441E+04 0.  0.
        3    1    3    3  502    0  0.75010921523E+03 -0.88997484249E+03 -0.96145610485E+03  0.15096744374E+04  0.10100000352E+00 0.  1.
       -3    1    3    3    0  502 -0.75010921523E+03  0.88997484249E+03 -0.20106153258E+03  0.11811624804E+04  0.10100000352E+00 0. -1.
</event>
<event>
 5   0  0.2081874E-05  0.2378620E+04  0.7818609E-02  0.8447552E-01
        1   -1    0    0  501    0  0.00000000000E+00  0.00000000000E+00  0.12828929823E+04  0.12828929823E+04  0.50400001928E-02 0. -1.
       -1   -1    0    0    0  501  0.00000000000E+00  0.00000000000E+00 -0.11025532797E+04  0.11025532798E+04  0.50400001928E-02 0.  1.
    10030    2    1    2    0    0  0.00000000000E+00  0.00000000000E+00  0.18033970255E+03  0.23854462621E+04  0.23786196545E+04 0.  0.
        1    1    3    3  502    0  0.87873555057E+03 -0.49985371380E+03 -0.53806873464E+03  0.11452283031E+04  0.50400001928E-02 0.  1.
       -1    1    3    3    0  502 -0.87873555057E+03  0.49985371380E+03  0.71840843719E+03  0.12402179589E+04  0.50400001928E-02 0. -1.
</event>
<event>
 5   0  0.4959042E-05  0.2493475E+04  0.7818609E-02  0.8405314E-01
        2   -1    0    0  501    0  0.00000000000E+00  0.00000000000E+00  0.87615665902E+03  0.87615665902E+03  0.25500000920E-02 0. -1.
       -2   -1    0    0    0  501  0.00000000000E+00  0.00000000000E+00 -0.17740593666E+04  0.17740593666E+04  0.25500000920E-02 0.  1.
    10030    2    1    2    0    0  0.00000000000E+00  0.00000000000E+00 -0.89790270763E+03  0.26502160257E+04  0.24934746260E+04 0.  0.
        4    1    3    3  502    0  0.77753503233E+03 -0.77947265289E+03  0.17281209938E+03  0.11144523219E+04  0.12699999809E+01 0. -1.
       -4    1    3    3    0  502 -0.77753503233E+03  0.77947265289E+03 -0.10707148070E+04  0.15357637038E+04  0.12699999809E+01 0.  1.
</event>
<event>
 5   0  0.2041718E-05  0.2507138E+04  0.7818609E-02  0.8400447E-01
        1   -1    0    0  501    0  0.00000000000E+00  0.00000000000E+00  0.13257168083E+04  0.13257168083E+04  0.50400001928E-02 0. -1.
       -1   -1    0    0    0  501  0.00000000000E+00  0.00000000000E+00 -0.11853474089E+04  0.11853474090E+04  0.50400001928E-02 0.  1.
    10030    2    1    2    0    0  0.00000000000E+00  0.00000000000E+00  0.14036939939E+03  0.25110642173E+04  0.25071377974E+04 0.  0.
        4    1    3    3  502    0 -0.10500848425E+04  0.29249056531E+03  0.69018927535E+03  0.12901905890E+04  0.12699999809E+01 0. -1.
       -4    1    3    3    0  502  0.10500848425E+04 -0.29249056531E+03 -0.54981987595E+03  0.12208736283E+04  0.12699999809E+01 0.  1.
</event>
<event>
 5   0  0.1692125E-05  0.2472364E+04  0.7818609E-02  0.8412898E-01
        4   -1    0    0  501    0  0.00000000000E+00  0.00000000000E+00  0.15494329911E+04  0.15494335115E+04  0.12699999809E+01 0. -1.
       -4   -1    0    0    0  501  0.00000000000E+00  0.00000000000E+00 -0.98625990409E+03  0.98626072177E+03  0.12699999809E+01 0.  1.
    10030    2    1    2    0    0  0.00000000000E+00  0.00000000000E+00  0.56317308696E+03  0.25356942333E+04  0.24723635087E+04 0.  0.
        5    1    3    3  502    0 -0.15803096280E+02 -0.55216609255E+03  0.14158013698E+04  0.15197541710E+04  0.46999998093E+01 0. -1.
       -5    1    3    3    0  502  0.15803096280E+02  0.55216609255E+03 -0.85262828279E+03  0.10159400623E+04  0.46999998093E+01 0.  1.
</event>
<event>
 5   0  0.2063930E-05  0.2484672E+04  0.7818609E-02  0.8408467E-01
        1   -1    0    0  501    0  0.00000000000E+00  0.00000000000E+00  0.14334192315E+04  0.14334192316E+04  0.50400001928E-02 0. -1.
       -1   -1    0    0    0  501  0.00000000000E+00  0.00000000000E+00 -0.10767251109E+04  0.10767251109E+04  0.50400001928E-02 0.  1.
    10030    2    1    2    0    0  0.00000000000E+00  0.00000000000E+00  0.35669412064E+03  0.25101443425E+04  0.24846717941E+04 0.  0.
        3    1    3    3  502    0 -0.10890072989E+04  0.52823882922E+03 -0.10456912668E+03  0.12148694869E+04  0.10100000352E+00 0.  1.
       -3    1    3    3    0  502  0.10890072989E+04 -0.52823882922E+03  0.46126324732E+03  0.12952748555E+04  0.10100000352E+00 0. -1.
</event>
<event>
 5   0  0.4995256E-05  0.2541019E+04  0.7818609E-02  0.8388516E-01
       -2   -1    0    0    0  501  0.00000000000E+00  0.00000000000E+00  0.87207351352E+03  0.87207351353E+03  0.25500000920E-02 0. -1.
        2   -1    0    0  501    0  0.00000000000E+00  0.00000000000E+00 -0.18509839252E+04  0.18509839252E+04  0.25500000920E-02 0.  1.
    10030    2    1    2    0    0  0.00000000000E+00  0.00000000000E+00 -0.97891041167E+03  0.27230574387E+04  0.25410187368E+04 0.  0.
        2    1    3    3  502    0 -0.10799152511E+03 -0.20263591476E+03 -0.18285639214E+04  0.18429241704E+04  0.25500000920E-02 0.  1.
       -2    1    3    3    0  502  0.10799152511E+03  0.20263591476E+03  0.84965350969E+03  0.88013326830E+03  0.25500000920E-02 0. -1.
</event>
<event>
 5   0  0.4959042E-05  0.2498905E+04  0.7818609E-02  0.8403376E-01
       -2   -1    0    0    0  501  0.00000000000E+00  0.00000000000E+00  0.91058383731E+03  0.91058383731E+03  0.25500000920E-02 0. -1.
        2   -1    0    0  501    0  0.00000000000E+00  0.00000000000E+00 -0.17144298821E+04  0.17144298821E+04  0.25500000920E-02 0.  1.
    10030    2    1    2    0    0  0.00000000000E+00  0.00000000000E+00 -0.80384604479E+03  0.26250137194E+04  0.24989054731E+04 0.  0.
        4    1    3    3  502    0  0.18259177110E+02 -0.90814730655E+02 -0.17108171560E+04  0.17133235734E+04  0.12699999809E+01 0.  1.
       -4    1    3    3    0  502 -0.18259177110E+02  0.90814730655E+02  0.90697111123E+03  0.91169014603E+03  0.12699999809E+01 0. -1.
</event>
<event>
 5   0  0.4995256E-05  0.2355125E+04  0.7818609E-02  0.8456498E-01
        2   -1    0    0  501    0  0.00000000000E+00  0.00000000000E+00  0.12210192179E+04  0.12210192179E+04  0.25500000920E-02 0.  1.
       -2   -1    0    0    0  501  0.00000000000E+00  0.00000000000E+00 -0.11356526530E+04  0.11356526530E+04  0.25500000920E-02 0. -1.
    10030    2    1    2    0    0  0.00000000000E+00  0.00000000000E+00  0.85366564920E+02  0.23566718709E+04  0.23551252316E+04 0.  0.
        2    1    3    3  502    0 -0.89468085775E+03 -0.75347035538E+02 -0.71973748332E+03  0.11507184964E+04  0.25500000920E-02 0.  1.
       -2    1    3    3    0  502  0.89468085775E+03  0.75347035538E+02  0.80510404824E+03  0.12059533745E+04  0.25500000920E-02 0. -1.
</event>
<event>
 5   0  0.2041718E-05  0.2305046E+04  0.7818609E-02  0.8475934E-01
       -1   -1    0    0    0  501  0.00000000000E+00  0.00000000000E+00  0.97574732941E+03  0.97574732943E+03  0.50400001928E-02 0.  1.
        1   -1    0    0  501    0  0.00000000000E+00  0.00000000000E+00 -0.13613255265E+04  0.13613255265E+04  0.50400001928E-02 0. -1.
    10030    2    1    2    0    0  0.00000000000E+00  0.00000000000E+00 -0.38557819706E+03  0.23370728559E+04  0.23050464177E+04 0.  0.
        4    1    3    3  502    0  0.17023727719E+03  0.95369978953E+03 -0.82579045982E+03  0.12729711370E+04  0.12699999809E+01 0. -1.
       -4    1    3    3    0  502 -0.17023727719E+03 -0.95369978953E+03  0.44021226276E+03  0.10641017190E+04  0.12699999809E+01 0.  1.
</event>
<event>
 5   0  0.5024070E-05  0.2543772E+04  0.7818609E-02  0.8387555E-01
        2   -1    0    0  501    0  0.00000000000E+00  0.00000000000E+00  0.16958416281E+04  0.16958416281E+04  0.25500000920E-02 0.  1.
       -2   -1    0    0    0  501  0.00000000000E+00  0.00000000000E+00 -0.95391791926E+03  0.95391791926E+03  0.25500000920E-02 0. -1.
    10030    2    1    2    0    0  0.00000000000E+00  0.00000000000E+00  0.74192370881E+03  0.26497595473E+04  0.25437717801E+04 0.  0.
        5    1    3    3  502    0  0.25407460786E+03  0.12457569378E+04  0.40715689254E+03  0.13350142619E+04  0.46999998093E+01 0. -1.
       -5    1    3    3    0  502 -0.25407460786E+03 -0.12457569378E+04  0.33476681627E+03  0.13147452854E+04  0.46999998093E+01 0.  1.
</event>
<event>
 5   0  0.2036578E-05  0.2515984E+04  0.7818609E-02  0.8397313E-01
       -1   -1    0    0    0  501  0.00000000000E+00  0.00000000000E+00  0.12268256520E+04  0.12268256520E+04  0.50400001928E-02 0.  1.
        1   -1    0    0  501    0  0.00000000000E+00  0.00000000000E+00 -0.12899502004E+04  0.12899502004E+04  0.50400001928E-02 0. -1.
    10030    2    1    2    0    0  0.00000000000E+00  0.00000000000E+00 -0.63124548392E+02  0.25167758525E+04  0.25159840983E+04 0.  0.
        2    1    3    3  502    0  0.45625255818E+03  0.71170693360E+02  0.11389821648E+04  0.12290288997E+04  0.25500000920E-02 0.  1.
       -2    1    3    3    0  502 -0.45625255818E+03 -0.71170693360E+02 -0.12021067132E+04  0.12877469528E+04  0.25500000920E-02 0. -1.
</event>
<event>
 5   0  0.2081874E-05  0.2523730E+04  0.7818609E-02  0.8394580E-01
       -1   -1    0    0    0  501  0.00000000000E+00  0.00000000000E+00  0.10830648630E+04  0.10830648630E+04  0.50400001928E-02 0.  1.
        1   -1    0    0  501    0  0.00000000000E+00  0.00000000000E+00 -0.14701825841E+04  0.14701825841E+04  0.50400001928E-02 0. -1.
    10030    2    1    2    0    0  0.00000000000E+00  0.00000000000E+00 -0.38711772110E+03  0.25532474471E+04  0.25237298580E+04 0.  0.
        1    1    3    3  502    0  0.12268970338E+04 -0.97513977879E+01  0.10473139825E+03  0.12313976154E+04  0.50400001928E-02 0.  1.
       -1    1    3    3    0  502 -0.12268970338E+04  0.97513977879E+01 -0.49184911935E+03  0.13218498317E+04  0.50400001928E-02 0. -1.
</event>
<event>
 5   0  0.2066170E-05  0.2485493E+04  0.7818609E-02  0.8408172E-01
       -1   -1    0    0    0  501  0.00000000000E+00  0.00000000000E+00  0.12926742979E+04  0.12926742979E+04  0.50400001928E-02 0.  1.
        1   -1    0    0  501    0  0.00000000000E+00  0.00000000000E+00 -0.11947473672E+04  0.11947473672E+04  0.50400001928E-02 0. -1.
    10030    2    1    2    0    0  0.00000000000E+00  0.00000000000E+00  0.97926930696E+02  0.24874216652E+04  0.24854932823E+04 0.  0.
        5    1    3    3  502    0  0.46658323644E+02  0.77465342559E+03 -0.92242455115E+03  0.12054684034E+04  0.46999998093E+01 0. -1.
       -5    1    3    3    0  502 -0.46658323644E+02 -0.77465342559E+03  0.10203514819E+04  0.12819532618E+04  0.46999998093E+01 0.  1.
</event>
<event>
 5   0  0.2041718E-05  0.2476735E+04  0.7818609E-02  0.8411321E-01
       -1   -1    0    0    0  501  0.00000000000E+00  0.00000000000E+00  0.92586881197E+03  0.92586881198E+03  0.50400001928E-02 0.  1.
        1   -1    0    0  501    0  0.00000000000E+00  0.00000000000E+00 -0.16563410893E+04  0.16563410894E+04  0.50400001928E-02 0. -1.
    10030    2    1    2    0    0  0.00000000000E+00  0.00000000000E+00 -0.73047227738E+03  0.25822099013E+04  0.24767353970E+04 0.  0.
        4    1    3    3  502    0  0.18577331290E+03  0.13323858759E+03  0.90367668314E+03  0.93214666526E+03  0.12699999809E+01 0.  1.
       -4    1    3    3    0  502 -0.18577331290E+03 -0.13323858759E+03 -0.16341489605E+04  0.16500632361E+04  0.12699999809E+01 0. -1.
</event>
<event>
 5   0  0.5219468E-05  0.2442414E+04  0.7818609E-02  0.8423793E-01
       -2   -1    0    0    0  501  0.00000000000E+00  0.00000000000E+00  0.85477372317E+03  0.85477372317E+03  0.25500000920E-02 0.  1.
        2   -1    0    0  501    0  0.00000000000E+00  0.00000000000E+00 -0.17447269691E+04  0.17447269691E+04  0.25500000920E-02 0. -1.
    10030    2    1    2    0    0  0.00000000000E+00  0.00000000000E+00 -0.88995324593E+03  0.25995006923E+04  0.24424141887E+04 0.  0.
        1    1    3    3  502    0  0.83855426446E+03  0.82557712540E+03 -0.79246550998E+03  0.14187150626E+04  0.50400001928E-02 0. -1.
       -1    1    3    3    0  502 -0.83855426446E+03 -0.82557712540E+03 -0.97487735946E+02  0.11807856296E+04  0.50400001928E-02 0.  1.
</event>
<event>
 5   0  0.2081874E-05  0.2511164E+04  0.7818609E-02  0.8399019E-01
       -1   -1    0    0    0  501  0.00000000000E+00  0.00000000000E+00  0.84795747188E+03  0.84795747190E+03  0.50400001928E-02 0. -1.
        1   -1    0    0  501    0  0.00000000000E+00  0.00000000000E+00 -0.18591577137E+04  0.18591577137E+04  0.50400001928E-02 0.  1.
    10030    2    1    2    0    0  0.00000000000E+00  0.00000000000E+00 -0.10112002418E+04  0.27071151856E+04  0.25111644110E+04 0.  0.
        1    1    3    3  502    0  0.45140064242E+03 -0.95184040862E+03  0.23088103782E+03  0.10784566552E+04  0.50400001928E-02 0.  1.
       -1    1    3    3    0  502 -0.45140064242E+03  0.95184040862E+03 -0.12420812797E+04  0.16286585304E+04  0.50400001928E-02 0. -1.
</event>
<event>
 5   0  0.4959347E-05  0.2241174E+04  0.7818609E-02  0.8501484E-01
       -2   -1    0    0    0  501  0.00000000000E+00  0.00000000000E+00  0.54253399969E+03  0.54253399970E+03  0.25500000920E-02 0. -1.
        2   -1    0    0  501    0  0.00000000000E+00  0.00000000000E+00 -0.23145367864E+04  0.23145367864E+04  0.25500000920E-02 0.  1.
    10030    2    1    2    0    0  0.00000000000E+00  0.00000000000E+00 -0.17720027867E+04  0.28570707861E+04  0.22411737105E+04 0.  0.
        3    1    3    3  502    0 -0.48878287860E+03  0.10074724538E+04 -0.94016870633E+03  0.14621308608E+04  0.10100000352E+00 0. -1.
       -3    1    3    3    0  502  0.48878287860E+03 -0.10074724538E+04 -0.83183408039E+03  0.13949399253E+04  0.10100000352E+00 0.  1.
</event>
<event>
 5   0  0.4959347E-05  0.2624108E+04  0.7818609E-02  0.8360058E-01
        2   -1    0    0  501    0  0.00000000000E+00  0.00000000000E+00  0.19422114366E+04  0.19422114366E+04  0.25500000920E-02 0.  1.
       -2   -1    0    0    0  501  0.00000000000E+00  0.00000000000E+00 -0.88635308663E+03  0.88635308664E+03  0.25500000920E-02 0. -1.
    10030    2    1    2    0    0  0.00000000000E+00  0.00000000000E+00  0.10558583500E+04  0.28285645233E+04  0.26241075449E+04 0.  0.
        3    1    3    3  502    0 -0.17066609681E+03 -0.12921810050E+04  0.36578832966E+03  0.13537576514E+04  0.10100000352E+00 0.  1.
       -3    1    3    3    0  502  0.17066609681E+03  0.12921810050E+04  0.69007002034E+03  0.14748068719E+04  0.10100000352E+00 0. -1.
</event>
<event>
 5   0  0.5219468E-05  0.2418212E+04  0.7818609E-02  0.8432717E-01
       -2   -1    0    0    0  501  0.00000000000E+00  0.00000000000E+00  0.11734601962E+04  0.11734601962E+04  0.25500000920E-02 0.  1.
        2   -1    0    0  501    0  0.00000000000E+00  0.00000000000E+00 -0.12458341323E+04  0.12458341323E+04  0.25500000920E-02 0. -1.
    10030    2    1    2    0    0  0.00000000000E+00  0.00000000000E+00 -0.72373936125E+02  0.24192943285E+04  0.24182115418E+04 0.  0.
        1    1    3    3  502    0 -0.26440519157E+03  0.81147574728E+03 -0.89303632339E+03  0.12352800770E+04  0.50400001928E-02 0. -1.
       -1    1    3    3    0  502  0.26440519157E+03 -0.81147574728E+03  0.82066238726E+03  0.11840142515E+04  0.50400001928E-02 0.  1.
</event>
<event>
 5   0  0.5024070E-05  0.1976025E+04  0.7818609E-02  0.8617913E-01
       -2   -1    0    0    0  501  0.00000000000E+00  0.00000000000E+00  0.98890058549E+03  0.98890058549E+03  0.25500000920E-02 0. -1.
        2   -1    0    0  501    0  0.00000000000E+00  0.00000000000E+00 -0.98712503650E+03  0.98712503651E+03  0.25500000920E-02 0.  1.
    10030    2    1    2    0    0  0.00000000000E+00  0.00000000000E+00  0.17755489841E+01  0.19760256220E+04  0.19760248243E+04 0.  0.
        5    1    3    3  502    0 -0.40666492284E+03 -0.52508257991E+03 -0.73058935663E+03  0.98735554549E+03  0.46999998093E+01 0.  1.
       -5    1    3    3    0  502  0.40666492284E+03  0.52508257991E+03  0.73236490562E+03  0.98867007650E+03  0.46999998093E+01 0. -1.
</event>
<event>
 5   0  0.2066170E-05  0.2446769E+04  0.7818609E-02  0.8422199E-01
       -1   -1    0    0    0  501  0.00000000000E+00  0.00000000000E+00  0.83451358032E+03  0.83451358033E+03  0.50400001928E-02 0.  1.
        1   -1    0    0  501    0  0.00000000000E+00  0.00000000000E+00 -0.17934630753E+04  0.17934630753E+04  0.50400001928E-02 0. -1.
    10030    2    1    2    0    0  0.00000000000E+00  0.00000000000E+00 -0.95894949501E+03  0.26279766557E+04  0.24467687199E+04 0.  0.
        5    1    3    3  502    0 -0.33176281865E+03 -0.95350434263E+03 -0.12215951748E+04  0.15847883014E+04  0.46999998093E+01 0. -1.
       -5    1    3    3    0  502  0.33176281865E+03  0.95350434263E+03  0.26264567982E+03  0.10431883542E+04  0.46999998093E+01 0.  1.
</event>
<event>
 5   0  0.4959347E-05  0.2521089E+04  0.7818609E-02  0.8395511E-01
        2   -1    0    0  501    0  0.00000000000E+00  0.00000000000E+00  0.16847803232E+04  0.16847803232E+04  0.25500000920E-02 0.  1.
       -2   -1    0    0    0  501  0.00000000000E+00  0.00000000000E+00 -0.94313308584E+03  0.94313308584E+03  0.25500000920E-02 0. -1.
    10030    2    1    2    0    0  0.00000000000E+00  0.00000000000E+00  0.74164723733E+03  0.26279134090E+04  0.25210887054E+04 0.  0.
        3    1    3    3  502    0 -0.91845617685E+03  0.85668247813E+03  0.25901520156E+03  0.12824022388E+04  0.10100000352E+00 0.  1.
       -3    1    3    3    0  502  0.91845617685E+03 -0.85668247813E+03  0.48263203577E+03  0.13455111703E+04  0.10100000352E+00 0. -1.
</event>
<event>
 5   0  0.2036578E-05  0.2495837E+04  0.7818609E-02  0.8404470E-01
       -1   -1    0    0    0  501  0.00000000000E+00  0.00000000000E+00  0.10917784936E+04  0.10917784936E+04  0.50400001928E-02 0. -1.
        1   -1    0    0  501    0  0.00000000000E+00  0.00000000000E+00 -0.14263891709E+04  0.14263891709E+04  0.50400001928E-02 0.  1.
    10030    2    1    2    0    0  0.00000000000E+00  0.00000000000E+00 -0.33461067731E+03  0.25181676645E+04  0.24958373507E+04 0.  0.
        2    1    3    3  502    0 -0.47639698152E+03 -0.31394924708E+03 -0.12870923665E+04  0.14078796019E+04  0.25500000920E-02 0.  1.
       -2    1    3    3    0  502  0.47639698152E+03  0.31394924708E+03  0.95248168914E+03  0.11102880626E+04  0.25500000920E-02 0. -1.
</event>
<event>
 5   0  0.2081874E-05  0.1679094E+04  0.7818609E-02  0.8773379E-01
        1   -1    0    0  501    0  0.00000000000E+00  0.00000000000E+00  0.12518315128E+04  0.12518315128E+04  0.50400001928E-02 0. -1.
       -1   -1    0    0    0  501  0.00000000000E+00  0.00000000000E+00 -0.56304611216E+03  0.56304611219E+03  0.50400001928E-02 0.  1.
    10030    2    1    2    0    0  0.00000000000E+00  0.00000000000E+00  0.68878540061E+03  0.18148776250E+04  0.16790936441E+04 0.  0.
        1    1    3    3  502    0 -0.25199719119E+03 -0.29524140641E+03  0.11490175887E+04  0.12128113999E+04  0.50400001928E-02 0. -1.
       -1    1    3    3    0  502  0.25199719119E+03  0.29524140641E+03 -0.46023218811E+03  0.60206622511E+03  0.50400001928E-02 0.  1.
</event>
<event>
 5   0  0.2063930E-05  0.2540970E+04  0.7818609E-02  0.8388533E-01
        1   -1    0    0  501    0  0.00000000000E+00  0.00000000000E+00  0.98336744567E+03  0.98336744568E+03  0.50400001928E-02 0.  1.
       -1   -1    0    0    0  501  0.00000000000E+00  0.00000000000E+00 -0.16414333093E+04  0.16414333093E+04  0.50400001928E-02 0. -1.
    10030    2    1    2    0    0  0.00000000000E+00  0.00000000000E+00 -0.65806586360E+03  0.26248007550E+04  0.25409699570E+04 0.  0.
        3    1    3    3  502    0  0.34164097819E+03  0.73072590646E+03  0.68490673886E+03  0.10581947644E+04  0.10100000352E+00 0.  1.
       -3    1    3    3    0  502 -0.34164097819E+03 -0.73072590646E+03 -0.13429726025E+04  0.15666059905E+04  0.10100000352E+00 0. -1.
</event>
<event>
 5   0  0.2063930E-05  0.2515649E+04  0.7818609E-02  0.8397432E-01
        1   -1    0    0  501    0  0.00000000000E+00  0.00000000000E+00  0.12257992134E+04  0.12257992134E+04  0.50400001928E-02 0. -1.
       -1   -1    0    0    0  501  0.00000000000E+00  0.00000000000E+00 -0.12906864394E+04  0.12906864394E+04  0.50400001928E-02 0.  1.
    10030    2    1    2    0    0  0.00000000000E+00  0.00000000000E+00 -0.64887225993E+02  0.25164856529E+04  0.25156489598E+04 0.  0.
        3    1    3    3  502    0 -0.58945839627E+03  0.41068664539E+03 -0.10652586497E+04  0.12848738158E+04  0.10100000352E+00 0.  1.
       -3    1    3    3    0  502  0.58945839627E+03 -0.41068664539E+03  0.10003714237E+04  0.12316118371E+04  0.10100000352E+00 0. -1.
</event>
<event>
 5   0  0.4995256E-05  0.2499285E+04  0.7818609E-02  0.8403240E-01
       -2   -1    0    0    0  501  0.00000000000E+00  0.00000000000E+00  0.16492817351E+04  0.16492817351E+04  0.25500000920E-02 0.  1.
        2   -1    0    0  501    0  0.00000000000E+00  0.00000000000E+00 -0.94684029215E+03  0.94684029215E+03  0.25500000920E-02 0. -1.
    10030    2    1    2    0    0  0.00000000000E+00  0.00000000000E+00  0.70244144297E+03  0.25961220273E+04  0.24992850177E+04 0.  0.
        2    1    3    3  502    0  0.14783648287E+03  0.19069353833E+03  0.16248548127E+04  0.16426724608E+04  0.25500000920E-02 0.  1.
       -2    1    3    3    0  502 -0.14783648287E+03 -0.19069353833E+03 -0.92241336969E+03  0.95344956648E+03  0.25500000920E-02 0. -1.
</event>
<event>
 5   0  0.2066170E-05  0.2510593E+04  0.7818609E-02  0.8399221E-01
        1   -1    0    0  501    0  0.00000000000E+00  0.00000000000E+00  0.16307122816E+04  0.16307122816E+04  0.50400001928E-02 0.  1.
       -1   -1    0    0    0  501  0.00000000000E+00  0.00000000000E+00 -0.96630734533E+03  0.96630734535E+03  0.50400001928E-02 0. -1.
    10030    2    1    2    0    0  0.00000000000E+00  0.00000000000E+00  0.66440493629E+03  0.25970196270E+04  0.25105929625E+04 0.  0.
        5    1    3    3  502    0 -0.31483821444E+03  0.12017594391E+04  0.14601084547E+03  0.12508757364E+04  0.46999998093E+01 0. -1.
       -5    1    3    3    0  502  0.31483821444E+03 -0.12017594391E+04  0.51839409083E+03  0.13461438906E+04  0.46999998093E+01 0.  1.
</event>
<event>
 5   0  0.5024070E-05  0.2554346E+04  0.7818609E-02  0.8383876E-01
       -2   -1    0    0    0  501  0.00000000000E+00  0.00000000000E+00  0.83257320202E+03  0.83257320202E+03  0.25500000920E-02 0.  1.
        2   -1    0    0  501    0  0.00000000000E+00  0.00000000000E+00 -0.19591923219E+04  0.19591923219E+04  0.25500000920E-02 0. -1.
    10030    2    1    2    0    0  0.00000000000E+00  0.00000000000E+00 -0.11266191199E+04  0.27917655239E+04  0.25543461197E+04 0.  0.
        5    1    3    3  502    0  0.88746372125E+03 -0.66674376386E+03 -0.12536939980E+04  0.16744879318E+04  0.46999998093E+01 0. -1.
       -5    1    3    3    0  502 -0.88746372125E+03  0.66674376386E+03  0.12707487813E+03  0.11172775921E+04  0.46999998093E+01 0.  1.
</event>
<event>
 5   0  0.2036578E-05  0.2472302E+04  0.7818609E-02  0.8412920E-01
        1   -1    0    0  501    0  0.00000000000E+00  0.00000000000E+00  0.20135589091E+04  0.20135589091E+04  0.50400001928E-02 0.  1.
       -1   -1    0    0    0  501  0.00000000000E+00  0.00000000000E+00 -0.75888981674E+03  0.75888981676E+03  0.50400001928E-02 0. -1.
    10030    2    1    2    0    0  0.00000000000E+00  0.00000000000E+00  0.12546690923E+04  0.27724487258E+04  0.24723020459E+04 0.  0.
        2    1    3    3  502    0  0.85637468276E+03 -0.13006081643E+03  0.16163185027E+04  0.18337881326E+04  0.25500000920E-02 0.  1.
       -2    1    3    3    0  502 -0.85637468276E+03  0.13006081643E+03 -0.36164941034E+03  0.93866059322E+03  0.25500000920E-02 0. -1.
</event>
<event>
 5   0  0.2036578E-05  0.2466253E+04  0.7818609E-02  0.8415108E-01
        1   -1    0    0  501    0  0.00000000000E+00  0.00000000000E+00  0.22146874928E+04  0.22146874929E+04  0.50400001928E-02 0.  1.
       -1   -1    0    0    0  501  0.00000000000E+00  0.00000000000E+00 -0.68659860682E+03  0.68659860684E+03  0.50400001928E-02 0. -1.
    10030    2    1    2    0    0  0.00000000000E+00  0.00000000000E+00  0.15280888860E+04  0.29012860997E+04  0.24662533099E+04 0.  0.
        2    1    3    3  502    0 -0.88758008294E+03  0.85522615785E+03  0.72016695047E+03  0.14275330543E+04  0.25500000920E-02 0. -1.
       -2    1    3    3    0  502  0.88758008294E+03 -0.85522615785E+03  0.80792193556E+03  0.14737530453E+04  0.25500000920E-02 0.  1.
</event>
<event>
 5   0  0.2081874E-05  0.2233258E+04  0.7818609E-02  0.8504712E-01
        1   -1    0    0  501    0  0.00000000000E+00  0.00000000000E+00  0.18290220542E+04  0.18290220542E+04  0.50400001928E-02 0. -1.
       -1   -1    0    0    0  501  0.00000000000E+00  0.00000000000E+00 -0.68170878154E+03  0.68170878155E+03  0.50400001928E-02 0.  1.
    10030    2    1    2    0    0  0.00000000000E+00  0.00000000000E+00  0.11473132727E+04  0.25107308358E+04  0.22332580648E+04 0.  0.
        1    1    3    3  502    0  0.30095025112E+03 -0.11860034242E+03 -0.62787926860E+03  0.70630692396E+03  0.50400001928E-02 0.  1.
       -1    1    3    3    0  502 -0.30095025112E+03  0.11860034242E+03  0.17751925413E+04  0.18044239118E+04  0.50400001928E-02 0. -1.
</event>
<event>
 5   0  0.2036578E-05  0.2489496E+04  0.7818609E-02  0.8406737E-01
        1   -1    0    0  501    0  0.00000000000E+00  0.00000000000E+00  0.18485292261E+04  0.18485292262E+04  0.50400001928E-02 0.  1.
       -1   -1    0    0    0  501  0.00000000000E+00  0.00000000000E+00 -0.83817864888E+03  0.83817864890E+03  0.50400001928E-02 0. -1.
    10030    2    1    2    0    0  0.00000000000E+00  0.00000000000E+00  0.10103505773E+04  0.26867078750E+04  0.24894961171E+04 0.  0.
        2    1    3    3  502    0 -0.12447453556E+04  0.20660629161E+00  0.50238467946E+03  0.13423045143E+04  0.25500000920E-02 0.  1.
       -2    1    3    3    0  502  0.12447453556E+04 -0.20660629161E+00  0.50796589780E+03  0.13444033607E+04  0.25500000920E-02 0. -1.
</event>
<event>
 5   0  0.5219468E-05  0.2516629E+04  0.7818609E-02  0.8397085E-01
       -2   -1    0    0    0  501  0.00000000000E+00  0.00000000000E+00  0.15624841689E+04  0.15624841689E+04  0.25500000920E-02 0.  1.
        2   -1    0    0  501    0  0.00000000000E+00  0.00000000000E+00 -0.10133576883E+04  0.10133576883E+04  0.25500000920E-02 0. -1.
    10030    2    1    2    0    0  0.00000000000E+00  0.00000000000E+00  0.54912648068E+03  0.25758418572E+04  0.25166289718E+04 0.  0.
        1    1    3    3  502    0  0.80995536517E+03  0.73244742716E+03 -0.36532508054E+03  0.11515074214E+04  0.50400001928E-02 0.  1.
       -1    1    3    3    0  502 -0.80995536517E+03 -0.73244742716E+03  0.91445156122E+03  0.14243344358E+04  0.50400001928E-02 0. -1.
</event>
<event>
 5   0  0.5219468E-05  0.2464920E+04  0.7818609E-02  0.8415591E-01
       -2   -1    0    0    0  501  0.00000000000E+00  0.00000000000E+00  0.13039579449E+04  0.13039579449E+04  0.25500000920E-02 0. -1.
        2   -1    0    0  501    0  0.00000000000E+00  0.00000000000E+00 -0.11648826239E+04  0.11648826239E+04  0.25500000920E-02 0.  1.
    10030    2    1    2    0    0  0.00000000000E+00  0.00000000000E+00  0.13907532096E+03  0.24688405688E+04  0.24649202440E+04 0.  0.
        1    1    3    3  502    0  0.76991941731E+03  0.61320922649E+03 -0.67336735951E+03  0.11925707801E+04  0.50400001928E-02 0. -1.
       -1    1    3    3    0  502 -0.76991941731E+03 -0.61320922649E+03  0.81244268047E+03  0.12762697888E+04  0.50400001928E-02 0.  1.
</event>
<event>
 5   0  0.2041718E-05  0.2523177E+04  0.7818609E-02  0.8394775E-01
       -1   -1    0    0    0  501  0.00000000000E+00  0.00000000000E+00  0.19884903223E+04  0.19884903223E+04  0.50400001928E-02 0.  1.
        1   -1    0    0  501    0  0.00000000000E+00  0.00000000000E+00 -0.80040911046E+03  0.80040911048E+03  0.50400001928E-02 0. -1.
    10030    2    1    2    0    0  0.00000000000E+00  0.00000000000E+00  0.11880812118E+04  0.27888994328E+04  0.25231771797E+04 0.  0.
        4    1    3    3  502    0  0.79632800542E+03  0.16321112832E+03  0.16604398375E+04  0.18487396332E+04  0.12699999809E+01 0.  1.
       -4    1    3    3    0  502 -0.79632800542E+03 -0.16321112832E+03 -0.47235862563E+03  0.94015979957E+03  0.12699999809E+01 0. -1.
</event>
<event>
 5   0  0.5024070E-05  0.2455452E+04  0.7818609E-02  0.8419030E-01
       -2   -1    0    0    0  501  0.00000000000E+00  0.00000000000E+00  0.95472848121E+03  0.95472848121E+03  0.25500000920E-02 0.  1.
        2   -1    0    0  501    0  0.00000000000E+00  0.00000000000E+00 -0.15787845702E+04  0.15787845702E+04  0.25500000920E-02 0. -1.
    10030    2    1    2    0    0  0.00000000000E+00  0.00000000000E+00 -0.62405608899E+03  0.25335130514E+04  0.24554515632E+04 0.  0.
        5    1    3    3  502    0  0.65864670328E+03 -0.56236507471E+03 -0.12098751688E+04  0.14879146384E+04  0.46999998093E+01 0. -1.
       -5    1    3    3    0  502 -0.65864670328E+03  0.56236507471E+03  0.58581907984E+03  0.10455984130E+04  0.46999998093E+01 0.  1.
</event>
<event>
 5   0  0.2066170E-05  0.2508585E+04  0.7818609E-02  0.8399933E-01
        1   -1    0    0  501    0  0.00000000000E+00  0.00000000000E+00  0.85524376223E+03  0.85524376224E+03  0.50400001928E-02 0. -1.
       -1   -1    0    0    0  501  0.00000000000E+00  0.00000000000E+00 -0.18395343001E+04  0.18395343001E+04  0.50400001928E-02 0.  1.
    10030    2    1    2    0    0  0.00000000000E+00  0.00000000000E+00 -0.98429053785E+03  0.26947780623E+04  0.25085854465E+04 0.  0.
        5    1    3    3  502    0 -0.54732831643E+03  0.13364305201E+03  0.71165445507E+03  0.90769097426E+03  0.46999998093E+01 0. -1.
       -5    1    3    3    0  502  0.54732831643E+03 -0.13364305201E+03 -0.16959449929E+04  0.17870870881E+04  0.46999998093E+01 0.  1.
</event>
<event>
 5   0  0.2036578E-05  0.2543317E+04  0.7818609E-02  0.8387714E-01
        1   -1    0    0  501    0  0.00000000000E+00  0.00000000000E+00  0.20014259289E+04  0.20014259289E+04  0.50400001928E-02 0.  1.
       -1   -1    0    0    0  501  0.00000000000E+00  0.00000000000E+00 -0.80798163062E+03  0.80798163064E+03  0.50400001928E-02 0. -1.
    10030    2    1    2    0    0  0.00000000000E+00  0.00000000000E+00  0.11934442983E+04  0.28094075595E+04  0.25433170354E+04 0.  0.
        2    1    3    3  502    0 -0.10428627604E+04 -0.80776036090E+02  0.13955931684E+04  0.17440664542E+04  0.25500000920E-02 0. -1.
       -2    1    3    3    0  502  0.10428627604E+04  0.80776036090E+02 -0.20214887012E+03  0.10653411053E+04  0.25500000920E-02 0.  1.
</event>
<event>
 5   0  0.5024070E-05  0.2466052E+04  0.7818609E-02  0.8415181E-01
        2   -1    0    0  501    0  0.00000000000E+00  0.00000000000E+00  0.15107553848E+04  0.15107553848E+04  0.25500000920E-02 0. -1.
       -2   -1    0    0    0  501  0.00000000000E+00  0.00000000000E+00 -0.10063526884E+04  0.10063526884E+04  0.25500000920E-02 0.  1.
    10030    2    1    2    0    0  0.00000000000E+00  0.00000000000E+00  0.50440269639E+03  0.25171080733E+04  0.24660516970E+04 0.  0.
        5    1    3    3  502    0 -0.54977824105E+03 -0.54374486652E+03 -0.72810793108E+03  0.10621100901E+04  0.46999998093E+01 0.  1.
       -5    1    3    3    0  502  0.54977824105E+03  0.54374486652E+03  0.12325106275E+04  0.14549979832E+04  0.46999998093E+01 0. -1.
</event>
<event>
 5   0  0.5219468E-05  0.2495215E+04  0.7818609E-02  0.8404692E-01
       -2   -1    0    0    0  501  0.00000000000E+00  0.00000000000E+00  0.99713947166E+03  0.99713947167E+03  0.25500000920E-02 0.  1.
        2   -1    0    0  501    0  0.00000000000E+00  0.00000000000E+00 -0.15609901891E+04  0.15609901891E+04  0.25500000920E-02 0. -1.
    10030    2    1    2    0    0  0.00000000000E+00  0.00000000000E+00 -0.56385071741E+03  0.25581296607E+04  0.24952153674E+04 0.  0.
        1    1    3    3  502    0  0.36661953859E+03  0.65450421933E+01 -0.15044998817E+04  0.15485388654E+04  0.50400001928E-02 0. -1.
       -1    1    3    3    0  502 -0.36661953859E+03 -0.65450421933E+01  0.94064916430E+03  0.10095907953E+04  0.50400001928E-02 0.  1.
</event>
<event>
 5   0  0.2041718E-05  0.2509884E+04  0.7818609E-02  0.8399473E-01
       -1   -1    0    0    0  501  0.00000000000E+00  0.00000000000E+00  0.15038404596E+04  0.15038404596E+04  0.50400001928E-02 0.  1.
        1   -1    0    0  501    0  0.00000000000E+00  0.00000000000E+00 -0.10472387419E+04  0.10472387419E+04  0.50400001928E-02 0. -1.
    10030    2    1    2    0    0  0.00000000000E+00  0.00000000000E+00  0.45660171774E+03  0.25510792015E+04  0.25098844522E+04 0.  0.
        4    1    3    3  502    0  0.85010673768E+03  0.77148703462E+03 -0.28697609587E+03  0.11833134000E+04  0.12699999809E+01 0. -1.
       -4    1    3    3    0  502 -0.85010673768E+03 -0.77148703462E+03  0.74357781361E+03  0.13677658015E+04  0.12699999809E+01 0.  1.
</event>
<event>
 5   0  0.1692125E-05  0.2479377E+04  0.7818609E-02  0.8410370E-01
        3   -1    0    0  501    0  0.00000000000E+00  0.00000000000E+00  0.14225265403E+04  0.14225265439E+04  0.10100000352E+00 0.  1.
       -3   -1    0    0    0  501  0.00000000000E+00  0.00000000000E+00 -0.10803504779E+04  0.10803504827E+04  0.10100000352E+00 0. -1.
    10030    2    1    2    0    0  0.00000000000E+00  0.00000000000E+00  0.34217606235E+03  0.25028770265E+04  0.24793767266E+04 0.  0.
        2    1    3    3  502    0  0.51462824608E+03  0.82032725681E+03 -0.61023005008E+03  0.11446221009E+04  0.25500000920E-02 0. -1.
       -2    1    3    3    0  502 -0.51462824608E+03 -0.82032725681E+03  0.95240611242E+03  0.13582549256E+04  0.25500000920E-02 0.  1.
</event>
<event>
 5   0  0.2063930E-05  0.2752865E+04  0.7818609E-02  0.8318053E-01
        1   -1    0    0  501    0  0.00000000000E+00  0.00000000000E+00  0.18238654642E+04  0.18238654642E+04  0.50400001928E-02 0.  1.
       -1   -1    0    0    0  501  0.00000000000E+00  0.00000000000E+00 -0.10387641849E+04  0.10387641850E+04  0.50400001928E-02 0. -1.
    10030    2    1    2    0    0  0.00000000000E+00  0.00000000000E+00  0.78510127925E+03  0.28626296492E+04  0.27528647787E+04 0.  0.
        3    1    3    3  502    0 -0.56502966373E+03 -0.99555864160E+03  0.11873364911E+04  0.16492918126E+04  0.10100000352E+00 0. -1.
       -3    1    3    3    0  502  0.56502966373E+03  0.99555864160E+03 -0.40223521187E+03  0.12133378366E+04  0.10100000352E+00 0.  1.
</event>
<event>
 5   0  0.2063930E-05  0.2574506E+04  0.7818609E-02  0.8376913E-01
       -1   -1    0    0    0  501  0.00000000000E+00  0.00000000000E+00  0.10505479312E+04  0.10505479312E+04  0.50400001928E-02 0. -1.
        1   -1    0    0  501    0  0.00000000000E+00  0.00000000000E+00 -0.15772918103E+04  0.15772918103E+04  0.50400001928E-02 0.  1.
    10030    2    1    2    0    0  0.00000000000E+00  0.00000000000E+00 -0.52674387914E+03  0.26278397416E+04  0.25745062814E+04 0.  0.
        3    1    3    3  502    0 -0.10988369201E+04 -0.63861311223E+03 -0.47193634994E+03  0.13557260832E+04  0.10100000352E+00 0. -1.
       -3    1    3    3    0  502  0.10988369201E+04  0.63861311223E+03 -0.54807529205E+02  0.12721136583E+04  0.10100000352E+00 0.  1.
</event>
<event>
 5   0  0.2066170E-05  0.2474642E+04  0.7818609E-02  0.8412076E-01
       -1   -1    0    0    0  501  0.00000000000E+00  0.00000000000E+00  0.13999272854E+04  0.13999272854E+04  0.50400001928E-02 0.  1.
        1   -1    0    0  501    0  0.00000000000E+00  0.00000000000E+00 -0.10936016959E+04  0.10936016960E+04  0.50400001928E-02 0. -1.
    10030    2    1    2    0    0  0.00000000000E+00  0.00000000000E+00  0.30632558943E+03  0.24935289813E+04  0.24746416739E+04 0.  0.
        5    1    3    3  502    0 -0.10066049903E+04  0.58428750457E+02 -0.56943904075E+03  0.11579941436E+04  0.46999998093E+01 0. -1.
       -5    1    3    3    0  502  0.10066049903E+04 -0.58428750457E+02  0.87576463018E+03  0.13355348378E+04  0.46999998093E+01 0.  1.
</event>
<event>
 5   0  0.2041718E-05  0.2526360E+04  0.7818609E-02  0.8393654E-01
        1   -1    0    0  501    0  0.00000000000E+00  0.00000000000E+00  0.19394431310E+04  0.19394431310E+04  0.50400001928E-02 0. -1.
       -1   -1    0    0    0  501  0.00000000000E+00  0.00000000000E+00 -0.82272277974E+03  0.82272277976E+03  0.50400001928E-02 0.  1.
    10030    2    1    2    0    0  0.00000000000E+00  0.00000000000E+00  0.11167203513E+04  0.27621659108E+04  0.25263602625E+04 0.  0.
        4    1    3    3  502    0  0.41482875530E+03 -0.11514462269E+04  0.90012430469E+03  0.15192553066E+04  0.12699999809E+01 0. -1.
       -4    1    3    3    0  502 -0.41482875530E+03  0.11514462269E+04  0.21659604659E+03  0.12429106042E+04  0.12699999809E+01 0.  1.
</event>
<event>
 5   0  0.2066170E-05  0.2535650E+04  0.7818609E-02  0.8390394E-01
       -1   -1    0    0    0  501  0.00000000000E+00  0.00000000000E+00  0.97272686067E+03  0.97272686068E+03  0.50400001928E-02 0. -1.
        1   -1    0    0  501    0  0.00000000000E+00  0.00000000000E+00 -0.16524473512E+04  0.16524473512E+04  0.50400001928E-02 0.  1.
    10030    2    1    2    0    0  0.00000000000E+00  0.00000000000E+00 -0.67972049053E+03  0.26251742119E+04  0.25356497585E+04 0.  0.
        5    1    3    3  502    0 -0.10818051293E+04  0.48941206897E+02 -0.10224249527E+04  0.14893194598E+04  0.46999998093E+01 0.  1.
       -5    1    3    3    0  502  0.10818051293E+04 -0.48941206897E+02  0.34270446219E+03  0.11358547521E+04  0.46999998093E+01 0. -1.
</event>
<event>
 5   0  0.4959042E-05  0.1974869E+04  0.7818609E-02  0.8618461E-01
       -2   -1    0    0    0  501  0.00000000000E+00  0.00000000000E+00  0.41729331749E+03  0.41729331749E+03  0.25500000920E-02 0.  1.
        2   -1    0    0  501    0  0.00000000000E+00  0.00000000000E+00 -0.23365512895E+04  0.23365512895E+04  0.25500000920E-02 0. -1.
    10030    2    1    2    0    0  0.00000000000E+00  0.00000000000E+00 -0.19192579720E+04  0.27538446070E+04  0.19748693517E+04 0.  0.
        4    1    3    3  502    0  0.17646969742E+03  0.75718715082E+03 -0.18084682497E+04  0.19685103400E+04  0.12699999809E+01 0. -1.
       -4    1    3    3    0  502 -0.17646969742E+03 -0.75718715082E+03 -0.11078972230E+03  0.78533426701E+03  0.12699999809E+01 0.  1.
</event>
<event>
 5   0  0.2066170E-05  0.2477959E+04  0.7818609E-02  0.8410880E-01
        1   -1    0    0  501    0  0.00000000000E+00  0.00000000000E+00  0.16656228411E+04  0.16656228411E+04  0.50400001928E-02 0. -1.
       -1   -1    0    0    0  501  0.00000000000E+00  0.00000000000E+00 -0.92161923440E+03  0.92161923441E+03  0.50400001928E-02 0.  1.
    10030    2    1    2    0    0  0.00000000000E+00  0.00000000000E+00  0.74400360670E+03  0.25872420755E+04  0.24779588759E+04 0.  0.
        5    1    3    3  502    0  0.76620844905E+03 -0.73091646584E+03 -0.29958694933E+03  0.11004947513E+04  0.46999998093E+01 0.  1.
       -5    1    3    3    0  502 -0.76620844905E+03  0.73091646584E+03  0.10435905560E+04  0.14867473242E+04  0.46999998093E+01 0. -1.
</event>
<event>
 5   0  0.4959347E-05  0.2572080E+04  0.7818609E-02  0.8377747E-01
        2   -1    0    0  501    0  0.00000000000E+00  0.00000000000E+00  0.12211661936E+04  0.12211661936E+04  0.25500000920E-02 0.  1.
       -2   -1    0    0    0  501  0.00000000000E+00  0.00000000000E+00 -0.13543597422E+04  0.13543597422E+04  0.25500000920E-02 0. -1.
    10030    2    1    2    0    0  0.00000000000E+00  0.00000000000E+00 -0.13319354860E+03  0.25755259357E+04  0.25720795719E+04 0.  0.
        3    1    3    3  502    0  0.21879300261E+03  0.35922918297E+03  0.11503432593E+04  0.12248288078E+04  0.10100000352E+00 0.  1.
       -3    1    3    3    0  502 -0.21879300261E+03 -0.35922918297E+03 -0.12835368079E+04  0.13506971279E+04  0.10100000352E+00 0. -1.
</event>
<event>
 5   0  0.4959347E-05  0.2498284E+04  0.7818609E-02  0.8403597E-01
       -2   -1    0    0    0  501  0.00000000000E+00  0.00000000000E+00  0.13851193113E+04  0.13851193113E+04  0.25500000920E-02 0.  1.
        2   -1    0    0  501    0  0.00000000000E+00  0.00000000000E+00 -0.11265139008E+04  0.11265139008E+04  0.25500000920E-02 0. -1.
    10030    2    1    2    0    0  0.00000000000E+00  0.00000000000E+00  0.25860541046E+03  0.25116332120E+04  0.24982843380E+04 0.  0.
        3    1    3    3  502    0 -0.12444599108E+04 -0.74445388531E+01  0.23767598772E+03  0.12669750495E+04  0.10100000352E+00 0. -1.
       -3    1    3    3    0  502  0.12444599108E+04  0.74445388531E+01  0.20929422740E+02  0.12446581626E+04  0.10100000352E+00 0.  1.
</event>
<event>
 5   0  0.2036578E-05  0.2481878E+04  0.7818609E-02  0.8409470E-01
       -1   -1    0    0    0  501  0.00000000000E+00  0.00000000000E+00  0.52653252201E+03  0.52653252204E+03  0.50400001928E-02 0.  1.
        1   -1    0    0  501    0  0.00000000000E+00  0.00000000000E+00 -0.29246609787E+04  0.29246609787E+04  0.50400001928E-02 0. -1.
    10030    2    1    2    0    0  0.00000000000E+00  0.00000000000E+00 -0.23981284567E+04  0.34511935007E+04  0.24818776128E+04 0.  0.
        2    1    3    3  502    0  0.12321867079E+04  0.73461687509E+02 -0.10218108595E+04  0.16024288238E+04  0.25500000920E-02 0. -1.
       -2    1    3    3    0  502 -0.12321867079E+04 -0.73461687509E+02 -0.13763175971E+04  0.18487646770E+04  0.25500000920E-02 0.  1.
</event>
<event>
 5   0  0.5024070E-05  0.1673907E+04  0.7818609E-02  0.8776388E-01
       -2   -1    0    0    0  501  0.00000000000E+00  0.00000000000E+00  0.45792103006E+03  0.45792103007E+03  0.25500000920E-02 0.  1.
        2   -1    0    0  501    0  0.00000000000E+00  0.00000000000E+00 -0.15297208453E+04  0.15297208453E+04  0.25500000920E-02 0. -1.
    10030    2    1    2    0    0  0.00000000000E+00  0.00000000000E+00 -0.10717998152E+04  0.19876418754E+04  0.16739072199E+04 0.  0.
        5    1    3    3  502    0 -0.23095594819E+03 -0.25814098688E+03  0.36880055711E+03  0.50597762800E+03  0.46999998093E+01 0.  1.
       -5    1    3    3    0  502  0.23095594819E+03  0.25814098688E+03 -0.14406003723E+04  0.14816642474E+04  0.46999998093E+01 0. -1.
</event>
<event>
 5   0  0.2066170E-05  0.2622556E+04  0.7818609E-02  0.8360580E-01
       -1   -1    0    0    0  501  0.00000000000E+00  0.00000000000E+00  0.75284496153E+03  0.75284496155E+03  0.50400001928E-02 0.  1.
        1   -1    0    0  501    0  0.00000000000E+00  0.00000000000E+00 -0.22839360991E+04  0.22839360991E+04  0.50400001928E-02 0. -1.
    10030    2    1    2    0    0  0.00000000000E+00  0.00000000000E+00 -0.15310911376E+04  0.30367810606E+04  0.26225558409E+04 0.  0.
        5    1    3    3  502    0 -0.67643769443E+03  0.11083184078E+04 -0.55363792753E+03  0.14115504569E+04  0.46999998093E+01 0.  1.
       -5    1    3    3    0  502  0.67643769443E+03 -0.11083184078E+04 -0.97745321002E+03  0.16252306037E+04  0.46999998093E+01 0. -1.
</event>
<event>
 5   0  0.2036578E-05  0.2479901E+04  0.7818609E-02  0.8410181E-01
       -1   -1    0    0    0  501  0.00000000000E+00  0.00000000000E+00  0.22193588434E+04  0.22193588434E+04  0.50400001928E-02 0. -1.
        1   -1    0    0  501    0  0.00000000000E+00  0.00000000000E+00 -0.69275741999E+03  0.69275742001E+03  0.50400001928E-02 0.  1.
    10030    2    1    2    0    0  0.00000000000E+00  0.00000000000E+00  0.15266014234E+04  0.29121162634E+04  0.24799010516E+04 0.  0.
        2    1    3    3  502    0 -0.28635977070E+03 -0.80551544092E+03 -0.29135065731E+03  0.90318450460E+03  0.25500000920E-02 0. -1.
       -2    1    3    3    0  502  0.28635977070E+03  0.80551544092E+03  0.18179520807E+04  0.20089317588E+04  0.25500000920E-02 0.  1.
</event>
<event>
 5   0  0.5024070E-05  0.2505254E+04  0.7818609E-02  0.8401116E-01
       -2   -1    0    0    0  501  0.00000000000E+00  0.00000000000E+00  0.66556847588E+03  0.66556847588E+03  0.25500000920E-02 0.  1.
        2   -1    0    0  501    0  0.00000000000E+00  0.00000000000E+00 -0.23574957992E+04  0.23574957992E+04  0.25500000920E-02 0. -1.
    10030    2    1    2    0    0  0.00000000000E+00  0.00000000000E+00 -0.16919273233E+04  0.30230642751E+04  0.25052543871E+04 0.  0.
        5    1    3    3  502    0 -0.11565192568E+04 -0.37466556435E+03 -0.12102594570E+04  0.17154186427E+04  0.46999998093E+01 0. -1.
       -5    1    3    3    0  502  0.11565192568E+04  0.37466556435E+03 -0.48166786636E+03  0.13076456324E+04  0.46999998093E+01 0.  1.
</event>
<event>
 5   0  0.5219468E-05  0.2489583E+04  0.7818609E-02  0.8406706E-01
        2   -1    0    0  501    0  0.00000000000E+00  0.00000000000E+00  0.21679198418E+04  0.21679198418E+04  0.25500000920E-02 0.  1.
       -2   -1    0    0    0  501  0.00000000000E+00  0.00000000000E+00 -0.71474325585E+03  0.71474325585E+03  0.25500000920E-02 0. -1.
    10030    2    1    2    0    0  0.00000000000E+00  0.00000000000E+00  0.14531765860E+04  0.28826630977E+04  0.24895831669E+04 0.  0.
        1    1    3    3  502    0  0.11542328501E+04 -0.18001093089E+03  0.12244118287E+04  0.16922889037E+04  0.50400001928E-02 0.  1.
       -1    1    3    3    0  502 -0.11542328501E+04  0.18001093089E+03  0.22876475729E+03  0.11903741940E+04  0.50400001928E-02 0. -1.
</event>
<event>
 5   0  0.2036578E-05  0.2456509E+04  0.7818609E-02  0.8418645E-01
       -1   -1    0    0    0  501  0.00000000000E+00  0.00000000000E+00  0.13647216214E+04  0.13647216214E+04  0.50400001928E-02 0.  1.
        1   -1    0    0  501    0  0.00000000000E+00  0.00000000000E+00 -0.11054336008E+04  0.11054336008E+04  0.50400001928E-02 0. -1.
    10030    2    1    2    0    0  0.00000000000E+00  0.00000000000E+00  0.25928802061E+03  0.24701552222E+04  0.24565090157E+04 0.  0.
        2    1    3    3  502    0 -0.78962765341E+03 -0.19129083134E+03  0.10559044519E+04  0.13323056048E+04  0.25500000920E-02 0.  1.
       -2    1    3    3    0  502  0.78962765341E+03  0.19129083134E+03 -0.79661643127E+03  0.11378496174E+04  0.25500000920E-02 0. -1.
</event>
<event>
 5   0  0.5219468E-05  0.2438027E+04  0.7818609E-02  0.8425403E-01
        2   -1    0    0  501    0  0.00000000000E+00  0.00000000000E+00  0.16400861953E+04  0.16400861953E+04  0.25500000920E-02 0. -1.
       -2   -1    0    0    0  501  0.00000000000E+00  0.00000000000E+00 -0.90604621164E+03  0.90604621164E+03  0.25500000920E-02 0.  1.
    10030    2    1    2    0    0  0.00000000000E+00  0.00000000000E+00  0.73403998370E+03  0.25461324070E+04  0.24380269761E+04 0.  0.
        1    1    3    3  502    0 -0.78615915720E+03  0.75113732063E+03 -0.20854417819E+03  0.11071333114E+04  0.50400001928E-02 0.  1.
       -1    1    3    3    0  502  0.78615915720E+03 -0.75113732063E+03  0.94258416189E+03  0.14389990956E+04  0.50400001928E-02 0. -1.
</event>
<event>
 5   0  0.2041718E-05  0.2118697E+04  0.7818609E-02  0.8553052E-01
       -1   -1    0    0    0  501  0.00000000000E+00  0.00000000000E+00  0.14718574381E+04  0.14718574381E+04  0.50400001928E-02 0. -1.
        1   -1    0    0  501    0  0.00000000000E+00  0.00000000000E+00 -0.76245077607E+03  0.76245077608E+03  0.50400001928E-02 0.  1.
    10030    2    1    2    0    0  0.00000000000E+00  0.00000000000E+00  0.70940666199E+03  0.22343082141E+04  0.21186966238E+04 0.  0.
        4    1    3    3  502    0  0.52906180303E+03 -0.40193147108E+03 -0.51540222011E+03  0.84089021891E+03  0.12699999809E+01 0.  1.
       -4    1    3    3    0  502 -0.52906180303E+03  0.40193147108E+03  0.12248088821E+04  0.13934179952E+04  0.12699999809E+01 0. -1.
</event>
<event>
 5   0  0.4959347E-05  0.2398601E+04  0.7818609E-02  0.8440028E-01
        2   -1    0    0  501    0  0.00000000000E+00  0.00000000000E+00  0.11188997417E+04  0.11188997417E+04  0.25500000920E-02 0. -1.
       -2   -1    0    0    0  501  0.00000000000E+00  0.00000000000E+00 -0.12854783052E+04  0.12854783053E+04  0.25500000920E-02 0.  1.
    10030    2    1    2    0    0  0.00000000000E+00  0.00000000000E+00 -0.16657856350E+03  0.24043780470E+04  0.23986007119E+04 0.  0.
        3    1    3    3  502    0 -0.47104138068E+03 -0.68420810327E+03  0.78383799755E+03  0.11421132726E+04  0.10100000352E+00 0. -1.
       -3    1    3    3    0  502  0.47104138068E+03  0.68420810327E+03 -0.95041656106E+03  0.12622647744E+04  0.10100000352E+00 0.  1.
</event>
<event>
 5   0  0.2041718E-05  0.2471424E+04  0.7818609E-02  0.8413237E-01
       -1   -1    0    0    0  501  0.00000000000E+00  0.00000000000E+00  0.12140521019E+04  0.12140521020E+04  0.50400001928E-02 0. -1.
        1   -1    0    0  501    0  0.00000000000E+00  0.00000000000E+00 -0.12577580937E+04  0.12577580937E+04  0.50400001928E-02 0.  1.
    10030    2    1    2    0    0  0.00000000000E+00  0.00000000000E+00 -0.43705991771E+02  0.24718101957E+04  0.24714237657E+04 0.  0.
        4    1    3    3  502    0  0.79077131167E+03 -0.81256902104E+02  0.92437119363E+03  0.12191741746E+04  0.12699999809E+01 0. -1.
       -4    1    3    3    0  502 -0.79077131167E+03  0.81256902104E+02 -0.96807718541E+03  0.12526360211E+04  0.12699999809E+01 0.  1.
</event>
<event>
 5   0  0.4959347E-05  0.2474099E+04  0.7818609E-02  0.8412271E-01
        2   -1    0    0  501    0  0.00000000000E+00  0.00000000000E+00  0.14231077331E+04  0.14231077331E+04  0.25500000920E-02 0. -1.
       -2   -1    0    0    0  501  0.00000000000E+00  0.00000000000E+00 -0.10753166617E+04  0.10753166617E+04  0.25500000920E-02 0.  1.
    10030    2    1    2    0    0  0.00000000000E+00  0.00000000000E+00  0.34779107146E+03  0.24984243948E+04  0.24740989930E+04 0.  0.
        3    1    3    3  502    0  0.59912652535E+03 -0.96299249363E+03 -0.32490864975E+03  0.11797765793E+04  0.10100000352E+00 0.  1.
       -3    1    3    3    0  502 -0.59912652535E+03  0.96299249363E+03  0.67269972121E+03  0.13186478155E+04  0.10100000352E+00 0. -1.
</event>
<event>
 5   0  0.4959042E-05  0.2476644E+04  0.7818609E-02  0.8411354E-01
        2   -1    0    0  501    0  0.00000000000E+00  0.00000000000E+00  0.16221286841E+04  0.16221286841E+04  0.25500000920E-02 0.  1.
       -2   -1    0    0    0  501  0.00000000000E+00  0.00000000000E+00 -0.94532645477E+03  0.94532645477E+03  0.25500000920E-02 0. -1.
    10030    2    1    2    0    0  0.00000000000E+00  0.00000000000E+00  0.67680222936E+03  0.25674551389E+04  0.24766438243E+04 0.  0.
        4    1    3    3  502    0 -0.11173660057E+03 -0.10968986166E+04 -0.24597751252E+03  0.11296805711E+04  0.12699999809E+01 0. -1.
       -4    1    3    3    0  502  0.11173660057E+03  0.10968986166E+04  0.92277974188E+03  0.14377745679E+04  0.12699999809E+01 0.  1.
</event>
<event>
 5   0  0.4995256E-05  0.2534042E+04  0.7818609E-02  0.8390957E-01
       -2   -1    0    0    0  501  0.00000000000E+00  0.00000000000E+00  0.86575544713E+03  0.86575544713E+03  0.25500000920E-02 0.  1.
        2   -1    0    0  501    0  0.00000000000E+00  0.00000000000E+00 -0.18542671588E+04  0.18542671588E+04  0.25500000920E-02 0. -1.
    10030    2    1    2    0    0  0.00000000000E+00  0.00000000000E+00 -0.98851171163E+03  0.27200226059E+04  0.25340417464E+04 0.  0.
        2    1    3    3  502    0  0.10315970423E+04  0.57585723481E+03 -0.29069180477E+01  0.11814450740E+04  0.25500000920E-02 0.  1.
       -2    1    3    3    0  502 -0.10315970423E+04 -0.57585723481E+03 -0.98560479358E+03  0.15385775319E+04  0.25500000920E-02 0. -1.
</event>
<event>
 5   0  0.4995256E-05  0.2556750E+04  0.7818609E-02  0.8383042E-01
        2   -1    0    0  501    0  0.00000000000E+00  0.00000000000E+00  0.10516020011E+04  0.10516020011E+04  0.25500000920E-02 0. -1.
       -2   -1    0    0    0  501  0.00000000000E+00  0.00000000000E+00 -0.15540508001E+04  0.15540508001E+04  0.25500000920E-02 0.  1.
    10030    2    1    2    0    0  0.00000000000E+00  0.00000000000E+00 -0.50244879895E+03  0.26056528012E+04  0.25567502273E+04 0.  0.
        2    1    3    3  502    0 -0.39501254101E+03 -0.11233845263E+04 -0.72510767705E+03  0.13942054529E+04  0.25500000920E-02 0.  1.
       -2    1    3    3    0  502  0.39501254101E+03  0.11233845263E+04  0.22265887810E+03  0.12114473483E+04  0.25500000920E-02 0. -1.
</event>
<event>
 5   0  0.2041718E-05  0.1587714E+04  0.7818609E-02  0.8828132E-01
        1   -1    0    0  501    0  0.00000000000E+00  0.00000000000E+00  0.70611164078E+03  0.70611164080E+03  0.50400001928E-02 0.  1.
       -1   -1    0    0    0  501  0.00000000000E+00  0.00000000000E+00 -0.89250583604E+03  0.89250583606E+03  0.50400001928E-02 0. -1.
    10030    2    1    2    0    0  0.00000000000E+00  0.00000000000E+00 -0.18639419526E+03  0.15986174769E+04  0.15877137781E+04 0.  0.
        4    1    3    3  502    0 -0.41745837284E+03  0.32220784789E+03  0.50427318154E+03  0.72964542404E+03  0.12699999809E+01 0.  1.
       -4    1    3    3    0  502  0.41745837284E+03 -0.32220784789E+03 -0.69066737680E+03  0.86897205282E+03  0.12699999809E+01 0. -1.
</event>
<event>
 5   0  0.4995256E-05  0.2421449E+04  0.7818609E-02  0.8431517E-01
        2   -1    0    0  501    0  0.00000000000E+00  0.00000000000E+00  0.18082986184E+04  0.18082986184E+04  0.25500000920E-02 0. -1.
       -2   -1    0    0    0  501  0.00000000000E+00  0.00000000000E+00 -0.81062571848E+03  0.81062571848E+03  0.25500000920E-02 0.  1.
    10030    2    1    2    0    0  0.00000000000E+00  0.00000000000E+00  0.99767289994E+03  0.26189243369E+04  0.24214486299E+04 0.  0.
        2    1    3    3  502    0 -0.17100441401E+03 -0.60950501328E+03 -0.61737337024E+03  0.88424473372E+03  0.25500000920E-02 0.  1.
       -2    1    3    3    0  502  0.17100441401E+03  0.60950501328E+03  0.16150462702E+04  0.17346796032E+04  0.25500000920E-02 0. -1.
</event>
<event>
 5   0  0.5024070E-05  0.2624358E+04  0.7818609E-02  0.8359974E-01
        2   -1    0    0  501    0  0.00000000000E+00  0.00000000000E+00  0.15576694765E+04  0.15576694765E+04  0.25500000920E-02 0. -1.
       -2   -1    0    0    0  501  0.00000000000E+00  0.00000000000E+00 -0.11053780682E+04  0.11053780682E+04  0.25500000920E-02 0.  1.
    10030    2    1    2    0    0  0.00000000000E+00  0.00000000000E+00  0.45229140833E+03  0.26630475447E+04  0.26243579609E+04 0.  0.
        5    1    3    3  502    0 -0.83238780544E+03  0.88511183022E+03 -0.27663762281E+03  0.12461311628E+04  0.46999998093E+01 0. -1.
       -5    1    3    3    0  502  0.83238780544E+03 -0.88511183022E+03  0.72892903114E+03  0.14169163818E+04  0.46999998093E+01 0.  1.
</event>
<event>
 5   0  0.5024070E-05  0.2447190E+04  0.7818609E-02  0.8422045E-01
        2   -1    0    0  501    0  0.00000000000E+00  0.00000000000E+00  0.13187767544E+04  0.13187767544E+04  0.25500000920E-02 0. -1.
       -2   -1    0    0    0  501  0.00000000000E+00  0.00000000000E+00 -0.11352830734E+04  0.11352830734E+04  0.25500000920E-02 0.  1.
    10030    2    1    2    0    0  0.00000000000E+00  0.00000000000E+00  0.18349368105E+03  0.24540598278E+04  0.24471901658E+04 0.  0.
        5    1    3    3  502    0 -0.11243685422E+04 -0.48186499356E+03  0.11947126005E+03  0.12291029097E+04  0.46999998093E+01 0. -1.
       -5    1    3    3    0  502  0.11243685422E+04  0.48186499356E+03  0.64022421005E+02  0.12249569181E+04  0.46999998093E+01 0.  1.
</event>
<event>
 5   0  0.4959347E-05  0.2508909E+04  0.7818609E-02  0.8399818E-01
       -2   -1    0    0    0  501  0.00000000000E+00  0.00000000000E+00  0.88157509367E+03  0.88157509367E+03  0.25500000920E-02 0. -1.
        2   -1    0    0  501    0  0.00000000000E+00  0.00000000000E+00 -0.17850510858E+04  0.17850510858E+04  0.25500000920E-02 0.  1.
    10030    2    1    2    0    0  0.00000000000E+00  0.00000000000E+00 -0.90347599211E+03  0.26666261795E+04  0.25089093871E+04 0.  0.
        3    1    3    3  502    0  0.67479382322E+03  0.30783918945E+03  0.62356439338E+03  0.96899134842E+03  0.10100000352E+00 0. -1.
       -3    1    3    3    0  502 -0.67479382322E+03 -0.30783918945E+03 -0.15270403855E+04  0.16976348310E+04  0.10100000352E+00 0.  1.
</event>
<event>
 5   0  0.2066170E-05  0.2492125E+04  0.7818609E-02  0.8405796E-01
        1   -1    0    0  501    0  0.00000000000E+00  0.00000000000E+00  0.11736845155E+04  0.11736845155E+04  0.50400001928E-02 0. -1.
       -1   -1    0    0    0  501  0.00000000000E+00  0.00000000000E+00 -0.13229037158E+04  0.13229037158E+04  0.50400001928E-02 0.  1.
    10030    2    1    2    0    0  0.00000000000E+00  0.00000000000E+00 -0.14921920035E+03  0.24965882313E+04  0.24921248819E+04 0.  0.
        5    1    3    3  502    0  0.66363791441E+03  0.44683727994E+03  0.88238695262E+03  0.11910951517E+04  0.46999998093E+01 0. -1.
       -5    1    3    3    0  502 -0.66363791441E+03 -0.44683727994E+03 -0.10316061530E+04  0.13054930797E+04  0.46999998093E+01 0.  1.
</event>
<event>
 5   0  0.2081874E-05  0.2514730E+04  0.7818609E-02  0.8397757E-01
        1   -1    0    0  501    0  0.00000000000E+00  0.00000000000E+00  0.87040135800E+03  0.87040135802E+03  0.50400001928E-02 0.  1.
       -1   -1    0    0    0  501  0.00000000000E+00  0.00000000000E+00 -0.18163647607E+04  0.18163647607E+04  0.50400001928E-02 0. -1.
    10030    2    1    2    0    0  0.00000000000E+00  0.00000000000E+00 -0.94596340270E+03  0.26867661187E+04  0.25147296907E+04 0.  0.
        1    1    3    3  502    0  0.51580293762E+03  0.28194780294E+03 -0.16605147722E+04  0.17614927030E+04  0.50400001928E-02 0. -1.
       -1    1    3    3    0  502 -0.51580293762E+03 -0.28194780294E+03  0.71455136953E+03  0.92527341568E+03  0.50400001928E-02 0.  1.
</event>
<event>
 5   0  0.4959347E-05  0.2522139E+04  0.7818609E-02  0.8395141E-01
        2   -1    0    0  501    0  0.00000000000E+00  0.00000000000E+00  0.20962316289E+04  0.20962316289E+04  0.25500000920E-02 0.  1.
       -2   -1    0    0    0  501  0.00000000000E+00  0.00000000000E+00 -0.75864535320E+03  0.75864535321E+03  0.25500000920E-02 0. -1.
    10030    2    1    2    0    0  0.00000000000E+00  0.00000000000E+00  0.13375862757E+04  0.28548769821E+04  0.25221390799E+04 0.  0.
        3    1    3    3  502    0 -0.46134573562E+03  0.10074587030E+04  0.13502877990E+04  0.17467369797E+04  0.10100000352E+00 0.  1.
       -3    1    3    3    0  502  0.46134573562E+03 -0.10074587030E+04 -0.12701523252E+02  0.11081400024E+04  0.10100000352E+00 0. -1.
</event>
<event>
 5   0  0.2036578E-05  0.2437391E+04  0.7818609E-02  0.8425636E-01
        1   -1    0    0  501    0  0.00000000000E+00  0.00000000000E+00  0.12866893216E+04  0.12866893216E+04  0.50400001928E-02 0. -1.
       -1   -1    0    0    0  501  0.00000000000E+00  0.00000000000E+00 -0.11542951800E+04  0.11542951800E+04  0.50400001928E-02 0.  1.
    10030    2    1    2    0    0  0.00000000000E+00  0.00000000000E+00  0.13239414159E+03  0.24409845016E+04  0.24373914598E+04 0.  0.
        2    1    3    3  502    0 -0.20385509547E+03 -0.74285245235E+03  0.10119580955E+04  0.12717884467E+04  0.25500000920E-02 0. -1.
       -2    1    3    3    0  502  0.20385509547E+03  0.74285245235E+03 -0.87956395394E+03  0.11691960550E+04  0.25500000920E-02 0.  1.
</event>
<event>
 5   0  0.4959042E-05  0.2445997E+04  0.7818609E-02  0.8422481E-01
       -2   -1    0    0    0  501  0.00000000000E+00  0.00000000000E+00  0.98509256471E+03  0.98509256472E+03  0.25500000920E-02 0.  1.
        2   -1    0    0  501    0  0.00000000000E+00  0.00000000000E+00 -0.15183605760E+04  0.15183605760E+04  0.25500000920E-02 0. -1.
    10030    2    1    2    0    0  0.00000000000E+00  0.00000000000E+00 -0.53326801124E+03  0.25034531407E+04  0.24459973131E+04 0.  0.
        4    1    3    3  502    0  0.11374531347E+04 -0.32972586251E+03 -0.57910078327E+03  0.13182860495E+04  0.12699999809E+01 0.  1.
       -4    1    3    3    0  502 -0.11374531347E+04  0.32972586251E+03  0.45832772034E+02  0.11851670912E+04  0.12699999809E+01 0. -1.
</event>
<event>
 5   0  0.2041718E-05  0.2491173E+04  0.7818609E-02  0.8406137E-01
       -1   -1    0    0    0  501  0.00000000000E+00  0.00000000000E+00  0.67791742853E+03  0.67791742855E+03  0.50400001928E-02 0.  1.
        1   -1    0    0  501    0  0.00000000000E+00  0.00000000000E+00 -0.22886052804E+04  0.22886052804E+04  0.50400001928E-02 0. -1.
    10030    2    1    2    0    0  0.00000000000E+00  0.00000000000E+00 -0.16106878519E+04  0.29665227090E+04  0.24911727412E+04 0.  0.
        4    1    3    3  502    0 -0.10748665865E+04 -0.38605124383E+03 -0.21338845299E+03  0.11618562676E+04  0.12699999809E+01 0.  1.
       -4    1    3    3    0  502  0.10748665865E+04  0.38605124383E+03 -0.13972993989E+04  0.18046664414E+04  0.12699999809E+01 0. -1.
</event>
<event>
 5   0  0.4959042E-05  0.2427765E+04  0.7818609E-02  0.8429181E-01
        2   -1    0    0  501    0  0.00000000000E+00  0.00000000000E+00  0.16629963141E+04  0.16629963141E+04  0.25500000920E-02 0.  1.
       -2   -1    0    0    0  501  0.00000000000E+00  0.00000000000E+00 -0.88605753457E+03  0.88605753458E+03  0.25500000920E-02 0. -1.
    10030    2    1    2    0    0  0.00000000000E+00  0.00000000000E+00  0.77693877952E+03  0.25490538487E+04  0.24277647448E+04 0.  0.
        4    1    3    3  502    0  0.94670260852E+03 -0.52488694351E+02 -0.40736081004E+03  0.10319618862E+04  0.12699999809E+01 0. -1.
       -4    1    3    3    0  502 -0.94670260852E+03  0.52488694351E+02  0.11842995896E+04  0.15170919625E+04  0.12699999809E+01 0.  1.
</event>
<event>
 5   0  0.5219468E-05  0.2586577E+04  0.7818609E-02  0.8372775E-01
        2   -1    0    0  501    0  0.00000000000E+00  0.00000000000E+00  0.22209766323E+04  0.22209766323E+04  0.25500000920E-02 0.  1.
       -2   -1    0    0    0  501  0.00000000000E+00  0.00000000000E+00 -0.75308994744E+03  0.75308994744E+03  0.25500000920E-02 0. -1.
    10030    2    1    2    0    0  0.00000000000E+00  0.00000000000E+00  0.14678866848E+04  0.29740665797E+04  0.25865770240E+04 0.  0.
        1    1    3    3  502    0 -0.83444021709E+03 -0.23882401284E+03 -0.36847465057E+03  0.94292149893E+03  0.50400001928E-02 0. -1.
       -1    1    3    3    0  502  0.83444021709E+03  0.23882401284E+03  0.18363613354E+04  0.20311450808E+04  0.50400001928E-02 0.  1.
</event>
<event>
 5   0  0.4995256E-05  0.2493715E+04  0.7818609E-02  0.8405228E-01
       -2   -1    0    0    0  501  0.00000000000E+00  0.00000000000E+00  0.10160838031E+04  0.10160838031E+04  0.25500000920E-02 0.  1.
        2   -1    0    0  501    0  0.00000000000E+00  0.00000000000E+00 -0.15300445175E+04  0.15300445175E+04  0.25500000920E-02 0. -1.
    10030    2    1    2    0    0  0.00000000000E+00  0.00000000000E+00 -0.51396071445E+03  0.25461283206E+04  0.24937148612E+04 0.  0.
        2    1    3    3  502    0  0.36892940217E+03 -0.51173922044E+03 -0.13550699212E+04  0.14947241969E+04  0.25500000920E-02 0. -1.
       -2    1    3    3    0  502 -0.36892940217E+03  0.51173922044E+03  0.84110920676E+03  0.10514041236E+04  0.25500000920E-02 0.  1.
</event>
<event>
 5   0  0.2063930E-05  0.2450807E+04  0.7818609E-02  0.8420723E-01
        1   -1    0    0  501    0  0.00000000000E+00  0.00000000000E+00  0.93721090092E+03  0.93721090093E+03  0.50400001928E-02 0. -1.
       -1   -1    0    0    0  501  0.00000000000E+00  0.00000000000E+00 -0.16022153199E+04  0.16022153199E+04  0.50400001928E-02 0.  1.
    10030    2    1    2    0    0  0.00000000000E+00  0.00000000000E+00 -0.66500441902E+03  0.25394262209E+04  0.24508069393E+04 0.  0.
        3    1    3    3  502    0  0.14983217059E+03  0.46068275516E+03  0.83378021012E+03  0.96429649447E+03  0.10100000352E+00 0. -1.
       -3    1    3    3    0  502 -0.14983217059E+03 -0.46068275516E+03 -0.14987846291E+04  0.15751297264E+04  0.10100000352E+00 0.  1.
</event>
<event>
 5   0  0.2081874E-05  0.2492935E+04  0.7818609E-02  0.8405507E-01
        1   -1    0    0  501    0  0.00000000000E+00  0.00000000000E+00  0.11745112559E+04  0.11745112559E+04  0.50400001928E-02 0. -1.
       -1   -1    0    0    0  501  0.00000000000E+00  0.00000000000E+00 -0.13228316023E+04  0.13228316024E+04  0.50400001928E-02 0.  1.
    10030    2    1    2    0    0  0.00000000000E+00  0.00000000000E+00 -0.14832034647E+03  0.24973428582E+04  0.24929345010E+04 0.  0.
        1    1    3    3  502    0  0.84074096792E+03  0.71968894658E+03  0.50033720232E+03  0.12145513044E+04  0.50400001928E-02 0. -1.
       -1    1    3    3    0  502 -0.84074096792E+03 -0.71968894658E+03 -0.64865754879E+03  0.12827915538E+04  0.50400001928E-02 0.  1.
</event>
<event>
 5   0  0.2036578E-05  0.2500479E+04  0.7818609E-02  0.8402815E-01
       -1   -1    0    0    0  501  0.00000000000E+00  0.00000000000E+00  0.68114649111E+03  0.68114649113E+03  0.50400001928E-02 0.  1.
        1   -1    0    0  501    0  0.00000000000E+00  0.00000000000E+00 -0.22948063843E+04  0.22948063843E+04  0.50400001928E-02 0. -1.
    10030    2    1    2    0    0  0.00000000000E+00  0.00000000000E+00 -0.16136598932E+04  0.29759528754E+04  0.25004794072E+04 0.  0.
        2    1    3    3  502    0 -0.89989002212E+03 -0.74789280317E+03 -0.28268462716E+03  0.12037675421E+04  0.25500000920E-02 0.  1.
       -2    1    3    3    0  502  0.89989002212E+03  0.74789280317E+03 -0.13309752660E+04  0.17721853334E+04  0.25500000920E-02 0. -1.
</event>
<event>
 5   0  0.4995256E-05  0.1736950E+04  0.7818609E-02  0.8740566E-01
       -2   -1    0    0    0  501  0.00000000000E+00  0.00000000000E+00  0.38747673839E+03  0.38747673840E+03  0.25500000920E-02 0.  1.
        2   -1    0    0  501    0  0.00000000000E+00  0.00000000000E+00 -0.19465660147E+04  0.19465660147E+04  0.25500000920E-02 0. -1.
    10030    2    1    2    0    0  0.00000000000E+00  0.00000000000E+00 -0.15590892763E+04  0.23340427531E+04  0.17369502589E+04 0.  0.
        2    1    3    3  502    0 -0.64474144810E+03 -0.34071307413E+03 -0.14133548301E+04  0.15903926589E+04  0.25500000920E-02 0. -1.
       -2    1    3    3    0  502  0.64474144810E+03  0.34071307413E+03 -0.14573444625E+03  0.74365009421E+03  0.25500000920E-02 0.  1.
</event>
<event>
 5   0  0.5024070E-05  0.2476725E+04  0.7818609E-02  0.8411325E-01
        2   -1    0    0  501    0  0.00000000000E+00  0.00000000000E+00  0.16788424647E+04  0.16788424647E+04  0.25500000920E-02 0.  1.
       -2   -1    0    0    0  501  0.00000000000E+00  0.00000000000E+00 -0.91345152846E+03  0.91345152846E+03  0.25500000920E-02 0. -1.
    10030    2    1    2    0    0  0.00000000000E+00  0.00000000000E+00  0.76539093628E+03  0.25922939932E+04  0.24767246237E+04 0.  0.
        5    1    3    3  502    0 -0.10178546933E+04 -0.95321210394E+02  0.11141654367E+04  0.15121180576E+04  0.46999998093E+01 0.  1.
       -5    1    3    3    0  502  0.10178546933E+04  0.95321210394E+02 -0.34877450037E+03  0.10801759356E+04  0.46999998093E+01 0. -1.
</event>
<event>
 5   0  0.2081874E-05  0.2585521E+04  0.7818609E-02  0.8373136E-01
        1   -1    0    0  501    0  0.00000000000E+00  0.00000000000E+00  0.23513505925E+04  0.23513505925E+04  0.50400001928E-02 0. -1.
       -1   -1    0    0    0  501  0.00000000000E+00  0.00000000000E+00 -0.71075309269E+03  0.71075309271E+03  0.50400001928E-02 0.  1.
    10030    2    1    2    0    0  0.00000000000E+00  0.00000000000E+00  0.16405974998E+04  0.30621036852E+04  0.25855209964E+04 0.  0.
        1    1    3    3  502    0  0.36238428390E+03  0.11548364987E+04  0.13581712339E+04  0.18192302791E+04  0.50400001928E-02 0. -1.
       -1    1    3    3    0  502 -0.36238428390E+03 -0.11548364987E+04  0.28242626592E+03  0.12428734061E+04  0.50400001928E-02 0.  1.
</event>
<event>
 5   0  0.5219468E-05  0.2624129E+04  0.7818609E-02  0.8360051E-01
       -2   -1    0    0    0  501  0.00000000000E+00  0.00000000000E+00  0.81103686170E+03  0.81103686170E+03  0.25500000920E-02 0.  1.
        2   -1    0    0  501    0  0.00000000000E+00  0.00000000000E+00 -0.21226080124E+04  0.21226080124E+04  0.25500000920E-02 0. -1.
    10030    2    1    2    0    0  0.00000000000E+00  0.00000000000E+00 -0.13115711507E+04  0.29336448741E+04  0.26241290677E+04 0.  0.
        1    1    3    3  502    0  0.12836863158E+04  0.24001414413E+03 -0.51412762615E+03  0.14034901363E+04  0.50400001928E-02 0.  1.
       -1    1    3    3    0  502 -0.12836863158E+04 -0.24001414413E+03 -0.79744352452E+03  0.15301547378E+04  0.50400001928E-02 0. -1.
</event>
<event>
 5   0  0.2081874E-05  0.2572087E+04  0.7818609E-02  0.8377745E-01
       -1   -1    0    0    0  501  0.00000000000E+00  0.00000000000E+00  0.15861372004E+04  0.15861372004E+04  0.50400001928E-02 0.  1.
        1   -1    0    0  501    0  0.00000000000E+00  0.00000000000E+00 -0.10427272476E+04  0.10427272476E+04  0.50400001928E-02 0. -1.
    10030    2    1    2    0    0  0.00000000000E+00  0.00000000000E+00  0.54340995273E+03  0.26288644480E+04  0.25720874614E+04 0.  0.
        1    1    3    3  502    0  0.23979251510E+03 -0.25604832844E+03 -0.99288109614E+03  0.10530308960E+04  0.50400001928E-02 0. -1.
       -1    1    3    3    0  502 -0.23979251510E+03  0.25604832844E+03  0.15362910489E+04  0.15758335520E+04  0.50400001928E-02 0.  1.
</event>
<event>
 5   0  0.5024070E-05  0.2513953E+04  0.7818609E-02  0.8398032E-01
       -2   -1    0    0    0  501  0.00000000000E+00  0.00000000000E+00  0.12998030892E+04  0.12998030892E+04  0.25500000920E-02 0.  1.
        2   -1    0    0  501    0  0.00000000000E+00  0.00000000000E+00 -0.12155607823E+04  0.12155607823E+04  0.25500000920E-02 0. -1.
    10030    2    1    2    0    0  0.00000000000E+00  0.00000000000E+00  0.84242306871E+02  0.25153638715E+04  0.25139527919E+04 0.  0.
        5    1    3    3  502    0 -0.62599851918E+03  0.92242718275E+03  0.62315487627E+03  0.12771413952E+04  0.46999998093E+01 0. -1.
       -5    1    3    3    0  502  0.62599851918E+03 -0.92242718275E+03 -0.53891256940E+03  0.12382224764E+04  0.46999998093E+01 0.  1.
</event>
<event>
 5   0  0.5219468E-05  0.2504679E+04  0.7818609E-02  0.8401320E-01
        2   -1    0    0  501    0  0.00000000000E+00  0.00000000000E+00  0.13967843717E+04  0.13967843717E+04  0.25500000920E-02 0.  1.
       -2   -1    0    0    0  501  0.00000000000E+00  0.00000000000E+00 -0.11228322693E+04  0.11228322693E+04  0.25500000920E-02 0. -1.
    10030    2    1    2    0    0  0.00000000000E+00  0.00000000000E+00  0.27395210242E+03  0.25196166411E+04  0.25046792736E+04 0.  0.
        1    1    3    3  502    0 -0.42594039889E+03  0.65488065217E+03  0.11216191763E+04  0.13668662951E+04  0.50400001928E-02 0.  1.
       -1    1    3    3    0  502  0.42594039889E+03 -0.65488065217E+03 -0.84766707387E+03  0.11527503460E+04  0.50400001928E-02 0. -1.
</event>
<event>
 5   0  0.5024070E-05  0.2525801E+04  0.7818609E-02  0.8393851E-01
       -2   -1    0    0    0  501  0.00000000000E+00  0.00000000000E+00  0.72313961406E+03  0.72313961407E+03  0.25500000920E-02 0. -1.
        2   -1    0    0  501    0  0.00000000000E+00  0.00000000000E+00 -0.22055467553E+04  0.22055467553E+04  0.25500000920E-02 0.  1.
    10030    2    1    2    0    0  0.00000000000E+00  0.00000000000E+00 -0.14824071412E+04  0.29286863694E+04  0.25258014407E+04 0.  0.
        5    1    3    3  502    0 -0.49454507010E+03  0.27602334467E+03  0.56761950559E+03  0.80185890672E+03  0.46999998093E+01 0. -1.
       -5    1    3    3    0  502  0.49454507010E+03 -0.27602334467E+03 -0.20500266468E+04  0.21268274627E+04  0.46999998093E+01 0.  1.
</event>
<event>
 5   0  0.5024070E-05  0.2469306E+04  0.7818609E-02  0.8414003E-01
       -2   -1    0    0    0  501  0.00000000000E+00  0.00000000000E+00  0.45231830348E+03  0.45231830349E+03  0.25500000920E-02 0. -1.
        2   -1    0    0  501    0  0.00000000000E+00  0.00000000000E+00 -0.33701212785E+04  0.33701212785E+04  0.25500000920E-02 0.  1.
    10030    2    1    2    0    0  0.00000000000E+00  0.00000000000E+00 -0.29178029750E+04  0.38224395820E+04  0.24693056022E+04 0.  0.
        5    1    3    3  502    0  0.11641059958E+04  0.40982783261E+03 -0.14043073729E+04  0.18695461774E+04  0.46999998093E+01 0.  1.
       -5    1    3    3    0  502 -0.11641059958E+04 -0.40982783261E+03 -0.15134956021E+04  0.19528934046E+04  0.46999998093E+01 0. -1.
</event>
<event>
 5   0  0.2036578E-05  0.2392077E+04  0.7818609E-02  0.8442476E-01
        1   -1    0    0  501    0  0.00000000000E+00  0.00000000000E+00  0.10830991548E+04  0.10830991548E+04  0.50400001928E-02 0.  1.
       -1   -1    0    0    0  501  0.00000000000E+00  0.00000000000E+00 -0.13207545016E+04  0.13207545016E+04  0.50400001928E-02 0. -1.
    10030    2    1    2    0    0  0.00000000000E+00  0.00000000000E+00 -0.23765534679E+03  0.24038536564E+04  0.23920769924E+04 0.  0.
        2    1    3    3  502    0  0.11305509723E+04  0.61242266087E+02  0.26857245819E+03  0.11636267793E+04  0.25500000920E-02 0.  1.
       -2    1    3    3    0  502 -0.11305509723E+04 -0.61242266087E+02 -0.50622780499E+03  0.12402268771E+04  0.25500000920E-02 0. -1.
</event>
<event>
 5   0  0.4959347E-05  0.2171799E+04  0.7818609E-02  0.8530259E-01
       -2   -1    0    0    0  501  0.00000000000E+00  0.00000000000E+00  0.16534567790E+04  0.16534567790E+04  0.25500000920E-02 0.  1.
        2   -1    0    0  501    0  0.00000000000E+00  0.00000000000E+00 -0.71315894138E+03  0.71315894139E+03  0.25500000920E-02 0. -1.
    10030    2    1    2    0    0  0.00000000000E+00  0.00000000000E+00  0.94029783766E+03  0.23666157204E+04  0.21717987809E+04 0.  0.
        3    1    3    3  502    0 -0.86496006285E+03 -0.43935338481E+03  0.10017522193E+04  0.13945231537E+04  0.10100000352E+00 0. -1.
       -3    1    3    3    0  502  0.86496006285E+03  0.43935338481E+03 -0.61454381664E+02  0.97209256674E+03  0.10100000352E+00 0.  1.
</event>
<event>
 5   0  0.2036578E-05  0.2538985E+04  0.7818609E-02  0.8389227E-01
        1   -1    0    0  501    0  0.00000000000E+00  0.00000000000E+00  0.13102030570E+04  0.13102030570E+04  0.50400001928E-02 0.  1.
       -1   -1    0    0    0  501  0.00000000000E+00  0.00000000000E+00 -0.12300466336E+04  0.12300466336E+04  0.50400001928E-02 0. -1.
    10030    2    1    2    0    0  0.00000000000E+00  0.00000000000E+00  0.80156423356E+02  0.25402496906E+04  0.25389847259E+04 0.  0.
        2    1    3    3  502    0 -0.54812537988E+03 -0.70390707958E+03 -0.86352415019E+03  0.12416120838E+04  0.25500000920E-02 0. -1.
       -2    1    3    3    0  502  0.54812537988E+03  0.70390707958E+03  0.94368057354E+03  0.12986376067E+04  0.25500000920E-02 0.  1.
</event>
<event>
 5   0  0.4959042E-05  0.2500082E+04  0.7818609E-02  0.8402956E-01
       -2   -1    0    0    0  501  0.00000000000E+00  0.00000000000E+00  0.13841836357E+04  0.13841836357E+04  0.25500000920E-02 0.  1.
        2   -1    0    0  501    0  0.00000000000E+00  0.00000000000E+00 -0.11288982799E+04  0.11288982799E+04  0.25500000920E-02 0. -1.
    10030    2    1    2    0    0  0.00000000000E+00  0.00000000000E+00  0.25528535575E+03  0.25130819156E+04  0.25000820190E+04 0.  0.
        4    1    3    3  502    0  0.22944669968E+03  0.52649308277E+03  0.12437133175E+04  0.13699142977E+04  0.12699999809E+01 0.  1.
       -4    1    3    3    0  502 -0.22944669968E+03 -0.52649308277E+03 -0.98842796171E+03  0.11431676179E+04  0.12699999809E+01 0. -1.
</event>
<event>
 5   0  0.2063930E-05  0.2487728E+04  0.7818609E-02  0.8407370E-01
       -1   -1    0    0    0  501  0.00000000000E+00  0.00000000000E+00  0.10343577927E+04  0.10343577927E+04  0.50400001928E-02 0. -1.
        1   -1    0    0  501    0  0.00000000000E+00  0.00000000000E+00 -0.14958053298E+04  0.14958053299E+04  0.50400001928E-02 0.  1.
    10030    2    1    2    0    0  0.00000000000E+00  0.00000000000E+00 -0.46144753716E+03  0.25301631226E+04  0.24877282000E+04 0.  0.
        3    1    3    3  502    0 -0.46479158006E+03 -0.49430929106E+03  0.82956803081E+03  0.10717070570E+04  0.10100000352E+00 0. -1.
       -3    1    3    3    0  502  0.46479158006E+03  0.49430929106E+03 -0.12910155680E+04  0.14584560655E+04  0.10100000352E+00 0.  1.
</event>
<event>
 5   0  0.4959347E-05  0.2215002E+04  0.7818609E-02  0.8512210E-01
        2   -1    0    0  501    0  0.00000000000E+00  0.00000000000E+00  0.23164808234E+04  0.23164808234E+04  0.25500000920E-02 0.  1.
       -2   -1    0    0    0  501  0.00000000000E+00  0.00000000000E+00 -0.52949200435E+03  0.52949200435E+03  0.25500000920E-02 0. -1.
    10030    2    1    2    0    0  0.00000000000E+00  0.00000000000E+00  0.17869888190E+04  0.28459728277E+04  0.22150016471E+04 0.  0.
        3    1    3    3  502    0  0.63081800461E+03 -0.90932518580E+03  0.83967698284E+03  0.13891944047E+04  0.10100000352E+00 0. -1.
       -3    1    3    3    0  502 -0.63081800461E+03  0.90932518580E+03  0.94731183619E+03  0.14567784230E+04  0.10100000352E+00 0.  1.
</event>
<event>
 5   0  0.2041718E-05  0.2499075E+04  0.7818609E-02  0.8403315E-01
        1   -1    0    0  501    0  0.00000000000E+00  0.00000000000E+00  0.23788791125E+04  0.23788791125E+04  0.50400001928E-02 0. -1.
       -1   -1    0    0    0  501  0.00000000000E+00  0.00000000000E+00 -0.65633599963E+03  0.65633599965E+03  0.50400001928E-02 0.  1.
    10030    2    1    2    0    0  0.00000000000E+00  0.00000000000E+00  0.17225431128E+04  0.30352151121E+04  0.24990750291E+04 0.  0.
        4    1    3    3  502    0 -0.47886991714E+02 -0.85899616350E+03 -0.23932459889E+03  0.89299801199E+03  0.12699999809E+01 0.  1.
       -4    1    3    3    0  502  0.47886991714E+02  0.85899616350E+03  0.19618677117E+04  0.21422171001E+04  0.12699999809E+01 0. -1.
</event>
<event>
 5   0  0.5219468E-05  0.2482041E+04  0.7818609E-02  0.8409411E-01
        2   -1    0    0  501    0  0.00000000000E+00  0.00000000000E+00  0.13130028992E+04  0.13130028992E+04  0.25500000920E-02 0. -1.
       -2   -1    0    0    0  501  0.00000000000E+00  0.00000000000E+00 -0.11729848192E+04  0.11729848192E+04  0.25500000920E-02 0.  1.
    10030    2    1    2    0    0  0.00000000000E+00  0.00000000000E+00  0.14001808004E+03  0.24859877184E+04  0.24820414729E+04 0.  0.
        1    1    3    3  502    0  0.62556769741E+03 -0.46008470035E+03  0.10395975355E+04  0.12976039116E+04  0.50400001928E-02 0. -1.
       -1    1    3    3    0  502 -0.62556769741E+03  0.46008470035E+03 -0.89957945544E+03  0.11883838068E+04  0.50400001928E-02 0.  1.
</event>
<event>
 5   0  0.2066170E-05  0.2530550E+04  0.7818609E-02  0.8392182E-01
        1   -1    0    0  501    0  0.00000000000E+00  0.00000000000E+00  0.12833065601E+04  0.12833065601E+04  0.50400001928E-02 0.  1.
       -1   -1    0    0    0  501  0.00000000000E+00  0.00000000000E+00 -0.12474967172E+04  0.12474967172E+04  0.50400001928E-02 0. -1.
    10030    2    1    2    0    0  0.00000000000E+00  0.00000000000E+00  0.35809842976E+02  0.25308032773E+04  0.25305499172E+04 0.  0.
        5    1    3    3  502    0 -0.84650970217E+03 -0.51224747674E+03 -0.77079465268E+03  0.12542418586E+04  0.46999998093E+01 0. -1.
       -5    1    3    3    0  502  0.84650970217E+03  0.51224747674E+03  0.80660449565E+03  0.12765614187E+04  0.46999998093E+01 0.  1.
</event>
<event>
 5   0  0.2041718E-05  0.2445952E+04  0.7818609E-02  0.8422498E-01
        1   -1    0    0  501    0  0.00000000000E+00  0.00000000000E+00  0.18692732285E+04  0.18692732285E+04  0.50400001928E-02 0.  1.
       -1   -1    0    0    0  501  0.00000000000E+00  0.00000000000E+00 -0.80013455516E+03  0.80013455517E+03  0.50400001928E-02 0. -1.
    10030    2    1    2    0    0  0.00000000000E+00  0.00000000000E+00  0.10691386734E+04  0.26694077837E+04  0.24459518419E+04 0.  0.
        4    1    3    3  502    0 -0.90321902276E+03  0.82087821744E+03  0.44987240824E+03  0.13007814757E+04  0.12699999809E+01 0. -1.
       -4    1    3    3    0  502  0.90321902276E+03 -0.82087821744E+03  0.61926626514E+03  0.13686263080E+04  0.12699999809E+01 0.  1.
</event>
<event>
 5   0  0.4959347E-05  0.2584015E+04  0.7818609E-02  0.8373651E-01
       -2   -1    0    0    0  501  0.00000000000E+00  0.00000000000E+00  0.68499631044E+03  0.68499631044E+03  0.25500000920E-02 0. -1.
        2   -1    0    0  501    0  0.00000000000E+00  0.00000000000E+00 -0.24369224546E+04  0.24369224546E+04  0.25500000920E-02 0.  1.
    10030    2    1    2    0    0  0.00000000000E+00  0.00000000000E+00 -0.17519261442E+04  0.31219187651E+04  0.25840146209E+04 0.  0.
        3    1    3    3  502    0 -0.11055125003E+04  0.31174227275E+03 -0.15906642690E+04  0.19620280222E+04  0.10100000352E+00 0.  1.
       -3    1    3    3    0  502  0.11055125003E+04 -0.31174227275E+03 -0.16126187518E+03  0.11598907429E+04  0.10100000352E+00 0. -1.
</event>
<event>
 5   0  0.2066170E-05  0.1644279E+04  0.7818609E-02  0.8793798E-01
        1   -1    0    0  501    0  0.00000000000E+00  0.00000000000E+00  0.14977546046E+04  0.14977546046E+04  0.50400001928E-02 0.  1.
       -1   -1    0    0    0  501  0.00000000000E+00  0.00000000000E+00 -0.45128462543E+03  0.45128462546E+03  0.50400001928E-02 0. -1.
    10030    2    1    2    0    0  0.00000000000E+00  0.00000000000E+00  0.10464699791E+04  0.19490392301E+04  0.16442793263E+04 0.  0.
        5    1    3    3  502    0  0.44809969012E+02  0.48130066276E+02 -0.44814620148E+03  0.45296969490E+03  0.46999998093E+01 0. -1.
       -5    1    3    3    0  502 -0.44809969012E+02 -0.48130066276E+02  0.14946161806E+04  0.14960695351E+04  0.46999998093E+01 0.  1.
</event>
<event>
 5   0  0.2063930E-05  0.2555265E+04  0.7818609E-02  0.8383557E-01
       -1   -1    0    0    0  501  0.00000000000E+00  0.00000000000E+00  0.11592944714E+04  0.11592944714E+04  0.50400001928E-02 0.  1.
        1   -1    0    0  501    0  0.00000000000E+00  0.00000000000E+00 -0.14080503639E+04  0.14080503639E+04  0.50400001928E-02 0. -1.
    10030    2    1    2    0    0  0.00000000000E+00  0.00000000000E+00 -0.24875589243E+03  0.25673448353E+04  0.25552651544E+04 0.  0.
        3    1    3    3  502    0 -0.14569258775E+03 -0.11381032535E+04 -0.68903083593E+03  0.13383829231E+04  0.10100000352E+00 0. -1.
       -3    1    3    3    0  502  0.14569258775E+03  0.11381032535E+04  0.44027494350E+03  0.12289619122E+04  0.10100000352E+00 0.  1.
</event>
<event>
 5   0  0.2036578E-05  0.2445173E+04  0.7818609E-02  0.8422782E-01
       -1   -1    0    0    0  501  0.00000000000E+00  0.00000000000E+00  0.11216452244E+04  0.11216452244E+04  0.50400001928E-02 0.  1.
        1   -1    0    0  501    0  0.00000000000E+00  0.00000000000E+00 -0.13326122660E+04  0.13326122660E+04  0.50400001928E-02 0. -1.
    10030    2    1    2    0    0  0.00000000000E+00  0.00000000000E+00 -0.21096704161E+03  0.24542574905E+04  0.24451733552E+04 0.  0.
        2    1    3    3  502    0  0.11718814897E+04 -0.26795162032E+03  0.11808574430E+03  0.12079108161E+04  0.25500000920E-02 0.  1.
       -2    1    3    3    0  502 -0.11718814897E+04  0.26795162032E+03 -0.32905278590E+03  0.12463466743E+04  0.25500000920E-02 0. -1.
</event>
<event>
 5   0  0.4995256E-05  0.2305918E+04  0.7818609E-02  0.8475591E-01
        2   -1    0    0  501    0  0.00000000000E+00  0.00000000000E+00  0.14958010428E+04  0.14958010428E+04  0.25500000920E-02 0.  1.
       -2   -1    0    0    0  501  0.00000000000E+00  0.00000000000E+00 -0.88869748159E+03  0.88869748159E+03  0.25500000920E-02 0. -1.
    10030    2    1    2    0    0  0.00000000000E+00  0.00000000000E+00  0.60710356119E+03  0.23844985244E+04  0.23059181422E+04 0.  0.
        2    1    3    3  502    0  0.56708673596E+03 -0.85134124330E+03 -0.24650110255E+03  0.10522034367E+04  0.25500000920E-02 0. -1.
       -2    1    3    3    0  502 -0.56708673596E+03  0.85134124330E+03  0.85360466375E+03  0.13322950877E+04  0.25500000920E-02 0.  1.
</event>
<event>
 5   0  0.2041718E-05  0.2504422E+04  0.7818609E-02  0.8401412E-01
        1   -1    0    0  501    0  0.00000000000E+00  0.00000000000E+00  0.71292720759E+03  0.71292720760E+03  0.50400001928E-02 0.  1.
       -1   -1    0    0    0  501  0.00000000000E+00  0.00000000000E+00 -0.21994285640E+04  0.21994285640E+04  0.50400001928E-02 0. -1.
    10030    2    1    2    0    0  0.00000000000E+00  0.00000000000E+00 -0.14865013564E+04  0.29123557716E+04  0.25044220606E+04 0.  0.
        4    1    3    3  502    0  0.10514043881E+04 -0.59917646736E+03 -0.11174888447E+04  0.16471935397E+04  0.12699999809E+01 0. -1.
       -4    1    3    3    0  502 -0.10514043881E+04  0.59917646736E+03 -0.36901251164E+03  0.12651622319E+04  0.12699999809E+01 0.  1.
</event>
<event>
 5   0  0.2036578E-05  0.2579188E+04  0.7818609E-02  0.8375305E-01
       -1   -1    0    0    0  501  0.00000000000E+00  0.00000000000E+00  0.14700152772E+04  0.14700152772E+04  0.50400001928E-02 0. -1.
        1   -1    0    0  501    0  0.00000000000E+00  0.00000000000E+00 -0.11313167132E+04  0.11313167132E+04  0.50400001928E-02 0.  1.
    10030    2    1    2    0    0  0.00000000000E+00  0.00000000000E+00  0.33869856398E+03  0.26013319904E+04  0.25791881294E+04 0.  0.
        2    1    3    3  502    0 -0.14778205928E+03  0.28180562059E+03 -0.10910998332E+04  0.11365530304E+04  0.25500000920E-02 0.  1.
       -2    1    3    3    0  502  0.14778205928E+03 -0.28180562059E+03  0.14297983972E+04  0.14647789600E+04  0.25500000920E-02 0. -1.
</event>
<event>
 5   0  0.2063930E-05  0.2194425E+04  0.7818609E-02  0.8520752E-01
        1   -1    0    0  501    0  0.00000000000E+00  0.00000000000E+00  0.17481544626E+04  0.17481544627E+04  0.50400001928E-02 0. -1.
       -1   -1    0    0    0  501  0.00000000000E+00  0.00000000000E+00 -0.68865479866E+03  0.68865479868E+03  0.50400001928E-02 0.  1.
    10030    2    1    2    0    0  0.00000000000E+00  0.00000000000E+00  0.10594996640E+04  0.24368092613E+04  0.21944247169E+04 0.  0.
        3    1    3    3  502    0 -0.28807397621E+03 -0.10518102662E+04  0.39564893071E+03  0.11600989347E+04  0.10100000352E+00 0.  1.
       -3    1    3    3    0  502  0.28807397621E+03  0.10518102662E+04  0.66385073327E+03  0.12767103266E+04  0.10100000352E+00 0. -1.
</event>
<event>
 5   0  0.5219468E-05  0.2499584E+04  0.7818609E-02  0.8403134E-01
        2   -1    0    0  501    0  0.00000000000E+00  0.00000000000E+00  0.14751513863E+04  0.14751513863E+04  0.25500000920E-02 0. -1.
       -2   -1    0    0    0  501  0.00000000000E+00  0.00000000000E+00 -0.10588609511E+04  0.10588609511E+04  0.25500000920E-02 0.  1.
    10030    2    1    2    0    0  0.00000000000E+00  0.00000000000E+00  0.41629043521E+03  0.25340123375E+04  0.24995841254E+04 0.  0.
        1    1    3    3  502    0 -0.26151876145E+02 -0.11188038247E+04 -0.35591231556E+03  0.11743421542E+04  0.50400001928E-02 0. -1.
       -1    1    3    3    0  502  0.26151876145E+02  0.11188038247E+04  0.77220275077E+03  0.13596701832E+04  0.50400001928E-02 0.  1.
</event>
<event>
 5   0  0.4959042E-05  0.1528287E+04  0.7818609E-02  0.8865857E-01
        2   -1    0    0  501    0  0.00000000000E+00  0.00000000000E+00  0.13998924461E+04  0.13998924461E+04  0.25500000920E-02 0. -1.
       -2   -1    0    0    0  501  0.00000000000E+00  0.00000000000E+00 -0.41711444203E+03  0.41711444204E+03  0.25500000920E-02 0.  1.
    10030    2    1    2    0    0  0.00000000000E+00  0.00000000000E+00  0.98277800406E+03  0.18170068881E+04  0.15282870889E+04 0.  0.
        4    1    3    3  502    0  0.33067281832E+02 -0.73441468808E+03  0.73923010197E+03  0.10425550996E+04  0.12699999809E+01 0.  1.
       -4    1    3    3    0  502 -0.33067281832E+02  0.73441468808E+03  0.24354790209E+03  0.77445178850E+03  0.12699999809E+01 0. -1.
</event>
<event>
 5   0  0.2081874E-05  0.2465993E+04  0.7818609E-02  0.8415202E-01
       -1   -1    0    0    0  501  0.00000000000E+00  0.00000000000E+00  0.88089382286E+03  0.88089382287E+03  0.50400001928E-02 0. -1.
        1   -1    0    0  501    0  0.00000000000E+00  0.00000000000E+00 -0.17258383421E+04  0.17258383421E+04  0.50400001928E-02 0.  1.
    10030    2    1    2    0    0  0.00000000000E+00  0.00000000000E+00 -0.84494451923E+03  0.26067321650E+04  0.24659929723E+04 0.  0.
        1    1    3    3  502    0  0.10063715058E+04  0.49496468324E+03 -0.96406740614E+03  0.14789183916E+04  0.50400001928E-02 0. -1.
       -1    1    3    3    0  502 -0.10063715058E+04 -0.49496468324E+03  0.11912288691E+03  0.11278137734E+04  0.50400001928E-02 0.  1.
</event>
<event>
 5   0  0.5219468E-05  0.2552324E+04  0.7818609E-02  0.8384579E-01
        2   -1    0    0  501    0  0.00000000000E+00  0.00000000000E+00  0.18319761803E+04  0.18319761803E+04  0.25500000920E-02 0.  1.
       -2   -1    0    0    0  501  0.00000000000E+00  0.00000000000E+00 -0.88897931997E+03  0.88897931997E+03  0.25500000920E-02 0. -1.
    10030    2    1    2    0    0  0.00000000000E+00  0.00000000000E+00  0.94299686032E+03  0.27209555003E+04  0.25523235994E+04 0.  0.
        1    1    3    3  502    0  0.47595879521E+03  0.11593432268E+04  0.72818772373E+03  0.14494381164E+04  0.50400001928E-02 0. -1.
       -1    1    3    3    0  502 -0.47595879521E+03 -0.11593432268E+04  0.21480913659E+03  0.12715173839E+04  0.50400001928E-02 0.  1.
</event>
<event>
 5   0  0.4959042E-05  0.2398539E+04  0.7818609E-02  0.8440051E-01
        2   -1    0    0  501    0  0.00000000000E+00  0.00000000000E+00  0.10940548127E+04  0.10940548127E+04  0.25500000920E-02 0.  1.
       -2   -1    0    0    0  501  0.00000000000E+00  0.00000000000E+00 -0.13146021084E+04  0.13146021084E+04  0.25500000920E-02 0. -1.
    10030    2    1    2    0    0  0.00000000000E+00  0.00000000000E+00 -0.22054729576E+03  0.24086569211E+04  0.23985385246E+04 0.  0.
        4    1    3    3  502    0  0.46159321318E+03 -0.49431572368E+03  0.88427230964E+03  0.11132634278E+04  0.12699999809E+01 0.  1.
       -4    1    3    3    0  502 -0.46159321318E+03  0.49431572368E+03 -0.11048196054E+04  0.12953934933E+04  0.12699999809E+01 0. -1.
</event>
<event>
 5   0  0.5024070E-05  0.2447058E+04  0.7818609E-02  0.8422093E-01
       -2   -1    0    0    0  501  0.00000000000E+00  0.00000000000E+00  0.50615592989E+03  0.50615592990E+03  0.25500000920E-02 0.  1.
        2   -1    0    0  501    0  0.00000000000E+00  0.00000000000E+00 -0.29576334330E+04  0.29576334330E+04  0.25500000920E-02 0. -1.
    10030    2    1    2    0    0  0.00000000000E+00  0.00000000000E+00 -0.24514775031E+04  0.34637893629E+04  0.24470583978E+04 0.  0.
        5    1    3    3  502    0  0.89595977708E+03  0.65570461006E+03 -0.19534569602E+04  0.22469331639E+04  0.46999998093E+01 0. -1.
       -5    1    3    3    0  502 -0.89595977708E+03 -0.65570461006E+03 -0.49802054289E+03  0.12168561990E+04  0.46999998093E+01 0.  1.
</event>
<event>
 5   0  0.5219468E-05  0.2390274E+04  0.7818609E-02  0.8443154E-01
        2   -1    0    0  501    0  0.00000000000E+00  0.00000000000E+00  0.11728333095E+04  0.11728333095E+04  0.25500000920E-02 0. -1.
       -2   -1    0    0    0  501  0.00000000000E+00  0.00000000000E+00 -0.12178649547E+04  0.12178649547E+04  0.25500000920E-02 0.  1.
    10030    2    1    2    0    0  0.00000000000E+00  0.00000000000E+00 -0.45031645153E+02  0.23906982642E+04  0.23902741143E+04 0.  0.
        1    1    3    3  502    0 -0.11482547213E+04  0.32629830227E+03 -0.80776467013E+02  0.11964465406E+04  0.50400001928E-02 0. -1.
       -1    1    3    3    0  502  0.11482547213E+04 -0.32629830227E+03  0.35744821861E+02  0.11942517236E+04  0.50400001928E-02 0.  1.
</event>
<event>
 5   0  0.5024070E-05  0.2453273E+04  0.7818609E-02  0.8419824E-01
       -2   -1    0    0    0  501  0.00000000000E+00  0.00000000000E+00  0.11527320687E+04  0.11527320687E+04  0.25500000920E-02 0. -1.
        2   -1    0    0  501    0  0.00000000000E+00  0.00000000000E+00 -0.13052787030E+04  0.13052787030E+04  0.25500000920E-02 0.  1.
    10030    2    1    2    0    0  0.00000000000E+00  0.00000000000E+00 -0.15254663428E+03  0.24580107718E+04  0.24532726058E+04 0.  0.
        5    1    3    3  502    0 -0.74119389265E+03  0.27039448282E+03 -0.10173066319E+04  0.12874068651E+04  0.46999998093E+01 0.  1.
       -5    1    3    3    0  502  0.74119389265E+03 -0.27039448282E+03  0.86475999764E+03  0.11706039067E+04  0.46999998093E+01 0. -1.
</event>
<event>
 5   0  0.5219468E-05  0.2473504E+04  0.7818609E-02  0.8412486E-01
        2   -1    0    0  501    0  0.00000000000E+00  0.00000000000E+00  0.10089276737E+04  0.10089276737E+04  0.25500000920E-02 0. -1.
       -2   -1    0    0    0  501  0.00000000000E+00  0.00000000000E+00 -0.15160212902E+04  0.15160212902E+04  0.25500000920E-02 0.  1.
    10030    2    1    2    0    0  0.00000000000E+00  0.00000000000E+00 -0.50709361652E+03  0.25249489638E+04  0.24735042620E+04 0.  0.
        1    1    3    3  502    0  0.11620516803E+04 -0.19267560027E+02  0.17811992200E+03  0.11757814649E+04  0.50400001928E-02 0. -1.
       -1    1    3    3    0  502 -0.11620516803E+04  0.19267560027E+02 -0.68521353852E+03  0.13491674989E+04  0.50400001928E-02 0.  1.
</event>
<event>
 5   0  0.2041718E-05  0.2523409E+04  0.7818609E-02  0.8394693E-01
       -1   -1    0    0    0  501  0.00000000000E+00  0.00000000000E+00  0.13574100829E+04  0.13574100829E+04  0.50400001928E-02 0.  1.
        1   -1    0    0  501    0  0.00000000000E+00  0.00000000000E+00 -0.11727469647E+04  0.11727469648E+04  0.50400001928E-02 0. -1.
    10030    2    1    2    0    0  0.00000000000E+00  0.00000000000E+00  0.18466311815E+03  0.25301570477E+04  0.25234092452E+04 0.  0.
        4    1    3    3  502    0  0.34881052360E+03 -0.54247291662E+03  0.11796442481E+04  0.13444358711E+04  0.12699999809E+01 0.  1.
       -4    1    3    3    0  502 -0.34881052360E+03  0.54247291662E+03 -0.99498112993E+03  0.11857211765E+04  0.12699999809E+01 0. -1.
</event>
<event>
 5   0  0.2063930E-05  0.2274119E+04  0.7818609E-02  0.8488196E-01
       -1   -1    0    0    0  501  0.00000000000E+00  0.00000000000E+00  0.22611478992E+04  0.22611478992E+04  0.50400001928E-02 0. -1.
        1   -1    0    0  501    0  0.00000000000E+00  0.00000000000E+00 -0.57179110918E+03  0.57179110921E+03  0.50400001928E-02 0.  1.
    10030    2    1    2    0    0  0.00000000000E+00  0.00000000000E+00  0.16893567900E+04  0.28329390084E+04  0.22741189638E+04 0.  0.
        3    1    3    3  502    0  0.11131678894E+04 -0.14941387993E+03  0.62380440531E+03  0.12847564765E+04  0.10100000352E+00 0.  1.
       -3    1    3    3    0  502 -0.11131678894E+04  0.14941387993E+03  0.10655523847E+04  0.15481825320E+04  0.10100000352E+00 0. -1.
</event>
<event>
 5   0  0.5219468E-05  0.2512005E+04  0.7818609E-02  0.8398721E-01
        2   -1    0    0  501    0  0.00000000000E+00  0.00000000000E+00  0.15018645097E+04  0.15018645097E+04  0.25500000920E-02 0.  1.
       -2   -1    0    0    0  501  0.00000000000E+00  0.00000000000E+00 -0.10503890135E+04  0.10503890135E+04  0.25500000920E-02 0. -1.
    10030    2    1    2    0    0  0.00000000000E+00  0.00000000000E+00  0.45147549626E+03  0.25522535232E+04  0.25120047617E+04 0.  0.
        1    1    3    3  502    0 -0.10133246318E+04 -0.18471078214E+03 -0.50452531565E+03  0.11469484193E+04  0.50400001928E-02 0. -1.
       -1    1    3    3    0  502  0.10133246318E+04  0.18471078214E+03  0.95600081191E+03  0.14053051038E+04  0.50400001928E-02 0.  1.
</event>
<event>
 5   0  0.2036578E-05  0.2457155E+04  0.7818609E-02  0.8418410E-01
        1   -1    0    0  501    0  0.00000000000E+00  0.00000000000E+00  0.15924564937E+04  0.15924564937E+04  0.50400001928E-02 0.  1.
       -1   -1    0    0    0  501  0.00000000000E+00  0.00000000000E+00 -0.94784583428E+03  0.94784583429E+03  0.50400001928E-02 0. -1.
    10030    2    1    2    0    0  0.00000000000E+00  0.00000000000E+00  0.64461065937E+03  0.25403023280E+04  0.24571554723E+04 0.  0.
        2    1    3    3  502    0  0.72667894141E+02  0.76932641544E+03  0.13097481726E+04  0.15207182619E+04  0.25500000920E-02 0.  1.
       -2    1    3    3    0  502 -0.72667894141E+02 -0.76932641544E+03 -0.66513751323E+03  0.10195840661E+04  0.25500000920E-02 0. -1.
</event>
<event>
 5   0  0.4995256E-05  0.2509858E+04  0.7818609E-02  0.8399482E-01
        2   -1    0    0  501    0  0.00000000000E+00  0.00000000000E+00  0.14642610620E+04  0.14642610620E+04  0.25500000920E-02 0.  1.
       -2   -1    0    0    0  501  0.00000000000E+00  0.00000000000E+00 -0.10755230947E+04  0.10755230947E+04  0.25500000920E-02 0. -1.
    10030    2    1    2    0    0  0.00000000000E+00  0.00000000000E+00  0.38873796737E+03  0.25397841567E+04  0.25098578357E+04 0.  0.
        2    1    3    3  502    0  0.99973070390E+03  0.44812666016E+03  0.81368568800E+03  0.13646843528E+04  0.25500000920E-02 0.  1.
       -2    1    3    3    0  502 -0.99973070390E+03 -0.44812666016E+03 -0.42494772064E+03  0.11750998039E+04  0.25500000920E-02 0. -1.
</event>
<event>
 5   0  0.2041718E-05  0.2508945E+04  0.7818609E-02  0.8399806E-01
        1   -1    0    0  501    0  0.00000000000E+00  0.00000000000E+00  0.15658970600E+04  0.15658970600E+04  0.50400001928E-02 0. -1.
       -1   -1    0    0    0  501  0.00000000000E+00  0.00000000000E+00 -0.10049837252E+04  0.10049837253E+04  0.50400001928E-02 0.  1.
    10030    2    1    2    0    0  0.00000000000E+00  0.00000000000E+00  0.56091333475E+03  0.25708807853E+04  0.25089448465E+04 0.  0.
        4    1    3    3  502    0 -0.75764450073E+03 -0.53932539568E+01 -0.74404757273E+03  0.10619146294E+04  0.12699999809E+01 0.  1.
       -4    1    3    3    0  502  0.75764450073E+03  0.53932539568E+01  0.13049609075E+04  0.15089661559E+04  0.12699999809E+01 0. -1.
</event>
<event>
 5   0  0.5024070E-05  0.1869936E+04  0.7818609E-02  0.8669968E-01
        2   -1    0    0  501    0  0.00000000000E+00  0.00000000000E+00  0.12859904714E+04  0.12859904715E+04  0.25500000920E-02 0.  1.
       -2   -1    0    0    0  501  0.00000000000E+00  0.00000000000E+00 -0.67976002013E+03  0.67976002014E+03  0.25500000920E-02 0. -1.
    10030    2    1    2    0    0  0.00000000000E+00  0.00000000000E+00  0.60623045132E+03  0.19657504916E+04  0.18699357302E+04 0.  0.
        5    1    3    3  502    0  0.49149934477E+03  0.28725906079E+03 -0.47654280634E+03  0.74243148519E+03  0.46999998093E+01 0.  1.
       -5    1    3    3    0  502 -0.49149934477E+03 -0.28725906079E+03  0.10827732577E+04  0.12233190064E+04  0.46999998093E+01 0. -1.
</event>
<event>
 5   0  0.2081874E-05  0.2484440E+04  0.7818609E-02  0.8408550E-01
       -1   -1    0    0    0  501  0.00000000000E+00  0.00000000000E+00  0.10301658296E+04  0.10301658296E+04  0.50400001928E-02 0. -1.
        1   -1    0    0  501    0  0.00000000000E+00  0.00000000000E+00 -0.14979239166E+04  0.14979239166E+04  0.50400001928E-02 0.  1.
    10030    2    1    2    0    0  0.00000000000E+00  0.00000000000E+00 -0.46775808698E+03  0.25280897462E+04  0.24844396021E+04 0.  0.
        1    1    3    3  502    0 -0.11447077556E+04  0.46148669186E+02 -0.72255025443E+03  0.13544609317E+04  0.50400001928E-02 0.  1.
       -1    1    3    3    0  502  0.11447077556E+04 -0.46148669186E+02  0.25479216744E+03  0.11736288144E+04  0.50400001928E-02 0. -1.
</event>
<event>
 5   0  0.5219468E-05  0.2529730E+04  0.7818609E-02  0.8392470E-01
        2   -1    0    0  501    0  0.00000000000E+00  0.00000000000E+00  0.14973646649E+04  0.14973646649E+04  0.25500000920E-02 0.  1.
       -2   -1    0    0    0  501  0.00000000000E+00  0.00000000000E+00 -0.10684662088E+04  0.10684662088E+04  0.25500000920E-02 0. -1.
    10030    2    1    2    0    0  0.00000000000E+00  0.00000000000E+00  0.42889845615E+03  0.25658308737E+04  0.25297300621E+04 0.  0.
        1    1    3    3  502    0 -0.36116498539E+03  0.97864625011E+03  0.93998594640E+03  0.14041945054E+04  0.50400001928E-02 0.  1.
       -1    1    3    3    0  502  0.36116498539E+03 -0.97864625011E+03 -0.51108749025E+03  0.11616363683E+04  0.50400001928E-02 0. -1.
</event>
<event>
 5   0  0.2036578E-05  0.2548787E+04  0.7818609E-02  0.8385808E-01
       -1   -1    0    0    0  501  0.00000000000E+00  0.00000000000E+00  0.62828398660E+03  0.62828398662E+03  0.50400001928E-02 0.  1.
        1   -1    0    0  501    0  0.00000000000E+00  0.00000000000E+00 -0.25849436087E+04  0.25849436087E+04  0.50400001928E-02 0. -1.
    10030    2    1    2    0    0  0.00000000000E+00  0.00000000000E+00 -0.19566596221E+04  0.32132275953E+04  0.25487869080E+04 0.  0.
        2    1    3    3  502    0  0.96673642656E+03  0.68047773000E+03 -0.37840950378E+03  0.12412989213E+04  0.25500000920E-02 0. -1.
       -2    1    3    3    0  502 -0.96673642656E+03 -0.68047773000E+03 -0.15782501183E+04  0.19719286740E+04  0.25500000920E-02 0.  1.
</event>
<event>
 5   0  0.2036578E-05  0.2463207E+04  0.7818609E-02  0.8416212E-01
       -1   -1    0    0    0  501  0.00000000000E+00  0.00000000000E+00  0.97298152203E+03  0.97298152204E+03  0.50400001928E-02 0. -1.
        1   -1    0    0  501    0  0.00000000000E+00  0.00000000000E+00 -0.15589681868E+04  0.15589681868E+04  0.50400001928E-02 0.  1.
    10030    2    1    2    0    0  0.00000000000E+00  0.00000000000E+00 -0.58598666476E+03  0.25319497088E+04  0.24632070471E+04 0.  0.
        2    1    3    3  502    0 -0.27335578088E+03 -0.11027369668E+04 -0.78175785265E+03  0.13790930139E+04  0.25500000920E-02 0. -1.
       -2    1    3    3    0  502  0.27335578088E+03  0.11027369668E+04  0.19577118789E+03  0.11528566949E+04  0.25500000920E-02 0.  1.
</event>
<event>
 5   0  0.2066170E-05  0.2511383E+04  0.7818609E-02  0.8398941E-01
        1   -1    0    0  501    0  0.00000000000E+00  0.00000000000E+00  0.10309688809E+04  0.10309688809E+04  0.50400001928E-02 0.  1.
       -1   -1    0    0    0  501  0.00000000000E+00  0.00000000000E+00 -0.15293976687E+04  0.15293976688E+04  0.50400001928E-02 0. -1.
    10030    2    1    2    0    0  0.00000000000E+00  0.00000000000E+00 -0.49842878782E+03  0.25603665497E+04  0.25113832070E+04 0.  0.
        5    1    3    3  502    0 -0.12334861391E+04 -0.25851906052E+02 -0.48740114875E+03  0.13265512980E+04  0.46999998093E+01 0. -1.
       -5    1    3    3    0  502  0.12334861391E+04  0.25851906052E+02 -0.11027639072E+02  0.12338152517E+04  0.46999998093E+01 0.  1.
</event>
<event>
 5   0  0.2066170E-05  0.2492169E+04  0.7818609E-02  0.8405781E-01
        1   -1    0    0  501    0  0.00000000000E+00  0.00000000000E+00  0.18852740191E+04  0.18852740191E+04  0.50400001928E-02 0. -1.
       -1   -1    0    0    0  501  0.00000000000E+00  0.00000000000E+00 -0.82360820715E+03  0.82360820716E+03  0.50400001928E-02 0.  1.
    10030    2    1    2    0    0  0.00000000000E+00  0.00000000000E+00  0.10616658119E+04  0.27088822263E+04  0.24921694604E+04 0.  0.
        5    1    3    3  502    0  0.42860574273E+03 -0.34109829349E+03  0.17473778057E+04  0.18312297000E+04  0.46999998093E+01 0. -1.
       -5    1    3    3    0  502 -0.42860574273E+03  0.34109829349E+03 -0.68571199371E+03  0.87765252625E+03  0.46999998093E+01 0.  1.
</event>
<event>
 5   0  0.2041718E-05  0.2480020E+04  0.7818609E-02  0.8410138E-01
       -1   -1    0    0    0  501  0.00000000000E+00  0.00000000000E+00  0.19812119722E+04  0.19812119722E+04  0.50400001928E-02 0. -1.
        1   -1    0    0  501    0  0.00000000000E+00  0.00000000000E+00 -0.77610329665E+03  0.77610329666E+03  0.50400001928E-02 0.  1.
    10030    2    1    2    0    0  0.00000000000E+00  0.00000000000E+00  0.12051086756E+04  0.27573152689E+04  0.24800202766E+04 0.  0.
        4    1    3    3  502    0 -0.11787214416E+04 -0.36252127879E+03  0.45837155419E+03  0.13156412919E+04  0.12699999809E+01 0.  1.
       -4    1    3    3    0  502  0.11787214416E+04  0.36252127879E+03  0.74673712139E+03  0.14416739770E+04  0.12699999809E+01 0. -1.
</event>
<event>
 5   0  0.4959042E-05  0.2488047E+04  0.7818609E-02  0.8407256E-01
       -2   -1    0    0    0  501  0.00000000000E+00  0.00000000000E+00  0.99870573669E+03  0.99870573669E+03  0.25500000920E-02 0. -1.
        2   -1    0    0  501    0  0.00000000000E+00  0.00000000000E+00 -0.15496003341E+04  0.15496003341E+04  0.25500000920E-02 0.  1.
    10030    2    1    2    0    0  0.00000000000E+00  0.00000000000E+00 -0.55089459740E+03  0.25483060708E+04  0.24880472208E+04 0.  0.
        4    1    3    3  502    0 -0.10942563337E+04  0.52889813214E+03 -0.54732491276E+03  0.13329277291E+04  0.12699999809E+01 0.  1.
       -4    1    3    3    0  502  0.10942563337E+04 -0.52889813214E+03 -0.35696846408E+01  0.12153783417E+04  0.12699999809E+01 0. -1.
</event>
<event>
 5   0  0.5219468E-05  0.2499431E+04  0.7818609E-02  0.8403188E-01
        2   -1    0    0  501    0  0.00000000000E+00  0.00000000000E+00  0.22649994242E+04  0.22649994242E+04  0.25500000920E-02 0. -1.
       -2   -1    0    0    0  501  0.00000000000E+00  0.00000000000E+00 -0.68953175035E+03  0.68953175035E+03  0.25500000920E-02 0.  1.
    10030    2    1    2    0    0  0.00000000000E+00  0.00000000000E+00  0.15754676738E+04  0.29545311745E+04  0.24994311493E+04 0.  0.
        1    1    3    3  502    0 -0.11476817847E+04  0.98275923759E+01  0.20320806233E+03  0.11655743551E+04  0.50400001928E-02 0.  1.
       -1    1    3    3    0  502  0.11476817847E+04 -0.98275923759E+01  0.13722596115E+04  0.17889568195E+04  0.50400001928E-02 0. -1.
</event>
<event>
 5   0  0.5024070E-05  0.2591528E+04  0.7818609E-02  0.8371085E-01
        2   -1    0    0  501    0  0.00000000000E+00  0.00000000000E+00  0.12452696817E+04  0.12452696817E+04  0.25500000920E-02 0. -1.
       -2   -1    0    0    0  501  0.00000000000E+00  0.00000000000E+00 -0.13483056864E+04  0.13483056864E+04  0.25500000920E-02 0.  1.
    10030    2    1    2    0    0  0.00000000000E+00  0.00000000000E+00 -0.10303600470E+03  0.25935753681E+04  0.25915278837E+04 0.  0.
        5    1    3    3  502    0  0.87897289122E+03  0.88732478168E+03  0.29378139041E+03  0.12830698372E+04  0.46999998093E+01 0. -1.
       -5    1    3    3    0  502 -0.87897289122E+03 -0.88732478168E+03 -0.39681739511E+03  0.13105055310E+04  0.46999998093E+01 0.  1.
</event>
<event>
 5   0  0.4995256E-05  0.2510273E+04  0.7818609E-02  0.8399335E-01
       -2   -1    0    0    0  501  0.00000000000E+00  0.00000000000E+00  0.75519783453E+03  0.75519783454E+03  0.25500000920E-02 0.  1.
        2   -1    0    0  501    0  0.00000000000E+00  0.00000000000E+00 -0.20860324097E+04  0.20860324097E+04  0.25500000920E-02 0. -1.
    10030    2    1    2    0    0  0.00000000000E+00  0.00000000000E+00 -0.13308345751E+04  0.28412302442E+04  0.25102726215E+04 0.  0.
        2    1    3    3  502    0  0.91931523824E+03 -0.85451935252E+03 -0.65995066208E+03  0.14180545502E+04  0.25500000920E-02 0. -1.
       -2    1    3    3    0  502 -0.91931523824E+03  0.85451935252E+03 -0.67088391306E+03  0.14231756940E+04  0.25500000920E-02 0.  1.
</event>
<event>
 5   0  0.2036578E-05  0.2327383E+04  0.7818609E-02  0.8467202E-01
        1   -1    0    0  501    0  0.00000000000E+00  0.00000000000E+00  0.22504384175E+04  0.22504384175E+04  0.50400001928E-02 0.  1.
       -1   -1    0    0    0  501  0.00000000000E+00  0.00000000000E+00 -0.60173972574E+03  0.60173972576E+03  0.50400001928E-02 0. -1.
    10030    2    1    2    0    0  0.00000000000E+00  0.00000000000E+00  0.16486986917E+04  0.28521781432E+04  0.23273832483E+04 0.  0.
        2    1    3    3  502    0  0.98055357269E+03  0.59058154249E+03  0.56756277567E+03  0.12776538544E+04  0.25500000920E-02 0. -1.
       -2    1    3    3    0  502 -0.98055357269E+03 -0.59058154249E+03  0.10811359161E+04  0.15745242889E+04  0.25500000920E-02 0.  1.
</event>
<event>
 5   0  0.2081874E-05  0.2601700E+04  0.7818609E-02  0.8367624E-01
       -1   -1    0    0    0  501  0.00000000000E+00  0.00000000000E+00  0.58592361752E+03  0.58592361754E+03  0.50400001928E-02 0.  1.
        1   -1    0    0  501    0  0.00000000000E+00  0.00000000000E+00 -0.28881085978E+04  0.28881085978E+04  0.50400001928E-02 0. -1.
    10030    2    1    2    0    0  0.00000000000E+00  0.00000000000E+00 -0.23021849802E+04  0.34740322153E+04  0.26017002421E+04 0.  0.
        1    1    3    3  502    0  0.65449452828E+03  0.33503270471E+03  0.28184619539E+03  0.78743080880E+03  0.50400001928E-02 0.  1.
       -1    1    3    3    0  502 -0.65449452828E+03 -0.33503270471E+03 -0.25840311756E+04  0.26866014065E+04  0.50400001928E-02 0. -1.
</event>
<event>
 5   0  0.5024070E-05  0.1798953E+04  0.7818609E-02  0.8706857E-01
        2   -1    0    0  501    0  0.00000000000E+00  0.00000000000E+00  0.12943340278E+04  0.12943340278E+04  0.25500000920E-02 0.  1.
       -2   -1    0    0    0  501  0.00000000000E+00  0.00000000000E+00 -0.62507646159E+03  0.62507646159E+03  0.25500000920E-02 0. -1.
    10030    2    1    2    0    0  0.00000000000E+00  0.00000000000E+00  0.66925756620E+03  0.19194104894E+04  0.17989527334E+04 0.  0.
        5    1    3    3  502    0  0.36034048396E+03 -0.81363373690E+03  0.47452070719E+03  0.10084825798E+04  0.46999998093E+01 0.  1.
       -5    1    3    3    0  502 -0.36034048396E+03  0.81363373690E+03  0.19473685902E+03  0.91092790959E+03  0.46999998093E+01 0. -1.
</event>
<event>
 5   0  0.5219468E-05  0.2534313E+04  0.7818609E-02  0.8390862E-01
       -2   -1    0    0    0  501  0.00000000000E+00  0.00000000000E+00  0.18144587479E+04  0.18144587479E+04  0.25500000920E-02 0.  1.
        2   -1    0    0  501    0  0.00000000000E+00  0.00000000000E+00 -0.88493945811E+03  0.88493945811E+03  0.25500000920E-02 0. -1.
    10030    2    1    2    0    0  0.00000000000E+00  0.00000000000E+00  0.92951928981E+03  0.26993982060E+04  0.25343134306E+04 0.  0.
        1    1    3    3  502    0  0.11428399720E+03 -0.11655395224E+04 -0.50643607496E+02  0.11722235219E+04  0.50400001928E-02 0. -1.
       -1    1    3    3    0  502 -0.11428399720E+03  0.11655395224E+04  0.98016289730E+03  0.15271746841E+04  0.50400001928E-02 0.  1.
</event>
<event>
 5   0  0.2066170E-05  0.2493309E+04  0.7818609E-02  0.8405373E-01
        1   -1    0    0  501    0  0.00000000000E+00  0.00000000000E+00  0.24963039056E+04  0.24963039057E+04  0.50400001928E-02 0.  1.
       -1   -1    0    0    0  501  0.00000000000E+00  0.00000000000E+00 -0.62257938301E+03  0.62257938303E+03  0.50400001928E-02 0. -1.
    10030    2    1    2    0    0  0.00000000000E+00  0.00000000000E+00  0.18737245226E+04  0.31188832887E+04  0.24933089222E+04 0.  0.
        5    1    3    3  502    0  0.75892385756E+03  0.26508768283E+03 -0.25503618841E+03  0.84338748423E+03  0.46999998093E+01 0. -1.
       -5    1    3    3    0  502 -0.75892385756E+03 -0.26508768283E+03  0.21287607110E+04  0.22754958044E+04  0.46999998093E+01 0.  1.
</event>
<event>
 5   0  0.2063930E-05  0.1993721E+04  0.7818609E-02  0.8609562E-01
       -1   -1    0    0    0  501  0.00000000000E+00  0.00000000000E+00  0.74874298791E+03  0.74874298793E+03  0.50400001928E-02 0. -1.
        1   -1    0    0  501    0  0.00000000000E+00  0.00000000000E+00 -0.13271991428E+04  0.13271991428E+04  0.50400001928E-02 0.  1.
    10030    2    1    2    0    0  0.00000000000E+00  0.00000000000E+00 -0.57845615490E+03  0.20759421307E+04  0.19937211959E+04 0.  0.
        3    1    3    3  502    0  0.91172439638E+03 -0.32245035783E+03 -0.54110363784E+03  0.11081555691E+04  0.10100000352E+00 0.  1.
       -3    1    3    3    0  502 -0.91172439638E+03  0.32245035783E+03 -0.37352517059E+02  0.96778656167E+03  0.10100000352E+00 0. -1.
</event>
<event>
 5   0  0.5024070E-05  0.2474802E+04  0.7818609E-02  0.8412018E-01
        2   -1    0    0  501    0  0.00000000000E+00  0.00000000000E+00  0.23027378614E+04  0.23027378614E+04  0.25500000920E-02 0. -1.
       -2   -1    0    0    0  501  0.00000000000E+00  0.00000000000E+00 -0.66493080767E+03  0.66493080767E+03  0.25500000920E-02 0.  1.
    10030    2    1    2    0    0  0.00000000000E+00  0.00000000000E+00  0.16378070538E+04  0.29676686691E+04  0.24748020899E+04 0.  0.
        5    1    3    3  502    0 -0.19755480288E+03  0.11790898305E+04  0.12016168969E+04  0.16950474877E+04  0.46999998093E+01 0. -1.
       -5    1    3    3    0  502  0.19755480288E+03 -0.11790898305E+04  0.43619015685E+03  0.12726211814E+04  0.46999998093E+01 0.  1.
</event>
<event>
 5   0  0.2063930E-05  0.2564029E+04  0.7818609E-02  0.8380523E-01
        1   -1    0    0  501    0  0.00000000000E+00  0.00000000000E+00  0.15074763716E+04  0.15074763716E+04  0.50400001928E-02 0. -1.
       -1   -1    0    0    0  501  0.00000000000E+00  0.00000000000E+00 -0.10902731257E+04  0.10902731257E+04  0.50400001928E-02 0.  1.
    10030    2    1    2    0    0  0.00000000000E+00  0.00000000000E+00  0.41720324591E+03  0.25977494973E+04  0.25640288420E+04 0.  0.
        3    1    3    3  502    0 -0.61053727055E+03  0.11253578697E+04  0.14158893710E+03  0.12881123907E+04  0.10100000352E+00 0. -1.
       -3    1    3    3    0  502  0.61053727055E+03 -0.11253578697E+04  0.27561430881E+03  0.13096371067E+04  0.10100000352E+00 0.  1.
</event>
<event>
 5   0  0.5024070E-05  0.2512230E+04  0.7818609E-02  0.8398642E-01
        2   -1    0    0  501    0  0.00000000000E+00  0.00000000000E+00  0.15540186883E+04  0.15540186883E+04  0.25500000920E-02 0. -1.
       -2   -1    0    0    0  501  0.00000000000E+00  0.00000000000E+00 -0.10153189540E+04  0.10153189540E+04  0.25500000920E-02 0.  1.
    10030    2    1    2    0    0  0.00000000000E+00  0.00000000000E+00  0.53869973431E+03  0.25693376422E+04  0.25122297897E+04 0.  0.
        5    1    3    3  502    0  0.11967370124E+03  0.82784347592E+03 -0.68905196681E+03  0.10837256656E+04  0.46999998093E+01 0.  1.
       -5    1    3    3    0  502 -0.11967370124E+03 -0.82784347592E+03  0.12277517011E+04  0.14856119766E+04  0.46999998093E+01 0. -1.
</event>
<event>
 5   0  0.2036578E-05  0.2470826E+04  0.7818609E-02  0.8413453E-01
        1   -1    0    0  501    0  0.00000000000E+00  0.00000000000E+00  0.56729129174E+03  0.56729129176E+03  0.50400001928E-02 0. -1.
       -1   -1    0    0    0  501  0.00000000000E+00  0.00000000000E+00 -0.26904092463E+04  0.26904092463E+04  0.50400001928E-02 0.  1.
    10030    2    1    2    0    0  0.00000000000E+00  0.00000000000E+00 -0.21231179546E+04  0.32577005381E+04  0.24708263692E+04 0.  0.
        2    1    3    3  502    0  0.76358168904E+03  0.42356221583E+03  0.90710745753E+02  0.87788973448E+03  0.25500000920E-02 0. -1.
       -2    1    3    3    0  502 -0.76358168904E+03 -0.42356221583E+03 -0.22138287004E+04  0.23798108036E+04  0.25500000920E-02 0.  1.
</event>
<event>
 5   0  0.5219468E-05  0.2468333E+04  0.7818609E-02  0.8414355E-01
        2   -1    0    0  501    0  0.00000000000E+00  0.00000000000E+00  0.18443294422E+04  0.18443294422E+04  0.25500000920E-02 0. -1.
       -2   -1    0    0    0  501  0.00000000000E+00  0.00000000000E+00 -0.82586500122E+03  0.82586500122E+03  0.25500000920E-02 0.  1.
    10030    2    1    2    0    0  0.00000000000E+00  0.00000000000E+00  0.10184644410E+04  0.26701944435E+04  0.24683331518E+04 0.  0.
        1    1    3    3  502    0 -0.11031442790E+04 -0.11816883626E+03 -0.75605884969E+02  0.11120285176E+04  0.50400001928E-02 0.  1.
       -1    1    3    3    0  502  0.11031442790E+04  0.11816883626E+03  0.10940703260E+04  0.15581659258E+04  0.50400001928E-02 0. -1.
</event>
<event>
 5   0  0.2036578E-05  0.2487279E+04  0.7818609E-02  0.8407532E-01
        1   -1    0    0  501    0  0.00000000000E+00  0.00000000000E+00  0.13897047816E+04  0.13897047816E+04  0.50400001928E-02 0. -1.
       -1   -1    0    0    0  501  0.00000000000E+00  0.00000000000E+00 -0.11129260670E+04  0.11129260671E+04  0.50400001928E-02 0.  1.
    10030    2    1    2    0    0  0.00000000000E+00  0.00000000000E+00  0.27677871456E+03  0.25026308487E+04  0.24872785746E+04 0.  0.
        2    1    3    3  502    0 -0.11899189942E+04  0.31878693720E+02  0.50077236177E+03  0.12913932098E+04  0.25500000920E-02 0. -1.
       -2    1    3    3    0  502  0.11899189942E+04 -0.31878693720E+02 -0.22399364722E+03  0.12112376389E+04  0.25500000920E-02 0.  1.
</event>
<event>
 5   0  0.4959042E-05  0.2468145E+04  0.7818609E-02  0.8414423E-01
        2   -1    0    0  501    0  0.00000000000E+00  0.00000000000E+00  0.13507480271E+04  0.13507480271E+04  0.25500000920E-02 0. -1.
       -2   -1    0    0    0  501  0.00000000000E+00  0.00000000000E+00 -0.11274755531E+04  0.11274755531E+04  0.25500000920E-02 0.  1.
    10030    2    1    2    0    0  0.00000000000E+00  0.00000000000E+00  0.22327247406E+03  0.24782235802E+04  0.24681453595E+04 0.  0.
        4    1    3    3  502    0  0.44370631854E+03  0.32236907607E+03 -0.99838077565E+03  0.11391061866E+04  0.12699999809E+01 0.  1.
       -4    1    3    3    0  502 -0.44370631854E+03 -0.32236907607E+03  0.12216532497E+04  0.13391173936E+04  0.12699999809E+01 0. -1.
</event>
<event>
 5   0  0.2041718E-05  0.2482519E+04  0.7818609E-02  0.8409240E-01
        1   -1    0    0  501    0  0.00000000000E+00  0.00000000000E+00  0.11954192563E+04  0.11954192563E+04  0.50400001928E-02 0. -1.
       -1   -1    0    0    0  501  0.00000000000E+00  0.00000000000E+00 -0.12888574693E+04  0.12888574694E+04  0.50400001928E-02 0.  1.
    10030    2    1    2    0    0  0.00000000000E+00  0.00000000000E+00 -0.93438213055E+02  0.24842767256E+04  0.24825189123E+04 0.  0.
        4    1    3    3  502    0 -0.21778132444E+03 -0.10088643715E+04 -0.73676330845E+03  0.12680921934E+04  0.12699999809E+01 0. -1.
       -4    1    3    3    0  502  0.21778132444E+03  0.10088643715E+04  0.64332509539E+03  0.12161845323E+04  0.12699999809E+01 0.  1.
</event>
<event>
 5   0  0.2036578E-05  0.2506481E+04  0.7818609E-02  0.8400680E-01
       -1   -1    0    0    0  501  0.00000000000E+00  0.00000000000E+00  0.11481217221E+04  0.11481217221E+04  0.50400001928E-02 0. -1.
        1   -1    0    0  501    0  0.00000000000E+00  0.00000000000E+00 -0.13679841401E+04  0.13679841402E+04  0.50400001928E-02 0.  1.
    10030    2    1    2    0    0  0.00000000000E+00  0.00000000000E+00 -0.21986241802E+03  0.25161058623E+04  0.25064814437E+04 0.  0.
        2    1    3    3  502    0  0.95113169076E+03 -0.49776506871E+03  0.53922860490E+03  0.12013280339E+04  0.25500000920E-02 0. -1.
       -2    1    3    3    0  502 -0.95113169076E+03  0.49776506871E+03 -0.75909102293E+03  0.13147778283E+04  0.25500000920E-02 0.  1.
</event>
<event>
 5   0  0.2066170E-05  0.2479149E+04  0.7818609E-02  0.8410452E-01
       -1   -1    0    0    0  501  0.00000000000E+00  0.00000000000E+00  0.10005070146E+04  0.10005070146E+04  0.50400001928E-02 0. -1.
        1   -1    0    0  501    0  0.00000000000E+00  0.00000000000E+00 -0.15357666000E+04  0.15357666001E+04  0.50400001928E-02 0.  1.
    10030    2    1    2    0    0  0.00000000000E+00  0.00000000000E+00 -0.53525958542E+03  0.25362736147E+04  0.24791492542E+04 0.  0.
        5    1    3    3  502    0  0.20158764111E+03  0.14695515671E+03 -0.15098107183E+04  0.15302888257E+04  0.46999998093E+01 0.  1.
       -5    1    3    3    0  502 -0.20158764111E+03 -0.14695515671E+03  0.97455113284E+03  0.10059847890E+04  0.46999998093E+01 0. -1.
</event>
<event>
 5   0  0.2036578E-05  0.2455318E+04  0.7818609E-02  0.8419079E-01
       -1   -1    0    0    0  501  0.00000000000E+00  0.00000000000E+00  0.11732809459E+04  0.11732809459E+04  0.50400001928E-02 0.  1.
        1   -1    0    0  501    0  0.00000000000E+00  0.00000000000E+00 -0.12845573703E+04  0.12845573703E+04  0.50400001928E-02 0. -1.
    10030    2    1    2    0    0  0.00000000000E+00  0.00000000000E+00 -0.11127642444E+03  0.24578383162E+04  0.24553180539E+04 0.  0.
        2    1    3    3  502    0  0.23905080532E+03  0.83256508753E+03  0.81521842480E+03  0.11894919052E+04  0.25500000920E-02 0.  1.
       -2    1    3    3    0  502 -0.23905080532E+03 -0.83256508753E+03 -0.92649484924E+03  0.12683464110E+04  0.25500000920E-02 0. -1.
</event>
<event>
 5   0  0.2063930E-05  0.1758651E+04  0.7818609E-02  0.8728603E-01
       -1   -1    0    0    0  501  0.00000000000E+00  0.00000000000E+00  0.81380651267E+03  0.81380651269E+03  0.50400001928E-02 0.  1.
        1   -1    0    0  501    0  0.00000000000E+00  0.00000000000E+00 -0.95011942468E+03  0.95011942470E+03  0.50400001928E-02 0. -1.
    10030    2    1    2    0    0  0.00000000000E+00  0.00000000000E+00 -0.13631291201E+03  0.17639259374E+04  0.17586510463E+04 0.  0.
        3    1    3    3  502    0 -0.65338610759E+03 -0.54777331408E+03  0.14753355895E+03  0.86529484595E+03  0.10100000352E+00 0.  1.
       -3    1    3    3    0  502  0.65338610759E+03  0.54777331408E+03 -0.28384647096E+03  0.89863109143E+03  0.10100000352E+00 0. -1.
</event>
<event>
 5   0  0.2066170E-05  0.2413101E+04  0.7818609E-02  0.8434615E-01
        1   -1    0    0  501    0  0.00000000000E+00  0.00000000000E+00  0.81756090208E+03  0.81756090209E+03  0.50400001928E-02 0. -1.
       -1   -1    0    0    0  501  0.00000000000E+00  0.00000000000E+00 -0.17806185545E+04  0.17806185545E+04  0.50400001928E-02 0.  1.
    10030    2    1    2    0    0  0.00000000000E+00  0.00000000000E+00 -0.96305765240E+03  0.25981794566E+04  0.24131010022E+04 0.  0.
        5    1    3    3  502    0 -0.37934632161E+03  0.53190080340E+03 -0.15736842158E+04  0.17039149620E+04  0.46999998093E+01 0.  1.
       -5    1    3    3    0  502  0.37934632161E+03 -0.53190080340E+03  0.61062656344E+03  0.89426449463E+03  0.46999998093E+01 0. -1.
</event>
<event>
 5   0  0.2066170E-05  0.2482623E+04  0.7818609E-02  0.8409202E-01
        1   -1    0    0  501    0  0.00000000000E+00  0.00000000000E+00  0.16247302374E+04  0.16247302374E+04  0.50400001928E-02 0. -1.
       -1   -1    0    0    0  501  0.00000000000E+00  0.00000000000E+00 -0.94837563957E+03  0.94837563959E+03  0.50400001928E-02 0.  1.
    10030    2    1    2    0    0  0.00000000000E+00  0.00000000000E+00  0.67635459785E+03  0.25731058770E+04  0.24826232723E+04 0.  0.
        5    1    3    3  502    0 -0.14574093181E+03  0.35593479055E+03  0.15614046761E+04  0.16080847760E+04  0.46999998093E+01 0. -1.
       -5    1    3    3    0  502  0.14574093181E+03 -0.35593479055E+03 -0.88505007826E+03  0.96502110099E+03  0.46999998093E+01 0.  1.
</event>
<event>
 5   0  0.2066170E-05  0.2498915E+04  0.7818609E-02  0.8403372E-01
       -1   -1    0    0    0  501  0.00000000000E+00  0.00000000000E+00  0.11129456528E+04  0.11129456528E+04  0.50400001928E-02 0. -1.
        1   -1    0    0  501    0  0.00000000000E+00  0.00000000000E+00 -0.14027134611E+04  0.14027134611E+04  0.50400001928E-02 0.  1.
    10030    2    1    2    0    0  0.00000000000E+00  0.00000000000E+00 -0.28976780835E+03  0.25156591139E+04  0.24989148434E+04 0.  0.
        5    1    3    3  502    0  0.80211363945E+03  0.93866494401E+03  0.47823919901E+02  0.12356323826E+04  0.46999998093E+01 0. -1.
       -5    1    3    3    0  502 -0.80211363945E+03 -0.93866494401E+03 -0.33759172825E+03  0.12800267312E+04  0.46999998093E+01 0.  1.
</event>
<event>
 5   0  0.4959042E-05  0.2494488E+04  0.7818609E-02  0.8404952E-01
        2   -1    0    0  501    0  0.00000000000E+00  0.00000000000E+00  0.93376730935E+03  0.93376730935E+03  0.25500000920E-02 0.  1.
       -2   -1    0    0    0  501  0.00000000000E+00  0.00000000000E+00 -0.16659584264E+04  0.16659584264E+04  0.25500000920E-02 0. -1.
    10030    2    1    2    0    0  0.00000000000E+00  0.00000000000E+00 -0.73219111701E+03  0.25997257357E+04  0.24944879372E+04 0.  0.
        4    1    3    3  502    0 -0.20090018589E+03 -0.50953420607E+03 -0.15339183638E+04  0.16287704417E+04  0.12699999809E+01 0. -1.
       -4    1    3    3    0  502  0.20090018589E+03  0.50953420607E+03  0.80172724682E+03  0.97095529405E+03  0.12699999809E+01 0.  1.
</event>
<event>
 5   0  0.2041718E-05  0.2479687E+04  0.7818609E-02  0.8410258E-01
       -1   -1    0    0    0  501  0.00000000000E+00  0.00000000000E+00  0.16073561797E+04  0.16073561797E+04  0.50400001928E-02 0. -1.
        1   -1    0    0  501    0  0.00000000000E+00  0.00000000000E+00 -0.95636029506E+03  0.95636029507E+03  0.50400001928E-02 0.  1.
    10030    2    1    2    0    0  0.00000000000E+00  0.00000000000E+00  0.65099588468E+03  0.25637164748E+04  0.24796867789E+04 0.  0.
        4    1    3    3  502    0  0.30468254966E+03 -0.60809599293E+03 -0.74625860756E+03  0.10097107085E+04  0.12699999809E+01 0.  1.
       -4    1    3    3    0  502 -0.30468254966E+03  0.60809599293E+03  0.13972544922E+04  0.15540057663E+04  0.12699999809E+01 0. -1.
</event>
<event>
 5   0  0.4959347E-05  0.2467513E+04  0.7818609E-02  0.8414651E-01
       -2   -1    0    0    0  501  0.00000000000E+00  0.00000000000E+00  0.99634734113E+03  0.99634734114E+03  0.25500000920E-02 0.  1.
        2   -1    0    0  501    0  0.00000000000E+00  0.00000000000E+00 -0.15277354638E+04  0.15277354638E+04  0.25500000920E-02 0. -1.
    10030    2    1    2    0    0  0.00000000000E+00  0.00000000000E+00 -0.53138812269E+03  0.25240828050E+04  0.24675130535E+04 0.  0.
        3    1    3    3  502    0  0.87931218212E+03 -0.84529323517E+03 -0.45554145963E+03  0.13020094465E+04  0.10100000352E+00 0.  1.
       -3    1    3    3    0  502 -0.87931218212E+03  0.84529323517E+03 -0.75846663068E+02  0.12220733585E+04  0.10100000352E+00 0. -1.
</event>
<event>
 5   0  0.5219468E-05  0.2489446E+04  0.7818609E-02  0.8406755E-01
        2   -1    0    0  501    0  0.00000000000E+00  0.00000000000E+00  0.17326799670E+04  0.17326799670E+04  0.25500000920E-02 0.  1.
       -2   -1    0    0    0  501  0.00000000000E+00  0.00000000000E+00 -0.89418419160E+03  0.89418419160E+03  0.25500000920E-02 0. -1.
    10030    2    1    2    0    0  0.00000000000E+00  0.00000000000E+00  0.83849577538E+03  0.26268641586E+04  0.24894457500E+04 0.  0.
        1    1    3    3  502    0  0.17075731706E+03 -0.85241622027E+02  0.17171490331E+04  0.17277224885E+04  0.50400001928E-02 0.  1.
       -1    1    3    3    0  502 -0.17075731706E+03  0.85241622027E+02 -0.87865325774E+03  0.89914167005E+03  0.50400001928E-02 0. -1.
</event>
<event>
 5   0  0.2041718E-05  0.2396085E+04  0.7818609E-02  0.8440971E-01
        1   -1    0    0  501    0  0.00000000000E+00  0.00000000000E+00  0.98690114125E+03  0.98690114126E+03  0.50400001928E-02 0.  1.
       -1   -1    0    0    0  501  0.00000000000E+00  0.00000000000E+00 -0.14543566390E+04  0.14543566390E+04  0.50400001928E-02 0. -1.
    10030    2    1    2    0    0  0.00000000000E+00  0.00000000000E+00 -0.46745549778E+03  0.24412577803E+04  0.23960853298E+04 0.  0.
        4    1    3    3  502    0  0.10781440950E+04  0.45383598645E+02  0.29651652021E+03  0.11190969664E+04  0.12699999809E+01 0.  1.
       -4    1    3    3    0  502 -0.10781440950E+04 -0.45383598645E+02 -0.76397201799E+03  0.13221608139E+04  0.12699999809E+01 0. -1.
</event>
<event>
 5   0  0.5219468E-05  0.2375923E+04  0.7818609E-02  0.8448573E-01
        2   -1    0    0  501    0  0.00000000000E+00  0.00000000000E+00  0.14429311910E+04  0.14429311910E+04  0.25500000920E-02 0.  1.
       -2   -1    0    0    0  501  0.00000000000E+00  0.00000000000E+00 -0.97804576452E+03  0.97804576453E+03  0.25500000920E-02 0. -1.
    10030    2    1    2    0    0  0.00000000000E+00  0.00000000000E+00  0.46488542649E+03  0.24209769555E+04  0.23759231805E+04 0.  0.
        1    1    3    3  502    0  0.83866474030E+03  0.18018974255E+03 -0.60498455803E+03  0.10496824307E+04  0.50400001928E-02 0. -1.
       -1    1    3    3    0  502 -0.83866474030E+03 -0.18018974255E+03  0.10698699845E+04  0.13712945248E+04  0.50400001928E-02 0.  1.
</event>
<event>
 5   0  0.4959347E-05  0.2454026E+04  0.7818609E-02  0.8419549E-01
        2   -1    0    0  501    0  0.00000000000E+00  0.00000000000E+00  0.11964623519E+04  0.11964623519E+04  0.25500000920E-02 0.  1.
       -2   -1    0    0    0  501  0.00000000000E+00  0.00000000000E+00 -0.12583441490E+04  0.12583441490E+04  0.25500000920E-02 0. -1.
    10030    2    1    2    0    0  0.00000000000E+00  0.00000000000E+00 -0.61881797123E+02  0.24548065010E+04  0.24540264058E+04 0.  0.
        3    1    3    3  502    0  0.90231896217E+03  0.43255891820E+03  0.67940782924E+03  0.12094964803E+04  0.10100000352E+00 0.  1.
       -3    1    3    3    0  502 -0.90231896217E+03 -0.43255891820E+03 -0.74128962636E+03  0.12453100207E+04  0.10100000352E+00 0. -1.
</event>
<event>
 5   0  0.2036578E-05  0.2500225E+04  0.7818609E-02  0.8402906E-01
       -1   -1    0    0    0  501  0.00000000000E+00  0.00000000000E+00  0.64385203276E+03  0.64385203278E+03  0.50400001928E-02 0. -1.
        1   -1    0    0  501    0  0.00000000000E+00  0.00000000000E+00 -0.24272357608E+04  0.24272357608E+04  0.50400001928E-02 0.  1.
    10030    2    1    2    0    0  0.00000000000E+00  0.00000000000E+00 -0.17833837280E+04  0.30710877936E+04  0.25002245328E+04 0.  0.
        2    1    3    3  502    0  0.70369380384E+03  0.23899053073E+03  0.34305211281E+03  0.81852684467E+03  0.25500000920E-02 0. -1.
       -2    1    3    3    0  502 -0.70369380384E+03 -0.23899053073E+03 -0.21264358408E+04  0.22525609489E+04  0.25500000920E-02 0.  1.
</event>
<event>
 5   0  0.4959347E-05  0.1528010E+04  0.7818609E-02  0.8866037E-01
        2   -1    0    0  501    0  0.00000000000E+00  0.00000000000E+00  0.11954913483E+04  0.11954913483E+04  0.25500000920E-02 0.  1.
       -2   -1    0    0    0  501  0.00000000000E+00  0.00000000000E+00 -0.48825445291E+03  0.48825445292E+03  0.25500000920E-02 0. -1.
    10030    2    1    2    0    0  0.00000000000E+00  0.00000000000E+00  0.70723689537E+03  0.16837458012E+04  0.15280104374E+04 0.  0.
        3    1    3    3  502    0  0.55580140837E+03  0.10157816021E+03 -0.21306292157E+03  0.60384530049E+03  0.10100000352E+00 0. -1.
       -3    1    3    3    0  502 -0.55580140837E+03 -0.10157816021E+03  0.92029981694E+03  0.10799005007E+04  0.10100000352E+00 0.  1.
</event>
<event>
 5   0  0.2081874E-05  0.2244127E+04  0.7818609E-02  0.8500283E-01
        1   -1    0    0  501    0  0.00000000000E+00  0.00000000000E+00  0.19712291949E+04  0.19712291949E+04  0.50400001928E-02 0.  1.
       -1   -1    0    0    0  501  0.00000000000E+00  0.00000000000E+00 -0.63870095209E+03  0.63870095211E+03  0.50400001928E-02 0. -1.
    10030    2    1    2    0    0  0.00000000000E+00  0.00000000000E+00  0.13325282428E+04  0.26099301470E+04  0.22441265237E+04 0.  0.
        1    1    3    3  502    0  0.56289800546E+03 -0.52383566368E+03  0.16166376819E+04  0.17901886386E+04  0.50400001928E-02 0.  1.
       -1    1    3    3    0  502 -0.56289800546E+03  0.52383566368E+03 -0.28410943917E+03  0.81974150837E+03  0.50400001928E-02 0. -1.
</event>
<event>
 5   0  0.2036578E-05  0.2308378E+04  0.7818609E-02  0.8474625E-01
        1   -1    0    0  501    0  0.00000000000E+00  0.00000000000E+00  0.12378563482E+04  0.12378563482E+04  0.50400001928E-02 0. -1.
       -1   -1    0    0    0  501  0.00000000000E+00  0.00000000000E+00 -0.10761770352E+04  0.10761770352E+04  0.50400001928E-02 0.  1.
    10030    2    1    2    0    0  0.00000000000E+00  0.00000000000E+00  0.16167931295E+03  0.23140333834E+04  0.23083782834E+04 0.  0.
        2    1    3    3  502    0  0.45698364849E+03  0.14075801265E+03 -0.97221261877E+03  0.10834409302E+04  0.25500000920E-02 0.  1.
       -2    1    3    3    0  502 -0.45698364849E+03 -0.14075801265E+03  0.11338919317E+04  0.12305924532E+04  0.25500000920E-02 0. -1.
</event>
<event>
 5   0  0.2081874E-05  0.2516641E+04  0.7818609E-02  0.8397081E-01
       -1   -1    0    0    0  501  0.00000000000E+00  0.00000000000E+00  0.10041742362E+04  0.10041742362E+04  0.50400001928E-02 0. -1.
        1   -1    0    0  501    0  0.00000000000E+00  0.00000000000E+00 -0.15767881944E+04  0.15767881944E+04  0.50400001928E-02 0.  1.
    10030    2    1    2    0    0  0.00000000000E+00  0.00000000000E+00 -0.57261395815E+03  0.25809624306E+04  0.25166406821E+04 0.  0.
        1    1    3    3  502    0 -0.55653620056E+03 -0.66635341191E+03  0.64780218816E+03  0.10832391643E+04  0.50400001928E-02 0.  1.
       -1    1    3    3    0  502  0.55653620056E+03  0.66635341191E+03 -0.12204161463E+04  0.14977232663E+04  0.50400001928E-02 0. -1.
</event>
<event>
 5   0  0.5219468E-05  0.2484079E+04  0.7818609E-02  0.8408680E-01
       -2   -1    0    0    0  501  0.00000000000E+00  0.00000000000E+00  0.15377669001E+04  0.15377669001E+04  0.25500000920E-02 0. -1.
        2   -1    0    0  501    0  0.00000000000E+00  0.00000000000E+00 -0.10031829306E+04  0.10031829306E+04  0.25500000920E-02 0.  1.
    10030    2    1    2    0    0  0.00000000000E+00  0.00000000000E+00  0.53458396946E+03  0.25409498308E+04  0.24840785056E+04 0.  0.
        1    1    3    3  502    0 -0.10302179089E+04  0.22465548314E+03 -0.40412145705E+03  0.11292179498E+04  0.50400001928E-02 0.  1.
       -1    1    3    3    0  502  0.10302179089E+04 -0.22465548314E+03  0.93870542650E+03  0.14117318810E+04  0.50400001928E-02 0. -1.
</event>
<event>
 5   0  0.2081874E-05  0.2510632E+04  0.7818609E-02  0.8399207E-01
       -1   -1    0    0    0  501  0.00000000000E+00  0.00000000000E+00  0.10723344567E+04  0.10723344567E+04  0.50400001928E-02 0. -1.
        1   -1    0    0  501    0  0.00000000000E+00  0.00000000000E+00 -0.14695217182E+04  0.14695217182E+04  0.50400001928E-02 0.  1.
    10030    2    1    2    0    0  0.00000000000E+00  0.00000000000E+00 -0.39718726149E+03  0.25418561749E+04  0.25106324090E+04 0.  0.
        1    1    3    3  502    0 -0.16940309468E+03 -0.11134940611E+02  0.10606583175E+04  0.10741589556E+04  0.50400001928E-02 0. -1.
       -1    1    3    3    0  502  0.16940309468E+03  0.11134940611E+02 -0.14578455790E+04  0.14676972193E+04  0.50400001928E-02 0.  1.
</event>
<event>
 5   0  0.2041718E-05  0.2494438E+04  0.7818609E-02  0.8404970E-01
       -1   -1    0    0    0  501  0.00000000000E+00  0.00000000000E+00  0.12921748640E+04  0.12921748640E+04  0.50400001928E-02 0. -1.
        1   -1    0    0  501    0  0.00000000000E+00  0.00000000000E+00 -0.12038272972E+04  0.12038272972E+04  0.50400001928E-02 0.  1.
    10030    2    1    2    0    0  0.00000000000E+00  0.00000000000E+00  0.88347566797E+02  0.24960021613E+04  0.24944381124E+04 0.  0.
        4    1    3    3  502    0 -0.10936164759E+04 -0.49159517564E+03  0.38774158319E+03  0.12601618791E+04  0.12699999809E+01 0. -1.
       -4    1    3    3    0  502  0.10936164759E+04  0.49159517564E+03 -0.29939401639E+03  0.12358402822E+04  0.12699999809E+01 0.  1.
</event>
<event>
 5   0  0.4995256E-05  0.2173117E+04  0.7818609E-02  0.8529701E-01
        2   -1    0    0  501    0  0.00000000000E+00  0.00000000000E+00  0.22497023616E+04  0.22497023616E+04  0.25500000920E-02 0. -1.
       -2   -1    0    0    0  501  0.00000000000E+00  0.00000000000E+00 -0.52478478568E+03  0.52478478569E+03  0.25500000920E-02 0.  1.
    10030    2    1    2    0    0  0.00000000000E+00  0.00000000000E+00  0.17249175759E+04  0.27744871473E+04  0.21731171820E+04 0.  0.
        2    1    3    3  502    0 -0.10311875516E+04  0.32956907598E+03  0.98117442328E+03  0.14610498935E+04  0.25500000920E-02 0. -1.
       -2    1    3    3    0  502  0.10311875516E+04 -0.32956907598E+03  0.74374315265E+03  0.13134372538E+04  0.25500000920E-02 0.  1.
</event>
<event>
 5   0  0.4995256E-05  0.2517131E+04  0.7818609E-02  0.8396908E-01
       -2   -1    0    0    0  501  0.00000000000E+00  0.00000000000E+00  0.11996774679E+04  0.11996774679E+04  0.25500000920E-02 0.  1.
        2   -1    0    0  501    0  0.00000000000E+00  0.00000000000E+00 -0.13203440140E+04  0.13203440140E+04  0.25500000920E-02 0. -1.
    10030    2    1    2    0    0  0.00000000000E+00  0.00000000000E+00 -0.12066654617E+03  0.25200214819E+04  0.25171308774E+04 0.  0.
        2    1    3    3  502    0 -0.73537251554E+03  0.35393869961E+03 -0.10195262217E+04  0.13059399130E+04  0.25500000920E-02 0. -1.
       -2    1    3    3    0  502  0.73537251554E+03 -0.35393869961E+03  0.89885967548E+03  0.12140815689E+04  0.25500000920E-02 0.  1.
</event>
<event>
 5   0  0.1692125E-05  0.2301882E+04  0.7818609E-02  0.8477179E-01
        4   -1    0    0  501    0  0.00000000000E+00  0.00000000000E+00  0.52721988572E+03  0.52722141535E+03  0.12699999809E+01 0.  1.
       -4   -1    0    0    0  501  0.00000000000E+00  0.00000000000E+00 -0.25125421850E+04  0.25125425060E+04  0.12699999809E+01 0. -1.
    10030    2    1    2    0    0  0.00000000000E+00  0.00000000000E+00 -0.19853222993E+04  0.30397639213E+04  0.23018818530E+04 0.  0.
        5    1    3    3  502    0  0.39075665425E+03 -0.10746788182E+04 -0.82039259918E+03  0.14073703961E+04  0.46999998093E+01 0. -1.
       -5    1    3    3    0  502 -0.39075665425E+03  0.10746788182E+04 -0.11649297001E+04  0.16323935252E+04  0.46999998093E+01 0.  1.
</event>
<event>
 5   0  0.5219468E-05  0.2500575E+04  0.7818609E-02  0.8402781E-01
       -2   -1    0    0    0  501  0.00000000000E+00  0.00000000000E+00  0.10090360461E+04  0.10090360461E+04  0.25500000920E-02 0.  1.
        2   -1    0    0  501    0  0.00000000000E+00  0.00000000000E+00 -0.15492205045E+04  0.15492205045E+04  0.25500000920E-02 0. -1.
    10030    2    1    2    0    0  0.00000000000E+00  0.00000000000E+00 -0.54018445840E+03  0.25582565506E+04  0.25005753997E+04 0.  0.
        1    1    3    3  502    0  0.74637373812E+03 -0.83353375828E+03 -0.84096649489E+03  0.13996702929E+04  0.50400001928E-02 0. -1.
       -1    1    3    3    0  502 -0.74637373812E+03  0.83353375828E+03  0.30078203649E+03  0.11585862577E+04  0.50400001928E-02 0.  1.
</event>
<event>
 5   0  0.2063930E-05  0.2679573E+04  0.7818609E-02  0.8341663E-01
        1   -1    0    0  501    0  0.00000000000E+00  0.00000000000E+00  0.14651070945E+04  0.14651070945E+04  0.50400001928E-02 0. -1.
       -1   -1    0    0    0  501  0.00000000000E+00  0.00000000000E+00 -0.12251855041E+04  0.12251855041E+04  0.50400001928E-02 0.  1.
    10030    2    1    2    0    0  0.00000000000E+00  0.00000000000E+00  0.23992159040E+03  0.26902925986E+04  0.26795730810E+04 0.  0.
        3    1    3    3  502    0  0.48852581120E+03 -0.28224442870E+03  0.13400211339E+04  0.14539518683E+04  0.10100000352E+00 0. -1.
       -3    1    3    3    0  502 -0.48852581120E+03  0.28224442870E+03 -0.11000995435E+04  0.12363407304E+04  0.10100000352E+00 0.  1.
</event>
<event>
 5   0  0.4959042E-05  0.2493742E+04  0.7818609E-02  0.8405218E-01
        2   -1    0    0  501    0  0.00000000000E+00  0.00000000000E+00  0.18590130302E+04  0.18590130302E+04  0.25500000920E-02 0.  1.
       -2   -1    0    0    0  501  0.00000000000E+00  0.00000000000E+00 -0.83629714277E+03  0.83629714277E+03  0.25500000920E-02 0. -1.
    10030    2    1    2    0    0  0.00000000000E+00  0.00000000000E+00  0.10227158874E+04  0.26953101730E+04  0.24937419959E+04 0.  0.
        4    1    3    3  502    0  0.40470134042E+03 -0.14682825730E+03  0.17761336256E+04  0.18275650415E+04  0.12699999809E+01 0.  1.
       -4    1    3    3    0  502 -0.40470134042E+03  0.14682825730E+03 -0.75341773817E+03  0.86774513146E+03  0.12699999809E+01 0. -1.
</event>
<event>
 5   0  0.5024070E-05  0.2550539E+04  0.7818609E-02  0.8385199E-01
        2   -1    0    0  501    0  0.00000000000E+00  0.00000000000E+00  0.11919380451E+04  0.11919380451E+04  0.25500000920E-02 0.  1.
       -2   -1    0    0    0  501  0.00000000000E+00  0.00000000000E+00 -0.13644268779E+04  0.13644268779E+04  0.25500000920E-02 0. -1.
    10030    2    1    2    0    0  0.00000000000E+00  0.00000000000E+00 -0.17248883280E+03  0.25563649230E+04  0.25505390061E+04 0.  0.
        5    1    3    3  502    0  0.94547933240E+03  0.13004262836E+03 -0.93401805006E+03  0.13353853605E+04  0.46999998093E+01 0. -1.
       -5    1    3    3    0  502 -0.94547933240E+03 -0.13004262836E+03  0.76152921727E+03  0.12209795625E+04  0.46999998093E+01 0.  1.
</event>
<event>
 5   0  0.4959347E-05  0.2361850E+04  0.7818609E-02  0.8453926E-01
        2   -1    0    0  501    0  0.00000000000E+00  0.00000000000E+00  0.21299345452E+04  0.21299345452E+04  0.25500000920E-02 0. -1.
       -2   -1    0    0    0  501  0.00000000000E+00  0.00000000000E+00 -0.65475434177E+03  0.65475434177E+03  0.25500000920E-02 0.  1.
    10030    2    1    2    0    0  0.00000000000E+00  0.00000000000E+00  0.14751802034E+04  0.27846888870E+04  0.23618500301E+04 0.  0.
        3    1    3    3  502    0  0.52235456476E+03 -0.87185853761E+01 -0.51109731836E+03  0.73085619933E+03  0.10100000352E+00 0.  1.
       -3    1    3    3    0  502 -0.52235456476E+03  0.87185853761E+01  0.19862775218E+04  0.20538326876E+04  0.10100000352E+00 0. -1.
</event>
<event>
 5   0  0.2081874E-05  0.1934086E+04  0.7818609E-02  0.8638073E-01
       -1   -1    0    0    0  501  0.00000000000E+00  0.00000000000E+00  0.11712149930E+04  0.11712149930E+04  0.50400001928E-02 0.  1.
        1   -1    0    0  501    0  0.00000000000E+00  0.00000000000E+00 -0.79846287081E+03  0.79846287083E+03  0.50400001928E-02 0. -1.
    10030    2    1    2    0    0  0.00000000000E+00  0.00000000000E+00  0.37275212217E+03  0.19696778638E+04  0.19340855055E+04 0.  0.
        1    1    3    3  502    0  0.31245720806E+03  0.26407445703E+03 -0.70599510248E+03  0.81596195406E+03  0.50400001928E-02 0. -1.
       -1    1    3    3    0  502 -0.31245720806E+03 -0.26407445703E+03  0.10787472246E+04  0.11537159098E+04  0.50400001928E-02 0.  1.
</event>
<event>
 5   0  0.2036578E-05  0.2087442E+04  0.7818609E-02  0.8566795E-01
        1   -1    0    0  501    0  0.00000000000E+00  0.00000000000E+00  0.11899833079E+04  0.11899833079E+04  0.50400001928E-02 0. -1.
       -1   -1    0    0    0  501  0.00000000000E+00  0.00000000000E+00 -0.91543608518E+03  0.91543608519E+03  0.50400001928E-02 0.  1.
    10030    2    1    2    0    0  0.00000000000E+00  0.00000000000E+00  0.27454722274E+03  0.21054193931E+04  0.20874421294E+04 0.  0.
        2    1    3    3  502    0 -0.38546774793E+03  0.60533634616E+03  0.90165000090E+03  0.11523845716E+04  0.25500000920E-02 0. -1.
       -2    1    3    3    0  502  0.38546774793E+03 -0.60533634616E+03 -0.62710277816E+03  0.95303482154E+03  0.25500000920E-02 0.  1.
</event>
<event>
 5   0  0.2036578E-05  0.2493700E+04  0.7818609E-02  0.8405233E-01
       -1   -1    0    0    0  501  0.00000000000E+00  0.00000000000E+00  0.98241392726E+03  0.98241392728E+03  0.50400001928E-02 0.  1.
        1   -1    0    0  501    0  0.00000000000E+00  0.00000000000E+00 -0.15824638299E+04  0.15824638299E+04  0.50400001928E-02 0. -1.
    10030    2    1    2    0    0  0.00000000000E+00  0.00000000000E+00 -0.60004990263E+03  0.25648777572E+04  0.24936996659E+04 0.  0.
        2    1    3    3  502    0 -0.15334949186E+03 -0.11742443964E+04 -0.70137896592E+03  0.13763351420E+04  0.25500000920E-02 0. -1.
       -2    1    3    3    0  502  0.15334949186E+03  0.11742443964E+04  0.10132906329E+03  0.11885426152E+04  0.25500000920E-02 0.  1.
</event>
<event>
 5   0  0.4995256E-05  0.1598862E+04  0.7818609E-02  0.8821247E-01
        2   -1    0    0  501    0  0.00000000000E+00  0.00000000000E+00  0.88211781219E+03  0.88211781219E+03  0.25500000920E-02 0. -1.
       -2   -1    0    0    0  501  0.00000000000E+00  0.00000000000E+00 -0.72449536947E+03  0.72449536947E+03  0.25500000920E-02 0.  1.
    10030    2    1    2    0    0  0.00000000000E+00  0.00000000000E+00  0.15762244272E+03  0.16066131817E+04  0.15988624334E+04 0.  0.
        2    1    3    3  502    0 -0.36254899197E+03 -0.68982228049E+03 -0.10036109156E+03  0.78572826025E+03  0.25500000920E-02 0.  1.
       -2    1    3    3    0  502  0.36254899197E+03  0.68982228049E+03  0.25798353428E+03  0.82088492142E+03  0.25500000920E-02 0. -1.
</event>
<event>
 5   0  0.4959042E-05  0.2554318E+04  0.7818609E-02  0.8383886E-01
       -2   -1    0    0    0  501  0.00000000000E+00  0.00000000000E+00  0.17471826897E+04  0.17471826897E+04  0.25500000920E-02 0.  1.
        2   -1    0    0  501    0  0.00000000000E+00  0.00000000000E+00 -0.93358003967E+03  0.93358003968E+03  0.25500000920E-02 0. -1.
    10030    2    1    2    0    0  0.00000000000E+00  0.00000000000E+00  0.81360265004E+03  0.26807627294E+04  0.25543178227E+04 0.  0.
        4    1    3    3  502    0 -0.79260581678E+03  0.28409456587E+03  0.14146513261E+04  0.16462605172E+04  0.12699999809E+01 0.  1.
       -4    1    3    3    0  502  0.79260581678E+03 -0.28409456587E+03 -0.60104867606E+03  0.10345022122E+04  0.12699999809E+01 0. -1.
</event>
<event>
 5   0  0.5024070E-05  0.2553279E+04  0.7818609E-02  0.8384247E-01
        2   -1    0    0  501    0  0.00000000000E+00  0.00000000000E+00  0.12668799895E+04  0.12668799895E+04  0.25500000920E-02 0. -1.
       -2   -1    0    0    0  501  0.00000000000E+00  0.00000000000E+00 -0.12864744338E+04  0.12864744338E+04  0.25500000920E-02 0.  1.
    10030    2    1    2    0    0  0.00000000000E+00  0.00000000000E+00 -0.19594444220E+02  0.25533544233E+04  0.25532792383E+04 0.  0.
        5    1    3    3  502    0 -0.11306195442E+04 -0.57625934967E+03 -0.14912553411E+03  0.12777464173E+04  0.46999998093E+01 0.  1.
       -5    1    3    3    0  502  0.11306195442E+04  0.57625934967E+03  0.12953108989E+03  0.12756080061E+04  0.46999998093E+01 0. -1.
</event>
<event>
 5   0  0.2081874E-05  0.2591055E+04  0.7818609E-02  0.8371246E-01
        1   -1    0    0  501    0  0.00000000000E+00  0.00000000000E+00  0.19089709431E+04  0.19089709431E+04  0.50400001928E-02 0.  1.
       -1   -1    0    0    0  501  0.00000000000E+00  0.00000000000E+00 -0.87921299972E+03  0.87921299974E+03  0.50400001928E-02 0. -1.
    10030    2    1    2    0    0  0.00000000000E+00  0.00000000000E+00  0.10297579434E+04  0.27881839428E+04  0.25910554369E+04 0.  0.
        1    1    3    3  502    0  0.23032058626E+03  0.73645662693E+03  0.16347142877E+04  0.18076799325E+04  0.50400001928E-02 0.  1.
       -1    1    3    3    0  502 -0.23032058626E+03 -0.73645662693E+03 -0.60495634432E+03  0.98050401038E+03  0.50400001928E-02 0. -1.
</event>
<event>
 5   0  0.2041718E-05  0.2471718E+04  0.7818609E-02  0.8413131E-01
        1   -1    0    0  501    0  0.00000000000E+00  0.00000000000E+00  0.15243427292E+04  0.15243427292E+04  0.50400001928E-02 0.  1.
       -1   -1    0    0    0  501  0.00000000000E+00  0.00000000000E+00 -0.10019710182E+04  0.10019710182E+04  0.50400001928E-02 0. -1.
    10030    2    1    2    0    0  0.00000000000E+00  0.00000000000E+00  0.52237171103E+03  0.25263137474E+04  0.24717178127E+04 0.  0.
        4    1    3    3  502    0  0.47768928839E+03  0.11188883565E+04  0.39019948303E+02  0.12172191174E+04  0.12699999809E+01 0. -1.
       -4    1    3    3    0  502 -0.47768928839E+03 -0.11188883565E+04  0.48335176273E+03  0.13090946299E+04  0.12699999809E+01 0.  1.
</event>
<event>
 5   0  0.4995256E-05  0.2469392E+04  0.7818609E-02  0.8413971E-01
        2   -1    0    0  501    0  0.00000000000E+00  0.00000000000E+00  0.16939174064E+04  0.16939174064E+04  0.25500000920E-02 0. -1.
       -2   -1    0    0    0  501  0.00000000000E+00  0.00000000000E+00 -0.89996997989E+03  0.89996997989E+03  0.25500000920E-02 0.  1.
    10030    2    1    2    0    0  0.00000000000E+00  0.00000000000E+00  0.79394742655E+03  0.25938873863E+04  0.24693924874E+04 0.  0.
        2    1    3    3  502    0 -0.91240090969E+02 -0.33700394722E+03 -0.84703828142E+03  0.91617152588E+03  0.25500000920E-02 0.  1.
       -2    1    3    3    0  502  0.91240090969E+02  0.33700394722E+03  0.16409857080E+04  0.16777158605E+04  0.25500000920E-02 0. -1.
</event>
<event>
 5   0  0.5219468E-05  0.2524476E+04  0.7818609E-02  0.8394317E-01
        2   -1    0    0  501    0  0.00000000000E+00  0.00000000000E+00  0.16729315723E+04  0.16729315723E+04  0.25500000920E-02 0.  1.
       -2   -1    0    0    0  501  0.00000000000E+00  0.00000000000E+00 -0.95236697066E+03  0.95236697066E+03  0.25500000920E-02 0. -1.
    10030    2    1    2    0    0  0.00000000000E+00  0.00000000000E+00  0.72056460165E+03  0.26252985430E+04  0.25244760040E+04 0.  0.
        1    1    3    3  502    0 -0.46151060800E+03 -0.11472231249E+04  0.62363894577E+03  0.13849326605E+04  0.50400001928E-02 0.  1.
       -1    1    3    3    0  502  0.46151060800E+03  0.11472231249E+04  0.96925655875E+02  0.12403658824E+04  0.50400001928E-02 0. -1.
</event>
<event>
 5   0  0.5219468E-05  0.2602220E+04  0.7818609E-02  0.8367447E-01
        2   -1    0    0  501    0  0.00000000000E+00  0.00000000000E+00  0.19860614326E+04  0.19860614326E+04  0.25500000920E-02 0.  1.
       -2   -1    0    0    0  501  0.00000000000E+00  0.00000000000E+00 -0.85238424775E+03  0.85238424775E+03  0.25500000920E-02 0. -1.
    10030    2    1    2    0    0  0.00000000000E+00  0.00000000000E+00  0.11336771849E+04  0.28384456804E+04  0.26022201907E+04 0.  0.
        1    1    3    3  502    0 -0.80387873253E+03 -0.88764276374E+03  0.11216973188E+04  0.16408338026E+04  0.50400001928E-02 0.  1.
       -1    1    3    3    0  502  0.80387873253E+03  0.88764276374E+03  0.11979866064E+02  0.11976118778E+04  0.50400001928E-02 0. -1.
</event>
<event>
 5   0  0.2036578E-05  0.2508094E+04  0.7818609E-02  0.8400108E-01
       -1   -1    0    0    0  501  0.00000000000E+00  0.00000000000E+00  0.91070981066E+03  0.91070981068E+03  0.50400001928E-02 0.  1.
        1   -1    0    0  501    0  0.00000000000E+00  0.00000000000E+00 -0.17268225873E+04  0.17268225873E+04  0.50400001928E-02 0. -1.
    10030    2    1    2    0    0  0.00000000000E+00  0.00000000000E+00 -0.81611277664E+03  0.26375323980E+04  0.25080943137E+04 0.  0.
        2    1    3    3  502    0 -0.12012708410E+04  0.33806929466E+03 -0.53809822721E+03  0.13590041147E+04  0.25500000920E-02 0.  1.
       -2    1    3    3    0  502  0.12012708410E+04 -0.33806929466E+03 -0.27801454942E+03  0.12785282833E+04  0.25500000920E-02 0. -1.
</event>
<event>
 5   0  0.5024070E-05  0.2492692E+04  0.7818609E-02  0.8405594E-01
        2   -1    0    0  501    0  0.00000000000E+00  0.00000000000E+00  0.11445759377E+04  0.11445759377E+04  0.25500000920E-02 0. -1.
       -2   -1    0    0    0  501  0.00000000000E+00  0.00000000000E+00 -0.13571648142E+04  0.13571648142E+04  0.25500000920E-02 0.  1.
    10030    2    1    2    0    0  0.00000000000E+00  0.00000000000E+00 -0.21258887650E+03  0.25017407520E+04  0.24926918702E+04 0.  0.
        5    1    3    3  502    0 -0.50670482598E+03  0.72367899960E+03  0.77604148553E+03  0.11758926619E+04  0.46999998093E+01 0. -1.
       -5    1    3    3    0  502  0.50670482598E+03 -0.72367899960E+03 -0.98863036203E+03  0.13258480900E+04  0.46999998093E+01 0.  1.
</event>
<event>
 5   0  0.2041718E-05  0.2442863E+04  0.7818609E-02  0.8423628E-01
        1   -1    0    0  501    0  0.00000000000E+00  0.00000000000E+00  0.14593336845E+04  0.14593336845E+04  0.50400001928E-02 0. -1.
       -1   -1    0    0    0  501  0.00000000000E+00  0.00000000000E+00 -0.10223127993E+04  0.10223127993E+04  0.50400001928E-02 0.  1.
    10030    2    1    2    0    0  0.00000000000E+00  0.00000000000E+00  0.43702088520E+03  0.24816464838E+04  0.24428634871E+04 0.  0.
        4    1    3    3  502    0 -0.11317531143E+02 -0.28467928278E+03 -0.98808496820E+03  0.10283403609E+04  0.12699999809E+01 0.  1.
       -4    1    3    3    0  502  0.11317531143E+02  0.28467928278E+03  0.14251058534E+04  0.14533061229E+04  0.12699999809E+01 0. -1.
</event>
<event>
 5   0  0.2081874E-05  0.2468037E+04  0.7818609E-02  0.8414462E-01
       -1   -1    0    0    0  501  0.00000000000E+00  0.00000000000E+00  0.10533240576E+04  0.10533240576E+04  0.50400001928E-02 0.  1.
        1   -1    0    0  501    0  0.00000000000E+00  0.00000000000E+00 -0.14457106024E+04  0.14457106024E+04  0.50400001928E-02 0. -1.
    10030    2    1    2    0    0  0.00000000000E+00  0.00000000000E+00 -0.39238654480E+03  0.24990346600E+04  0.24680370806E+04 0.  0.
        1    1    3    3  502    0  0.21278620771E+03 -0.75098162409E+03  0.77160947874E+03  0.10975575418E+04  0.50400001928E-02 0.  1.
       -1    1    3    3    0  502 -0.21278620771E+03  0.75098162409E+03 -0.11639960235E+04  0.14014771182E+04  0.50400001928E-02 0. -1.
</event>
<event>
 5   0  0.2081874E-05  0.2498285E+04  0.7818609E-02  0.8403597E-01
       -1   -1    0    0    0  501  0.00000000000E+00  0.00000000000E+00  0.12186748863E+04  0.12186748863E+04  0.50400001928E-02 0.  1.
        1   -1    0    0  501    0  0.00000000000E+00  0.00000000000E+00 -0.12803716939E+04  0.12803716939E+04  0.50400001928E-02 0. -1.
    10030    2    1    2    0    0  0.00000000000E+00  0.00000000000E+00 -0.61696807550E+02  0.24990465802E+04  0.24982848745E+04 0.  0.
        1    1    3    3  502    0  0.45438515815E+03 -0.11327823168E+04  0.23511831340E+03  0.12429570670E+04  0.50400001928E-02 0.  1.
       -1    1    3    3    0  502 -0.45438515815E+03  0.11327823168E+04 -0.29681512095E+03  0.12560895132E+04  0.50400001928E-02 0. -1.
</event>
<event>
 5   0  0.2036578E-05  0.2457274E+04  0.7818609E-02  0.8418367E-01
       -1   -1    0    0    0  501  0.00000000000E+00  0.00000000000E+00  0.11105648790E+04  0.11105648790E+04  0.50400001928E-02 0. -1.
        1   -1    0    0  501    0  0.00000000000E+00  0.00000000000E+00 -0.13592625368E+04  0.13592625368E+04  0.50400001928E-02 0.  1.
    10030    2    1    2    0    0  0.00000000000E+00  0.00000000000E+00 -0.24869765787E+03  0.24698274158E+04  0.24572742905E+04 0.  0.
        2    1    3    3  502    0  0.12053287897E+04 -0.17107794041E+03  0.42220682365E+02  0.12181410998E+04  0.25500000920E-02 0. -1.
       -2    1    3    3    0  502 -0.12053287897E+04  0.17107794041E+03 -0.29091834023E+03  0.12516863160E+04  0.25500000920E-02 0.  1.
</event>
<event>
 5   0  0.2063930E-05  0.2492404E+04  0.7818609E-02  0.8405697E-01
        1   -1    0    0  501    0  0.00000000000E+00  0.00000000000E+00  0.14408307710E+04  0.14408307710E+04  0.50400001928E-02 0.  1.
       -1   -1    0    0    0  501  0.00000000000E+00  0.00000000000E+00 -0.10778638634E+04  0.10778638634E+04  0.50400001928E-02 0. -1.
    10030    2    1    2    0    0  0.00000000000E+00  0.00000000000E+00  0.36296690759E+03  0.25186946344E+04  0.24924039973E+04 0.  0.
        3    1    3    3  502    0  0.11842688843E+04 -0.93167323972E+02 -0.19911440897E+03  0.12044996881E+04  0.10100000352E+00 0. -1.
       -3    1    3    3    0  502 -0.11842688843E+04  0.93167323972E+02  0.56208131656E+03  0.13141949464E+04  0.10100000352E+00 0.  1.
</event>
<event>
 5   0  0.4959347E-05  0.1570883E+04  0.7818609E-02  0.8838638E-01
       -2   -1    0    0    0  501  0.00000000000E+00  0.00000000000E+00  0.54190007281E+03  0.54190007282E+03  0.25500000920E-02 0. -1.
        2   -1    0    0  501    0  0.00000000000E+00  0.00000000000E+00 -0.11384359362E+04  0.11384359362E+04  0.25500000920E-02 0.  1.
    10030    2    1    2    0    0  0.00000000000E+00  0.00000000000E+00 -0.59653586343E+03  0.16803360091E+04  0.15708832124E+04 0.  0.
        3    1    3    3  502    0 -0.60398780999E+03  0.40139267991E+03  0.24414760989E+02  0.72561246465E+03  0.10100000352E+00 0. -1.
       -3    1    3    3    0  502  0.60398780999E+03 -0.40139267991E+03 -0.62095062442E+03  0.95472354442E+03  0.10100000352E+00 0.  1.
</event>
<event>
 5   0  0.2063930E-05  0.1978107E+04  0.7818609E-02  0.8616925E-01
        1   -1    0    0  501    0  0.00000000000E+00  0.00000000000E+00  0.13364372502E+04  0.13364372503E+04  0.50400001928E-02 0.  1.
       -1   -1    0    0    0  501  0.00000000000E+00  0.00000000000E+00 -0.73196635830E+03  0.73196635831E+03  0.50400001928E-02 0. -1.
    10030    2    1    2    0    0  0.00000000000E+00  0.00000000000E+00  0.60447089195E+03  0.20684036086E+04  0.19781072844E+04 0.  0.
        3    1    3    3  502    0  0.88605241346E+03 -0.34058665363E+03  0.59265262533E+03  0.11190734080E+04  0.10100000352E+00 0.  1.
       -3    1    3    3    0  502 -0.88605241346E+03  0.34058665363E+03  0.11818266612E+02  0.94933020054E+03  0.10100000352E+00 0. -1.
</event>
<event>
 5   0  0.4959042E-05  0.2811145E+04  0.7818609E-02  0.8299816E-01
       -2   -1    0    0    0  501  0.00000000000E+00  0.00000000000E+00  0.13979012440E+04  0.13979012440E+04  0.25500000920E-02 0.  1.
        2   -1    0    0  501    0  0.00000000000E+00  0.00000000000E+00 -0.14132862813E+04  0.14132862813E+04  0.25500000920E-02 0. -1.
    10030    2    1    2    0    0  0.00000000000E+00  0.00000000000E+00 -0.15385037270E+02  0.28111875253E+04  0.28111454254E+04 0.  0.
        4    1    3    3  502    0 -0.36956422403E+03 -0.19479458258E+03 -0.13497671590E+04  0.14129386545E+04  0.12699999809E+01 0. -1.
       -4    1    3    3    0  502  0.36956422403E+03  0.19479458258E+03  0.13343821217E+04  0.13982488708E+04  0.12699999809E+01 0.  1.
</event>
<event>
 5   0  0.4959347E-05  0.2467251E+04  0.7818609E-02  0.8414746E-01
        2   -1    0    0  501    0  0.00000000000E+00  0.00000000000E+00  0.14083193100E+04  0.14083193100E+04  0.25500000920E-02 0. -1.
       -2   -1    0    0    0  501  0.00000000000E+00  0.00000000000E+00 -0.10806011527E+04  0.10806011527E+04  0.25500000920E-02 0.  1.
    10030    2    1    2    0    0  0.00000000000E+00  0.00000000000E+00  0.32771815730E+03  0.24889204627E+04  0.24672506721E+04 0.  0.
        3    1    3    3  502    0 -0.17896426515E+03 -0.85855579402E+03  0.10390532781E+04  0.13596977548E+04  0.10100000352E+00 0. -1.
       -3    1    3    3    0  502  0.17896426515E+03  0.85855579402E+03 -0.71133512078E+03  0.11292227078E+04  0.10100000352E+00 0.  1.
</event>
<event>
 5   0  0.4995256E-05  0.2221909E+04  0.7818609E-02  0.8509364E-01
        2   -1    0    0  501    0  0.00000000000E+00  0.00000000000E+00  0.13316221382E+04  0.13316221382E+04  0.25500000920E-02 0.  1.
       -2   -1    0    0    0  501  0.00000000000E+00  0.00000000000E+00 -0.92685421750E+03  0.92685421750E+03  0.25500000920E-02 0. -1.
    10030    2    1    2    0    0  0.00000000000E+00  0.00000000000E+00  0.40476792071E+03  0.22584763557E+04  0.22219087244E+04 0.  0.
        2    1    3    3  502    0  0.36557216570E+03 -0.78423394674E+03 -0.50590091730E+03  0.10022981740E+04  0.25500000920E-02 0. -1.
       -2    1    3    3    0  502 -0.36557216570E+03  0.78423394674E+03  0.91066883802E+03  0.12561781817E+04  0.25500000920E-02 0.  1.
</event>
<event>
 5   0  0.2066170E-05  0.2488587E+04  0.7818609E-02  0.8407063E-01
        1   -1    0    0  501    0  0.00000000000E+00  0.00000000000E+00  0.14725444913E+04  0.14725444913E+04  0.50400001928E-02 0.  1.
       -1   -1    0    0    0  501  0.00000000000E+00  0.00000000000E+00 -0.10514220195E+04  0.10514220195E+04  0.50400001928E-02 0. -1.
    10030    2    1    2    0    0  0.00000000000E+00  0.00000000000E+00  0.42112247180E+03  0.25239665107E+04  0.24885865087E+04 0.  0.
        5    1    3    3  502    0  0.12061230500E+04  0.24838067069E+03  0.39147275355E+03  0.12921682460E+04  0.46999998093E+01 0. -1.
       -5    1    3    3    0  502 -0.12061230500E+04 -0.24838067069E+03  0.29649718252E+02  0.12317982647E+04  0.46999998093E+01 0.  1.
</event>
<event>
 5   0  0.2081874E-05  0.2370308E+04  0.7818609E-02  0.8450704E-01
       -1   -1    0    0    0  501  0.00000000000E+00  0.00000000000E+00  0.10682627247E+04  0.10682627247E+04  0.50400001928E-02 0.  1.
        1   -1    0    0  501    0  0.00000000000E+00  0.00000000000E+00 -0.13148352835E+04  0.13148352835E+04  0.50400001928E-02 0. -1.
    10030    2    1    2    0    0  0.00000000000E+00  0.00000000000E+00 -0.24657255879E+03  0.23830980081E+04  0.23703075939E+04 0.  0.
        1    1    3    3  502    0 -0.17749599972E+03 -0.21091873144E+03 -0.12821543303E+04  0.13114538756E+04  0.50400001928E-02 0. -1.
       -1    1    3    3    0  502  0.17749599972E+03  0.21091873144E+03  0.10355817715E+04  0.10716441325E+04  0.50400001928E-02 0.  1.
</event>
<event>
 5   0  0.5219468E-05  0.2240061E+04  0.7818609E-02  0.8501936E-01
        2   -1    0    0  501    0  0.00000000000E+00  0.00000000000E+00  0.62960003963E+03  0.62960003963E+03  0.25500000920E-02 0.  1.
       -2   -1    0    0    0  501  0.00000000000E+00  0.00000000000E+00 -0.19924847149E+04  0.19924847149E+04  0.25500000920E-02 0. -1.
    10030    2    1    2    0    0  0.00000000000E+00  0.00000000000E+00 -0.13628846753E+04  0.26220847545E+04  0.22400611201E+04 0.  0.
        1    1    3    3  502    0  0.30953338208E+03 -0.52210363914E+03 -0.17832853690E+04  0.18837488771E+04  0.50400001928E-02 0. -1.
       -1    1    3    3    0  502 -0.30953338208E+03  0.52210363914E+03  0.42040069372E+03  0.73833587745E+03  0.50400001928E-02 0.  1.
</event>
<event>
 5   0  0.4959042E-05  0.2516071E+04  0.7818609E-02  0.8397282E-01
       -2   -1    0    0    0  501  0.00000000000E+00  0.00000000000E+00  0.10225213387E+04  0.10225213387E+04  0.25500000920E-02 0.  1.
        2   -1    0    0  501    0  0.00000000000E+00  0.00000000000E+00 -0.15477948814E+04  0.15477948814E+04  0.25500000920E-02 0. -1.
    10030    2    1    2    0    0  0.00000000000E+00  0.00000000000E+00 -0.52527354275E+03  0.25703162201E+04  0.25160709800E+04 0.  0.
        4    1    3    3  502    0  0.68154295726E+03 -0.19137902186E+03 -0.13250217936E+04  0.15022686508E+04  0.12699999809E+01 0. -1.
       -4    1    3    3    0  502 -0.68154295726E+03  0.19137902186E+03  0.79974825089E+03  0.10680475693E+04  0.12699999809E+01 0.  1.
</event>
<event>
 5   0  0.1692125E-05  0.2486581E+04  0.7818609E-02  0.8407782E-01
       -4   -1    0    0    0  501  0.00000000000E+00  0.00000000000E+00  0.15949406519E+04  0.15949411575E+04  0.12699999809E+01 0.  1.
        4   -1    0    0  501    0  0.00000000000E+00  0.00000000000E+00 -0.96917053110E+03  0.96917136320E+03  0.12699999809E+01 0. -1.
    10030    2    1    2    0    0  0.00000000000E+00  0.00000000000E+00  0.62577012080E+03  0.25641125207E+04  0.24865809407E+04 0.  0.
        1    1    3    3  502    0  0.35265330549E+03 -0.40885794343E+03 -0.84196380619E+03  0.10002160880E+04  0.50400001928E-02 0. -1.
       -1    1    3    3    0  502 -0.35265330549E+03  0.40885794343E+03  0.14677339270E+04  0.15638964327E+04  0.50400001928E-02 0.  1.
</event>
<event>
 5   0  0.4959347E-05  0.2507274E+04  0.7818609E-02  0.8400399E-01
        2   -1    0    0  501    0  0.00000000000E+00  0.00000000000E+00  0.12314380448E+04  0.12314380448E+04  0.25500000920E-02 0.  1.
       -2   -1    0    0    0  501  0.00000000000E+00  0.00000000000E+00 -0.12762363935E+04  0.12762363935E+04  0.25500000920E-02 0. -1.
    10030    2    1    2    0    0  0.00000000000E+00  0.00000000000E+00 -0.44798348728E+02  0.25076744383E+04  0.25072742563E+04 0.  0.
        3    1    3    3  502    0  0.16564235233E+03 -0.11619256903E+04 -0.46303428895E+03  0.12617089449E+04  0.10100000352E+00 0. -1.
       -3    1    3    3    0  502 -0.16564235233E+03  0.11619256903E+04  0.41823594022E+03  0.12459654933E+04  0.10100000352E+00 0.  1.
</event>
<event>
 5   0  0.4959042E-05  0.2467958E+04  0.7818609E-02  0.8414491E-01
       -2   -1    0    0    0  501  0.00000000000E+00  0.00000000000E+00  0.95278850090E+03  0.95278850090E+03  0.25500000920E-02 0. -1.
        2   -1    0    0  501    0  0.00000000000E+00  0.00000000000E+00 -0.15981550328E+04  0.15981550328E+04  0.25500000920E-02 0.  1.
    10030    2    1    2    0    0  0.00000000000E+00  0.00000000000E+00 -0.64536653193E+03  0.25509435337E+04  0.24679576479E+04 0.  0.
        4    1    3    3  502    0  0.37279498475E+03  0.10260824074E+04  0.27188127311E+03  0.11250521086E+04  0.12699999809E+01 0. -1.
       -4    1    3    3    0  502 -0.37279498475E+03 -0.10260824074E+04 -0.91724780505E+03  0.14258914251E+04  0.12699999809E+01 0.  1.
</event>
<event>
 5   0  0.2066170E-05  0.2541862E+04  0.7818609E-02  0.8388222E-01
       -1   -1    0    0    0  501  0.00000000000E+00  0.00000000000E+00  0.15140828465E+04  0.15140828465E+04  0.50400001928E-02 0. -1.
        1   -1    0    0  501    0  0.00000000000E+00  0.00000000000E+00 -0.10668277022E+04  0.10668277022E+04  0.50400001928E-02 0.  1.
    10030    2    1    2    0    0  0.00000000000E+00  0.00000000000E+00  0.44725514428E+03  0.25809105487E+04  0.25418619350E+04 0.  0.
        5    1    3    3  502    0  0.11540004247E+04  0.10313703213E+03  0.75404059011E+03  0.13823724278E+04  0.46999998093E+01 0. -1.
       -5    1    3    3    0  502 -0.11540004247E+04 -0.10313703213E+03 -0.30678544582E+03  0.11985381209E+04  0.46999998093E+01 0.  1.
</event>
<event>
 5   0  0.2036578E-05  0.2514402E+04  0.7818609E-02  0.8397873E-01
       -1   -1    0    0    0  501  0.00000000000E+00  0.00000000000E+00  0.89323350091E+03  0.89323350092E+03  0.50400001928E-02 0.  1.
        1   -1    0    0  501    0  0.00000000000E+00  0.00000000000E+00 -0.17694749095E+04  0.17694749095E+04  0.50400001928E-02 0. -1.
    10030    2    1    2    0    0  0.00000000000E+00  0.00000000000E+00 -0.87624140863E+03  0.26627084105E+04  0.25144019315E+04 0.  0.
        2    1    3    3  502    0 -0.26724479691E+03 -0.10941112034E+04  0.15344718677E+03  0.11366816380E+04  0.25500000920E-02 0.  1.
       -2    1    3    3    0  502  0.26724479691E+03  0.10941112034E+04 -0.10296885954E+04  0.15260267725E+04  0.25500000920E-02 0. -1.
</event>
<event>
 5   0  0.4959042E-05  0.2534395E+04  0.7818609E-02  0.8390834E-01
        2   -1    0    0  501    0  0.00000000000E+00  0.00000000000E+00  0.10978746145E+04  0.10978746145E+04  0.25500000920E-02 0. -1.
       -2   -1    0    0    0  501  0.00000000000E+00  0.00000000000E+00 -0.14626349286E+04  0.14626349286E+04  0.25500000920E-02 0.  1.
    10030    2    1    2    0    0  0.00000000000E+00  0.00000000000E+00 -0.36476031408E+03  0.25605095431E+04  0.25343952008E+04 0.  0.
        4    1    3    3  502    0  0.42644898513E+03  0.29307231089E+03 -0.13510350717E+04  0.14467368434E+04  0.12699999809E+01 0.  1.
       -4    1    3    3    0  502 -0.42644898513E+03 -0.29307231089E+03  0.98627475758E+03  0.11137726997E+04  0.12699999809E+01 0. -1.
</event>
<event>
 5   0  0.4959347E-05  0.2074507E+04  0.7818609E-02  0.8572557E-01
       -2   -1    0    0    0  501  0.00000000000E+00  0.00000000000E+00  0.75149338799E+03  0.75149338799E+03  0.25500000920E-02 0. -1.
        2   -1    0    0  501    0  0.00000000000E+00  0.00000000000E+00 -0.14316751195E+04  0.14316751195E+04  0.25500000920E-02 0.  1.
    10030    2    1    2    0    0  0.00000000000E+00  0.00000000000E+00 -0.68018173150E+03  0.21831685075E+04  0.20745065785E+04 0.  0.
        3    1    3    3  502    0  0.23700060428E+03  0.81825473755E+03 -0.96285093893E+03  0.12856095997E+04  0.10100000352E+00 0.  1.
       -3    1    3    3    0  502 -0.23700060428E+03 -0.81825473755E+03  0.28266920744E+03  0.89755890781E+03  0.10100000352E+00 0. -1.
</event>
<event>
 5   0  0.1692125E-05  0.2686816E+04  0.7818609E-02  0.8339295E-01
        3   -1    0    0  501    0  0.00000000000E+00  0.00000000000E+00  0.76121763951E+03  0.76121764621E+03  0.10100000352E+00 0.  1.
       -3   -1    0    0    0  501  0.00000000000E+00  0.00000000000E+00 -0.23708660642E+04  0.23708660663E+04  0.10100000352E+00 0. -1.
    10030    2    1    2    0    0  0.00000000000E+00  0.00000000000E+00 -0.16096484247E+04  0.31320837126E+04  0.26868160211E+04 0.  0.
        3    1    3    3  502    0  0.76472300839E+03 -0.11041030684E+04 -0.83979993681E+03  0.15840166695E+04  0.10100000352E+00 0. -1.
       -3    1    3    3    0  502 -0.76472300839E+03  0.11041030684E+04 -0.76984848788E+03  0.15480670430E+04  0.10100000352E+00 0.  1.
</event>
<event>
 5   0  0.4995256E-05  0.2522720E+04  0.7818609E-02  0.8394936E-01
       -2   -1    0    0    0  501  0.00000000000E+00  0.00000000000E+00  0.86669323821E+03  0.86669323821E+03  0.25500000920E-02 0.  1.
        2   -1    0    0  501    0  0.00000000000E+00  0.00000000000E+00 -0.18357463823E+04  0.18357463823E+04  0.25500000920E-02 0. -1.
    10030    2    1    2    0    0  0.00000000000E+00  0.00000000000E+00 -0.96905314406E+03  0.27024396205E+04  0.25227199421E+04 0.  0.
        2    1    3    3  502    0  0.71724946663E+03 -0.10325061735E+04 -0.37468821505E+03  0.13118334704E+04  0.25500000920E-02 0.  1.
       -2    1    3    3    0  502 -0.71724946663E+03  0.10325061735E+04 -0.59436492902E+03  0.13906061500E+04  0.25500000920E-02 0. -1.
</event>
<event>
 5   0  0.4959042E-05  0.2557028E+04  0.7818609E-02  0.8382946E-01
        2   -1    0    0  501    0  0.00000000000E+00  0.00000000000E+00  0.16289609942E+04  0.16289609942E+04  0.25500000920E-02 0.  1.
       -2   -1    0    0    0  501  0.00000000000E+00  0.00000000000E+00 -0.10034604081E+04  0.10034604081E+04  0.25500000920E-02 0. -1.
    10030    2    1    2    0    0  0.00000000000E+00  0.00000000000E+00  0.62550058608E+03  0.26324214023E+04  0.25570278559E+04 0.  0.
        4    1    3    3  502    0 -0.60279874530E+03 -0.54931831888E+03 -0.70090251086E+03  0.10753524471E+04  0.12699999809E+01 0. -1.
       -4    1    3    3    0  502  0.60279874530E+03  0.54931831888E+03  0.13264030969E+04  0.15570689552E+04  0.12699999809E+01 0.  1.
</event>
<event>
 5   0  0.2081874E-05  0.2513090E+04  0.7818609E-02  0.8398337E-01
       -1   -1    0    0    0  501  0.00000000000E+00  0.00000000000E+00  0.85178523876E+03  0.85178523877E+03  0.50400001928E-02 0.  1.
        1   -1    0    0  501    0  0.00000000000E+00  0.00000000000E+00 -0.18536423528E+04  0.18536423528E+04  0.50400001928E-02 0. -1.
    10030    2    1    2    0    0  0.00000000000E+00  0.00000000000E+00 -0.10018571140E+04  0.27054275915E+04  0.25130898862E+04 0.  0.
        1    1    3    3  502    0  0.10367183233E+04  0.32577679087E+03  0.17821855863E+03  0.11012162612E+04  0.50400001928E-02 0.  1.
       -1    1    3    3    0  502 -0.10367183233E+04 -0.32577679087E+03 -0.11800756726E+04  0.16042113304E+04  0.50400001928E-02 0. -1.
</event>
<event>
 5   0  0.4995256E-05  0.2444147E+04  0.7818609E-02  0.8423158E-01
        2   -1    0    0  501    0  0.00000000000E+00  0.00000000000E+00  0.19200286664E+04  0.19200286664E+04  0.25500000920E-02 0.  1.
       -2   -1    0    0    0  501  0.00000000000E+00  0.00000000000E+00 -0.77783419173E+03  0.77783419174E+03  0.25500000920E-02 0. -1.
    10030    2    1    2    0    0  0.00000000000E+00  0.00000000000E+00  0.11421944747E+04  0.26978628582E+04  0.24441472508E+04 0.  0.
        2    1    3    3  502    0 -0.52719481811E+03 -0.10826037262E+03 -0.63997860797E+03  0.83619812436E+03  0.25500000920E-02 0. -1.
       -2    1    3    3    0  502  0.52719481811E+03  0.10826037262E+03  0.17821730827E+04  0.18616647338E+04  0.25500000920E-02 0.  1.
</event>
<event>
 5   0  0.2066170E-05  0.1543641E+04  0.7818609E-02  0.8855940E-01
       -1   -1    0    0    0  501  0.00000000000E+00  0.00000000000E+00  0.10973015864E+04  0.10973015864E+04  0.50400001928E-02 0.  1.
        1   -1    0    0  501    0  0.00000000000E+00  0.00000000000E+00 -0.54288371443E+03  0.54288371445E+03  0.50400001928E-02 0. -1.
    10030    2    1    2    0    0  0.00000000000E+00  0.00000000000E+00  0.55441787193E+03  0.16401853008E+04  0.15436413587E+04 0.  0.
        5    1    3    3  502    0 -0.63429511601E+03 -0.12943972066E+03  0.72373007688E+03  0.97102638978E+03  0.46999998093E+01 0.  1.
       -5    1    3    3    0  502  0.63429511601E+03  0.12943972066E+03 -0.16931220495E+03  0.66915891103E+03  0.46999998093E+01 0. -1.
</event>
<event>
 5   0  0.2063930E-05  0.2506429E+04  0.7818609E-02  0.8400699E-01
       -1   -1    0    0    0  501  0.00000000000E+00  0.00000000000E+00  0.96618365066E+03  0.96618365068E+03  0.50400001928E-02 0. -1.
        1   -1    0    0  501    0  0.00000000000E+00  0.00000000000E+00 -0.16255150241E+04  0.16255150241E+04  0.50400001928E-02 0.  1.
    10030    2    1    2    0    0  0.00000000000E+00  0.00000000000E+00 -0.65933137346E+03  0.25916986748E+04  0.25064285669E+04 0.  0.
        3    1    3    3  502    0 -0.93901280883E+03 -0.42214552004E+03  0.40920270099E+03  0.11078802986E+04  0.10100000352E+00 0. -1.
       -3    1    3    3    0  502  0.93901280883E+03  0.42214552004E+03 -0.10685340744E+04  0.14838183762E+04  0.10100000352E+00 0.  1.
</event>
<event>
 5   0  0.5024070E-05  0.2406721E+04  0.7818609E-02  0.8436992E-01
       -2   -1    0    0    0  501  0.00000000000E+00  0.00000000000E+00  0.14710105608E+04  0.14710105608E+04  0.25500000920E-02 0.  1.
        2   -1    0    0  501    0  0.00000000000E+00  0.00000000000E+00 -0.98440900268E+03  0.98440900269E+03  0.25500000920E-02 0. -1.
    10030    2    1    2    0    0  0.00000000000E+00  0.00000000000E+00  0.48660155809E+03  0.24554195635E+04  0.24067206228E+04 0.  0.
        5    1    3    3  502    0  0.11932033645E+04  0.13052150237E+03  0.15622857116E+03  0.12104542900E+04  0.46999998093E+01 0. -1.
       -5    1    3    3    0  502 -0.11932033645E+04 -0.13052150237E+03  0.33037298693E+03  0.12449652735E+04  0.46999998093E+01 0.  1.
</event>
<event>
 5   0  0.2066170E-05  0.2504827E+04  0.7818609E-02  0.8401268E-01
       -1   -1    0    0    0  501  0.00000000000E+00  0.00000000000E+00  0.67790841936E+03  0.67790841938E+03  0.50400001928E-02 0. -1.
        1   -1    0    0  501    0  0.00000000000E+00  0.00000000000E+00 -0.23137924964E+04  0.23137924964E+04  0.50400001928E-02 0.  1.
    10030    2    1    2    0    0  0.00000000000E+00  0.00000000000E+00 -0.16358840770E+04  0.29917009158E+04  0.25048268715E+04 0.  0.
        5    1    3    3  502    0 -0.29963166672E+02 -0.10373206168E+04 -0.16553555809E+04  0.19537543455E+04  0.46999998093E+01 0.  1.
       -5    1    3    3    0  502  0.29963166672E+02  0.10373206168E+04  0.19471503822E+02  0.10379465703E+04  0.46999998093E+01 0. -1.
</event>
<event>
 5   0  0.4959347E-05  0.2450139E+04  0.7818609E-02  0.8420967E-01
        2   -1    0    0  501    0  0.00000000000E+00  0.00000000000E+00  0.23948824212E+04  0.23948824212E+04  0.25500000920E-02 0.  1.
       -2   -1    0    0    0  501  0.00000000000E+00  0.00000000000E+00 -0.62666738268E+03  0.62666738269E+03  0.25500000920E-02 0. -1.
    10030    2    1    2    0    0  0.00000000000E+00  0.00000000000E+00  0.17682150385E+04  0.30215498038E+04  0.24501385256E+04 0.  0.
        3    1    3    3  502    0 -0.85320517410E+03 -0.31455154376E+03  0.18964665772E+04  0.21032087941E+04  0.10100000352E+00 0.  1.
       -3    1    3    3    0  502  0.85320517410E+03  0.31455154376E+03 -0.12825153876E+03  0.91834100975E+03  0.10100000352E+00 0. -1.
</event>
<event>
 5   0  0.2081874E-05  0.2333321E+04  0.7818609E-02  0.8464898E-01
        1   -1    0    0  501    0  0.00000000000E+00  0.00000000000E+00  0.17106679674E+04  0.17106679674E+04  0.50400001928E-02 0.  1.
       -1   -1    0    0    0  501  0.00000000000E+00  0.00000000000E+00 -0.79565227137E+03  0.79565227139E+03  0.50400001928E-02 0. -1.
    10030    2    1    2    0    0  0.00000000000E+00  0.00000000000E+00  0.91501569607E+03  0.25063202388E+04  0.23333211128E+04 0.  0.
        1    1    3    3  502    0 -0.82538879707E+03  0.82318265185E+03  0.50789544496E+03  0.12715557902E+04  0.50400001928E-02 0.  1.
       -1    1    3    3    0  502  0.82538879707E+03 -0.82318265185E+03  0.40712025111E+03  0.12347644486E+04  0.50400001928E-02 0. -1.
</event>
<event>
 5   0  0.2066170E-05  0.2399035E+04  0.7818609E-02  0.8439865E-01
        1   -1    0    0  501    0  0.00000000000E+00  0.00000000000E+00  0.12735858988E+04  0.12735858988E+04  0.50400001928E-02 0.  1.
       -1   -1    0    0    0  501  0.00000000000E+00  0.00000000000E+00 -0.11297566061E+04  0.11297566062E+04  0.50400001928E-02 0. -1.
    10030    2    1    2    0    0  0.00000000000E+00  0.00000000000E+00  0.14382929268E+03  0.24033425050E+04  0.23990348749E+04 0.  0.
        5    1    3    3  502    0  0.20897368788E+03 -0.86654102668E+03 -0.73218256784E+03  0.11535496330E+04  0.46999998093E+01 0. -1.
       -5    1    3    3    0  502 -0.20897368788E+03  0.86654102668E+03  0.87601186052E+03  0.12497928720E+04  0.46999998093E+01 0.  1.
</event>
<event>
 5   0  0.4959347E-05  0.2510119E+04  0.7818609E-02  0.8399390E-01
       -2   -1    0    0    0  501  0.00000000000E+00  0.00000000000E+00  0.11881332638E+04  0.11881332638E+04  0.25500000920E-02 0.  1.
        2   -1    0    0  501    0  0.00000000000E+00  0.00000000000E+00 -0.13257553442E+04  0.13257553442E+04  0.25500000920E-02 0. -1.
    10030    2    1    2    0    0  0.00000000000E+00  0.00000000000E+00 -0.13762208038E+03  0.25138886080E+04  0.25101187415E+04 0.  0.
        3    1    3    3  502    0  0.37083072384E+03 -0.11012358491E+04 -0.54379983482E+03  0.12829474236E+04  0.10100000352E+00 0. -1.
       -3    1    3    3    0  502 -0.37083072384E+03  0.11012358491E+04  0.40617775443E+03  0.12309411844E+04  0.10100000352E+00 0.  1.
</event>
<event>
 5   0  0.5024070E-05  0.2533435E+04  0.7818609E-02  0.8391170E-01
        2   -1    0    0  501    0  0.00000000000E+00  0.00000000000E+00  0.12342085333E+04  0.12342085333E+04  0.25500000920E-02 0.  1.
       -2   -1    0    0    0  501  0.00000000000E+00  0.00000000000E+00 -0.13000829357E+04  0.13000829357E+04  0.25500000920E-02 0. -1.
    10030    2    1    2    0    0  0.00000000000E+00  0.00000000000E+00 -0.65874402406E+02  0.25342914690E+04  0.25334351803E+04 0.  0.
        5    1    3    3  502    0 -0.70796416464E+03  0.68128257102E+03 -0.83270236917E+03  0.12879342086E+04  0.46999998093E+01 0. -1.
       -5    1    3    3    0  502  0.70796416464E+03 -0.68128257102E+03  0.76682796676E+03  0.12463572604E+04  0.46999998093E+01 0.  1.
</event>
<event>
 5   0  0.5024070E-05  0.2472001E+04  0.7818609E-02  0.8413029E-01
       -2   -1    0    0    0  501  0.00000000000E+00  0.00000000000E+00  0.14072018391E+04  0.14072018391E+04  0.25500000920E-02 0. -1.
        2   -1    0    0  501    0  0.00000000000E+00  0.00000000000E+00 -0.10856279381E+04  0.10856279381E+04  0.25500000920E-02 0.  1.
    10030    2    1    2    0    0  0.00000000000E+00  0.00000000000E+00  0.32157390102E+03  0.24928297772E+04  0.24720013196E+04 0.  0.
        5    1    3    3  502    0 -0.11638720971E+04 -0.12569686425E+03 -0.23913692828E+03  0.11948248912E+04  0.46999998093E+01 0.  1.
       -5    1    3    3    0  502  0.11638720971E+04  0.12569686425E+03  0.56071082930E+03  0.12980048860E+04  0.46999998093E+01 0. -1.
</event>
<event>
 5   0  0.2041718E-05  0.2628185E+04  0.7818609E-02  0.8358690E-01
        1   -1    0    0  501    0  0.00000000000E+00  0.00000000000E+00  0.12745773781E+04  0.12745773781E+04  0.50400001928E-02 0.  1.
       -1   -1    0    0    0  501  0.00000000000E+00  0.00000000000E+00 -0.13548327518E+04  0.13548327518E+04  0.50400001928E-02 0. -1.
    10030    2    1    2    0    0  0.00000000000E+00  0.00000000000E+00 -0.80255373667E+02  0.26294101299E+04  0.26281850594E+04 0.  0.
        4    1    3    3  502    0  0.59388150637E+03  0.45832871077E+03  0.10392992832E+04  0.12817585825E+04  0.12699999809E+01 0.  1.
       -4    1    3    3    0  502 -0.59388150637E+03 -0.45832871077E+03 -0.11195546569E+04  0.13476515474E+04  0.12699999809E+01 0. -1.
</event>
<event>
 5   0  0.1692125E-05  0.2581906E+04  0.7818609E-02  0.8374374E-01
        3   -1    0    0  501    0  0.00000000000E+00  0.00000000000E+00  0.23550040762E+04  0.23550040784E+04  0.10100000352E+00 0.  1.
       -3   -1    0    0    0  501  0.00000000000E+00  0.00000000000E+00 -0.70766718362E+03  0.70766719083E+03  0.10100000352E+00 0. -1.
    10030    2    1    2    0    0  0.00000000000E+00  0.00000000000E+00  0.16473368926E+04  0.30626712692E+04  0.25819055880E+04 0.  0.
        4    1    3    3  502    0 -0.17221663857E+03  0.12326128196E+04  0.41694589188E+03  0.13125693975E+04  0.12699999809E+01 0. -1.
       -4    1    3    3    0  502  0.17221663857E+03 -0.12326128196E+04  0.12303910007E+04  0.17501018717E+04  0.12699999809E+01 0.  1.
</event>
<event>
 5   0  0.2041718E-05  0.2251933E+04  0.7818609E-02  0.8497118E-01
       -1   -1    0    0    0  501  0.00000000000E+00  0.00000000000E+00  0.45801828082E+03  0.45801828085E+03  0.50400001928E-02 0.  1.
        1   -1    0    0  501    0  0.00000000000E+00  0.00000000000E+00 -0.27680122970E+04  0.27680122970E+04  0.50400001928E-02 0. -1.
    10030    2    1    2    0    0  0.00000000000E+00  0.00000000000E+00 -0.23099940161E+04  0.32260305778E+04  0.22519327109E+04 0.  0.
        4    1    3    3  502    0 -0.10209115134E+04 -0.38519672165E+03 -0.15529339077E+04  0.18979573670E+04  0.12699999809E+01 0. -1.
       -4    1    3    3    0  502  0.10209115134E+04  0.38519672165E+03 -0.75706010843E+03  0.13280732108E+04  0.12699999809E+01 0.  1.
</event>
<event>
 5   0  0.2063930E-05  0.2476840E+04  0.7818609E-02  0.8411283E-01
       -1   -1    0    0    0  501  0.00000000000E+00  0.00000000000E+00  0.64217913900E+03  0.64217913902E+03  0.50400001928E-02 0.  1.
        1   -1    0    0  501    0  0.00000000000E+00  0.00000000000E+00 -0.23882502720E+04  0.23882502720E+04  0.50400001928E-02 0. -1.
    10030    2    1    2    0    0  0.00000000000E+00  0.00000000000E+00 -0.17460711330E+04  0.30304294110E+04  0.24768403287E+04 0.  0.
        3    1    3    3  502    0  0.11630600167E+04  0.33488333011E+03 -0.11940259614E+04  0.17001627728E+04  0.10100000352E+00 0. -1.
       -3    1    3    3    0  502 -0.11630600167E+04 -0.33488333011E+03 -0.55204517163E+03  0.13302666383E+04  0.10100000352E+00 0.  1.
</event>
<event>
 5   0  0.2081874E-05  0.2520003E+04  0.7818609E-02  0.8395894E-01
        1   -1    0    0  501    0  0.00000000000E+00  0.00000000000E+00  0.14828271172E+04  0.14828271173E+04  0.50400001928E-02 0.  1.
       -1   -1    0    0    0  501  0.00000000000E+00  0.00000000000E+00 -0.10706599801E+04  0.10706599801E+04  0.50400001928E-02 0. -1.
    10030    2    1    2    0    0  0.00000000000E+00  0.00000000000E+00  0.41216713718E+03  0.25534870973E+04  0.25200028983E+04 0.  0.
        1    1    3    3  502    0  0.51888103831E+03 -0.14802658074E+03  0.13598322709E+04  0.14629740960E+04  0.50400001928E-02 0.  1.
       -1    1    3    3    0  502 -0.51888103831E+03  0.14802658074E+03 -0.94766513369E+03  0.10905130014E+04  0.50400001928E-02 0. -1.
</event>
<event>
 5   0  0.5024070E-05  0.2481918E+04  0.7818609E-02  0.8409456E-01
        2   -1    0    0  501    0  0.00000000000E+00  0.00000000000E+00  0.12323415082E+04  0.12323415082E+04  0.25500000920E-02 0.  1.
       -2   -1    0    0    0  501  0.00000000000E+00  0.00000000000E+00 -0.12496372465E+04  0.12496372465E+04  0.25500000920E-02 0. -1.
    10030    2    1    2    0    0  0.00000000000E+00  0.00000000000E+00 -0.17295738267E+02  0.24819787547E+04  0.24819184910E+04 0.  0.
        5    1    3    3  502    0 -0.10616530203E+04 -0.52057502309E+03 -0.38528981786E+03  0.12436140173E+04  0.46999998093E+01 0. -1.
       -5    1    3    3    0  502  0.10616530203E+04  0.52057502309E+03  0.36799407959E+03  0.12383647374E+04  0.46999998093E+01 0.  1.
</event>
<event>
 5   0  0.5024070E-05  0.2702832E+04  0.7818609E-02  0.8334087E-01
       -2   -1    0    0    0  501  0.00000000000E+00  0.00000000000E+00  0.12210185209E+04  0.12210185209E+04  0.25500000920E-02 0.  1.
        2   -1    0    0  501    0  0.00000000000E+00  0.00000000000E+00 -0.14957389648E+04  0.14957389648E+04  0.25500000920E-02 0. -1.
    10030    2    1    2    0    0  0.00000000000E+00  0.00000000000E+00 -0.27472044397E+03  0.27167574857E+04  0.27028318323E+04 0.  0.
        5    1    3    3  502    0 -0.12164880501E+03  0.98817735121E+03  0.78113664685E+03  0.12654996880E+04  0.46999998093E+01 0.  1.
       -5    1    3    3    0  502  0.12164880501E+03 -0.98817735121E+03 -0.10558570908E+04  0.14512577977E+04  0.46999998093E+01 0. -1.
</event>
<event>
 5   0  0.5024070E-05  0.2502955E+04  0.7818609E-02  0.8401934E-01
        2   -1    0    0  501    0  0.00000000000E+00  0.00000000000E+00  0.17359789141E+04  0.17359789141E+04  0.25500000920E-02 0.  1.
       -2   -1    0    0    0  501  0.00000000000E+00  0.00000000000E+00 -0.90219727908E+03  0.90219727908E+03  0.25500000920E-02 0. -1.
    10030    2    1    2    0    0  0.00000000000E+00  0.00000000000E+00  0.83378163501E+03  0.26381761932E+04  0.25029546163E+04 0.  0.
        5    1    3    3  502    0  0.70401893021E+03  0.58965509050E+02  0.15056804472E+04  0.16631943015E+04  0.46999998093E+01 0.  1.
       -5    1    3    3    0  502 -0.70401893021E+03 -0.58965509050E+02 -0.67189881218E+03  0.97498189171E+03  0.46999998093E+01 0. -1.
</event>
<event>
 5   0  0.2081874E-05  0.2593217E+04  0.7818609E-02  0.8370509E-01
       -1   -1    0    0    0  501  0.00000000000E+00  0.00000000000E+00  0.91303993940E+03  0.91303993941E+03  0.50400001928E-02 0. -1.
        1   -1    0    0  501    0  0.00000000000E+00  0.00000000000E+00 -0.18413140817E+04  0.18413140817E+04  0.50400001928E-02 0.  1.
    10030    2    1    2    0    0  0.00000000000E+00  0.00000000000E+00 -0.92827414228E+03  0.27543540211E+04  0.25932167650E+04 0.  0.
        1    1    3    3  502    0 -0.62241957954E+03 -0.31250527495E+03 -0.16257720967E+04  0.17686719850E+04  0.50400001928E-02 0.  1.
       -1    1    3    3    0  502  0.62241957954E+03  0.31250527495E+03  0.69749795445E+03  0.98568203613E+03  0.50400001928E-02 0. -1.
</event>
<event>
 5   0  0.5219468E-05  0.2532782E+04  0.7818609E-02  0.8391399E-01
       -2   -1    0    0    0  501  0.00000000000E+00  0.00000000000E+00  0.14010855124E+04  0.14010855124E+04  0.25500000920E-02 0.  1.
        2   -1    0    0  501    0  0.00000000000E+00  0.00000000000E+00 -0.11446453755E+04  0.11446453755E+04  0.25500000920E-02 0. -1.
    10030    2    1    2    0    0  0.00000000000E+00  0.00000000000E+00  0.25644013687E+03  0.25457308879E+04  0.25327819112E+04 0.  0.
        1    1    3    3  502    0  0.34201768283E+03 -0.14865172518E+03 -0.10882039253E+04  0.11503309149E+04  0.50400001928E-02 0. -1.
       -1    1    3    3    0  502 -0.34201768283E+03  0.14865172518E+03  0.13446440622E+04  0.13953999730E+04  0.50400001928E-02 0.  1.
</event>
<event>
 5   0  0.5219468E-05  0.2272739E+04  0.7818609E-02  0.8488748E-01
        2   -1    0    0  501    0  0.00000000000E+00  0.00000000000E+00  0.15579870401E+04  0.15579870401E+04  0.25500000920E-02 0.  1.
       -2   -1    0    0    0  501  0.00000000000E+00  0.00000000000E+00 -0.82884877168E+03  0.82884877168E+03  0.25500000920E-02 0. -1.
    10030    2    1    2    0    0  0.00000000000E+00  0.00000000000E+00  0.72913826839E+03  0.23868358118E+04  0.22727390035E+04 0.  0.
        1    1    3    3  502    0 -0.58267647837E+03 -0.91297283621E+03  0.33478210741E+01  0.10830708592E+04  0.50400001928E-02 0. -1.
       -1    1    3    3    0  502  0.58267647837E+03  0.91297283621E+03  0.72579044732E+03  0.13037649526E+04  0.50400001928E-02 0.  1.
</event>
<event>
 5   0  0.2063930E-05  0.2571346E+04  0.7818609E-02  0.8378000E-01
       -1   -1    0    0    0  501  0.00000000000E+00  0.00000000000E+00  0.77792075643E+03  0.77792075644E+03  0.50400001928E-02 0.  1.
        1   -1    0    0  501    0  0.00000000000E+00  0.00000000000E+00 -0.21248379022E+04  0.21248379022E+04  0.50400001928E-02 0. -1.
    10030    2    1    2    0    0  0.00000000000E+00  0.00000000000E+00 -0.13469171458E+04  0.29027586587E+04  0.25713463464E+04 0.  0.
        3    1    3    3  502    0 -0.11283654672E+04 -0.41297134864E+02  0.20638227967E+02  0.11293095358E+04  0.10100000352E+00 0.  1.
       -3    1    3    3    0  502  0.11283654672E+04  0.41297134864E+02 -0.13675553738E+04  0.17734491229E+04  0.10100000352E+00 0. -1.
</event>
<event>
 5   0  0.4959042E-05  0.2515312E+04  0.7818609E-02  0.8397551E-01
       -2   -1    0    0    0  501  0.00000000000E+00  0.00000000000E+00  0.62626563103E+03  0.62626563103E+03  0.25500000920E-02 0. -1.
        2   -1    0    0  501    0  0.00000000000E+00  0.00000000000E+00 -0.25256027271E+04  0.25256027271E+04  0.25500000920E-02 0.  1.
    10030    2    1    2    0    0  0.00000000000E+00  0.00000000000E+00 -0.18993370961E+04  0.31518683582E+04  0.25153116591E+04 0.  0.
        4    1    3    3  502    0  0.15204697520E+02 -0.10231566832E+04 -0.33454053900E+02  0.10238171555E+04  0.12699999809E+01 0. -1.
       -4    1    3    3    0  502 -0.15204697520E+02  0.10231566832E+04 -0.18658830422E+04  0.21280512027E+04  0.12699999809E+01 0.  1.
</event>
<event>
 5   0  0.2036578E-05  0.2837589E+04  0.7818609E-02  0.8291693E-01
        1   -1    0    0  501    0  0.00000000000E+00  0.00000000000E+00  0.16119691410E+04  0.16119691410E+04  0.50400001928E-02 0.  1.
       -1   -1    0    0    0  501  0.00000000000E+00  0.00000000000E+00 -0.12487693650E+04  0.12487693650E+04  0.50400001928E-02 0. -1.
    10030    2    1    2    0    0  0.00000000000E+00  0.00000000000E+00  0.36319977599E+03  0.28607385059E+04  0.28375888924E+04 0.  0.
        2    1    3    3  502    0  0.69086581269E+02  0.94439069551E+03 -0.88358541825E+03  0.12951331719E+04  0.25500000920E-02 0. -1.
       -2    1    3    3    0  502 -0.69086581269E+02 -0.94439069551E+03  0.12467851942E+04  0.15656053341E+04  0.25500000920E-02 0.  1.
</event>
<event>
 5   0  0.4995256E-05  0.2500352E+04  0.7818609E-02  0.8402860E-01
       -2   -1    0    0    0  501  0.00000000000E+00  0.00000000000E+00  0.11645923800E+04  0.11645923800E+04  0.25500000920E-02 0. -1.
        2   -1    0    0  501    0  0.00000000000E+00  0.00000000000E+00 -0.13420492149E+04  0.13420492149E+04  0.25500000920E-02 0.  1.
    10030    2    1    2    0    0  0.00000000000E+00  0.00000000000E+00 -0.17745683488E+03  0.25066415949E+04  0.25003522066E+04 0.  0.
        2    1    3    3  502    0 -0.68128089451E+03  0.38122943223E+03  0.89018090264E+03  0.11840192467E+04  0.25500000920E-02 0. -1.
       -2    1    3    3    0  502  0.68128089451E+03 -0.38122943223E+03 -0.10676377375E+04  0.13226223481E+04  0.25500000920E-02 0.  1.
</event>
<event>
 5   0  0.2081874E-05  0.2525692E+04  0.7818609E-02  0.8393889E-01
       -1   -1    0    0    0  501  0.00000000000E+00  0.00000000000E+00  0.10311282030E+04  0.10311282030E+04  0.50400001928E-02 0.  1.
        1   -1    0    0  501    0  0.00000000000E+00  0.00000000000E+00 -0.15466357273E+04  0.15466357273E+04  0.50400001928E-02 0. -1.
    10030    2    1    2    0    0  0.00000000000E+00  0.00000000000E+00 -0.51550752424E+03  0.25777639303E+04  0.25256917612E+04 0.  0.
        1    1    3    3  502    0 -0.58239099833E+03 -0.11180849669E+04 -0.33335144917E+03  0.13040001752E+04  0.50400001928E-02 0.  1.
       -1    1    3    3    0  502  0.58239099833E+03  0.11180849669E+04 -0.18215607507E+03  0.12737637551E+04  0.50400001928E-02 0. -1.
</event>
<event>
 5   0  0.4995256E-05  0.2499884E+04  0.7818609E-02  0.8403027E-01
        2   -1    0    0  501    0  0.00000000000E+00  0.00000000000E+00  0.11708885920E+04  0.11708885920E+04  0.25500000920E-02 0.  1.
       -2   -1    0    0    0  501  0.00000000000E+00  0.00000000000E+00 -0.13343322423E+04  0.13343322423E+04  0.25500000920E-02 0. -1.
    10030    2    1    2    0    0  0.00000000000E+00  0.00000000000E+00 -0.16344365028E+03  0.25052208343E+04  0.24998835177E+04 0.  0.
        2    1    3    3  502    0  0.79288332328E+03  0.50878918130E+03  0.74150877133E+03  0.11989018531E+04  0.25500000920E-02 0.  1.
       -2    1    3    3    0  502 -0.79288332328E+03 -0.50878918130E+03 -0.90495242161E+03  0.13063189812E+04  0.25500000920E-02 0. -1.
</event>
<event>
 5   0  0.5024070E-05  0.2420045E+04  0.7818609E-02  0.8432037E-01
       -2   -1    0    0    0  501  0.00000000000E+00  0.00000000000E+00  0.13169903138E+04  0.13169903138E+04  0.25500000920E-02 0. -1.
        2   -1    0    0  501    0  0.00000000000E+00  0.00000000000E+00 -0.11117428720E+04  0.11117428720E+04  0.25500000920E-02 0.  1.
    10030    2    1    2    0    0  0.00000000000E+00  0.00000000000E+00  0.20524744178E+03  0.24287331858E+04  0.24200451185E+04 0.  0.
        5    1    3    3  502    0  0.69568588276E+03  0.70716830270E-02 -0.89095761830E+03  0.11304009975E+04  0.46999998093E+01 0.  1.
       -5    1    3    3    0  502 -0.69568588276E+03 -0.70716830270E-02  0.10962050601E+04  0.12983321883E+04  0.46999998093E+01 0. -1.
</event>
<event>
 5   0  0.5024070E-05  0.1752692E+04  0.7818609E-02  0.8731870E-01
       -2   -1    0    0    0  501  0.00000000000E+00  0.00000000000E+00  0.85516398855E+03  0.85516398856E+03  0.25500000920E-02 0.  1.
        2   -1    0    0  501    0  0.00000000000E+00  0.00000000000E+00 -0.89805310390E+03  0.89805310390E+03  0.25500000920E-02 0. -1.
    10030    2    1    2    0    0  0.00000000000E+00  0.00000000000E+00 -0.42889115347E+02  0.17532170925E+04  0.17526924137E+04 0.  0.
        5    1    3    3  502    0  0.15212747036E+03  0.72576621370E+02 -0.88167318709E+03  0.89765240045E+03  0.46999998093E+01 0. -1.
       -5    1    3    3    0  502 -0.15212747036E+03 -0.72576621370E+02  0.83878407174E+03  0.85556469201E+03  0.46999998093E+01 0.  1.
</event>
<event>
 5   0  0.1692125E-05  0.2538380E+04  0.7818609E-02  0.8389439E-01
        4   -1    0    0  501    0  0.00000000000E+00  0.00000000000E+00  0.14031171136E+04  0.14031176883E+04  0.12699999809E+01 0. -1.
       -4   -1    0    0    0  501  0.00000000000E+00  0.00000000000E+00 -0.11480453692E+04  0.11480460717E+04  0.12699999809E+01 0.  1.
    10030    2    1    2    0    0  0.00000000000E+00  0.00000000000E+00  0.25507174435E+03  0.25511637600E+04  0.25383803765E+04 0.  0.
        5    1    3    3  502    0 -0.59014357225E+03  0.11384193344E+03  0.12510170270E+04  0.13879103406E+04  0.46999998093E+01 0. -1.
       -5    1    3    3    0  502  0.59014357225E+03 -0.11384193344E+03 -0.99594528267E+03  0.11632534194E+04  0.46999998093E+01 0.  1.
</event>
<event>
 5   0  0.2063930E-05  0.2484918E+04  0.7818609E-02  0.8408378E-01
        1   -1    0    0  501    0  0.00000000000E+00  0.00000000000E+00  0.10818394971E+04  0.10818394971E+04  0.50400001928E-02 0.  1.
       -1   -1    0    0    0  501  0.00000000000E+00  0.00000000000E+00 -0.14269255181E+04  0.14269255181E+04  0.50400001928E-02 0. -1.
    10030    2    1    2    0    0  0.00000000000E+00  0.00000000000E+00 -0.34508602100E+03  0.25087650152E+04  0.24849180147E+04 0.  0.
        3    1    3    3  502    0  0.24908409804E+03  0.50587566580E+03 -0.12903043929E+04  0.14081329886E+04  0.10100000352E+00 0. -1.
       -3    1    3    3    0  502 -0.24908409804E+03 -0.50587566580E+03  0.94521837190E+03  0.11006320266E+04  0.10100000352E+00 0.  1.
</event>
<event>
 5   0  0.2063930E-05  0.2559617E+04  0.7818609E-02  0.8382049E-01
       -1   -1    0    0    0  501  0.00000000000E+00  0.00000000000E+00  0.12020372443E+04  0.12020372443E+04  0.50400001928E-02 0. -1.
        1   -1    0    0  501    0  0.00000000000E+00  0.00000000000E+00 -0.13626111851E+04  0.13626111851E+04  0.50400001928E-02 0.  1.
    10030    2    1    2    0    0  0.00000000000E+00  0.00000000000E+00 -0.16057394077E+03  0.25646484294E+04  0.25596166854E+04 0.  0.
        3    1    3    3  502    0  0.45260205411E+03  0.57010793981E+03  0.97441601495E+03  0.12162887251E+04  0.10100000352E+00 0. -1.
       -3    1    3    3    0  502 -0.45260205411E+03 -0.57010793981E+03 -0.11349899557E+04  0.13483597043E+04  0.10100000352E+00 0.  1.
</event>
<event>
 5   0  0.2066170E-05  0.2446612E+04  0.7818609E-02  0.8422256E-01
        1   -1    0    0  501    0  0.00000000000E+00  0.00000000000E+00  0.17040388591E+04  0.17040388591E+04  0.50400001928E-02 0.  1.
       -1   -1    0    0    0  501  0.00000000000E+00  0.00000000000E+00 -0.87819484124E+03  0.87819484126E+03  0.50400001928E-02 0. -1.
    10030    2    1    2    0    0  0.00000000000E+00  0.00000000000E+00  0.82584401784E+03  0.25822337003E+04  0.24466124625E+04 0.  0.
        5    1    3    3  502    0 -0.36836333277E+03  0.87942563270E+03  0.12218094848E+04  0.15498133744E+04  0.46999998093E+01 0.  1.
       -5    1    3    3    0  502  0.36836333277E+03 -0.87942563270E+03 -0.39596546696E+03  0.10324203259E+04  0.46999998093E+01 0. -1.
</event>
<event>
 5   0  0.5219468E-05  0.2552807E+04  0.7818609E-02  0.8384411E-01
        2   -1    0    0  501    0  0.00000000000E+00  0.00000000000E+00  0.13878584931E+04  0.13878584932E+04  0.25500000920E-02 0.  1.
       -2   -1    0    0    0  501  0.00000000000E+00  0.00000000000E+00 -0.11738990658E+04  0.11738990658E+04  0.25500000920E-02 0. -1.
    10030    2    1    2    0    0  0.00000000000E+00  0.00000000000E+00  0.21395942737E+03  0.25617575589E+04  0.25528069167E+04 0.  0.
        1    1    3    3  502    0 -0.33363201180E+03 -0.11417590713E+04  0.57150845766E+03  0.13196764806E+04  0.50400001928E-02 0.  1.
       -1    1    3    3    0  502  0.33363201180E+03  0.11417590713E+04 -0.35754903029E+03  0.12420810784E+04  0.50400001928E-02 0. -1.
</event>
<event>
 5   0  0.2066170E-05  0.2474291E+04  0.7818609E-02  0.8412202E-01
        1   -1    0    0  501    0  0.00000000000E+00  0.00000000000E+00  0.11023977927E+04  0.11023977927E+04  0.50400001928E-02 0. -1.
       -1   -1    0    0    0  501  0.00000000000E+00  0.00000000000E+00 -0.13883635942E+04  0.13883635942E+04  0.50400001928E-02 0.  1.
    10030    2    1    2    0    0  0.00000000000E+00  0.00000000000E+00 -0.28596580149E+03  0.24907613869E+04  0.24742909786E+04 0.  0.
        5    1    3    3  502    0 -0.12370585849E+04  0.57029008372E+01 -0.13023343485E+03  0.12439169197E+04  0.46999998093E+01 0. -1.
       -5    1    3    3    0  502  0.12370585849E+04 -0.57029008372E+01 -0.15573236664E+03  0.12468444672E+04  0.46999998093E+01 0.  1.
</event>
<event>
 5   0  0.5219468E-05  0.2505848E+04  0.7818609E-02  0.8400905E-01
        2   -1    0    0  501    0  0.00000000000E+00  0.00000000000E+00  0.17720953910E+04  0.17720953910E+04  0.25500000920E-02 0. -1.
       -2   -1    0    0    0  501  0.00000000000E+00  0.00000000000E+00 -0.88585412588E+03  0.88585412588E+03  0.25500000920E-02 0.  1.
    10030    2    1    2    0    0  0.00000000000E+00  0.00000000000E+00  0.88624126510E+03  0.26579495169E+04  0.25058475720E+04 0.  0.
        1    1    3    3  502    0  0.50812783809E+03  0.10696487111E+04  0.87719889898E+03  0.14737096639E+04  0.50400001928E-02 0. -1.
       -1    1    3    3    0  502 -0.50812783809E+03 -0.10696487111E+04  0.90423661225E+01  0.11842398530E+04  0.50400001928E-02 0.  1.
</event>
<event>
 5   0  0.4959347E-05  0.2556733E+04  0.7818609E-02  0.8383048E-01
        2   -1    0    0  501    0  0.00000000000E+00  0.00000000000E+00  0.16524603126E+04  0.16524603126E+04  0.25500000920E-02 0. -1.
       -2   -1    0    0    0  501  0.00000000000E+00  0.00000000000E+00 -0.98896242537E+03  0.98896242537E+03  0.25500000920E-02 0.  1.
    10030    2    1    2    0    0  0.00000000000E+00  0.00000000000E+00  0.66349788725E+03  0.26414227380E+04  0.25567331958E+04 0.  0.
        3    1    3    3  502    0 -0.47813308774E+03  0.78357715207E+03 -0.58745099797E+03  0.10898179151E+04  0.10100000352E+00 0.  1.
       -3    1    3    3    0  502  0.47813308774E+03 -0.78357715207E+03  0.12509488852E+04  0.15516048229E+04  0.10100000352E+00 0. -1.
</event>
<event>
 5   0  0.4995256E-05  0.2493223E+04  0.7818609E-02  0.8405404E-01
       -2   -1    0    0    0  501  0.00000000000E+00  0.00000000000E+00  0.15826952133E+04  0.15826952133E+04  0.25500000920E-02 0.  1.
        2   -1    0    0  501    0  0.00000000000E+00  0.00000000000E+00 -0.98189497211E+03  0.98189497212E+03  0.25500000920E-02 0. -1.
    10030    2    1    2    0    0  0.00000000000E+00  0.00000000000E+00  0.60080024119E+03  0.25645901854E+04  0.24932231928E+04 0.  0.
        2    1    3    3  502    0 -0.28170488739E+03  0.12009461060E+04  0.48558473617E+03  0.13256778376E+04  0.25500000920E-02 0. -1.
       -2    1    3    3    0  502  0.28170488739E+03 -0.12009461060E+04  0.11521550503E+03  0.12389123478E+04  0.25500000920E-02 0.  1.
</event>
<event>
 5   0  0.2036578E-05  0.2591932E+04  0.7818609E-02  0.8370947E-01
        1   -1    0    0  501    0  0.00000000000E+00  0.00000000000E+00  0.19050391493E+04  0.19050391493E+04  0.50400001928E-02 0. -1.
       -1   -1    0    0    0  501  0.00000000000E+00  0.00000000000E+00 -0.88162409203E+03  0.88162409204E+03  0.50400001928E-02 0.  1.
    10030    2    1    2    0    0  0.00000000000E+00  0.00000000000E+00  0.10234150573E+04  0.27866632414E+04  0.25919324145E+04 0.  0.
        2    1    3    3  502    0  0.10232714369E+04  0.78717812860E+03  0.63331875686E+03  0.14379939108E+04  0.25500000920E-02 0. -1.
       -2    1    3    3    0  502 -0.10232714369E+04 -0.78717812860E+03  0.39009630044E+03  0.13486693306E+04  0.25500000920E-02 0.  1.
</event>
<event>
 5   0  0.5024070E-05  0.2359360E+04  0.7818609E-02  0.8454877E-01
       -2   -1    0    0    0  501  0.00000000000E+00  0.00000000000E+00  0.16996564837E+04  0.16996564837E+04  0.25500000920E-02 0.  1.
        2   -1    0    0  501    0  0.00000000000E+00  0.00000000000E+00 -0.81878013930E+03  0.81878013930E+03  0.25500000920E-02 0. -1.
    10030    2    1    2    0    0  0.00000000000E+00  0.00000000000E+00  0.88087634439E+03  0.25184366230E+04  0.23593600594E+04 0.  0.
        5    1    3    3  502    0  0.35647604150E+03 -0.27990068331E+03  0.16030008352E+04  0.16658491313E+04  0.46999998093E+01 0.  1.
       -5    1    3    3    0  502 -0.35647604150E+03  0.27990068331E+03 -0.72212449082E+03  0.85258749166E+03  0.46999998093E+01 0. -1.
</event>
<event>
 5   0  0.5024070E-05  0.2571536E+04  0.7818609E-02  0.8377934E-01
        2   -1    0    0  501    0  0.00000000000E+00  0.00000000000E+00  0.93421226650E+03  0.93421226650E+03  0.25500000920E-02 0. -1.
       -2   -1    0    0    0  501  0.00000000000E+00  0.00000000000E+00 -0.17696189390E+04  0.17696189390E+04  0.25500000920E-02 0.  1.
    10030    2    1    2    0    0  0.00000000000E+00  0.00000000000E+00 -0.83540667245E+03  0.27038312055E+04  0.25715362878E+04 0.  0.
        5    1    3    3  502    0  0.56888296300E+03  0.11459821824E+04 -0.55183849841E+03  0.13933595395E+04  0.46999998093E+01 0.  1.
       -5    1    3    3    0  502 -0.56888296300E+03 -0.11459821824E+04 -0.28356817404E+03  0.13104716660E+04  0.46999998093E+01 0. -1.
</event>
<event>
 5   0  0.5219468E-05  0.2455137E+04  0.7818609E-02  0.8419145E-01
       -2   -1    0    0    0  501  0.00000000000E+00  0.00000000000E+00  0.83710313189E+03  0.83710313189E+03  0.25500000920E-02 0.  1.
        2   -1    0    0  501    0  0.00000000000E+00  0.00000000000E+00 -0.18001651700E+04  0.18001651700E+04  0.25500000920E-02 0. -1.
    10030    2    1    2    0    0  0.00000000000E+00  0.00000000000E+00 -0.96306203807E+03  0.26372683019E+04  0.24551365760E+04 0.  0.
        1    1    3    3  502    0 -0.25251320333E+03 -0.75556004516E+03  0.52171883652E+03  0.95227330326E+03  0.50400001928E-02 0.  1.
       -1    1    3    3    0  502  0.25251320333E+03  0.75556004516E+03 -0.14847808746E+04  0.16849949986E+04  0.50400001928E-02 0. -1.
</event>
<event>
 5   0  0.4959042E-05  0.2425250E+04  0.7818609E-02  0.8430110E-01
       -2   -1    0    0    0  501  0.00000000000E+00  0.00000000000E+00  0.74228831142E+03  0.74228831142E+03  0.25500000920E-02 0.  1.
        2   -1    0    0  501    0  0.00000000000E+00  0.00000000000E+00 -0.19809816173E+04  0.19809816173E+04  0.25500000920E-02 0. -1.
    10030    2    1    2    0    0  0.00000000000E+00  0.00000000000E+00 -0.12386933059E+04  0.27232699288E+04  0.24252500899E+04 0.  0.
        4    1    3    3  502    0  0.62524727377E+03 -0.41078768368E+03 -0.16909652433E+04  0.18490661809E+04  0.12699999809E+01 0. -1.
       -4    1    3    3    0  502 -0.62524727377E+03  0.41078768368E+03  0.45227193741E+03  0.87420374782E+03  0.12699999809E+01 0.  1.
</event>
<event>
 5   0  0.2036578E-05  0.2490276E+04  0.7818609E-02  0.8406458E-01
        1   -1    0    0  501    0  0.00000000000E+00  0.00000000000E+00  0.13746349755E+04  0.13746349755E+04  0.50400001928E-02 0. -1.
       -1   -1    0    0    0  501  0.00000000000E+00  0.00000000000E+00 -0.11278402065E+04  0.11278402065E+04  0.50400001928E-02 0.  1.
    10030    2    1    2    0    0  0.00000000000E+00  0.00000000000E+00  0.24679476894E+03  0.25024751820E+04  0.24902759643E+04 0.  0.
        2    1    3    3  502    0 -0.18289318656E+03 -0.37699023667E+03 -0.10548638685E+04  0.11350371524E+04  0.25500000920E-02 0.  1.
       -2    1    3    3    0  502  0.18289318656E+03  0.37699023667E+03  0.13016586375E+04  0.13674380296E+04  0.25500000920E-02 0. -1.
</event>
<event>
 5   0  0.2036578E-05  0.2555301E+04  0.7818609E-02  0.8383545E-01
        1   -1    0    0  501    0  0.00000000000E+00  0.00000000000E+00  0.13060782496E+04  0.13060782496E+04  0.50400001928E-02 0. -1.
       -1   -1    0    0    0  501  0.00000000000E+00  0.00000000000E+00 -0.12498414575E+04  0.12498414575E+04  0.50400001928E-02 0.  1.
    10030    2    1    2    0    0  0.00000000000E+00  0.00000000000E+00  0.56236792148E+02  0.25559197071E+04  0.25553009554E+04 0.  0.
        2    1    3    3  502    0  0.33849454578E+03 -0.11588127325E+04 -0.39027135117E+03  0.12687542055E+04  0.25500000920E-02 0.  1.
       -2    1    3    3    0  502 -0.33849454578E+03  0.11588127325E+04  0.44650814332E+03  0.12871655016E+04  0.25500000920E-02 0. -1.
</event>
<event>
 5   0  0.5024070E-05  0.2570134E+04  0.7818609E-02  0.8378417E-01
       -2   -1    0    0    0  501  0.00000000000E+00  0.00000000000E+00  0.16693897295E+04  0.16693897295E+04  0.25500000920E-02 0.  1.
        2   -1    0    0  501    0  0.00000000000E+00  0.00000000000E+00 -0.98922202701E+03  0.98922202702E+03  0.25500000920E-02 0. -1.
    10030    2    1    2    0    0  0.00000000000E+00  0.00000000000E+00  0.68016770252E+03  0.26586117566E+04  0.25701339203E+04 0.  0.
        5    1    3    3  502    0 -0.91610946377E+03 -0.36330246739E+03  0.11931742611E+04  0.15475568292E+04  0.46999998093E+01 0.  1.
       -5    1    3    3    0  502  0.91610946377E+03  0.36330246739E+03 -0.51300655854E+03  0.11110549273E+04  0.46999998093E+01 0. -1.
</event>
<event>
 5   0  0.4959347E-05  0.2309093E+04  0.7818609E-02  0.8474344E-01
       -2   -1    0    0    0  501  0.00000000000E+00  0.00000000000E+00  0.14599714301E+04  0.14599714301E+04  0.25500000920E-02 0.  1.
        2   -1    0    0  501    0  0.00000000000E+00  0.00000000000E+00 -0.91301631593E+03  0.91301631593E+03  0.25500000920E-02 0. -1.
    10030    2    1    2    0    0  0.00000000000E+00  0.00000000000E+00  0.54695511422E+03  0.23729877461E+04  0.23090931003E+04 0.  0.
        3    1    3    3  502    0 -0.94089246801E+03  0.39834343843E+03 -0.27900579838E+03  0.10591507811E+04  0.10100000352E+00 0. -1.
       -3    1    3    3    0  502  0.94089246801E+03 -0.39834343843E+03  0.82596091260E+03  0.13138369650E+04  0.10100000352E+00 0.  1.
</event>
<event>
 5   0  0.2036578E-05  0.2487438E+04  0.7818609E-02  0.8407475E-01
        1   -1    0    0  501    0  0.00000000000E+00  0.00000000000E+00  0.17777768627E+04  0.17777768627E+04  0.50400001928E-02 0.  1.
       -1   -1    0    0    0  501  0.00000000000E+00  0.00000000000E+00 -0.87009588862E+03  0.87009588863E+03  0.50400001928E-02 0. -1.
    10030    2    1    2    0    0  0.00000000000E+00  0.00000000000E+00  0.90768097412E+03  0.26478727514E+04  0.24874375081E+04 0.  0.
        2    1    3    3  502    0  0.58264434754E+03  0.54725291161E+03  0.14681213613E+04  0.16716281035E+04  0.25500000920E-02 0.  1.
       -2    1    3    3    0  502 -0.58264434754E+03 -0.54725291161E+03 -0.56044038714E+03  0.97624464789E+03  0.25500000920E-02 0. -1.
</event>
<event>
 5   0  0.4959042E-05  0.2596691E+04  0.7818609E-02  0.8369326E-01
        2   -1    0    0  501    0  0.00000000000E+00  0.00000000000E+00  0.18366248298E+04  0.18366248298E+04  0.25500000920E-02 0.  1.
       -2   -1    0    0    0  501  0.00000000000E+00  0.00000000000E+00 -0.91782576673E+03  0.91782576673E+03  0.25500000920E-02 0. -1.
    10030    2    1    2    0    0  0.00000000000E+00  0.00000000000E+00  0.91879906304E+03  0.27544505965E+04  0.25966914276E+04 0.  0.
        4    1    3    3  502    0  0.11892371242E+04 -0.51973789017E+03  0.42133682417E+03  0.13645287627E+04  0.12699999809E+01 0. -1.
       -4    1    3    3    0  502 -0.11892371242E+04  0.51973789017E+03  0.49746223887E+03  0.13899218338E+04  0.12699999809E+01 0.  1.
</event>
<event>
 5   0  0.2041718E-05  0.1871262E+04  0.7818609E-02  0.8669295E-01
       -1   -1    0    0    0  501  0.00000000000E+00  0.00000000000E+00  0.82548206556E+03  0.82548206557E+03  0.50400001928E-02 0. -1.
        1   -1    0    0  501    0  0.00000000000E+00  0.00000000000E+00 -0.10604780944E+04  0.10604780944E+04  0.50400001928E-02 0.  1.
    10030    2    1    2    0    0  0.00000000000E+00  0.00000000000E+00 -0.23499602879E+03  0.18859601599E+04  0.18712622989E+04 0.  0.
        4    1    3    3  502    0 -0.32745068895E+03  0.73253193495E+03 -0.60250232762E+03  0.10034130043E+04  0.12699999809E+01 0.  1.
       -4    1    3    3    0  502  0.32745068895E+03 -0.73253193495E+03  0.36750629883E+03  0.88254715568E+03  0.12699999809E+01 0. -1.
</event>
<event>
 5   0  0.2063930E-05  0.2487908E+04  0.7818609E-02  0.8407306E-01
        1   -1    0    0  501    0  0.00000000000E+00  0.00000000000E+00  0.22808296031E+04  0.22808296031E+04  0.50400001928E-02 0. -1.
       -1   -1    0    0    0  501  0.00000000000E+00  0.00000000000E+00 -0.67844692746E+03  0.67844692748E+03  0.50400001928E-02 0.  1.
    10030    2    1    2    0    0  0.00000000000E+00  0.00000000000E+00  0.16023826756E+04  0.29592765306E+04  0.24879082269E+04 0.  0.
        3    1    3    3  502    0 -0.10454650550E+04 -0.59785327121E+03  0.11716402761E+04  0.16802281577E+04  0.10100000352E+00 0.  1.
       -3    1    3    3    0  502  0.10454650550E+04  0.59785327121E+03  0.43074239955E+03  0.12790483729E+04  0.10100000352E+00 0. -1.
</event>
<event>
 5   0  0.4959347E-05  0.2500450E+04  0.7818609E-02  0.8402825E-01
        2   -1    0    0  501    0  0.00000000000E+00  0.00000000000E+00  0.11947669357E+04  0.11947669357E+04  0.25500000920E-02 0.  1.
       -2   -1    0    0    0  501  0.00000000000E+00  0.00000000000E+00 -0.13082569071E+04  0.13082569071E+04  0.25500000920E-02 0. -1.
    10030    2    1    2    0    0  0.00000000000E+00  0.00000000000E+00 -0.11348997140E+03  0.25030238429E+04  0.25004496364E+04 0.  0.
        3    1    3    3  502    0 -0.21026553840E+03 -0.11143661790E+04 -0.58363133285E+03  0.12754015526E+04  0.10100000352E+00 0.  1.
       -3    1    3    3    0  502  0.21026553840E+03  0.11143661790E+04  0.47014136145E+03  0.12276222902E+04  0.10100000352E+00 0. -1.
</event>
<event>
 5   0  0.2036578E-05  0.2483171E+04  0.7818609E-02  0.8409006E-01
        1   -1    0    0  501    0  0.00000000000E+00  0.00000000000E+00  0.12007515465E+04  0.12007515465E+04  0.50400001928E-02 0. -1.
       -1   -1    0    0    0  501  0.00000000000E+00  0.00000000000E+00 -0.12838081165E+04  0.12838081165E+04  0.50400001928E-02 0.  1.
    10030    2    1    2    0    0  0.00000000000E+00  0.00000000000E+00 -0.83056570011E+02  0.24845596630E+04  0.24831710221E+04 0.  0.
        2    1    3    3  502    0 -0.73256078499E+03  0.61979764168E+03 -0.82983952853E+03  0.12686323594E+04  0.25500000920E-02 0.  1.
       -2    1    3    3    0  502  0.73256078499E+03 -0.61979764168E+03  0.74678295852E+03  0.12159273035E+04  0.25500000920E-02 0. -1.
</event>
<event>
 5   0  0.5219468E-05  0.2489835E+04  0.7818609E-02  0.8406616E-01
        2   -1    0    0  501    0  0.00000000000E+00  0.00000000000E+00  0.13772371040E+04  0.13772371040E+04  0.25500000920E-02 0.  1.
       -2   -1    0    0    0  501  0.00000000000E+00  0.00000000000E+00 -0.11253106736E+04  0.11253106736E+04  0.25500000920E-02 0. -1.
    10030    2    1    2    0    0  0.00000000000E+00  0.00000000000E+00  0.25192643040E+03  0.25025477776E+04  0.24898350252E+04 0.  0.
        1    1    3    3  502    0  0.10386238344E+04  0.67735334902E+03  0.14615882441E+02  0.12400647777E+04  0.50400001928E-02 0. -1.
       -1    1    3    3    0  502 -0.10386238344E+04 -0.67735334902E+03  0.23731054796E+03  0.12624829999E+04  0.50400001928E-02 0.  1.
</event>
<event>
 5   0  0.4959347E-05  0.2516753E+04  0.7818609E-02  0.8397041E-01
        2   -1    0    0  501    0  0.00000000000E+00  0.00000000000E+00  0.18874595149E+04  0.18874595149E+04  0.25500000920E-02 0. -1.
       -2   -1    0    0    0  501  0.00000000000E+00  0.00000000000E+00 -0.83896442760E+03  0.83896442761E+03  0.25500000920E-02 0.  1.
    10030    2    1    2    0    0  0.00000000000E+00  0.00000000000E+00  0.10484950873E+04  0.27264239425E+04  0.25167529808E+04 0.  0.
        3    1    3    3  502    0 -0.12476357441E+04  0.59872243934E+02  0.35877482086E+03  0.12995764763E+04  0.10100000352E+00 0.  1.
       -3    1    3    3    0  502  0.12476357441E+04 -0.59872243934E+02  0.68972026644E+03  0.14268474662E+04  0.10100000352E+00 0. -1.
</event>
<event>
 5   0  0.2081874E-05  0.2449188E+04  0.7818609E-02  0.8421315E-01
       -1   -1    0    0    0  501  0.00000000000E+00  0.00000000000E+00  0.10270961252E+04  0.10270961252E+04  0.50400001928E-02 0. -1.
        1   -1    0    0  501    0  0.00000000000E+00  0.00000000000E+00 -0.14600678382E+04  0.14600678382E+04  0.50400001928E-02 0.  1.
    10030    2    1    2    0    0  0.00000000000E+00  0.00000000000E+00 -0.43297171304E+03  0.24871639634E+04  0.24491876361E+04 0.  0.
        1    1    3    3  502    0  0.35508946657E+03  0.55413582877E+03 -0.12652013697E+04  0.14261449968E+04  0.50400001928E-02 0.  1.
       -1    1    3    3    0  502 -0.35508946657E+03 -0.55413582877E+03  0.83222965669E+03  0.10610189666E+04  0.50400001928E-02 0. -1.
</event>
<event>
 5   0  0.2081874E-05  0.2474916E+04  0.7818609E-02  0.8411977E-01
        1   -1    0    0  501    0  0.00000000000E+00  0.00000000000E+00  0.13021759446E+04  0.13021759446E+04  0.50400001928E-02 0.  1.
       -1   -1    0    0    0  501  0.00000000000E+00  0.00000000000E+00 -0.11759560862E+04  0.11759560862E+04  0.50400001928E-02 0. -1.
    10030    2    1    2    0    0  0.00000000000E+00  0.00000000000E+00  0.12621985842E+03  0.24781320307E+04  0.24749155358E+04 0.  0.
        1    1    3    3  502    0  0.81340734510E+03 -0.74952726622E+03  0.61869959644E+03  0.12673641239E+04  0.50400001928E-02 0.  1.
       -1    1    3    3    0  502 -0.81340734510E+03  0.74952726622E+03 -0.49247973802E+03  0.12107679069E+04  0.50400001928E-02 0. -1.
</event>
<event>
 5   0  0.5219468E-05  0.2415862E+04  0.7818609E-02  0.8433589E-01
       -2   -1    0    0    0  501  0.00000000000E+00  0.00000000000E+00  0.10230667536E+04  0.10230667536E+04  0.25500000920E-02 0. -1.
        2   -1    0    0  501    0  0.00000000000E+00  0.00000000000E+00 -0.14261993204E+04  0.14261993204E+04  0.25500000920E-02 0.  1.
    10030    2    1    2    0    0  0.00000000000E+00  0.00000000000E+00 -0.40313256685E+03  0.24492660740E+04  0.24158618410E+04 0.  0.
        1    1    3    3  502    0  0.56631689943E+03  0.78184799747E+03  0.53448610730E+03  0.11034838108E+04  0.50400001928E-02 0. -1.
       -1    1    3    3    0  502 -0.56631689943E+03 -0.78184799747E+03 -0.93761867416E+03  0.13457822632E+04  0.50400001928E-02 0.  1.
</event>
<event>
 5   0  0.2036578E-05  0.2521212E+04  0.7818609E-02  0.8395467E-01
        1   -1    0    0  501    0  0.00000000000E+00  0.00000000000E+00  0.15572498904E+04  0.15572498905E+04  0.50400001928E-02 0. -1.
       -1   -1    0    0    0  501  0.00000000000E+00  0.00000000000E+00 -0.10204707761E+04  0.10204707762E+04  0.50400001928E-02 0.  1.
    10030    2    1    2    0    0  0.00000000000E+00  0.00000000000E+00  0.53677911431E+03  0.25777206666E+04  0.25212124102E+04 0.  0.
        2    1    3    3  502    0  0.58657975807E+03 -0.11086418529E+04  0.13920316222E+03  0.12619588309E+04  0.25500000920E-02 0.  1.
       -2    1    3    3    0  502 -0.58657975807E+03  0.11086418529E+04  0.39757595209E+03  0.13157618357E+04  0.25500000920E-02 0. -1.
</event>
<event>
 5   0  0.2081874E-05  0.2483907E+04  0.7818609E-02  0.8408741E-01
       -1   -1    0    0    0  501  0.00000000000E+00  0.00000000000E+00  0.75307284617E+03  0.75307284618E+03  0.50400001928E-02 0. -1.
        1   -1    0    0  501    0  0.00000000000E+00  0.00000000000E+00 -0.20482055984E+04  0.20482055984E+04  0.50400001928E-02 0.  1.
    10030    2    1    2    0    0  0.00000000000E+00  0.00000000000E+00 -0.12951327522E+04  0.28012784446E+04  0.24839066162E+04 0.  0.
        1    1    3    3  502    0  0.88268656910E+03  0.85465166738E+03 -0.85207259446E+03  0.14951898736E+04  0.50400001928E-02 0.  1.
       -1    1    3    3    0  502 -0.88268656910E+03 -0.85465166738E+03 -0.44306015774E+03  0.13060885710E+04  0.50400001928E-02 0. -1.
</event>
<event>
 5   0  0.4959347E-05  0.2413802E+04  0.7818609E-02  0.8434354E-01
        2   -1    0    0  501    0  0.00000000000E+00  0.00000000000E+00  0.19103914332E+04  0.19103914332E+04  0.25500000920E-02 0.  1.
       -2   -1    0    0    0  501  0.00000000000E+00  0.00000000000E+00 -0.76246702968E+03  0.76246702968E+03  0.25500000920E-02 0. -1.
    10030    2    1    2    0    0  0.00000000000E+00  0.00000000000E+00  0.11479244035E+04  0.26728584629E+04  0.24138023793E+04 0.  0.
        3    1    3    3  502    0 -0.11117930308E+04 -0.14802641395E+03  0.10674542664E+04  0.15483714618E+04  0.10100000352E+00 0.  1.
       -3    1    3    3    0  502  0.11117930308E+04  0.14802641395E+03  0.80470137125E+02  0.11244870011E+04  0.10100000352E+00 0. -1.
</event>
<event>
 5   0  0.2041718E-05  0.3106898E+04  0.7818609E-02  0.8213847E-01
        1   -1    0    0  501    0  0.00000000000E+00  0.00000000000E+00  0.30713987313E+04  0.30713987313E+04  0.50400001928E-02 0.  1.
       -1   -1    0    0    0  501  0.00000000000E+00  0.00000000000E+00 -0.78570172280E+03  0.78570172282E+03  0.50400001928E-02 0. -1.
    10030    2    1    2    0    0  0.00000000000E+00  0.00000000000E+00  0.22856970085E+04  0.38571004541E+04  0.31068976646E+04 0.  0.
        4    1    3    3  502    0 -0.12749514432E+04 -0.62716998390E+02  0.43773062388E+02  0.12772440245E+04  0.12699999809E+01 0. -1.
       -4    1    3    3    0  502  0.12749514432E+04  0.62716998390E+02  0.22419239461E+04  0.25798564296E+04  0.12699999809E+01 0.  1.
</event>
<event>
 5   0  0.2081874E-05  0.2494535E+04  0.7818609E-02  0.8404935E-01
        1   -1    0    0  501    0  0.00000000000E+00  0.00000000000E+00  0.14624146322E+04  0.14624146323E+04  0.50400001928E-02 0. -1.
       -1   -1    0    0    0  501  0.00000000000E+00  0.00000000000E+00 -0.10637725764E+04  0.10637725765E+04  0.50400001928E-02 0.  1.
    10030    2    1    2    0    0  0.00000000000E+00  0.00000000000E+00  0.39864205580E+03  0.25261872087E+04  0.24945352924E+04 0.  0.
        1    1    3    3  502    0  0.15259801038E+03 -0.38542371311E+03 -0.99197216570E+03  0.10751029574E+04  0.50400001928E-02 0.  1.
       -1    1    3    3    0  502 -0.15259801038E+03  0.38542371311E+03  0.13906142215E+04  0.14510842513E+04  0.50400001928E-02 0. -1.
</event>
<event>
 5   0  0.2081874E-05  0.2450693E+04  0.7818609E-02  0.8420765E-01
       -1   -1    0    0    0  501  0.00000000000E+00  0.00000000000E+00  0.89685395366E+03  0.89685395368E+03  0.50400001928E-02 0. -1.
        1   -1    0    0  501    0  0.00000000000E+00  0.00000000000E+00 -0.16741567240E+04  0.16741567240E+04  0.50400001928E-02 0.  1.
    10030    2    1    2    0    0  0.00000000000E+00  0.00000000000E+00 -0.77730277030E+03  0.25710106776E+04  0.24506930260E+04 0.  0.
        1    1    3    3  502    0  0.10801319477E+04  0.23583760172E+03 -0.94295675824E+03  0.14530904468E+04  0.50400001928E-02 0.  1.
       -1    1    3    3    0  502 -0.10801319477E+04 -0.23583760172E+03  0.16565398794E+03  0.11179202308E+04  0.50400001928E-02 0. -1.
</event>
<event>
 5   0  0.4995256E-05  0.2506943E+04  0.7818609E-02  0.8400516E-01
        2   -1    0    0  501    0  0.00000000000E+00  0.00000000000E+00  0.19692966294E+04  0.19692966294E+04  0.25500000920E-02 0.  1.
       -2   -1    0    0    0  501  0.00000000000E+00  0.00000000000E+00 -0.79784388903E+03  0.79784388904E+03  0.25500000920E-02 0. -1.
    10030    2    1    2    0    0  0.00000000000E+00  0.00000000000E+00  0.11714527403E+04  0.27671405184E+04  0.25069433830E+04 0.  0.
        2    1    3    3  502    0 -0.43196663976E+03  0.80010695207E+03  0.15380776142E+04  0.17867425835E+04  0.25500000920E-02 0.  1.
       -2    1    3    3    0  502  0.43196663976E+03 -0.80010695207E+03 -0.36662487382E+03  0.98039793488E+03  0.25500000920E-02 0. -1.
</event>
<event>
 5   0  0.4959042E-05  0.2455653E+04  0.7818609E-02  0.8418957E-01
       -2   -1    0    0    0  501  0.00000000000E+00  0.00000000000E+00  0.26195484613E+04  0.26195484613E+04  0.25500000920E-02 0. -1.
        2   -1    0    0  501    0  0.00000000000E+00  0.00000000000E+00 -0.57550312455E+03  0.57550312455E+03  0.25500000920E-02 0.  1.
    10030    2    1    2    0    0  0.00000000000E+00  0.00000000000E+00  0.20440453368E+04  0.31950515859E+04  0.24556533342E+04 0.  0.
        4    1    3    3  502    0  0.64311092007E+03 -0.73136560810E+03  0.19948677323E+04  0.22199067977E+04  0.12699999809E+01 0. -1.
       -4    1    3    3    0  502 -0.64311092007E+03  0.73136560810E+03  0.49177604488E+02  0.97514478818E+03  0.12699999809E+01 0.  1.
</event>
<event>
 5   0  0.4959347E-05  0.2505607E+04  0.7818609E-02  0.8400991E-01
        2   -1    0    0  501    0  0.00000000000E+00  0.00000000000E+00  0.21115673644E+04  0.21115673644E+04  0.25500000920E-02 0.  1.
       -2   -1    0    0    0  501  0.00000000000E+00  0.00000000000E+00 -0.74329449059E+03  0.74329449059E+03  0.25500000920E-02 0. -1.
    10030    2    1    2    0    0  0.00000000000E+00  0.00000000000E+00  0.13682728738E+04  0.28548618550E+04  0.25056068235E+04 0.  0.
        3    1    3    3  502    0  0.68373012770E+03 -0.10188140131E+04  0.39578424468E+03  0.12892300258E+04  0.10100000352E+00 0.  1.
       -3    1    3    3    0  502 -0.68373012770E+03  0.10188140131E+04  0.97248862914E+03  0.15656318293E+04  0.10100000352E+00 0. -1.
</event>
<event>
 5   0  0.2063930E-05  0.2605637E+04  0.7818609E-02  0.8366289E-01
        1   -1    0    0  501    0  0.00000000000E+00  0.00000000000E+00  0.12420192274E+04  0.12420192274E+04  0.50400001928E-02 0. -1.
       -1   -1    0    0    0  501  0.00000000000E+00  0.00000000000E+00 -0.13665938947E+04  0.13665938947E+04  0.50400001928E-02 0.  1.
    10030    2    1    2    0    0  0.00000000000E+00  0.00000000000E+00 -0.12457466732E+03  0.26086131222E+04  0.26056368844E+04 0.  0.
        3    1    3    3  502    0  0.59713689463E+03  0.62151412759E+03 -0.10403800323E+04  0.13510155083E+04  0.10100000352E+00 0.  1.
       -3    1    3    3    0  502 -0.59713689463E+03 -0.62151412759E+03  0.91580536499E+03  0.12575976139E+04  0.10100000352E+00 0. -1.
</event>
<event>
 5   0  0.5024070E-05  0.2512502E+04  0.7818609E-02  0.8398545E-01
        2   -1    0    0  501    0  0.00000000000E+00  0.00000000000E+00  0.11805934646E+04  0.11805934646E+04  0.25500000920E-02 0. -1.
       -2   -1    0    0    0  501  0.00000000000E+00  0.00000000000E+00 -0.13367567115E+04  0.13367567115E+04  0.25500000920E-02 0.  1.
    10030    2    1    2    0    0  0.00000000000E+00  0.00000000000E+00 -0.15616324687E+03  0.25173501760E+04  0.25125017312E+04 0.  0.
        5    1    3    3  502    0 -0.20176445930E+03 -0.49961856412E+02 -0.13193989917E+04  0.13356799293E+04  0.46999998093E+01 0.  1.
       -5    1    3    3    0  502  0.20176445930E+03  0.49961856412E+02  0.11632357448E+04  0.11816702468E+04  0.46999998093E+01 0. -1.
</event>
<event>
 5   0  0.4995256E-05  0.2232600E+04  0.7818609E-02  0.8504980E-01
       -2   -1    0    0    0  501  0.00000000000E+00  0.00000000000E+00  0.79733350326E+03  0.79733350327E+03  0.25500000920E-02 0. -1.
        2   -1    0    0  501    0  0.00000000000E+00  0.00000000000E+00 -0.15628668724E+04  0.15628668724E+04  0.25500000920E-02 0.  1.
    10030    2    1    2    0    0  0.00000000000E+00  0.00000000000E+00 -0.76553336916E+03  0.23602003757E+04  0.22326003839E+04 0.  0.
        2    1    3    3  502    0 -0.63976703137E+03  0.58047387793E+03  0.36465948970E+03  0.93767175537E+03  0.25500000920E-02 0. -1.
       -2    1    3    3    0  502  0.63976703137E+03 -0.58047387793E+03 -0.11301928589E+04  0.14225286203E+04  0.25500000920E-02 0.  1.
</event>
<event>
 5   0  0.2063930E-05  0.2465832E+04  0.7818609E-02  0.8415260E-01
       -1   -1    0    0    0  501  0.00000000000E+00  0.00000000000E+00  0.10364050400E+04  0.10364050400E+04  0.50400001928E-02 0.  1.
        1   -1    0    0  501    0  0.00000000000E+00  0.00000000000E+00 -0.14666871558E+04  0.14666871558E+04  0.50400001928E-02 0. -1.
    10030    2    1    2    0    0  0.00000000000E+00  0.00000000000E+00 -0.43028211586E+03  0.25030921958E+04  0.24658320789E+04 0.  0.
        3    1    3    3  502    0 -0.11894810871E+04 -0.62751798127E+02 -0.53819336561E+03  0.13070788628E+04  0.10100000352E+00 0. -1.
       -3    1    3    3    0  502  0.11894810871E+04  0.62751798127E+02  0.10791124975E+03  0.11960133330E+04  0.10100000352E+00 0.  1.
</event>
<event>
 5   0  0.5024070E-05  0.2503101E+04  0.7818609E-02  0.8401882E-01
        2   -1    0    0  501    0  0.00000000000E+00  0.00000000000E+00  0.18757659913E+04  0.18757659913E+04  0.25500000920E-02 0. -1.
       -2   -1    0    0    0  501  0.00000000000E+00  0.00000000000E+00 -0.83506095076E+03  0.83506095077E+03  0.25500000920E-02 0.  1.
    10030    2    1    2    0    0  0.00000000000E+00  0.00000000000E+00  0.10407050406E+04  0.27108269421E+04  0.25031012222E+04 0.  0.
        5    1    3    3  502    0  0.49896569569E+03 -0.70058052319E+03  0.15049643316E+04  0.17334126930E+04  0.46999998093E+01 0. -1.
       -5    1    3    3    0  502 -0.49896569569E+03  0.70058052319E+03 -0.46425929105E+03  0.97741424906E+03  0.46999998093E+01 0.  1.
</event>
<event>
 5   0  0.1692125E-05  0.2485408E+04  0.7818609E-02  0.8408203E-01
        3   -1    0    0  501    0  0.00000000000E+00  0.00000000000E+00  0.10807737062E+04  0.10807737110E+04  0.10100000352E+00 0. -1.
       -3   -1    0    0    0  501  0.00000000000E+00  0.00000000000E+00 -0.14288958985E+04  0.14288959021E+04  0.10100000352E+00 0.  1.
    10030    2    1    2    0    0  0.00000000000E+00  0.00000000000E+00 -0.34812219231E+03  0.25096696131E+04  0.24854079154E+04 0.  0.
        1    1    3    3  502    0 -0.16433084526E+03  0.80191333412E+03 -0.11181982366E+04  0.13857982965E+04  0.50400001928E-02 0.  1.
       -1    1    3    3    0  502  0.16433084526E+03 -0.80191333412E+03  0.77007604432E+03  0.11238713166E+04  0.50400001928E-02 0. -1.
</event>
<event>
 5   0  0.5024070E-05  0.2516733E+04  0.7818609E-02  0.8397048E-01
       -2   -1    0    0    0  501  0.00000000000E+00  0.00000000000E+00  0.73969617111E+03  0.73969617111E+03  0.25500000920E-02 0. -1.
        2   -1    0    0  501    0  0.00000000000E+00  0.00000000000E+00 -0.21407252635E+04  0.21407252635E+04  0.25500000920E-02 0.  1.
    10030    2    1    2    0    0  0.00000000000E+00  0.00000000000E+00 -0.14010290924E+04  0.28804214346E+04  0.25167330258E+04 0.  0.
        5    1    3    3  502    0 -0.11180877558E+04  0.46374498951E+03 -0.10941397416E+04  0.16316689337E+04  0.46999998093E+01 0. -1.
       -5    1    3    3    0  502  0.11180877558E+04 -0.46374498951E+03 -0.30688935076E+03  0.12487525009E+04  0.46999998093E+01 0.  1.
</event>
<event>
 5   0  0.5219468E-05  0.2465483E+04  0.7818609E-02  0.8415387E-01
       -2   -1    0    0    0  501  0.00000000000E+00  0.00000000000E+00  0.61900909594E+03  0.61900909594E+03  0.25500000920E-02 0. -1.
        2   -1    0    0  501    0  0.00000000000E+00  0.00000000000E+00 -0.24549749181E+04  0.24549749181E+04  0.25500000920E-02 0.  1.
    10030    2    1    2    0    0  0.00000000000E+00  0.00000000000E+00 -0.18359658222E+04  0.30739840141E+04  0.24654831613E+04 0.  0.
        1    1    3    3  502    0 -0.60751509074E+01  0.16062178145E+03 -0.24418533715E+04  0.24471379512E+04  0.50400001928E-02 0.  1.
       -1    1    3    3    0  502  0.60751509074E+01 -0.16062178145E+03  0.60588754931E+03  0.62684606290E+03  0.50400001928E-02 0. -1.
</event>
<event>
 5   0  0.4959042E-05  0.2459452E+04  0.7818609E-02  0.8417575E-01
       -2   -1    0    0    0  501  0.00000000000E+00  0.00000000000E+00  0.73025385401E+03  0.73025385402E+03  0.25500000920E-02 0. -1.
        2   -1    0    0  501    0  0.00000000000E+00  0.00000000000E+00 -0.20708224258E+04  0.20708224258E+04  0.25500000920E-02 0.  1.
    10030    2    1    2    0    0  0.00000000000E+00  0.00000000000E+00 -0.13405685718E+04  0.28010762798E+04  0.24594520182E+04 0.  0.
        4    1    3    3  502    0 -0.88666672019E+03 -0.53823807069E+03 -0.14226036768E+04  0.17605910734E+04  0.12699999809E+01 0.  1.
       -4    1    3    3    0  502  0.88666672019E+03  0.53823807069E+03  0.82035105056E+02  0.10404852064E+04  0.12699999809E+01 0. -1.
</event>
<event>
 5   0  0.2063930E-05  0.2607629E+04  0.7818609E-02  0.8365614E-01
        1   -1    0    0  501    0  0.00000000000E+00  0.00000000000E+00  0.13877268568E+04  0.13877268568E+04  0.50400001928E-02 0.  1.
       -1   -1    0    0    0  501  0.00000000000E+00  0.00000000000E+00 -0.12249765580E+04  0.12249765580E+04  0.50400001928E-02 0. -1.
    10030    2    1    2    0    0  0.00000000000E+00  0.00000000000E+00  0.16275029884E+03  0.26127034148E+04  0.26076294741E+04 0.  0.
        3    1    3    3  502    0  0.61411656850E+03 -0.68529282262E+03 -0.84409277144E+03  0.12487025384E+04  0.10100000352E+00 0. -1.
       -3    1    3    3    0  502 -0.61411656850E+03  0.68529282262E+03  0.10068430703E+04  0.13640008764E+04  0.10100000352E+00 0.  1.
</event>
<event>
 5   0  0.2041718E-05  0.2553633E+04  0.7818609E-02  0.8384124E-01
        1   -1    0    0  501    0  0.00000000000E+00  0.00000000000E+00  0.16184368102E+04  0.16184368102E+04  0.50400001928E-02 0.  1.
       -1   -1    0    0    0  501  0.00000000000E+00  0.00000000000E+00 -0.10073057034E+04  0.10073057034E+04  0.50400001928E-02 0. -1.
    10030    2    1    2    0    0  0.00000000000E+00  0.00000000000E+00  0.61113110676E+03  0.26257425136E+04  0.25536331996E+04 0.  0.
        4    1    3    3  502    0  0.12177908595E+04  0.69739889722E+02 -0.82423358556E+02  0.12225683836E+04  0.12699999809E+01 0. -1.
       -4    1    3    3    0  502 -0.12177908595E+04 -0.69739889722E+02  0.69355446531E+03  0.14031741299E+04  0.12699999809E+01 0.  1.
</event>
<event>
 5   0  0.5219468E-05  0.2476754E+04  0.7818609E-02  0.8411314E-01
       -2   -1    0    0    0  501  0.00000000000E+00  0.00000000000E+00  0.10082001843E+04  0.10082001843E+04  0.25500000920E-02 0.  1.
        2   -1    0    0  501    0  0.00000000000E+00  0.00000000000E+00 -0.15211039213E+04  0.15211039213E+04  0.25500000920E-02 0. -1.
    10030    2    1    2    0    0  0.00000000000E+00  0.00000000000E+00 -0.51290373703E+03  0.25293041056E+04  0.24767537252E+04 0.  0.
        1    1    3    3  502    0  0.73832625531E+03 -0.98811669544E+03 -0.14422480738E+03  0.12418941413E+04  0.50400001928E-02 0. -1.
       -1    1    3    3    0  502 -0.73832625531E+03  0.98811669544E+03 -0.36867892966E+03  0.12874099643E+04  0.50400001928E-02 0.  1.
</event>
<event>
 5   0  0.2081874E-05  0.1751769E+04  0.7818609E-02  0.8732377E-01
        1   -1    0    0  501    0  0.00000000000E+00  0.00000000000E+00  0.58580645998E+03  0.58580646000E+03  0.50400001928E-02 0. -1.
       -1   -1    0    0    0  501  0.00000000000E+00  0.00000000000E+00 -0.13096024610E+04  0.13096024610E+04  0.50400001928E-02 0.  1.
    10030    2    1    2    0    0  0.00000000000E+00  0.00000000000E+00 -0.72379600106E+03  0.18954089210E+04  0.17517689137E+04 0.  0.
        1    1    3    3  502    0 -0.42702796232E+03  0.76195134393E+03 -0.29135336002E+03  0.92076572022E+03  0.50400001928E-02 0.  1.
       -1    1    3    3    0  502  0.42702796232E+03 -0.76195134393E+03 -0.43244264104E+03  0.97464320083E+03  0.50400001928E-02 0. -1.
</event>
<event>
 5   0  0.4959042E-05  0.2494710E+04  0.7818609E-02  0.8404872E-01
       -2   -1    0    0    0  501  0.00000000000E+00  0.00000000000E+00  0.85784705402E+03  0.85784705403E+03  0.25500000920E-02 0. -1.
        2   -1    0    0  501    0  0.00000000000E+00  0.00000000000E+00 -0.18137205301E+04  0.18137205301E+04  0.25500000920E-02 0.  1.
    10030    2    1    2    0    0  0.00000000000E+00  0.00000000000E+00 -0.95587347609E+03  0.26715675841E+04  0.24947102546E+04 0.  0.
        4    1    3    3  502    0  0.90144051302E+03  0.82333390754E+03 -0.20403196954E+03  0.12377820403E+04  0.12699999809E+01 0.  1.
       -4    1    3    3    0  502 -0.90144051302E+03 -0.82333390754E+03 -0.75184150655E+03  0.14337855438E+04  0.12699999809E+01 0. -1.
</event>
<event>
 5   0  0.5024070E-05  0.2463228E+04  0.7818609E-02  0.8416204E-01
       -2   -1    0    0    0  501  0.00000000000E+00  0.00000000000E+00  0.73498938605E+03  0.73498938606E+03  0.25500000920E-02 0. -1.
        2   -1    0    0  501    0  0.00000000000E+00  0.00000000000E+00 -0.20638018491E+04  0.20638018491E+04  0.25500000920E-02 0.  1.
    10030    2    1    2    0    0  0.00000000000E+00  0.00000000000E+00 -0.13288124630E+04  0.27987912352E+04  0.24632275202E+04 0.  0.
        5    1    3    3  502    0  0.10224368349E+04  0.13992280594E+03  0.99402630296E+02  0.10367538020E+04  0.46999998093E+01 0. -1.
       -5    1    3    3    0  502 -0.10224368349E+04 -0.13992280594E+03 -0.14282150933E+04  0.17620374332E+04  0.46999998093E+01 0.  1.
</event>
<event>
 5   0  0.5024070E-05  0.2485311E+04  0.7818609E-02  0.8408237E-01
        2   -1    0    0  501    0  0.00000000000E+00  0.00000000000E+00  0.13964264008E+04  0.13964264008E+04  0.25500000920E-02 0.  1.
       -2   -1    0    0    0  501  0.00000000000E+00  0.00000000000E+00 -0.11058178103E+04  0.11058178103E+04  0.25500000920E-02 0. -1.
    10030    2    1    2    0    0  0.00000000000E+00  0.00000000000E+00  0.29060859054E+03  0.25022442111E+04  0.24853113969E+04 0.  0.
        5    1    3    3  502    0 -0.10313141553E+03  0.75963053658E+03  0.11299739722E+04  0.13654808343E+04  0.46999998093E+01 0.  1.
       -5    1    3    3    0  502  0.10313141553E+03 -0.75963053658E+03 -0.83936538168E+03  0.11367633768E+04  0.46999998093E+01 0. -1.
</event>
<event>
 5   0  0.2041718E-05  0.2576841E+04  0.7818609E-02  0.8376111E-01
        1   -1    0    0  501    0  0.00000000000E+00  0.00000000000E+00  0.12953088126E+04  0.12953088126E+04  0.50400001928E-02 0. -1.
       -1   -1    0    0    0  501  0.00000000000E+00  0.00000000000E+00 -0.12815689125E+04  0.12815689126E+04  0.50400001928E-02 0.  1.
    10030    2    1    2    0    0  0.00000000000E+00  0.00000000000E+00  0.13739900020E+02  0.25768777251E+04  0.25768410943E+04 0.  0.
        4    1    3    3  502    0  0.33990327832E+03  0.11456381451E+04 -0.47480576190E+03  0.12858705699E+04  0.12699999809E+01 0.  1.
       -4    1    3    3    0  502 -0.33990327832E+03 -0.11456381451E+04  0.48854566192E+03  0.12910071552E+04  0.12699999809E+01 0. -1.
</event>
<event>
 5   0  0.2041718E-05  0.2384507E+04  0.7818609E-02  0.8445327E-01
        1   -1    0    0  501    0  0.00000000000E+00  0.00000000000E+00  0.17116022130E+04  0.17116022130E+04  0.50400001928E-02 0.  1.
       -1   -1    0    0    0  501  0.00000000000E+00  0.00000000000E+00 -0.83048964388E+03  0.83048964389E+03  0.50400001928E-02 0. -1.
    10030    2    1    2    0    0  0.00000000000E+00  0.00000000000E+00  0.88111256912E+03  0.25420918569E+04  0.23845065841E+04 0.  0.
        4    1    3    3  502    0  0.11283057812E+03  0.16783007765E+02  0.17057704057E+04  0.17095808546E+04  0.12699999809E+01 0.  1.
       -4    1    3    3    0  502 -0.11283057812E+03 -0.16783007765E+02 -0.82465783653E+03  0.83251100230E+03  0.12699999809E+01 0. -1.
</event>
<event>
 5   0  0.2081874E-05  0.2633321E+04  0.7818609E-02  0.8356970E-01
       -1   -1    0    0    0  501  0.00000000000E+00  0.00000000000E+00  0.13852120453E+04  0.13852120453E+04  0.50400001928E-02 0. -1.
        1   -1    0    0  501    0  0.00000000000E+00  0.00000000000E+00 -0.12515014884E+04  0.12515014884E+04  0.50400001928E-02 0.  1.
    10030    2    1    2    0    0  0.00000000000E+00  0.00000000000E+00  0.13371055685E+03  0.26367135337E+04  0.26333210488E+04 0.  0.
        1    1    3    3  502    0 -0.13018268782E+04  0.53951939125E+02 -0.12294341088E+03  0.13087318728E+04  0.50400001928E-02 0.  1.
       -1    1    3    3    0  502  0.13018268782E+04 -0.53951939125E+02  0.25665396773E+03  0.13279816609E+04  0.50400001928E-02 0. -1.
</event>
<event>
 5   0  0.5024070E-05  0.2472881E+04  0.7818609E-02  0.8412711E-01
       -2   -1    0    0    0  501  0.00000000000E+00  0.00000000000E+00  0.12468044096E+04  0.12468044096E+04  0.25500000920E-02 0. -1.
        2   -1    0    0  501    0  0.00000000000E+00  0.00000000000E+00 -0.12261631497E+04  0.12261631497E+04  0.25500000920E-02 0.  1.
    10030    2    1    2    0    0  0.00000000000E+00  0.00000000000E+00  0.20641259897E+02  0.24729675593E+04  0.24728814140E+04 0.  0.
        5    1    3    3  502    0 -0.48829151578E+03 -0.49082912169E+03 -0.10141279131E+04  0.12279329563E+04  0.46999998093E+01 0.  1.
       -5    1    3    3    0  502  0.48829151578E+03  0.49082912169E+03  0.10347691730E+04  0.12450346029E+04  0.46999998093E+01 0. -1.
</event>
<event>
 5   0  0.5219468E-05  0.2491167E+04  0.7818609E-02  0.8406139E-01
        2   -1    0    0  501    0  0.00000000000E+00  0.00000000000E+00  0.22957076915E+04  0.22957076915E+04  0.25500000920E-02 0.  1.
       -2   -1    0    0    0  501  0.00000000000E+00  0.00000000000E+00 -0.67581719130E+03  0.67581719130E+03  0.25500000920E-02 0. -1.
    10030    2    1    2    0    0  0.00000000000E+00  0.00000000000E+00  0.16198905002E+04  0.29715248828E+04  0.24911673763E+04 0.  0.
        1    1    3    3  502    0  0.98108297010E+03  0.27531654177E+03 -0.44533084303E+02  0.10199540127E+04  0.50400001928E-02 0. -1.
       -1    1    3    3    0  502 -0.98108297010E+03 -0.27531654177E+03  0.16644235845E+04  0.19515708701E+04  0.50400001928E-02 0.  1.
</event>
<event>
 5   0  0.5219468E-05  0.2487766E+04  0.7818609E-02  0.8407357E-01
        2   -1    0    0  501    0  0.00000000000E+00  0.00000000000E+00  0.15587832348E+04  0.15587832348E+04  0.25500000920E-02 0.  1.
       -2   -1    0    0    0  501  0.00000000000E+00  0.00000000000E+00 -0.99259802524E+03  0.99259802524E+03  0.25500000920E-02 0. -1.
    10030    2    1    2    0    0  0.00000000000E+00  0.00000000000E+00  0.56618520952E+03  0.25513812600E+04  0.24877661953E+04 0.  0.
        1    1    3    3  502    0  0.18877413123E+03  0.90048278098E+03  0.11416005736E+04  0.14662048906E+04  0.50400001928E-02 0.  1.
       -1    1    3    3    0  502 -0.18877413123E+03 -0.90048278098E+03 -0.57541536411E+03  0.10851763694E+04  0.50400001928E-02 0. -1.
</event>
<event>
 5   0  0.5219468E-05  0.2615088E+04  0.7818609E-02  0.8363094E-01
       -2   -1    0    0    0  501  0.00000000000E+00  0.00000000000E+00  0.99364425130E+03  0.99364425130E+03  0.25500000920E-02 0.  1.
        2   -1    0    0  501    0  0.00000000000E+00  0.00000000000E+00 -0.17206071931E+04  0.17206071931E+04  0.25500000920E-02 0. -1.
    10030    2    1    2    0    0  0.00000000000E+00  0.00000000000E+00 -0.72696294184E+03  0.27142514444E+04  0.26150881027E+04 0.  0.
        1    1    3    3  502    0 -0.70894421265E+03 -0.10505808295E+04 -0.69715202314E+03  0.14464933181E+04  0.50400001928E-02 0. -1.
       -1    1    3    3    0  502  0.70894421265E+03  0.10505808295E+04 -0.29810918697E+02  0.12677581263E+04  0.50400001928E-02 0.  1.
</event>
<event>
 5   0  0.2036578E-05  0.2508819E+04  0.7818609E-02  0.8399850E-01
       -1   -1    0    0    0  501  0.00000000000E+00  0.00000000000E+00  0.13315538139E+04  0.13315538139E+04  0.50400001928E-02 0. -1.
        1   -1    0    0  501    0  0.00000000000E+00  0.00000000000E+00 -0.11817345306E+04  0.11817345306E+04  0.50400001928E-02 0.  1.
    10030    2    1    2    0    0  0.00000000000E+00  0.00000000000E+00  0.14981928329E+03  0.25132883445E+04  0.25088189422E+04 0.  0.
        2    1    3    3  502    0  0.50184933359E+03 -0.41412729663E+03 -0.99946956026E+03  0.11925995025E+04  0.25500000920E-02 0.  1.
       -2    1    3    3    0  502 -0.50184933359E+03  0.41412729663E+03  0.11492888436E+04  0.13206888420E+04  0.25500000920E-02 0. -1.
</event>
<event>
 5   0  0.2066170E-05  0.2510757E+04  0.7818609E-02  0.8399163E-01
       -1   -1    0    0    0  501  0.00000000000E+00  0.00000000000E+00  0.69363053698E+03  0.69363053700E+03  0.50400001928E-02 0.  1.
        1   -1    0    0  501    0  0.00000000000E+00  0.00000000000E+00 -0.22720670651E+04  0.22720670651E+04  0.50400001928E-02 0. -1.
    10030    2    1    2    0    0  0.00000000000E+00  0.00000000000E+00 -0.15784365281E+04  0.29656976021E+04  0.25107569364E+04 0.  0.
        5    1    3    3  502    0 -0.69280045420E+03 -0.10222404422E+04 -0.10559831392E+04  0.16248293668E+04  0.46999998093E+01 0.  1.
       -5    1    3    3    0  502  0.69280045420E+03  0.10222404422E+04 -0.52245338896E+03  0.13408682353E+04  0.46999998093E+01 0. -1.
</event>
<event>
 5   0  0.5024070E-05  0.2450371E+04  0.7818609E-02  0.8420883E-01
        2   -1    0    0  501    0  0.00000000000E+00  0.00000000000E+00  0.98382474147E+03  0.98382474147E+03  0.25500000920E-02 0.  1.
       -2   -1    0    0    0  501  0.00000000000E+00  0.00000000000E+00 -0.15257586989E+04  0.15257586989E+04  0.25500000920E-02 0. -1.
    10030    2    1    2    0    0  0.00000000000E+00  0.00000000000E+00 -0.54193395740E+03  0.25095834403E+04  0.24503707127E+04 0.  0.
        5    1    3    3  502    0 -0.10888778258E+04  0.51232684594E+03 -0.50657686729E+03  0.13056706817E+04  0.46999998093E+01 0. -1.
       -5    1    3    3    0  502  0.10888778258E+04 -0.51232684594E+03 -0.35357090108E+02  0.12039127586E+04  0.46999998093E+01 0.  1.
</event>
<event>
 5   0  0.2041718E-05  0.2502156E+04  0.7818609E-02  0.8402218E-01
       -1   -1    0    0    0  501  0.00000000000E+00  0.00000000000E+00  0.98300121773E+03  0.98300121775E+03  0.50400001928E-02 0.  1.
        1   -1    0    0  501    0  0.00000000000E+00  0.00000000000E+00 -0.15922629670E+04  0.15922629670E+04  0.50400001928E-02 0. -1.
    10030    2    1    2    0    0  0.00000000000E+00  0.00000000000E+00 -0.60926174922E+03  0.25752641847E+04  0.25021562185E+04 0.  0.
        4    1    3    3  502    0  0.59006968375E+03  0.84690375445E+03 -0.10322280271E+04  0.14597686508E+04  0.12699999809E+01 0. -1.
       -4    1    3    3    0  502 -0.59006968375E+03 -0.84690375445E+03  0.42296627792E+03  0.11154955339E+04  0.12699999809E+01 0.  1.
</event>
<event>
 5   0  0.4995256E-05  0.1947809E+04  0.7818609E-02  0.8631418E-01
       -2   -1    0    0    0  501  0.00000000000E+00  0.00000000000E+00  0.57289505634E+03  0.57289505635E+03  0.25500000920E-02 0.  1.
        2   -1    0    0  501    0  0.00000000000E+00  0.00000000000E+00 -0.16556083480E+04  0.16556083480E+04  0.25500000920E-02 0. -1.
    10030    2    1    2    0    0  0.00000000000E+00  0.00000000000E+00 -0.10827132916E+04  0.22285034043E+04  0.19478088590E+04 0.  0.
        2    1    3    3  502    0 -0.33857653433E+03  0.49779125054E+03 -0.14172230569E+04  0.15397893985E+04  0.25500000920E-02 0. -1.
       -2    1    3    3    0  502  0.33857653433E+03 -0.49779125054E+03  0.33450976529E+03  0.68871400581E+03  0.25500000920E-02 0.  1.
</event>
<event>
 5   0  0.2081874E-05  0.1865781E+04  0.7818609E-02  0.8672079E-01
       -1   -1    0    0    0  501  0.00000000000E+00  0.00000000000E+00  0.41689118260E+03  0.41689118263E+03  0.50400001928E-02 0. -1.
        1   -1    0    0  501    0  0.00000000000E+00  0.00000000000E+00 -0.20875580502E+04  0.20875580502E+04  0.50400001928E-02 0.  1.
    10030    2    1    2    0    0  0.00000000000E+00  0.00000000000E+00 -0.16706668676E+04  0.25044492328E+04  0.18657808492E+04 0.  0.
        1    1    3    3  502    0  0.42989444313E+03  0.33743911756E+03  0.17951589547E+03  0.57523938238E+03  0.50400001928E-02 0. -1.
       -1    1    3    3    0  502 -0.42989444313E+03 -0.33743911756E+03 -0.18501827630E+04  0.19292098504E+04  0.50400001928E-02 0.  1.
</event>
<event>
 5   0  0.4959347E-05  0.2519819E+04  0.7818609E-02  0.8395959E-01
       -2   -1    0    0    0  501  0.00000000000E+00  0.00000000000E+00  0.75394258113E+03  0.75394258114E+03  0.25500000920E-02 0.  1.
        2   -1    0    0  501    0  0.00000000000E+00  0.00000000000E+00 -0.21054288629E+04  0.21054288629E+04  0.25500000920E-02 0. -1.
    10030    2    1    2    0    0  0.00000000000E+00  0.00000000000E+00 -0.13514862818E+04  0.28593714441E+04  0.25198194152E+04 0.  0.
        3    1    3    3  502    0 -0.23639565909E+03  0.62018262998E+03 -0.18909688250E+04  0.20040639983E+04  0.10100000352E+00 0. -1.
       -3    1    3    3    0  502  0.23639565909E+03 -0.62018262998E+03  0.53948254317E+03  0.85530744575E+03  0.10100000352E+00 0.  1.
</event>
<event>
 5   0  0.5024070E-05  0.2507413E+04  0.7818609E-02  0.8400349E-01
       -2   -1    0    0    0  501  0.00000000000E+00  0.00000000000E+00  0.78296325416E+03  0.78296325416E+03  0.25500000920E-02 0. -1.
        2   -1    0    0  501    0  0.00000000000E+00  0.00000000000E+00 -0.20074761062E+04  0.20074761062E+04  0.25500000920E-02 0.  1.
    10030    2    1    2    0    0  0.00000000000E+00  0.00000000000E+00 -0.12245128520E+04  0.27904393603E+04  0.25074130292E+04 0.  0.
        5    1    3    3  502    0 -0.47777044266E+03  0.97984197415E+03 -0.13013441127E+04  0.16976081644E+04  0.46999998093E+01 0.  1.
       -5    1    3    3    0  502  0.47777044266E+03 -0.97984197415E+03  0.76831260684E+02  0.10928311959E+04  0.46999998093E+01 0. -1.
</event>
<event>
 5   0  0.2081874E-05  0.2464531E+04  0.7818609E-02  0.8415732E-01
        1   -1    0    0  501    0  0.00000000000E+00  0.00000000000E+00  0.14518073130E+04  0.14518073130E+04  0.50400001928E-02 0.  1.
       -1   -1    0    0    0  501  0.00000000000E+00  0.00000000000E+00 -0.10459228741E+04  0.10459228741E+04  0.50400001928E-02 0. -1.
    10030    2    1    2    0    0  0.00000000000E+00  0.00000000000E+00  0.40588443893E+03  0.24977301871E+04  0.24645311745E+04 0.  0.
        1    1    3    3  502    0 -0.10480255088E+04  0.64802442918E+03  0.18914451361E+03  0.12466229482E+04  0.50400001928E-02 0.  1.
       -1    1    3    3    0  502  0.10480255088E+04 -0.64802442918E+03  0.21673992531E+03  0.12511072389E+04  0.50400001928E-02 0. -1.
</event>
<event>
 5   0  0.2041718E-05  0.2807498E+04  0.7818609E-02  0.8300944E-01
        1   -1    0    0  501    0  0.00000000000E+00  0.00000000000E+00  0.18542521159E+04  0.18542521159E+04  0.50400001928E-02 0. -1.
       -1   -1    0    0    0  501  0.00000000000E+00  0.00000000000E+00 -0.10626984601E+04  0.10626984602E+04  0.50400001928E-02 0.  1.
    10030    2    1    2    0    0  0.00000000000E+00  0.00000000000E+00  0.79155365572E+03  0.29169505760E+04  0.28074977245E+04 0.  0.
        4    1    3    3  502    0  0.10427954156E+04 -0.66014942397E+03 -0.29909405453E+03  0.12699127557E+04  0.12699999809E+01 0.  1.
       -4    1    3    3    0  502 -0.10427954156E+04  0.66014942397E+03  0.10906477102E+04  0.16470378203E+04  0.12699999809E+01 0. -1.
</event>
<event>
 5   0  0.1692125E-05  0.2493267E+04  0.7818609E-02  0.8405388E-01
       -3   -1    0    0    0  501  0.00000000000E+00  0.00000000000E+00  0.14257183990E+04  0.14257184026E+04  0.10100000352E+00 0.  1.
        3   -1    0    0  501    0  0.00000000000E+00  0.00000000000E+00 -0.10900432077E+04  0.10900432124E+04  0.10100000352E+00 0. -1.
    10030    2    1    2    0    0  0.00000000000E+00  0.00000000000E+00  0.33567519129E+03  0.25157616150E+04  0.24932666663E+04 0.  0.
        4    1    3    3  502    0 -0.58771734342E+03  0.97701934736E+03  0.67648348844E+03  0.13257488465E+04  0.12699999809E+01 0. -1.
       -4    1    3    3    0  502  0.58771734342E+03 -0.97701934736E+03 -0.34080829715E+03  0.11900127685E+04  0.12699999809E+01 0.  1.
</event>
<event>
 5   0  0.2066170E-05  0.1657237E+04  0.7818609E-02  0.8786137E-01
       -1   -1    0    0    0  501  0.00000000000E+00  0.00000000000E+00  0.84627575907E+03  0.84627575909E+03  0.50400001928E-02 0.  1.
        1   -1    0    0  501    0  0.00000000000E+00  0.00000000000E+00 -0.81132981088E+03  0.81132981090E+03  0.50400001928E-02 0. -1.
    10030    2    1    2    0    0  0.00000000000E+00  0.00000000000E+00  0.34945948195E+02  0.16576055700E+04  0.16572371606E+04 0.  0.
        5    1    3    3  502    0  0.67143696136E+03  0.11050903524E+03  0.49038546401E+03  0.83877281385E+03  0.46999998093E+01 0.  1.
       -5    1    3    3    0  502 -0.67143696136E+03 -0.11050903524E+03 -0.45543951581E+03  0.81883275613E+03  0.46999998093E+01 0. -1.
</event>
<event>
 5   0  0.5024070E-05  0.2616816E+04  0.7818609E-02  0.8362512E-01
        2   -1    0    0  501    0  0.00000000000E+00  0.00000000000E+00  0.20819623800E+04  0.20819623800E+04  0.25500000920E-02 0.  1.
       -2   -1    0    0    0  501  0.00000000000E+00  0.00000000000E+00 -0.82226799113E+03  0.82226799113E+03  0.25500000920E-02 0. -1.
    10030    2    1    2    0    0  0.00000000000E+00  0.00000000000E+00  0.12596943889E+04  0.29042303712E+04  0.26168156403E+04 0.  0.
        5    1    3    3  502    0 -0.54902780851E+03 -0.15191729631E+03 -0.67740250794E+03  0.88510261959E+03  0.46999998093E+01 0. -1.
       -5    1    3    3    0  502  0.54902780851E+03  0.15191729631E+03  0.19370968969E+04  0.20191277516E+04  0.46999998093E+01 0.  1.
</event>
<event>
 5   0  0.5024070E-05  0.2425414E+04  0.7818609E-02  0.8430050E-01
        2   -1    0    0  501    0  0.00000000000E+00  0.00000000000E+00  0.19967816814E+04  0.19967816814E+04  0.25500000920E-02 0. -1.
       -2   -1    0    0    0  501  0.00000000000E+00  0.00000000000E+00 -0.73651445348E+03  0.73651445348E+03  0.25500000920E-02 0.  1.
    10030    2    1    2    0    0  0.00000000000E+00  0.00000000000E+00  0.12602672279E+04  0.27332961349E+04  0.24254142482E+04 0.  0.
        5    1    3    3  502    0  0.67870292867E+03 -0.25505353500E+03 -0.46534618864E+03  0.86154462240E+03  0.46999998093E+01 0.  1.
       -5    1    3    3    0  502 -0.67870292867E+03  0.25505353500E+03  0.17256134165E+04  0.18717515125E+04  0.46999998093E+01 0. -1.
</event>
<event>
 5   0  0.5024070E-05  0.2533514E+04  0.7818609E-02  0.8391142E-01
       -2   -1    0    0    0  501  0.00000000000E+00  0.00000000000E+00  0.96267148718E+03  0.96267148719E+03  0.25500000920E-02 0.  1.
        2   -1    0    0  501    0  0.00000000000E+00  0.00000000000E+00 -0.16668960512E+04  0.16668960512E+04  0.25500000920E-02 0. -1.
    10030    2    1    2    0    0  0.00000000000E+00  0.00000000000E+00 -0.70422456404E+03  0.26295675384E+04  0.25335140028E+04 0.  0.
        5    1    3    3  502    0 -0.15681991269E+03  0.76118577766E+03  0.68614071194E+03  0.10367292027E+04  0.46999998093E+01 0.  1.
       -5    1    3    3    0  502  0.15681991269E+03 -0.76118577766E+03 -0.13903652760E+04  0.15928383357E+04  0.46999998093E+01 0. -1.
</event>
<event>
 5   0  0.5024070E-05  0.2504364E+04  0.7818609E-02  0.8401433E-01
       -2   -1    0    0    0  501  0.00000000000E+00  0.00000000000E+00  0.95342414339E+03  0.95342414339E+03  0.25500000920E-02 0.  1.
        2   -1    0    0  501    0  0.00000000000E+00  0.00000000000E+00 -0.16445563297E+04  0.16445563297E+04  0.25500000920E-02 0. -1.
    10030    2    1    2    0    0  0.00000000000E+00  0.00000000000E+00 -0.69113218629E+03  0.25979804731E+04  0.25043639591E+04 0.  0.
        5    1    3    3  502    0  0.45583977515E+03  0.62434510740E+03 -0.13674477593E+04  0.15708380496E+04  0.46999998093E+01 0. -1.
       -5    1    3    3    0  502 -0.45583977515E+03 -0.62434510740E+03  0.67631557301E+03  0.10271424234E+04  0.46999998093E+01 0.  1.
</event>
<event>
 5   0  0.2036578E-05  0.2492153E+04  0.7818609E-02  0.8405786E-01
       -1   -1    0    0    0  501  0.00000000000E+00  0.00000000000E+00  0.15572632630E+04  0.15572632630E+04  0.50400001928E-02 0.  1.
        1   -1    0    0  501    0  0.00000000000E+00  0.00000000000E+00 -0.99707391648E+03  0.99707391650E+03  0.50400001928E-02 0. -1.
    10030    2    1    2    0    0  0.00000000000E+00  0.00000000000E+00  0.56018934654E+03  0.25543371795E+04  0.24921529493E+04 0.  0.
        2    1    3    3  502    0  0.46502068570E+03 -0.99632916768E+03  0.88106148443E+03  0.14089660705E+04  0.25500000920E-02 0.  1.
       -2    1    3    3    0  502 -0.46502068570E+03  0.99632916768E+03 -0.32087213789E+03  0.11453711090E+04  0.25500000920E-02 0. -1.
</event>
<event>
 5   0  0.4959347E-05  0.2417626E+04  0.7818609E-02  0.8432934E-01
        2   -1    0    0  501    0  0.00000000000E+00  0.00000000000E+00  0.15518220379E+04  0.15518220379E+04  0.25500000920E-02 0. -1.
       -2   -1    0    0    0  501  0.00000000000E+00  0.00000000000E+00 -0.94162147704E+03  0.94162147704E+03  0.25500000920E-02 0.  1.
    10030    2    1    2    0    0  0.00000000000E+00  0.00000000000E+00  0.61020056084E+03  0.24934435149E+04  0.24176260748E+04 0.  0.
        3    1    3    3  502    0 -0.41559873682E+03 -0.11342471432E+04  0.35110932318E+03  0.12579811838E+04  0.10100000352E+00 0.  1.
       -3    1    3    3    0  502  0.41559873682E+03  0.11342471432E+04  0.25909123767E+03  0.12354623311E+04  0.10100000352E+00 0. -1.
</event>
<event>
 5   0  0.4959042E-05  0.2483613E+04  0.7818609E-02  0.8408847E-01
       -2   -1    0    0    0  501  0.00000000000E+00  0.00000000000E+00  0.59182884880E+03  0.59182884881E+03  0.25500000920E-02 0. -1.
        2   -1    0    0  501    0  0.00000000000E+00  0.00000000000E+00 -0.26056232804E+04  0.26056232804E+04  0.25500000920E-02 0.  1.
    10030    2    1    2    0    0  0.00000000000E+00  0.00000000000E+00 -0.20137944316E+04  0.31974521292E+04  0.24836127125E+04 0.  0.
        4    1    3    3  502    0 -0.11141177541E+04 -0.46746349291E+02 -0.30335108000E+03  0.11556241092E+04  0.12699999809E+01 0. -1.
       -4    1    3    3    0  502  0.11141177541E+04  0.46746349291E+02 -0.17104433516E+04  0.20418280200E+04  0.12699999809E+01 0.  1.
</event>
<event>
 5   0  0.4959347E-05  0.2471277E+04  0.7818609E-02  0.8413290E-01
        2   -1    0    0  501    0  0.00000000000E+00  0.00000000000E+00  0.81755939928E+03  0.81755939928E+03  0.25500000920E-02 0. -1.
       -2   -1    0    0    0  501  0.00000000000E+00  0.00000000000E+00 -0.18675127809E+04  0.18675127809E+04  0.25500000920E-02 0.  1.
    10030    2    1    2    0    0  0.00000000000E+00  0.00000000000E+00 -0.10499533816E+04  0.26850721802E+04  0.24712771008E+04 0.  0.
        3    1    3    3  502    0 -0.14570881277E+03 -0.10396482364E+04 -0.12330483911E+04  0.16194159005E+04  0.10100000352E+00 0.  1.
       -3    1    3    3    0  502  0.14570881277E+03  0.10396482364E+04  0.18309500956E+03  0.10656562797E+04  0.10100000352E+00 0. -1.
</event>
<event>
 5   0  0.2036578E-05  0.2552815E+04  0.7818609E-02  0.8384408E-01
       -1   -1    0    0    0  501  0.00000000000E+00  0.00000000000E+00  0.81549524180E+03  0.81549524181E+03  0.50400001928E-02 0. -1.
        1   -1    0    0  501    0  0.00000000000E+00  0.00000000000E+00 -0.19978246550E+04  0.19978246550E+04  0.50400001928E-02 0.  1.
    10030    2    1    2    0    0  0.00000000000E+00  0.00000000000E+00 -0.11823294132E+04  0.28133198968E+04  0.25528153087E+04 0.  0.
        2    1    3    3  502    0 -0.31499289579E+03 -0.10831237653E+04  0.67153413128E+02  0.11299943346E+04  0.25500000920E-02 0. -1.
       -2    1    3    3    0  502  0.31499289579E+03  0.10831237653E+04 -0.12494828263E+04  0.16833255623E+04  0.25500000920E-02 0.  1.
</event>
<event>
 5   0  0.4995256E-05  0.2493268E+04  0.7818609E-02  0.8405388E-01
       -2   -1    0    0    0  501  0.00000000000E+00  0.00000000000E+00  0.22873009971E+04  0.22873009971E+04  0.25500000920E-02 0. -1.
        2   -1    0    0  501    0  0.00000000000E+00  0.00000000000E+00 -0.67944570100E+03  0.67944570100E+03  0.25500000920E-02 0.  1.
    10030    2    1    2    0    0  0.00000000000E+00  0.00000000000E+00  0.16078552962E+04  0.29667466982E+04  0.24932684006E+04 0.  0.
        2    1    3    3  502    0  0.60196146078E+03  0.29793078338E+03  0.20535953921E+04  0.21606421236E+04  0.25500000920E-02 0. -1.
       -2    1    3    3    0  502 -0.60196146078E+03 -0.29793078338E+03 -0.44574009593E+03  0.80610457453E+03  0.25500000920E-02 0.  1.
</event>
<event>
 5   0  0.2041718E-05  0.2508704E+04  0.7818609E-02  0.8399891E-01
       -1   -1    0    0    0  501  0.00000000000E+00  0.00000000000E+00  0.10045456870E+04  0.10045456870E+04  0.50400001928E-02 0. -1.
        1   -1    0    0  501    0  0.00000000000E+00  0.00000000000E+00 -0.15662792139E+04  0.15662792139E+04  0.50400001928E-02 0.  1.
    10030    2    1    2    0    0  0.00000000000E+00  0.00000000000E+00 -0.56173352694E+03  0.25708249009E+04  0.25087040710E+04 0.  0.
        4    1    3    3  502    0 -0.79092831624E+03 -0.37070463317E+03  0.64165133139E+03  0.10838392734E+04  0.12699999809E+01 0. -1.
       -4    1    3    3    0  502  0.79092831624E+03  0.37070463317E+03 -0.12033848583E+04  0.14869856276E+04  0.12699999809E+01 0.  1.
</event>
<event>
 5   0  0.2041718E-05  0.2532423E+04  0.7818609E-02  0.8391525E-01
        1   -1    0    0  501    0  0.00000000000E+00  0.00000000000E+00  0.13761196344E+04  0.13761196344E+04  0.50400001928E-02 0. -1.
       -1   -1    0    0    0  501  0.00000000000E+00  0.00000000000E+00 -0.11650813975E+04  0.11650813975E+04  0.50400001928E-02 0.  1.
    10030    2    1    2    0    0  0.00000000000E+00  0.00000000000E+00  0.21103823694E+03  0.25412010319E+04  0.25324228611E+04 0.  0.
        4    1    3    3  502    0  0.40946173771E+03 -0.54954631748E+03 -0.96289201795E+03  0.11818725485E+04  0.12699999809E+01 0.  1.
       -4    1    3    3    0  502 -0.40946173771E+03  0.54954631748E+03  0.11739302549E+04  0.13593284835E+04  0.12699999809E+01 0. -1.
</event>
<event>
 5   0  0.4959042E-05  0.2502807E+04  0.7818609E-02  0.8401986E-01
        2   -1    0    0  501    0  0.00000000000E+00  0.00000000000E+00  0.12919113530E+04  0.12919113530E+04  0.25500000920E-02 0.  1.
       -2   -1    0    0    0  501  0.00000000000E+00  0.00000000000E+00 -0.12121653259E+04  0.12121653259E+04  0.25500000920E-02 0. -1.
    10030    2    1    2    0    0  0.00000000000E+00  0.00000000000E+00  0.79746027148E+02  0.25040766789E+04  0.25028065417E+04 0.  0.
        4    1    3    3  502    0 -0.11896489790E+04 -0.16797321364E+03  0.39009185120E+03  0.12631915766E+04  0.12699999809E+01 0.  1.
       -4    1    3    3    0  502  0.11896489790E+04  0.16797321364E+03 -0.31034582405E+03  0.12408851024E+04  0.12699999809E+01 0. -1.
</event>
<event>
 5   0  0.2063930E-05  0.2055451E+04  0.7818609E-02  0.8581125E-01
       -1   -1    0    0    0  501  0.00000000000E+00  0.00000000000E+00  0.74466382875E+03  0.74466382876E+03  0.50400001928E-02 0. -1.
        1   -1    0    0  501    0  0.00000000000E+00  0.00000000000E+00 -0.14183848230E+04  0.14183848230E+04  0.50400001928E-02 0.  1.
    10030    2    1    2    0    0  0.00000000000E+00  0.00000000000E+00 -0.67372099422E+03  0.21630486517E+04  0.20554511650E+04 0.  0.
        3    1    3    3  502    0 -0.15655400353E+03 -0.32449063996E+03  0.67602947829E+03  0.76604125030E+03  0.10100000352E+00 0. -1.
       -3    1    3    3    0  502  0.15655400353E+03  0.32449063996E+03 -0.13497504725E+04  0.13970074014E+04  0.10100000352E+00 0.  1.
</event>
<event>
 5   0  0.2036578E-05  0.2585791E+04  0.7818609E-02  0.8373044E-01
       -1   -1    0    0    0  501  0.00000000000E+00  0.00000000000E+00  0.84184050582E+03  0.84184050583E+03  0.50400001928E-02 0. -1.
        1   -1    0    0  501    0  0.00000000000E+00  0.00000000000E+00 -0.19856245294E+04  0.19856245294E+04  0.50400001928E-02 0.  1.
    10030    2    1    2    0    0  0.00000000000E+00  0.00000000000E+00 -0.11437840236E+04  0.28274650353E+04  0.25857912973E+04 0.  0.
        2    1    3    3  502    0  0.11029855397E+04  0.50342563864E+03 -0.10628123159E+04  0.16123227013E+04  0.25500000920E-02 0.  1.
       -2    1    3    3    0  502 -0.11029855397E+04 -0.50342563864E+03 -0.80971707743E+02  0.12151423340E+04  0.25500000920E-02 0. -1.
</event>
<event>
 5   0  0.4959347E-05  0.2435519E+04  0.7818609E-02  0.8426324E-01
       -2   -1    0    0    0  501  0.00000000000E+00  0.00000000000E+00  0.81287291177E+03  0.81287291178E+03  0.25500000920E-02 0. -1.
        2   -1    0    0  501    0  0.00000000000E+00  0.00000000000E+00 -0.18243177064E+04  0.18243177064E+04  0.25500000920E-02 0.  1.
    10030    2    1    2    0    0  0.00000000000E+00  0.00000000000E+00 -0.10114447946E+04  0.26371906182E+04  0.24355192022E+04 0.  0.
        3    1    3    3  502    0  0.11373520004E+04  0.13836636804E+03 -0.95246756548E+03  0.14899360047E+04  0.10100000352E+00 0.  1.
       -3    1    3    3    0  502 -0.11373520004E+04 -0.13836636804E+03 -0.58977229169E+02  0.11472546135E+04  0.10100000352E+00 0. -1.
</event>
<event>
 5   0  0.4959347E-05  0.2475688E+04  0.7818609E-02  0.8411698E-01
       -2   -1    0    0    0  501  0.00000000000E+00  0.00000000000E+00  0.67249639686E+03  0.67249639686E+03  0.25500000920E-02 0. -1.
        2   -1    0    0  501    0  0.00000000000E+00  0.00000000000E+00 -0.22784618384E+04  0.22784618384E+04  0.25500000920E-02 0.  1.
    10030    2    1    2    0    0  0.00000000000E+00  0.00000000000E+00 -0.16059654415E+04  0.29509582353E+04  0.24756876836E+04 0.  0.
        3    1    3    3  502    0  0.71662223158E+03 -0.68254454696E+03 -0.16892568440E+04  0.19578057045E+04  0.10100000352E+00 0.  1.
       -3    1    3    3    0  502 -0.71662223158E+03  0.68254454696E+03  0.83291402488E+02  0.99315253074E+03  0.10100000352E+00 0. -1.
</event>
<event>
 5   0  0.4959042E-05  0.2313172E+04  0.7818609E-02  0.8472746E-01
       -2   -1    0    0    0  501  0.00000000000E+00  0.00000000000E+00  0.10812998224E+04  0.10812998224E+04  0.25500000920E-02 0.  1.
        2   -1    0    0  501    0  0.00000000000E+00  0.00000000000E+00 -0.12371138148E+04  0.12371138148E+04  0.25500000920E-02 0. -1.
    10030    2    1    2    0    0  0.00000000000E+00  0.00000000000E+00 -0.15581399239E+03  0.23184136372E+04  0.23131718036E+04 0.  0.
        4    1    3    3  502    0  0.76315765800E+03  0.83634104779E+03  0.15887690945E+03  0.11432932452E+04  0.12699999809E+01 0.  1.
       -4    1    3    3    0  502 -0.76315765800E+03 -0.83634104779E+03 -0.31469090183E+03  0.11751203920E+04  0.12699999809E+01 0. -1.
</event>
<event>
 5   0  0.2081874E-05  0.1954426E+04  0.7818609E-02  0.8628229E-01
        1   -1    0    0  501    0  0.00000000000E+00  0.00000000000E+00  0.22250183515E+04  0.22250183515E+04  0.50400001928E-02 0. -1.
       -1   -1    0    0    0  501  0.00000000000E+00  0.00000000000E+00 -0.42918532230E+03  0.42918532233E+03  0.50400001928E-02 0.  1.
    10030    2    1    2    0    0  0.00000000000E+00  0.00000000000E+00  0.17958330292E+04  0.26542036738E+04  0.19544259703E+04 0.  0.
        1    1    3    3  502    0  0.34457261231E+03  0.58165973531E+03 -0.60336875938E+02  0.67874801764E+03  0.50400001928E-02 0.  1.
       -1    1    3    3    0  502 -0.34457261231E+03 -0.58165973531E+03  0.18561699051E+04  0.19754556562E+04  0.50400001928E-02 0. -1.
</event>
<event>
 5   0  0.4959042E-05  0.2498642E+04  0.7818609E-02  0.8403470E-01
        2   -1    0    0  501    0  0.00000000000E+00  0.00000000000E+00  0.78796835471E+03  0.78796835472E+03  0.25500000920E-02 0. -1.
       -2   -1    0    0    0  501  0.00000000000E+00  0.00000000000E+00 -0.19807938274E+04  0.19807938274E+04  0.25500000920E-02 0.  1.
    10030    2    1    2    0    0  0.00000000000E+00  0.00000000000E+00 -0.11928254727E+04  0.27687621821E+04  0.24986419137E+04 0.  0.
        4    1    3    3  502    0 -0.31134182198E+03  0.46614849680E+03  0.64078896105E+03  0.85137550862E+03  0.12699999809E+01 0. -1.
       -4    1    3    3    0  502  0.31134182198E+03 -0.46614849680E+03 -0.18336144337E+04  0.19173866735E+04  0.12699999809E+01 0.  1.
</event>
<event>
 5   0  0.2063930E-05  0.2518365E+04  0.7818609E-02  0.8396472E-01
       -1   -1    0    0    0  501  0.00000000000E+00  0.00000000000E+00  0.10374073117E+04  0.10374073118E+04  0.50400001928E-02 0.  1.
        1   -1    0    0  501    0  0.00000000000E+00  0.00000000000E+00 -0.15283685384E+04  0.15283685384E+04  0.50400001928E-02 0. -1.
    10030    2    1    2    0    0  0.00000000000E+00  0.00000000000E+00 -0.49096122670E+03  0.25657758502E+04  0.25183651021E+04 0.  0.
        3    1    3    3  502    0  0.74599893620E+03  0.27104409528E+03 -0.12414117569E+04  0.14734593563E+04  0.10100000352E+00 0. -1.
       -3    1    3    3    0  502 -0.74599893620E+03 -0.27104409528E+03  0.75045053017E+03  0.10923164939E+04  0.10100000352E+00 0.  1.
</event>
<event>
 5   0  0.4959347E-05  0.2619600E+04  0.7818609E-02  0.8361574E-01
       -2   -1    0    0    0  501  0.00000000000E+00  0.00000000000E+00  0.11144407067E+04  0.11144407067E+04  0.25500000920E-02 0. -1.
        2   -1    0    0  501    0  0.00000000000E+00  0.00000000000E+00 -0.15394053656E+04  0.15394053656E+04  0.25500000920E-02 0.  1.
    10030    2    1    2    0    0  0.00000000000E+00  0.00000000000E+00 -0.42496465886E+03  0.26538460723E+04  0.26195999721E+04 0.  0.
        3    1    3    3  502    0  0.20789009858E+03  0.11925309817E+04 -0.71924932300E+03  0.14080724535E+04  0.10100000352E+00 0.  1.
       -3    1    3    3    0  502 -0.20789009858E+03 -0.11925309817E+04  0.29428466413E+03  0.12457736188E+04  0.10100000352E+00 0. -1.
</event>
<event>
 5   0  0.5024070E-05  0.2515065E+04  0.7818609E-02  0.8397638E-01
        2   -1    0    0  501    0  0.00000000000E+00  0.00000000000E+00  0.15032307883E+04  0.15032307883E+04  0.25500000920E-02 0.  1.
       -2   -1    0    0    0  501  0.00000000000E+00  0.00000000000E+00 -0.10519931710E+04  0.10519931710E+04  0.25500000920E-02 0. -1.
    10030    2    1    2    0    0  0.00000000000E+00  0.00000000000E+00  0.45123761733E+03  0.25552239593E+04  0.25150654256E+04 0.  0.
        5    1    3    3  502    0 -0.25049663911E+03  0.66728531661E+03 -0.82694878488E+03  0.10917346943E+04  0.46999998093E+01 0. -1.
       -5    1    3    3    0  502  0.25049663911E+03 -0.66728531661E+03  0.12781864022E+04  0.14634892650E+04  0.46999998093E+01 0.  1.
</event>
<event>
 5   0  0.2081874E-05  0.2438605E+04  0.7818609E-02  0.8425190E-01
       -1   -1    0    0    0  501  0.00000000000E+00  0.00000000000E+00  0.84447110355E+03  0.84447110357E+03  0.50400001928E-02 0. -1.
        1   -1    0    0  501    0  0.00000000000E+00  0.00000000000E+00 -0.17605090790E+04  0.17605090790E+04  0.50400001928E-02 0.  1.
    10030    2    1    2    0    0  0.00000000000E+00  0.00000000000E+00 -0.91603797544E+03  0.26049801826E+04  0.24386053759E+04 0.  0.
        1    1    3    3  502    0  0.33410866802E+03 -0.91125712355E+03  0.33035805464E+03  0.10252583048E+04  0.50400001928E-02 0. -1.
       -1    1    3    3    0  502 -0.33410866802E+03  0.91125712355E+03 -0.12463960301E+04  0.15797218778E+04  0.50400001928E-02 0.  1.
</event>
<event>
 5   0  0.2081874E-05  0.2603724E+04  0.7818609E-02  0.8366937E-01
       -1   -1    0    0    0  501  0.00000000000E+00  0.00000000000E+00  0.93633961033E+03  0.93633961035E+03  0.50400001928E-02 0.  1.
        1   -1    0    0  501    0  0.00000000000E+00  0.00000000000E+00 -0.18100751842E+04  0.18100751842E+04  0.50400001928E-02 0. -1.
    10030    2    1    2    0    0  0.00000000000E+00  0.00000000000E+00 -0.87373557387E+03  0.27464147946E+04  0.26037243269E+04 0.  0.
        1    1    3    3  502    0  0.41621864105E+03  0.78749370576E+03  0.56461745066E+03  0.10545981033E+04  0.50400001928E-02 0.  1.
       -1    1    3    3    0  502 -0.41621864105E+03 -0.78749370576E+03 -0.14383530245E+04  0.16918166913E+04  0.50400001928E-02 0. -1.
</event>
<event>
 5   0  0.5219468E-05  0.2549804E+04  0.7818609E-02  0.8385454E-01
       -2   -1    0    0    0  501  0.00000000000E+00  0.00000000000E+00  0.15691894740E+04  0.15691894740E+04  0.25500000920E-02 0. -1.
        2   -1    0    0  501    0  0.00000000000E+00  0.00000000000E+00 -0.10358058345E+04  0.10358058345E+04  0.25500000920E-02 0.  1.
    10030    2    1    2    0    0  0.00000000000E+00  0.00000000000E+00  0.53338363956E+03  0.26049953085E+04  0.25498043945E+04 0.  0.
        1    1    3    3  502    0 -0.40986897606E+03  0.78648034618E+03  0.12023936898E+04  0.14940865095E+04  0.50400001928E-02 0. -1.
       -1    1    3    3    0  502  0.40986897606E+03 -0.78648034618E+03 -0.66901005023E+03  0.11109087990E+04  0.50400001928E-02 0.  1.
</event>
<event>
 5   0  0.2041718E-05  0.2465892E+04  0.7818609E-02  0.8415239E-01
        1   -1    0    0  501    0  0.00000000000E+00  0.00000000000E+00  0.13066129942E+04  0.13066129942E+04  0.50400001928E-02 0.  1.
       -1   -1    0    0    0  501  0.00000000000E+00  0.00000000000E+00 -0.11634320014E+04  0.11634320014E+04  0.50400001928E-02 0. -1.
    10030    2    1    2    0    0  0.00000000000E+00  0.00000000000E+00  0.14318099286E+03  0.24700449956E+04  0.24658916204E+04 0.  0.
        4    1    3    3  502    0 -0.16470999196E+02  0.37216548478E+03 -0.11057083691E+04  0.11667780647E+04  0.12699999809E+01 0. -1.
       -4    1    3    3    0  502  0.16470999196E+02 -0.37216548478E+03  0.12488893620E+04  0.13032669309E+04  0.12699999809E+01 0.  1.
</event>
<event>
 5   0  0.5024070E-05  0.2507347E+04  0.7818609E-02  0.8400373E-01
        2   -1    0    0  501    0  0.00000000000E+00  0.00000000000E+00  0.20986006582E+04  0.20986006582E+04  0.25500000920E-02 0. -1.
       -2   -1    0    0    0  501  0.00000000000E+00  0.00000000000E+00 -0.74892618891E+03  0.74892618892E+03  0.25500000920E-02 0.  1.
    10030    2    1    2    0    0  0.00000000000E+00  0.00000000000E+00  0.13496744693E+04  0.28475268471E+04  0.25073467993E+04 0.  0.
        5    1    3    3  502    0  0.39389445710E+03 -0.11907738084E+03  0.20197078044E+04  0.20612069210E+04  0.46999998093E+01 0. -1.
       -5    1    3    3    0  502 -0.39389445710E+03  0.11907738084E+03 -0.67003333515E+03  0.78631992610E+03  0.46999998093E+01 0.  1.
</event>
<event>
 5   0  0.2036578E-05  0.2513633E+04  0.7818609E-02  0.8398145E-01
        1   -1    0    0  501    0  0.00000000000E+00  0.00000000000E+00  0.12356826549E+04  0.12356826549E+04  0.50400001928E-02 0.  1.
       -1   -1    0    0    0  501  0.00000000000E+00  0.00000000000E+00 -0.12783117126E+04  0.12783117126E+04  0.50400001928E-02 0. -1.
    10030    2    1    2    0    0  0.00000000000E+00  0.00000000000E+00 -0.42629057703E+02  0.25139943676E+04  0.25136329175E+04 0.  0.
        2    1    3    3  502    0  0.88772360646E+03 -0.43226956360E+03  0.75640736657E+03  0.12438095840E+04  0.25500000920E-02 0.  1.
       -2    1    3    3    0  502 -0.88772360646E+03  0.43226956360E+03 -0.79903642428E+03  0.12701847836E+04  0.25500000920E-02 0. -1.
</event>
<event>
 5   0  0.2066170E-05  0.2384048E+04  0.7818609E-02  0.8445500E-01
        1   -1    0    0  501    0  0.00000000000E+00  0.00000000000E+00  0.83498241096E+03  0.83498241097E+03  0.50400001928E-02 0.  1.
       -1   -1    0    0    0  501  0.00000000000E+00  0.00000000000E+00 -0.17017371959E+04  0.17017371959E+04  0.50400001928E-02 0. -1.
    10030    2    1    2    0    0  0.00000000000E+00  0.00000000000E+00 -0.86675478494E+03  0.25367196069E+04  0.23840475051E+04 0.  0.
        5    1    3    3  502    0 -0.43427916234E+03  0.83440900388E+03 -0.12124267516E+04  0.15345479773E+04  0.46999998093E+01 0. -1.
       -5    1    3    3    0  502  0.43427916234E+03 -0.83440900388E+03  0.34567196667E+03  0.10021716296E+04  0.46999998093E+01 0.  1.
</event>
<event>
 5   0  0.2081874E-05  0.2552412E+04  0.7818609E-02  0.8384548E-01
       -1   -1    0    0    0  501  0.00000000000E+00  0.00000000000E+00  0.14706550230E+04  0.14706550231E+04  0.50400001928E-02 0. -1.
        1   -1    0    0  501    0  0.00000000000E+00  0.00000000000E+00 -0.11074669203E+04  0.11074669203E+04  0.50400001928E-02 0.  1.
    10030    2    1    2    0    0  0.00000000000E+00  0.00000000000E+00  0.36318810277E+03  0.25781219433E+04  0.25524120272E+04 0.  0.
        1    1    3    3  502    0  0.64581103490E+03 -0.58652801248E+03  0.11224348579E+04  0.14216001591E+04  0.50400001928E-02 0. -1.
       -1    1    3    3    0  502 -0.64581103490E+03  0.58652801248E+03 -0.75924675510E+03  0.11565217842E+04  0.50400001928E-02 0.  1.
</event>
<event>
 5   0  0.5024070E-05  0.2493328E+04  0.7818609E-02  0.8405366E-01
       -2   -1    0    0    0  501  0.00000000000E+00  0.00000000000E+00  0.13215390137E+04  0.13215390137E+04  0.25500000920E-02 0.  1.
        2   -1    0    0  501    0  0.00000000000E+00  0.00000000000E+00 -0.11760312044E+04  0.11760312044E+04  0.25500000920E-02 0. -1.
    10030    2    1    2    0    0  0.00000000000E+00  0.00000000000E+00  0.14550780929E+03  0.24975702180E+04  0.24933279912E+04 0.  0.
        5    1    3    3  502    0  0.10662354038E+04  0.21302548408E+03  0.68363676931E+03  0.12843749902E+04  0.46999998093E+01 0.  1.
       -5    1    3    3    0  502 -0.10662354038E+04 -0.21302548408E+03 -0.53812896002E+03  0.12131952278E+04  0.46999998093E+01 0. -1.
</event>
<event>
 5   0  0.2036578E-05  0.2487711E+04  0.7818609E-02  0.8407377E-01
        1   -1    0    0  501    0  0.00000000000E+00  0.00000000000E+00  0.15394717188E+04  0.15394717188E+04  0.50400001928E-02 0. -1.
       -1   -1    0    0    0  501  0.00000000000E+00  0.00000000000E+00 -0.10050049499E+04  0.10050049499E+04  0.50400001928E-02 0.  1.
    10030    2    1    2    0    0  0.00000000000E+00  0.00000000000E+00  0.53446676893E+03  0.25444766687E+04  0.24877111550E+04 0.  0.
        2    1    3    3  502    0  0.66669484014E+03 -0.62304597122E+03 -0.59734065445E+03  0.10906347462E+04  0.25500000920E-02 0.  1.
       -2    1    3    3    0  502 -0.66669484014E+03  0.62304597122E+03  0.11318074234E+04  0.14538419225E+04  0.25500000920E-02 0. -1.
</event>
<event>
 5   0  0.2063930E-05  0.2353781E+04  0.7818609E-02  0.8457013E-01
        1   -1    0    0  501    0  0.00000000000E+00  0.00000000000E+00  0.13140865673E+04  0.13140865673E+04  0.50400001928E-02 0.  1.
       -1   -1    0    0    0  501  0.00000000000E+00  0.00000000000E+00 -0.10540178569E+04  0.10540178569E+04  0.50400001928E-02 0. -1.
    10030    2    1    2    0    0  0.00000000000E+00  0.00000000000E+00  0.26006871039E+03  0.23681044241E+04  0.23537805398E+04 0.  0.
        3    1    3    3  502    0 -0.18957695841E+03 -0.10770472827E+04 -0.30746874372E+03  0.11360049784E+04  0.10100000352E+00 0. -1.
       -3    1    3    3    0  502  0.18957695841E+03  0.10770472827E+04  0.56753745410E+03  0.12320994458E+04  0.10100000352E+00 0.  1.
</event>
<event>
 5   0  0.4959347E-05  0.2492774E+04  0.7818609E-02  0.8405564E-01
        2   -1    0    0  501    0  0.00000000000E+00  0.00000000000E+00  0.18985180517E+04  0.18985180517E+04  0.25500000920E-02 0. -1.
       -2   -1    0    0    0  501  0.00000000000E+00  0.00000000000E+00 -0.81825967530E+03  0.81825967530E+03  0.25500000920E-02 0.  1.
    10030    2    1    2    0    0  0.00000000000E+00  0.00000000000E+00  0.10802583764E+04  0.27167777270E+04  0.24927741691E+04 0.  0.
        3    1    3    3  502    0 -0.88913517303E+03  0.68143106930E+03  0.11356474086E+04  0.15951817154E+04  0.10100000352E+00 0. -1.
       -3    1    3    3    0  502  0.88913517303E+03 -0.68143106930E+03 -0.55389032263E+02  0.11215960116E+04  0.10100000352E+00 0.  1.
</event>
<event>
 5   0  0.5024070E-05  0.2537971E+04  0.7818609E-02  0.8389582E-01
       -2   -1    0    0    0  501  0.00000000000E+00  0.00000000000E+00  0.14006537885E+04  0.14006537885E+04  0.25500000920E-02 0. -1.
        2   -1    0    0  501    0  0.00000000000E+00  0.00000000000E+00 -0.11496945327E+04  0.11496945327E+04  0.25500000920E-02 0.  1.
    10030    2    1    2    0    0  0.00000000000E+00  0.00000000000E+00  0.25095925579E+03  0.25503483213E+04  0.25379708453E+04 0.  0.
        5    1    3    3  502    0 -0.77728018186E+03 -0.84877500959E+03  0.66261281542E+03  0.13280291153E+04  0.46999998093E+01 0. -1.
       -5    1    3    3    0  502  0.77728018186E+03  0.84877500959E+03 -0.41165355964E+03  0.12223192059E+04  0.46999998093E+01 0.  1.
</event>
<event>
 5   0  0.5219468E-05  0.2499582E+04  0.7818609E-02  0.8403134E-01
       -2   -1    0    0    0  501  0.00000000000E+00  0.00000000000E+00  0.29280190933E+04  0.29280190933E+04  0.25500000920E-02 0.  1.
        2   -1    0    0  501    0  0.00000000000E+00  0.00000000000E+00 -0.53345885936E+03  0.53345885937E+03  0.25500000920E-02 0. -1.
    10030    2    1    2    0    0  0.00000000000E+00  0.00000000000E+00  0.23945602339E+04  0.34614779526E+04  0.24995821456E+04 0.  0.
        1    1    3    3  502    0  0.41679128544E+02 -0.73497410851E+03  0.25959192004E+04  0.26982810427E+04  0.50400001928E-02 0.  1.
       -1    1    3    3    0  502 -0.41679128544E+02  0.73497410851E+03 -0.20135896655E+03  0.76319690996E+03  0.50400001928E-02 0. -1.
</event>
<event>
 5   0  0.2041718E-05  0.2293991E+04  0.7818609E-02  0.8480294E-01
       -1   -1    0    0    0  501  0.00000000000E+00  0.00000000000E+00  0.13907322898E+04  0.13907322898E+04  0.50400001928E-02 0. -1.
        1   -1    0    0  501    0  0.00000000000E+00  0.00000000000E+00 -0.94597528068E+03  0.94597528070E+03  0.50400001928E-02 0.  1.
    10030    2    1    2    0    0  0.00000000000E+00  0.00000000000E+00  0.44475700915E+03  0.23367075705E+04  0.22939907308E+04 0.  0.
        4    1    3    3  502    0  0.65242774231E+03  0.16077030671E+03 -0.72449424863E+03  0.98813085148E+03  0.12699999809E+01 0.  1.
       -4    1    3    3    0  502 -0.65242774231E+03 -0.16077030671E+03  0.11692512578E+04  0.13485767191E+04  0.12699999809E+01 0. -1.
</event>
<event>
 5   0  0.2066170E-05  0.2453274E+04  0.7818609E-02  0.8419824E-01
       -1   -1    0    0    0  501  0.00000000000E+00  0.00000000000E+00  0.97496495490E+03  0.97496495492E+03  0.50400001928E-02 0. -1.
        1   -1    0    0  501    0  0.00000000000E+00  0.00000000000E+00 -0.15432739836E+04  0.15432739836E+04  0.50400001928E-02 0.  1.
    10030    2    1    2    0    0  0.00000000000E+00  0.00000000000E+00 -0.56830902865E+03  0.25182389385E+04  0.24532737718E+04 0.  0.
        5    1    3    3  502    0  0.90012119947E+03 -0.47243108520E+03  0.42046818095E+03  0.11001022158E+04  0.46999998093E+01 0.  1.
       -5    1    3    3    0  502 -0.90012119947E+03  0.47243108520E+03 -0.98877720960E+03  0.14181367227E+04  0.46999998093E+01 0. -1.
</event>
<event>
 5   0  0.2063930E-05  0.2548348E+04  0.7818609E-02  0.8385961E-01
        1   -1    0    0  501    0  0.00000000000E+00  0.00000000000E+00  0.29129589909E+04  0.29129589909E+04  0.50400001928E-02 0. -1.
       -1   -1    0    0    0  501  0.00000000000E+00  0.00000000000E+00 -0.55734372645E+03  0.55734372647E+03  0.50400001928E-02 0.  1.
    10030    2    1    2    0    0  0.00000000000E+00  0.00000000000E+00  0.23556152644E+04  0.34703027173E+04  0.25483480288E+04 0.  0.
        3    1    3    3  502    0  0.51106062867E+03  0.90410821505E+03  0.21830641528E+04  0.24175118896E+04  0.10100000352E+00 0. -1.
       -3    1    3    3    0  502 -0.51106062867E+03 -0.90410821505E+03  0.17255111159E+03  0.10527908278E+04  0.10100000352E+00 0.  1.
</event>
<event>
 5   0  0.4995256E-05  0.2354703E+04  0.7818609E-02  0.8456660E-01
       -2   -1    0    0    0  501  0.00000000000E+00  0.00000000000E+00  0.10179453445E+04  0.10179453445E+04  0.25500000920E-02 0. -1.
        2   -1    0    0  501    0  0.00000000000E+00  0.00000000000E+00 -0.13617196652E+04  0.13617196652E+04  0.25500000920E-02 0.  1.
    10030    2    1    2    0    0  0.00000000000E+00  0.00000000000E+00 -0.34377432072E+03  0.23796650097E+04  0.23547026935E+04 0.  0.
        2    1    3    3  502    0  0.64536899833E+03  0.81852498284E+03 -0.72511338208E+03  0.12697534046E+04  0.25500000920E-02 0.  1.
       -2    1    3    3    0  502 -0.64536899833E+03 -0.81852498284E+03  0.38133906135E+03  0.11099116052E+04  0.25500000920E-02 0. -1.
</event>
<event>
 5   0  0.2063930E-05  0.2489076E+04  0.7818609E-02  0.8406888E-01
       -1   -1    0    0    0  501  0.00000000000E+00  0.00000000000E+00  0.23330397232E+04  0.23330397232E+04  0.50400001928E-02 0. -1.
        1   -1    0    0  501    0  0.00000000000E+00  0.00000000000E+00 -0.66388693579E+03  0.66388693581E+03  0.50400001928E-02 0.  1.
    10030    2    1    2    0    0  0.00000000000E+00  0.00000000000E+00  0.16691527874E+04  0.29969266590E+04  0.24890758067E+04 0.  0.
        3    1    3    3  502    0 -0.41018441745E+03 -0.88701983762E+03  0.17623992889E+04  0.20152187753E+04  0.10100000352E+00 0. -1.
       -3    1    3    3    0  502  0.41018441745E+03  0.88701983762E+03 -0.93246501506E+02  0.98170788368E+03  0.10100000352E+00 0.  1.
</event>
<event>
 5   0  0.2036578E-05  0.2478313E+04  0.7818609E-02  0.8410752E-01
       -1   -1    0    0    0  501  0.00000000000E+00  0.00000000000E+00  0.35485074979E+04  0.35485074979E+04  0.50400001928E-02 0.  1.
        1   -1    0    0  501    0  0.00000000000E+00  0.00000000000E+00 -0.43271977936E+03  0.43271977939E+03  0.50400001928E-02 0. -1.
    10030    2    1    2    0    0  0.00000000000E+00  0.00000000000E+00  0.31157877185E+04  0.39812272773E+04  0.24783134439E+04 0.  0.
        2    1    3    3  502    0  0.74568175659E+03 -0.78415577204E+03  0.25278451083E+04  0.27497167942E+04  0.25500000920E-02 0.  1.
       -2    1    3    3    0  502 -0.74568175659E+03  0.78415577204E+03  0.58794261026E+03  0.12315104831E+04  0.25500000920E-02 0. -1.
</event>
<event>
 5   0  0.2041718E-05  0.2484668E+04  0.7818609E-02  0.8408468E-01
       -1   -1    0    0    0  501  0.00000000000E+00  0.00000000000E+00  0.10748574261E+04  0.10748574261E+04  0.50400001928E-02 0.  1.
        1   -1    0    0  501    0  0.00000000000E+00  0.00000000000E+00 -0.14359059054E+04  0.14359059054E+04  0.50400001928E-02 0. -1.
    10030    2    1    2    0    0  0.00000000000E+00  0.00000000000E+00 -0.36104847928E+03  0.25107633315E+04  0.24846682882E+04 0.  0.
        4    1    3    3  502    0 -0.33864777090E+03 -0.85772496729E+03 -0.10217443430E+04  0.13763493552E+04  0.12699999809E+01 0. -1.
       -4    1    3    3    0  502  0.33864777090E+03  0.85772496729E+03  0.66069586375E+03  0.11344139763E+04  0.12699999809E+01 0.  1.
</event>
<event>
 5   0  0.4959347E-05  0.2554770E+04  0.7818609E-02  0.8383729E-01
        2   -1    0    0  501    0  0.00000000000E+00  0.00000000000E+00  0.17933015872E+04  0.17933015872E+04  0.25500000920E-02 0. -1.
       -2   -1    0    0    0  501  0.00000000000E+00  0.00000000000E+00 -0.90989267162E+03  0.90989267163E+03  0.25500000920E-02 0.  1.
    10030    2    1    2    0    0  0.00000000000E+00  0.00000000000E+00  0.88340891562E+03  0.27031942589E+04  0.25547696352E+04 0.  0.
        3    1    3    3  502    0 -0.27356086880E+02 -0.98208102586E+03  0.13055164380E+04  0.16338924925E+04  0.10100000352E+00 0. -1.
       -3    1    3    3    0  502  0.27356086880E+02  0.98208102586E+03 -0.42210752243E+03  0.10693017664E+04  0.10100000352E+00 0.  1.
</event>
<event>
 5   0  0.4959347E-05  0.2520472E+04  0.7818609E-02  0.8395728E-01
        2   -1    0    0  501    0  0.00000000000E+00  0.00000000000E+00  0.12212357482E+04  0.12212357482E+04  0.25500000920E-02 0. -1.
       -2   -1    0    0    0  501  0.00000000000E+00  0.00000000000E+00 -0.13004816161E+04  0.13004816161E+04  0.25500000920E-02 0.  1.
    10030    2    1    2    0    0  0.00000000000E+00  0.00000000000E+00 -0.79245867889E+02  0.25217173643E+04  0.25204718919E+04 0.  0.
        3    1    3    3  502    0  0.10898977766E+04 -0.34484381861E+03 -0.57035674577E+03  0.12775371816E+04  0.10100000352E+00 0. -1.
       -3    1    3    3    0  502 -0.10898977766E+04  0.34484381861E+03  0.49111087788E+03  0.12441801828E+04  0.10100000352E+00 0.  1.
</event>
<event>
 5   0  0.2036578E-05  0.2483488E+04  0.7818609E-02  0.8408892E-01
        1   -1    0    0  501    0  0.00000000000E+00  0.00000000000E+00  0.16764139326E+04  0.16764139326E+04  0.50400001928E-02 0.  1.
       -1   -1    0    0    0  501  0.00000000000E+00  0.00000000000E+00 -0.91977786547E+03  0.91977786548E+03  0.50400001928E-02 0. -1.
    10030    2    1    2    0    0  0.00000000000E+00  0.00000000000E+00  0.75663606709E+03  0.25961917980E+04  0.24834882150E+04 0.  0.
        2    1    3    3  502    0  0.11595573199E+04  0.27626186201E+03  0.74200647673E+03  0.14040895292E+04  0.25500000920E-02 0.  1.
       -2    1    3    3    0  502 -0.11595573199E+04 -0.27626186201E+03  0.14629590360E+02  0.11921022688E+04  0.25500000920E-02 0. -1.
</event>
<event>
 5   0  0.2066170E-05  0.2281746E+04  0.7818609E-02  0.8485153E-01
        1   -1    0    0  501    0  0.00000000000E+00  0.00000000000E+00  0.11605862351E+04  0.11605862351E+04  0.50400001928E-02 0. -1.
       -1   -1    0    0    0  501  0.00000000000E+00  0.00000000000E+00 -0.11214942815E+04  0.11214942815E+04  0.50400001928E-02 0.  1.
    10030    2    1    2    0    0  0.00000000000E+00  0.00000000000E+00  0.39091953649E+02  0.22820805166E+04  0.22817456702E+04 0.  0.
        5    1    3    3  502    0  0.88898335460E+03 -0.44474500015E+03  0.57952028774E+03  0.11506325972E+04  0.46999998093E+01 0. -1.
       -5    1    3    3    0  502 -0.88898335460E+03  0.44474500015E+03 -0.54042833409E+03  0.11314479193E+04  0.46999998093E+01 0.  1.
</event>
<event>
 5   0  0.5024070E-05  0.2366251E+04  0.7818609E-02  0.8452248E-01
       -2   -1    0    0    0  501  0.00000000000E+00  0.00000000000E+00  0.12931525599E+04  0.12931525599E+04  0.25500000920E-02 0. -1.
        2   -1    0    0  501    0  0.00000000000E+00  0.00000000000E+00 -0.10824604594E+04  0.10824604594E+04  0.25500000920E-02 0.  1.
    10030    2    1    2    0    0  0.00000000000E+00  0.00000000000E+00  0.21069210053E+03  0.23756130193E+04  0.23662514778E+04 0.  0.
        5    1    3    3  502    0 -0.10978236647E+04  0.26048121744E+03  0.46269971435E+03  0.12195000529E+04  0.46999998093E+01 0. -1.
       -5    1    3    3    0  502  0.10978236647E+04 -0.26048121744E+03 -0.25200761382E+03  0.11561129663E+04  0.46999998093E+01 0.  1.
</event>
<event>
 5   0  0.5219468E-05  0.2654598E+04  0.7818609E-02  0.8349889E-01
       -2   -1    0    0    0  501  0.00000000000E+00  0.00000000000E+00  0.10570649078E+04  0.10570649078E+04  0.25500000920E-02 0. -1.
        2   -1    0    0  501    0  0.00000000000E+00  0.00000000000E+00 -0.16666168749E+04  0.16666168749E+04  0.25500000920E-02 0.  1.
    10030    2    1    2    0    0  0.00000000000E+00  0.00000000000E+00 -0.60955196709E+03  0.27236817827E+04  0.26545976819E+04 0.  0.
        1    1    3    3  502    0 -0.16600655932E+03 -0.10608718848E+04  0.49573005840E+03  0.11826899951E+04  0.50400001928E-02 0. -1.
       -1    1    3    3    0  502  0.16600655932E+03  0.10608718848E+04 -0.11052820255E+04  0.15409917876E+04  0.50400001928E-02 0.  1.
</event>
<event>
 5   0  0.1692125E-05  0.2660440E+04  0.7818609E-02  0.8347956E-01
        3   -1    0    0  501    0  0.00000000000E+00  0.00000000000E+00  0.21819784828E+04  0.21819784851E+04  0.10100000352E+00 0.  1.
       -3   -1    0    0    0  501  0.00000000000E+00  0.00000000000E+00 -0.81095421308E+03  0.81095421937E+03  0.10100000352E+00 0. -1.
    10030    2    1    2    0    0  0.00000000000E+00  0.00000000000E+00  0.13710242697E+04  0.29929327045E+04  0.26604395550E+04 0.  0.
        4    1    3    3  502    0  0.36543125060E+03  0.85423575438E+03 -0.38541867316E+03  0.10058866186E+04  0.12699999809E+01 0. -1.
       -4    1    3    3    0  502 -0.36543125060E+03 -0.85423575438E+03  0.17564429429E+04  0.19870460859E+04  0.12699999809E+01 0.  1.
</event>
<event>
 5   0  0.2041718E-05  0.2496441E+04  0.7818609E-02  0.8404255E-01
        1   -1    0    0  501    0  0.00000000000E+00  0.00000000000E+00  0.15740642779E+04  0.15740642779E+04  0.50400001928E-02 0. -1.
       -1   -1    0    0    0  501  0.00000000000E+00  0.00000000000E+00 -0.98982873085E+03  0.98982873086E+03  0.50400001928E-02 0.  1.
    10030    2    1    2    0    0  0.00000000000E+00  0.00000000000E+00  0.58423554701E+03  0.25638930087E+04  0.24964407034E+04 0.  0.
        4    1    3    3  502    0  0.28614431586E+03  0.82265296168E+03 -0.62614092868E+03  0.10727024472E+04  0.12699999809E+01 0.  1.
       -4    1    3    3    0  502 -0.28614431586E+03 -0.82265296168E+03  0.12103764757E+04  0.14911905615E+04  0.12699999809E+01 0. -1.
</event>
<event>
 5   0  0.4959042E-05  0.2516731E+04  0.7818609E-02  0.8397049E-01
        2   -1    0    0  501    0  0.00000000000E+00  0.00000000000E+00  0.12843554790E+04  0.12843554790E+04  0.25500000920E-02 0.  1.
       -2   -1    0    0    0  501  0.00000000000E+00  0.00000000000E+00 -0.12329010615E+04  0.12329010615E+04  0.25500000920E-02 0. -1.
    10030    2    1    2    0    0  0.00000000000E+00  0.00000000000E+00  0.51454417469E+02  0.25172565406E+04  0.25167306042E+04 0.  0.
        4    1    3    3  502    0 -0.82745610921E+03  0.94557308918E+03  0.94221742454E+02  0.12600283446E+04  0.12699999809E+01 0.  1.
       -4    1    3    3    0  502  0.82745610921E+03 -0.94557308918E+03 -0.42767324985E+02  0.12572281959E+04  0.12699999809E+01 0. -1.
</event>
<event>
 5   0  0.4959347E-05  0.2439725E+04  0.7818609E-02  0.8424779E-01
        2   -1    0    0  501    0  0.00000000000E+00  0.00000000000E+00  0.20462215514E+04  0.20462215514E+04  0.25500000920E-02 0. -1.
       -2   -1    0    0    0  501  0.00000000000E+00  0.00000000000E+00 -0.72722578922E+03  0.72722578923E+03  0.25500000920E-02 0.  1.
    10030    2    1    2    0    0  0.00000000000E+00  0.00000000000E+00  0.13189957622E+04  0.27734473407E+04  0.24397254622E+04 0.  0.
        3    1    3    3  502    0  0.60574738357E+03  0.34371388493E+03  0.17979861351E+04  0.19281657811E+04  0.10100000352E+00 0. -1.
       -3    1    3    3    0  502 -0.60574738357E+03 -0.34371388493E+03 -0.47899037286E+03  0.84528155953E+03  0.10100000352E+00 0.  1.
</event>
<event>
 5   0  0.5024070E-05  0.2579261E+04  0.7818609E-02  0.8375280E-01
        2   -1    0    0  501    0  0.00000000000E+00  0.00000000000E+00  0.18445403921E+04  0.18445403921E+04  0.25500000920E-02 0. -1.
       -2   -1    0    0    0  501  0.00000000000E+00  0.00000000000E+00 -0.90165904429E+03  0.90165904430E+03  0.25500000920E-02 0.  1.
    10030    2    1    2    0    0  0.00000000000E+00  0.00000000000E+00  0.94288134784E+03  0.27461994364E+04  0.25792607678E+04 0.  0.
        5    1    3    3  502    0 -0.83558362428E+03 -0.82545583305E+03  0.10383967777E+04  0.15677586815E+04  0.46999998093E+01 0. -1.
       -5    1    3    3    0  502  0.83558362428E+03  0.82545583305E+03 -0.95515429906E+02  0.11784407549E+04  0.46999998093E+01 0.  1.
</event>
<event>
 5   0  0.5024070E-05  0.2541842E+04  0.7818609E-02  0.8388229E-01
       -2   -1    0    0    0  501  0.00000000000E+00  0.00000000000E+00  0.11062014547E+04  0.11062014547E+04  0.25500000920E-02 0.  1.
        2   -1    0    0  501    0  0.00000000000E+00  0.00000000000E+00 -0.14601684798E+04  0.14601684798E+04  0.25500000920E-02 0. -1.
    10030    2    1    2    0    0  0.00000000000E+00  0.00000000000E+00 -0.35396702517E+03  0.25663699345E+04  0.25418422425E+04 0.  0.
        5    1    3    3  502    0 -0.21576947661E+03  0.17945058277E+03  0.10745175256E+04  0.11105714662E+04  0.46999998093E+01 0.  1.
       -5    1    3    3    0  502  0.21576947661E+03 -0.17945058277E+03 -0.14284845507E+04  0.14557984683E+04  0.46999998093E+01 0. -1.
</event>
<event>
 5   0  0.5024070E-05  0.2400975E+04  0.7818609E-02  0.8439138E-01
        2   -1    0    0  501    0  0.00000000000E+00  0.00000000000E+00  0.11245708319E+04  0.11245708319E+04  0.25500000920E-02 0.  1.
       -2   -1    0    0    0  501  0.00000000000E+00  0.00000000000E+00 -0.12815295849E+04  0.12815295849E+04  0.25500000920E-02 0. -1.
    10030    2    1    2    0    0  0.00000000000E+00  0.00000000000E+00 -0.15695875295E+03  0.24061004168E+04  0.24009754613E+04 0.  0.
        5    1    3    3  502    0  0.91914158022E+03 -0.59491895123E+03  0.41491176509E+03  0.11708644951E+04  0.46999998093E+01 0.  1.
       -5    1    3    3    0  502 -0.91914158022E+03  0.59491895123E+03 -0.57187051804E+03  0.12352359218E+04  0.46999998093E+01 0. -1.
</event>
<event>
 5   0  0.2066170E-05  0.2486943E+04  0.7818609E-02  0.8407652E-01
       -1   -1    0    0    0  501  0.00000000000E+00  0.00000000000E+00  0.16430726189E+04  0.16430726189E+04  0.50400001928E-02 0.  1.
        1   -1    0    0  501    0  0.00000000000E+00  0.00000000000E+00 -0.94105445906E+03  0.94105445907E+03  0.50400001928E-02 0. -1.
    10030    2    1    2    0    0  0.00000000000E+00  0.00000000000E+00  0.70201815988E+03  0.25841270780E+04  0.24869425523E+04 0.  0.
        5    1    3    3  502    0 -0.96107986590E+03 -0.36056761723E+02  0.11699871457E+04  0.15145516200E+04  0.46999998093E+01 0. -1.
       -5    1    3    3    0  502  0.96107986590E+03  0.36056761723E+02 -0.46796898578E+03  0.10695754580E+04  0.46999998093E+01 0.  1.
</event>
<event>
 5   0  0.5219468E-05  0.2462301E+04  0.7818609E-02  0.8416541E-01
       -2   -1    0    0    0  501  0.00000000000E+00  0.00000000000E+00  0.13273815054E+04  0.13273815054E+04  0.25500000920E-02 0.  1.
        2   -1    0    0  501    0  0.00000000000E+00  0.00000000000E+00 -0.11418956608E+04  0.11418956608E+04  0.25500000920E-02 0. -1.
    10030    2    1    2    0    0  0.00000000000E+00  0.00000000000E+00  0.18548584462E+03  0.24692771662E+04  0.24623006975E+04 0.  0.
        1    1    3    3  502    0 -0.12278817240E+04 -0.85908823636E+02  0.11845395661E+03  0.12365699309E+04  0.50400001928E-02 0. -1.
       -1    1    3    3    0  502  0.12278817240E+04  0.85908823636E+02  0.67031888012E+02  0.12327072353E+04  0.50400001928E-02 0.  1.
</event>
<event>
 5   0  0.2036578E-05  0.2530437E+04  0.7818609E-02  0.8392222E-01
        1   -1    0    0  501    0  0.00000000000E+00  0.00000000000E+00  0.19690236521E+04  0.19690236521E+04  0.50400001928E-02 0. -1.
       -1   -1    0    0    0  501  0.00000000000E+00  0.00000000000E+00 -0.81298031267E+03  0.81298031269E+03  0.50400001928E-02 0.  1.
    10030    2    1    2    0    0  0.00000000000E+00  0.00000000000E+00  0.11560433394E+04  0.27820039648E+04  0.25304366930E+04 0.  0.
        2    1    3    3  502    0 -0.15664737366E+03  0.71769319655E+03 -0.55451374396E+03  0.92038438508E+03  0.25500000920E-02 0.  1.
       -2    1    3    3    0  502  0.15664737366E+03 -0.71769319655E+03  0.17105570834E+04  0.18616195797E+04  0.25500000920E-02 0. -1.
</event>
<event>
 5   0  0.2041718E-05  0.2505718E+04  0.7818609E-02  0.8400951E-01
        1   -1    0    0  501    0  0.00000000000E+00  0.00000000000E+00  0.14660650593E+04  0.14660650593E+04  0.50400001928E-02 0. -1.
       -1   -1    0    0    0  501  0.00000000000E+00  0.00000000000E+00 -0.10706591122E+04  0.10706591122E+04  0.50400001928E-02 0.  1.
    10030    2    1    2    0    0  0.00000000000E+00  0.00000000000E+00  0.39540594717E+03  0.25367241715E+04  0.25057181923E+04 0.  0.
        4    1    3    3  502    0 -0.43880580317E+03  0.15096159592E+03 -0.98044750399E+03  0.10847206356E+04  0.12699999809E+01 0.  1.
       -4    1    3    3    0  502  0.43880580317E+03 -0.15096159592E+03  0.13758534512E+04  0.14520035359E+04  0.12699999809E+01 0. -1.
</event>
<event>
 5   0  0.2063930E-05  0.2476007E+04  0.7818609E-02  0.8411583E-01
       -1   -1    0    0    0  501  0.00000000000E+00  0.00000000000E+00  0.13007439522E+04  0.13007439522E+04  0.50400001928E-02 0. -1.
        1   -1    0    0  501    0  0.00000000000E+00  0.00000000000E+00 -0.11782894913E+04  0.11782894913E+04  0.50400001928E-02 0.  1.
    10030    2    1    2    0    0  0.00000000000E+00  0.00000000000E+00  0.12245446088E+03  0.24790334435E+04  0.24760072130E+04 0.  0.
        3    1    3    3  502    0  0.10553018936E+04 -0.58625821550E+03  0.33595672943E+03  0.12530872739E+04  0.10100000352E+00 0. -1.
       -3    1    3    3    0  502 -0.10553018936E+04  0.58625821550E+03 -0.21350226855E+03  0.12259461696E+04  0.10100000352E+00 0.  1.
</event>
<event>
 5   0  0.5219468E-05  0.2072888E+04  0.7818609E-02  0.8573281E-01
       -2   -1    0    0    0  501  0.00000000000E+00  0.00000000000E+00  0.59851980457E+03  0.59851980457E+03  0.25500000920E-02 0. -1.
        2   -1    0    0  501    0  0.00000000000E+00  0.00000000000E+00 -0.17947877382E+04  0.17947877382E+04  0.25500000920E-02 0.  1.
    10030    2    1    2    0    0  0.00000000000E+00  0.00000000000E+00 -0.11962679337E+04  0.23933075428E+04  0.20728878468E+04 0.  0.
        1    1    3    3  502    0  0.28720179269E+03  0.37583866676E+03  0.46663122721E+03  0.66444283080E+03  0.50400001928E-02 0. -1.
       -1    1    3    3    0  502 -0.28720179269E+03 -0.37583866676E+03 -0.16628991609E+04  0.17288647120E+04  0.50400001928E-02 0.  1.
</event>
<event>
 5   0  0.2041718E-05  0.2549035E+04  0.7818609E-02  0.8385722E-01
        1   -1    0    0  501    0  0.00000000000E+00  0.00000000000E+00  0.14249798445E+04  0.14249798445E+04  0.50400001928E-02 0.  1.
       -1   -1    0    0    0  501  0.00000000000E+00  0.00000000000E+00 -0.11399425266E+04  0.11399425266E+04  0.50400001928E-02 0. -1.
    10030    2    1    2    0    0  0.00000000000E+00  0.00000000000E+00  0.28503731797E+03  0.25649223711E+04  0.25490352091E+04 0.  0.
        4    1    3    3  502    0 -0.50416876524E+03 -0.53775219588E+02 -0.10340919895E+04  0.11517055934E+04  0.12699999809E+01 0. -1.
       -4    1    3    3    0  502  0.50416876524E+03  0.53775219588E+02  0.13191293075E+04  0.14132167777E+04  0.12699999809E+01 0.  1.
</event>
<event>
 5   0  0.2041718E-05  0.2520262E+04  0.7818609E-02  0.8395802E-01
        1   -1    0    0  501    0  0.00000000000E+00  0.00000000000E+00  0.14799939072E+04  0.14799939072E+04  0.50400001928E-02 0. -1.
       -1   -1    0    0    0  501  0.00000000000E+00  0.00000000000E+00 -0.10729302809E+04  0.10729302810E+04  0.50400001928E-02 0.  1.
    10030    2    1    2    0    0  0.00000000000E+00  0.00000000000E+00  0.40706362626E+03  0.25529241882E+04  0.25202621123E+04 0.  0.
        4    1    3    3  502    0 -0.11636257096E+04  0.33942630762E+03 -0.14545254345E+03  0.12208165570E+04  0.12699999809E+01 0.  1.
       -4    1    3    3    0  502  0.11636257096E+04 -0.33942630762E+03  0.55251616971E+03  0.13321076312E+04  0.12699999809E+01 0. -1.
</event>
<event>
 5   0  0.2066170E-05  0.2305963E+04  0.7818609E-02  0.8475574E-01
        1   -1    0    0  501    0  0.00000000000E+00  0.00000000000E+00  0.11071954022E+04  0.11071954022E+04  0.50400001928E-02 0. -1.
       -1   -1    0    0    0  501  0.00000000000E+00  0.00000000000E+00 -0.12006612622E+04  0.12006612622E+04  0.50400001928E-02 0.  1.
    10030    2    1    2    0    0  0.00000000000E+00  0.00000000000E+00 -0.93465859937E+02  0.23078566644E+04  0.23059632513E+04 0.  0.
        5    1    3    3  502    0 -0.84929166528E+02  0.52467850168E+03  0.97726114552E+03  0.11124576082E+04  0.46999998093E+01 0. -1.
       -5    1    3    3    0  502  0.84929166528E+02 -0.52467850168E+03 -0.10707270055E+04  0.11953990562E+04  0.46999998093E+01 0.  1.
</event>
<event>
 5   0  0.4995256E-05  0.2521793E+04  0.7818609E-02  0.8395262E-01
       -2   -1    0    0    0  501  0.00000000000E+00  0.00000000000E+00  0.12572791454E+04  0.12572791454E+04  0.25500000920E-02 0.  1.
        2   -1    0    0  501    0  0.00000000000E+00  0.00000000000E+00 -0.12645245462E+04  0.12645245463E+04  0.25500000920E-02 0. -1.
    10030    2    1    2    0    0  0.00000000000E+00  0.00000000000E+00 -0.72454008773E+01  0.25218036916E+04  0.25217932832E+04 0.  0.
        2    1    3    3  502    0  0.16005900425E+03 -0.12100419620E+04 -0.31991486295E+03  0.12618105857E+04  0.25500000920E-02 0.  1.
       -2    1    3    3    0  502 -0.16005900425E+03  0.12100419620E+04  0.31266946208E+03  0.12599931060E+04  0.25500000920E-02 0. -1.
</event>
<event>
 5   0  0.4959042E-05  0.2514434E+04  0.7818609E-02  0.8397861E-01
        2   -1    0    0  501    0  0.00000000000E+00  0.00000000000E+00  0.14922409108E+04  0.14922409108E+04  0.25500000920E-02 0. -1.
       -2   -1    0    0    0  501  0.00000000000E+00  0.00000000000E+00 -0.10592086598E+04  0.10592086598E+04  0.25500000920E-02 0.  1.
    10030    2    1    2    0    0  0.00000000000E+00  0.00000000000E+00  0.43303225099E+03  0.25514495706E+04  0.25144339285E+04 0.  0.
        4    1    3    3  502    0 -0.95854849402E+03 -0.37448587927E+03  0.94932334024E+03  0.14000968918E+04  0.12699999809E+01 0. -1.
       -4    1    3    3    0  502  0.95854849402E+03  0.37448587927E+03 -0.51629108925E+03  0.11513526788E+04  0.12699999809E+01 0.  1.
</event>
<event>
 5   0  0.5024070E-05  0.2502588E+04  0.7818609E-02  0.8402064E-01
       -2   -1    0    0    0  501  0.00000000000E+00  0.00000000000E+00  0.17838565259E+04  0.17838565259E+04  0.25500000920E-02 0.  1.
        2   -1    0    0  501    0  0.00000000000E+00  0.00000000000E+00 -0.87772577438E+03  0.87772577438E+03  0.25500000920E-02 0. -1.
    10030    2    1    2    0    0  0.00000000000E+00  0.00000000000E+00  0.90613075151E+03  0.26615823003E+04  0.25025881408E+04 0.  0.
        5    1    3    3  502    0  0.58169216852E+02  0.31333494389E+03  0.17399619564E+04  0.17689127012E+04  0.46999998093E+01 0.  1.
       -5    1    3    3    0  502 -0.58169216852E+02 -0.31333494389E+03 -0.83383120488E+03  0.89266959905E+03  0.46999998093E+01 0. -1.
</event>
<event>
 5   0  0.4959347E-05  0.2444573E+04  0.7818609E-02  0.8423002E-01
        2   -1    0    0  501    0  0.00000000000E+00  0.00000000000E+00  0.17895643785E+04  0.17895643785E+04  0.25500000920E-02 0.  1.
       -2   -1    0    0    0  501  0.00000000000E+00  0.00000000000E+00 -0.83483109071E+03  0.83483109072E+03  0.25500000920E-02 0. -1.
    10030    2    1    2    0    0  0.00000000000E+00  0.00000000000E+00  0.95473328776E+03  0.26243954692E+04  0.24445727496E+04 0.  0.
        3    1    3    3  502    0 -0.13612363201E+03 -0.79587066224E+03 -0.50776384888E+03  0.95381543846E+03  0.10100000352E+00 0. -1.
       -3    1    3    3    0  502  0.13612363201E+03  0.79587066224E+03  0.14624971366E+04  0.16705800307E+04  0.10100000352E+00 0.  1.
</event>
<event>
 5   0  0.5024070E-05  0.2487790E+04  0.7818609E-02  0.8407348E-01
       -2   -1    0    0    0  501  0.00000000000E+00  0.00000000000E+00  0.82437603038E+03  0.82437603038E+03  0.25500000920E-02 0. -1.
        2   -1    0    0  501    0  0.00000000000E+00  0.00000000000E+00 -0.18769036325E+04  0.18769036325E+04  0.25500000920E-02 0.  1.
    10030    2    1    2    0    0  0.00000000000E+00  0.00000000000E+00 -0.10525276022E+04  0.27012796629E+04  0.24877896744E+04 0.  0.
        5    1    3    3  502    0 -0.10471828712E+04  0.17023253569E+03 -0.12313594009E+04  0.16253735405E+04  0.46999998093E+01 0.  1.
       -5    1    3    3    0  502  0.10471828712E+04 -0.17023253569E+03  0.17883179874E+03  0.10759061224E+04  0.46999998093E+01 0. -1.
</event>
<event>
 5   0  0.4995256E-05  0.2496077E+04  0.7818609E-02  0.8404384E-01
       -2   -1    0    0    0  501  0.00000000000E+00  0.00000000000E+00  0.11094111679E+04  0.11094111679E+04  0.25500000920E-02 0.  1.
        2   -1    0    0  501    0  0.00000000000E+00  0.00000000000E+00 -0.14039885931E+04  0.14039885931E+04  0.25500000920E-02 0. -1.
    10030    2    1    2    0    0  0.00000000000E+00  0.00000000000E+00 -0.29457742525E+03  0.25133997610E+04  0.24960774225E+04 0.  0.
        2    1    3    3  502    0 -0.11123322222E+04  0.72261149679E+02  0.41794095338E+03  0.11904533955E+04  0.25500000920E-02 0. -1.
       -2    1    3    3    0  502  0.11123322222E+04 -0.72261149679E+02 -0.71251837863E+03  0.13229463656E+04  0.25500000920E-02 0.  1.
</event>
<event>
 5   0  0.2081874E-05  0.2601389E+04  0.7818609E-02  0.8367730E-01
        1   -1    0    0  501    0  0.00000000000E+00  0.00000000000E+00  0.17160297119E+04  0.17160297119E+04  0.50400001928E-02 0. -1.
       -1   -1    0    0    0  501  0.00000000000E+00  0.00000000000E+00 -0.98588373547E+03  0.98588373548E+03  0.50400001928E-02 0.  1.
    10030    2    1    2    0    0  0.00000000000E+00  0.00000000000E+00  0.73014597647E+03  0.27019134474E+04  0.26013886927E+04 0.  0.
        1    1    3    3  502    0  0.11962751554E+03 -0.11771290487E+04  0.92619220511E+03  0.15025896115E+04  0.50400001928E-02 0. -1.
       -1    1    3    3    0  502 -0.11962751554E+03  0.11771290487E+04 -0.19604622864E+03  0.11993238359E+04  0.50400001928E-02 0.  1.
</event>
<event>
 5   0  0.2041718E-05  0.2330887E+04  0.7818609E-02  0.8465841E-01
        1   -1    0    0  501    0  0.00000000000E+00  0.00000000000E+00  0.11966737897E+04  0.11966737897E+04  0.50400001928E-02 0.  1.
       -1   -1    0    0    0  501  0.00000000000E+00  0.00000000000E+00 -0.11350286212E+04  0.11350286213E+04  0.50400001928E-02 0. -1.
    10030    2    1    2    0    0  0.00000000000E+00  0.00000000000E+00  0.61645168489E+02  0.23317024110E+04  0.23308873861E+04 0.  0.
        4    1    3    3  502    0  0.14458107950E+03 -0.29406497433E+03  0.11496408967E+04  0.11954303418E+04  0.12699999809E+01 0.  1.
       -4    1    3    3    0  502 -0.14458107950E+03  0.29406497433E+03 -0.10879957283E+04  0.11362720692E+04  0.12699999809E+01 0. -1.
</event>
<event>
 5   0  0.4959042E-05  0.2455562E+04  0.7818609E-02  0.8418990E-01
        2   -1    0    0  501    0  0.00000000000E+00  0.00000000000E+00  0.16927149047E+04  0.16927149047E+04  0.25500000920E-02 0. -1.
       -2   -1    0    0    0  501  0.00000000000E+00  0.00000000000E+00 -0.89054935945E+03  0.89054935945E+03  0.25500000920E-02 0.  1.
    10030    2    1    2    0    0  0.00000000000E+00  0.00000000000E+00  0.80216554525E+03  0.25832642641E+04  0.24555619920E+04 0.  0.
        4    1    3    3  502    0 -0.17521798347E+03  0.12150536183E+04  0.38036269966E+03  0.12851980522E+04  0.12699999809E+01 0. -1.
       -4    1    3    3    0  502  0.17521798347E+03 -0.12150536183E+04  0.42180284559E+03  0.12980662120E+04  0.12699999809E+01 0.  1.
</event>
<event>
 5   0  0.4959042E-05  0.2460717E+04  0.7818609E-02  0.8417115E-01
       -2   -1    0    0    0  501  0.00000000000E+00  0.00000000000E+00  0.10230207037E+04  0.10230207037E+04  0.25500000920E-02 0. -1.
        2   -1    0    0  501    0  0.00000000000E+00  0.00000000000E+00 -0.14797181085E+04  0.14797181085E+04  0.25500000920E-02 0.  1.
    10030    2    1    2    0    0  0.00000000000E+00  0.00000000000E+00 -0.45669740476E+03  0.25027388122E+04  0.24607171806E+04 0.  0.
        4    1    3    3  502    0 -0.58544781645E+03 -0.32197734662E+03 -0.12791236602E+04  0.14431138238E+04  0.12699999809E+01 0.  1.
       -4    1    3    3    0  502  0.58544781645E+03  0.32197734662E+03  0.82242625544E+03  0.10596249884E+04  0.12699999809E+01 0. -1.
</event>
<event>
 5   0  0.2036578E-05  0.2604254E+04  0.7818609E-02  0.8366758E-01
        1   -1    0    0  501    0  0.00000000000E+00  0.00000000000E+00  0.12567700882E+04  0.12567700882E+04  0.50400001928E-02 0.  1.
       -1   -1    0    0    0  501  0.00000000000E+00  0.00000000000E+00 -0.13491213141E+04  0.13491213141E+04  0.50400001928E-02 0. -1.
    10030    2    1    2    0    0  0.00000000000E+00  0.00000000000E+00 -0.92351225905E+02  0.26058914024E+04  0.26042544522E+04 0.  0.
        2    1    3    3  502    0  0.98339578607E+03  0.53731309210E+03 -0.70973849388E+03  0.13264619711E+04  0.25500000920E-02 0. -1.
       -2    1    3    3    0  502 -0.98339578607E+03 -0.53731309210E+03  0.61738726797E+03  0.12794294313E+04  0.25500000920E-02 0.  1.
</event>
<event>
 5   0  0.2036578E-05  0.2475950E+04  0.7818609E-02  0.8411604E-01
       -1   -1    0    0    0  501  0.00000000000E+00  0.00000000000E+00  0.10190138555E+04  0.10190138555E+04  0.50400001928E-02 0. -1.
        1   -1    0    0  501    0  0.00000000000E+00  0.00000000000E+00 -0.15039854376E+04  0.15039854376E+04  0.50400001928E-02 0.  1.
    10030    2    1    2    0    0  0.00000000000E+00  0.00000000000E+00 -0.48497158211E+03  0.25229992931E+04  0.24759499182E+04 0.  0.
        2    1    3    3  502    0 -0.66583341463E+03 -0.47146599445E+03 -0.11912902710E+04  0.14438790911E+04  0.25500000920E-02 0.  1.
       -2    1    3    3    0  502  0.66583341463E+03  0.47146599445E+03  0.70631868890E+03  0.10791202019E+04  0.25500000920E-02 0. -1.
</event>
<event>
 5   0  0.4995256E-05  0.2489999E+04  0.7818609E-02  0.8406557E-01
       -2   -1    0    0    0  501  0.00000000000E+00  0.00000000000E+00  0.88669312539E+03  0.88669312539E+03  0.25500000920E-02 0. -1.
        2   -1    0    0  501    0  0.00000000000E+00  0.00000000000E+00 -0.17480951563E+04  0.17480951563E+04  0.25500000920E-02 0.  1.
    10030    2    1    2    0    0  0.00000000000E+00  0.00000000000E+00 -0.86140203095E+03  0.26347882817E+04  0.24899991628E+04 0.  0.
        2    1    3    3  502    0  0.80929233820E+03  0.94383118566E+03 -0.49970463101E+03  0.13399537731E+04  0.25500000920E-02 0. -1.
       -2    1    3    3    0  502 -0.80929233820E+03 -0.94383118566E+03 -0.36169739994E+03  0.12948345087E+04  0.25500000920E-02 0.  1.
</event>
<event>
 5   0  0.4959347E-05  0.2554948E+04  0.7818609E-02  0.8383667E-01
        2   -1    0    0  501    0  0.00000000000E+00  0.00000000000E+00  0.24984546951E+04  0.24984546951E+04  0.25500000920E-02 0.  1.
       -2   -1    0    0    0  501  0.00000000000E+00  0.00000000000E+00 -0.65317976933E+03  0.65317976933E+03  0.25500000920E-02 0. -1.
    10030    2    1    2    0    0  0.00000000000E+00  0.00000000000E+00  0.18452749258E+04  0.31516344644E+04  0.25549481885E+04 0.  0.
        3    1    3    3  502    0 -0.77305970610E+03  0.17563786542E+03 -0.31304236754E+03  0.85232945687E+03  0.10100000352E+00 0. -1.
       -3    1    3    3    0  502  0.77305970610E+03 -0.17563786542E+03  0.21583172933E+04  0.22993050076E+04  0.10100000352E+00 0.  1.
</event>
<event>
 5   0  0.4995256E-05  0.2504606E+04  0.7818609E-02  0.8401347E-01
       -2   -1    0    0    0  501  0.00000000000E+00  0.00000000000E+00  0.62923005136E+03  0.62923005137E+03  0.25500000920E-02 0.  1.
        2   -1    0    0  501    0  0.00000000000E+00  0.00000000000E+00 -0.24923517597E+04  0.24923517597E+04  0.25500000920E-02 0. -1.
    10030    2    1    2    0    0  0.00000000000E+00  0.00000000000E+00 -0.18631217084E+04  0.31215818111E+04  0.25046058579E+04 0.  0.
        2    1    3    3  502    0 -0.57422632833E+03 -0.10939121064E+04 -0.11866279842E+04  0.17130281801E+04  0.25500000920E-02 0. -1.
       -2    1    3    3    0  502  0.57422632833E+03  0.10939121064E+04 -0.67649372412E+03  0.14085536310E+04  0.25500000920E-02 0.  1.
</event>
<event>
 5   0  0.5219468E-05  0.2475287E+04  0.7818609E-02  0.8411843E-01
       -2   -1    0    0    0  501  0.00000000000E+00  0.00000000000E+00  0.13897254537E+04  0.13897254537E+04  0.25500000920E-02 0. -1.
        2   -1    0    0  501    0  0.00000000000E+00  0.00000000000E+00 -0.11022041345E+04  0.11022041345E+04  0.25500000920E-02 0.  1.
    10030    2    1    2    0    0  0.00000000000E+00  0.00000000000E+00  0.28752131919E+03  0.24919295883E+04  0.24752867640E+04 0.  0.
        1    1    3    3  502    0  0.77992644378E+02  0.34659446622E+03 -0.10497697374E+04  0.11082540675E+04  0.50400001928E-02 0.  1.
       -1    1    3    3    0  502 -0.77992644378E+02 -0.34659446622E+03  0.13372910566E+04  0.13836755207E+04  0.50400001928E-02 0. -1.
</event>
<event>
 5   0  0.2066170E-05  0.2467555E+04  0.7818609E-02  0.8414636E-01
        1   -1    0    0  501    0  0.00000000000E+00  0.00000000000E+00  0.12856366482E+04  0.12856366482E+04  0.50400001928E-02 0.  1.
       -1   -1    0    0    0  501  0.00000000000E+00  0.00000000000E+00 -0.11840103377E+04  0.11840103377E+04  0.50400001928E-02 0. -1.
    10030    2    1    2    0    0  0.00000000000E+00  0.00000000000E+00  0.10162631048E+03  0.24696469859E+04  0.24675551317E+04 0.  0.
        5    1    3    3  502    0  0.57577045826E+03  0.38288399918E+03  0.10734783878E+04  0.12769063068E+04  0.46999998093E+01 0.  1.
       -5    1    3    3    0  502 -0.57577045826E+03 -0.38288399918E+03 -0.97185207729E+03  0.11927406791E+04  0.46999998093E+01 0. -1.
</event>
<event>
 5   0  0.5024070E-05  0.2275238E+04  0.7818609E-02  0.8487749E-01
       -2   -1    0    0    0  501  0.00000000000E+00  0.00000000000E+00  0.13429007561E+04  0.13429007561E+04  0.25500000920E-02 0.  1.
        2   -1    0    0  501    0  0.00000000000E+00  0.00000000000E+00 -0.96371717548E+03  0.96371717548E+03  0.25500000920E-02 0. -1.
    10030    2    1    2    0    0  0.00000000000E+00  0.00000000000E+00  0.37918358063E+03  0.23066179316E+04  0.22752375908E+04 0.  0.
        5    1    3    3  502    0  0.76784557353E+03  0.47534253786E+03 -0.51177145998E+03  0.10380122689E+04  0.46999998093E+01 0. -1.
       -5    1    3    3    0  502 -0.76784557353E+03 -0.47534253786E+03  0.89095504061E+03  0.12686056627E+04  0.46999998093E+01 0.  1.
</event>
<event>
 5   0  0.4959042E-05  0.2496012E+04  0.7818609E-02  0.8404408E-01
       -2   -1    0    0    0  501  0.00000000000E+00  0.00000000000E+00  0.80554882335E+03  0.80554882335E+03  0.25500000920E-02 0. -1.
        2   -1    0    0  501    0  0.00000000000E+00  0.00000000000E+00 -0.19334873822E+04  0.19334873822E+04  0.25500000920E-02 0.  1.
    10030    2    1    2    0    0  0.00000000000E+00  0.00000000000E+00 -0.11279385588E+04  0.27390362055E+04  0.24960116071E+04 0.  0.
        4    1    3    3  502    0  0.88455321061E+03 -0.10826324178E+03  0.39480486988E+03  0.97469370066E+03  0.12699999809E+01 0. -1.
       -4    1    3    3    0  502 -0.88455321061E+03  0.10826324178E+03 -0.15227434287E+04  0.17643425049E+04  0.12699999809E+01 0.  1.
</event>
<event>
 5   0  0.4995256E-05  0.2553545E+04  0.7818609E-02  0.8384154E-01
       -2   -1    0    0    0  501  0.00000000000E+00  0.00000000000E+00  0.74187228146E+03  0.74187228147E+03  0.25500000920E-02 0.  1.
        2   -1    0    0  501    0  0.00000000000E+00  0.00000000000E+00 -0.21973429719E+04  0.21973429719E+04  0.25500000920E-02 0. -1.
    10030    2    1    2    0    0  0.00000000000E+00  0.00000000000E+00 -0.14554706905E+04  0.29392152534E+04  0.25535448645E+04 0.  0.
        2    1    3    3  502    0 -0.11548084191E+04 -0.15520159960E+03 -0.12690275702E+03  0.11720811965E+04  0.25500000920E-02 0.  1.
       -2    1    3    3    0  502  0.11548084191E+04  0.15520159960E+03 -0.13285679334E+04  0.17671340569E+04  0.25500000920E-02 0. -1.
</event>
<event>
 5   0  0.2066170E-05  0.2540068E+04  0.7818609E-02  0.8388849E-01
       -1   -1    0    0    0  501  0.00000000000E+00  0.00000000000E+00  0.90049710763E+03  0.90049710764E+03  0.50400001928E-02 0.  1.
        1   -1    0    0  501    0  0.00000000000E+00  0.00000000000E+00 -0.17912173591E+04  0.17912173591E+04  0.50400001928E-02 0. -1.
    10030    2    1    2    0    0  0.00000000000E+00  0.00000000000E+00 -0.89072025150E+03  0.26917144668E+04  0.25400677558E+04 0.  0.
        5    1    3    3  502    0 -0.58638501567E+03  0.17732838546E+03  0.73356529670E+03  0.95573682435E+03  0.46999998093E+01 0.  1.
       -5    1    3    3    0  502  0.58638501567E+03 -0.17732838546E+03 -0.16242855482E+04  0.17359776424E+04  0.46999998093E+01 0. -1.
</event>
<event>
 5   0  0.2066170E-05  0.2432454E+04  0.7818609E-02  0.8427452E-01
        1   -1    0    0  501    0  0.00000000000E+00  0.00000000000E+00  0.17105354121E+04  0.17105354121E+04  0.50400001928E-02 0.  1.
       -1   -1    0    0    0  501  0.00000000000E+00  0.00000000000E+00 -0.86476308237E+03  0.86476308239E+03  0.50400001928E-02 0. -1.
    10030    2    1    2    0    0  0.00000000000E+00  0.00000000000E+00  0.84577232975E+03  0.25752984945E+04  0.24324538027E+04 0.  0.
        5    1    3    3  502    0 -0.84482143394E+03  0.20077056913E+03  0.13244531701E+04  0.15837393619E+04  0.46999998093E+01 0.  1.
       -5    1    3    3    0  502  0.84482143394E+03 -0.20077056913E+03 -0.47868084030E+03  0.99155913265E+03  0.46999998093E+01 0. -1.
</event>
<event>
 5   0  0.5219468E-05  0.2500561E+04  0.7818609E-02  0.8402786E-01
       -2   -1    0    0    0  501  0.00000000000E+00  0.00000000000E+00  0.59398495963E+03  0.59398495963E+03  0.25500000920E-02 0.  1.
        2   -1    0    0  501    0  0.00000000000E+00  0.00000000000E+00 -0.26317184513E+04  0.26317184513E+04  0.25500000920E-02 0. -1.
    10030    2    1    2    0    0  0.00000000000E+00  0.00000000000E+00 -0.20377334917E+04  0.32257034110E+04  0.25005608795E+04 0.  0.
        1    1    3    3  502    0 -0.10308924139E+03  0.64401277086E+03  0.35715100948E+03  0.74359712501E+03  0.50400001928E-02 0.  1.
       -1    1    3    3    0  502  0.10308924139E+03 -0.64401277086E+03 -0.23948845012E+04  0.24821062860E+04  0.50400001928E-02 0. -1.
</event>
<event>
 5   0  0.5024070E-05  0.1904024E+04  0.7818609E-02  0.8652856E-01
       -2   -1    0    0    0  501  0.00000000000E+00  0.00000000000E+00  0.10853936590E+04  0.10853936590E+04  0.25500000920E-02 0. -1.
        2   -1    0    0  501    0  0.00000000000E+00  0.00000000000E+00 -0.83502114622E+03  0.83502114623E+03  0.25500000920E-02 0.  1.
    10030    2    1    2    0    0  0.00000000000E+00  0.00000000000E+00  0.25037251275E+03  0.19204148052E+04  0.19040237995E+04 0.  0.
        5    1    3    3  502    0  0.41502034543E+03  0.30742509321E+03  0.93179099801E+03  0.10653678374E+04  0.46999998093E+01 0. -1.
       -5    1    3    3    0  502 -0.41502034543E+03 -0.30742509321E+03 -0.68141848526E+03  0.85504696778E+03  0.46999998093E+01 0.  1.
</event>
<event>
 5   0  0.5024070E-05  0.2524705E+04  0.7818609E-02  0.8394237E-01
       -2   -1    0    0    0  501  0.00000000000E+00  0.00000000000E+00  0.64313895078E+03  0.64313895078E+03  0.25500000920E-02 0.  1.
        2   -1    0    0  501    0  0.00000000000E+00  0.00000000000E+00 -0.24777448944E+04  0.24777448944E+04  0.25500000920E-02 0. -1.
    10030    2    1    2    0    0  0.00000000000E+00  0.00000000000E+00 -0.18346059437E+04  0.31208838452E+04  0.25247053307E+04 0.  0.
        5    1    3    3  502    0  0.51898895460E+03  0.11144746546E+04 -0.12715138940E+04  0.17686641748E+04  0.46999998093E+01 0. -1.
       -5    1    3    3    0  502 -0.51898895460E+03 -0.11144746546E+04 -0.56309204964E+03  0.13522196704E+04  0.46999998093E+01 0.  1.
</event>
<event>
 5   0  0.2041718E-05  0.2440110E+04  0.7818609E-02  0.8424638E-01
        1   -1    0    0  501    0  0.00000000000E+00  0.00000000000E+00  0.20071559548E+04  0.20071559548E+04  0.50400001928E-02 0.  1.
       -1   -1    0    0    0  501  0.00000000000E+00  0.00000000000E+00 -0.74161357733E+03  0.74161357735E+03  0.50400001928E-02 0. -1.
    10030    2    1    2    0    0  0.00000000000E+00  0.00000000000E+00  0.12655423774E+04  0.27487695321E+04  0.24401099220E+04 0.  0.
        4    1    3    3  502    0  0.36792387960E+03 -0.75609448184E+03 -0.36306852298E+03  0.91589694395E+03  0.12699999809E+01 0. -1.
       -4    1    3    3    0  502 -0.36792387960E+03  0.75609448184E+03  0.16286109004E+04  0.18328725882E+04  0.12699999809E+01 0.  1.
</event>
<event>
 5   0  0.2041718E-05  0.2486151E+04  0.7818609E-02  0.8407936E-01
       -1   -1    0    0    0  501  0.00000000000E+00  0.00000000000E+00  0.15130450441E+04  0.15130450441E+04  0.50400001928E-02 0.  1.
        1   -1    0    0  501    0  0.00000000000E+00  0.00000000000E+00 -0.10212762688E+04  0.10212762688E+04  0.50400001928E-02 0. -1.
    10030    2    1    2    0    0  0.00000000000E+00  0.00000000000E+00  0.49176877530E+03  0.25343213129E+04  0.24861512401E+04 0.  0.
        4    1    3    3  502    0  0.10778502949E+04 -0.25311134526E+03  0.82199722369E+03  0.13789516525E+04  0.12699999809E+01 0.  1.
       -4    1    3    3    0  502 -0.10778502949E+04  0.25311134526E+03 -0.33022844838E+03  0.11553696604E+04  0.12699999809E+01 0. -1.
</event>
<event>
 5   0  0.2036578E-05  0.2634574E+04  0.7818609E-02  0.8356551E-01
        1   -1    0    0  501    0  0.00000000000E+00  0.00000000000E+00  0.16387110316E+04  0.16387110316E+04  0.50400001928E-02 0.  1.
       -1   -1    0    0    0  501  0.00000000000E+00  0.00000000000E+00 -0.10589088766E+04  0.10589088766E+04  0.50400001928E-02 0. -1.
    10030    2    1    2    0    0  0.00000000000E+00  0.00000000000E+00  0.57980215496E+03  0.26976199082E+04  0.26345744685E+04 0.  0.
        2    1    3    3  502    0 -0.94612244740E+03 -0.78027018796E+03  0.78232137253E+03  0.14546463425E+04  0.25500000920E-02 0.  1.
       -2    1    3    3    0  502  0.94612244740E+03  0.78027018796E+03 -0.20251921757E+03  0.12429735658E+04  0.25500000920E-02 0. -1.
</event>
<event>
 5   0  0.5219468E-05  0.2476653E+04  0.7818609E-02  0.8411350E-01
       -2   -1    0    0    0  501  0.00000000000E+00  0.00000000000E+00  0.90251866598E+03  0.90251866598E+03  0.25500000920E-02 0. -1.
        2   -1    0    0  501    0  0.00000000000E+00  0.00000000000E+00 -0.16990818309E+04  0.16990818309E+04  0.25500000920E-02 0.  1.
    10030    2    1    2    0    0  0.00000000000E+00  0.00000000000E+00 -0.79656316489E+03  0.26016004969E+04  0.24766534416E+04 0.  0.
        1    1    3    3  502    0  0.89261970837E+03  0.73216588483E+03 -0.86878026413E+03  0.14448584616E+04  0.50400001928E-02 0. -1.
       -1    1    3    3    0  502 -0.89261970837E+03 -0.73216588483E+03  0.72217099233E+02  0.11567420353E+04  0.50400001928E-02 0.  1.
</event>
<event>
 5   0  0.5024070E-05  0.2516187E+04  0.7818609E-02  0.8397242E-01
       -2   -1    0    0    0  501  0.00000000000E+00  0.00000000000E+00  0.92300304098E+03  0.92300304099E+03  0.25500000920E-02 0.  1.
        2   -1    0    0  501    0  0.00000000000E+00  0.00000000000E+00 -0.17148357738E+04  0.17148357738E+04  0.25500000920E-02 0. -1.
    10030    2    1    2    0    0  0.00000000000E+00  0.00000000000E+00 -0.79183273278E+03  0.26378388147E+04  0.25161865066E+04 0.  0.
        5    1    3    3  502    0  0.56203999151E+03  0.65376726638E+03  0.56461058575E+03  0.10305861411E+04  0.46999998093E+01 0.  1.
       -5    1    3    3    0  502 -0.56203999151E+03 -0.65376726638E+03 -0.13564433185E+04  0.16072526737E+04  0.46999998093E+01 0. -1.
</event>
<event>
 5   0  0.4959347E-05  0.2401845E+04  0.7818609E-02  0.8438813E-01
        2   -1    0    0  501    0  0.00000000000E+00  0.00000000000E+00  0.13256425096E+04  0.13256425096E+04  0.25500000920E-02 0. -1.
       -2   -1    0    0    0  501  0.00000000000E+00  0.00000000000E+00 -0.10879364123E+04  0.10879364124E+04  0.25500000920E-02 0.  1.
    10030    2    1    2    0    0  0.00000000000E+00  0.00000000000E+00  0.23770609720E+03  0.24135789219E+04  0.24018449208E+04 0.  0.
        3    1    3    3  502    0  0.48534861343E+03 -0.93575804120E+03 -0.45929094893E+03  0.11498498051E+04  0.10100000352E+00 0.  1.
       -3    1    3    3    0  502 -0.48534861343E+03  0.93575804120E+03  0.69699704613E+03  0.12637291168E+04  0.10100000352E+00 0. -1.
</event>
<event>
 5   0  0.2081874E-05  0.2588798E+04  0.7818609E-02  0.8372016E-01
        1   -1    0    0  501    0  0.00000000000E+00  0.00000000000E+00  0.16499127016E+04  0.16499127016E+04  0.50400001928E-02 0.  1.
       -1   -1    0    0    0  501  0.00000000000E+00  0.00000000000E+00 -0.10154895561E+04  0.10154895561E+04  0.50400001928E-02 0. -1.
    10030    2    1    2    0    0  0.00000000000E+00  0.00000000000E+00  0.63442314544E+03  0.26654022577E+04  0.25887982671E+04 0.  0.
        1    1    3    3  502    0  0.50500283376E+03  0.11363335822E+04 -0.52850323532E+02  0.12446184271E+04  0.50400001928E-02 0. -1.
       -1    1    3    3    0  502 -0.50500283376E+03 -0.11363335822E+04  0.68727346898E+03  0.14207838307E+04  0.50400001928E-02 0.  1.
</event>
<event>
 5   0  0.5219468E-05  0.2538254E+04  0.7818609E-02  0.8389483E-01
       -2   -1    0    0    0  501  0.00000000000E+00  0.00000000000E+00  0.75722238815E+03  0.75722238816E+03  0.25500000920E-02 0.  1.
        2   -1    0    0  501    0  0.00000000000E+00  0.00000000000E+00 -0.21270939973E+04  0.21270939973E+04  0.25500000920E-02 0. -1.
    10030    2    1    2    0    0  0.00000000000E+00  0.00000000000E+00 -0.13698716092E+04  0.28843163855E+04  0.25382538853E+04 0.  0.
        1    1    3    3  502    0  0.80212837100E+03 -0.44659309587E+03  0.31079003198E+03  0.96925010232E+03  0.50400001928E-02 0.  1.
       -1    1    3    3    0  502 -0.80212837100E+03  0.44659309587E+03 -0.16806616412E+04  0.19150662832E+04  0.50400001928E-02 0. -1.
</event>
<event>
 5   0  0.2041718E-05  0.2489965E+04  0.7818609E-02  0.8406569E-01
        1   -1    0    0  501    0  0.00000000000E+00  0.00000000000E+00  0.20508911305E+04  0.20508911305E+04  0.50400001928E-02 0. -1.
       -1   -1    0    0    0  501  0.00000000000E+00  0.00000000000E+00 -0.75576000625E+03  0.75576000627E+03  0.50400001928E-02 0.  1.
    10030    2    1    2    0    0  0.00000000000E+00  0.00000000000E+00  0.12951311242E+04  0.28066511367E+04  0.24899650549E+04 0.  0.
        4    1    3    3  502    0 -0.22334195858E+03 -0.12062695143E+04  0.88670976839E+03  0.15136788291E+04  0.12699999809E+01 0. -1.
       -4    1    3    3    0  502  0.22334195858E+03  0.12062695143E+04  0.40842135582E+03  0.12929723076E+04  0.12699999809E+01 0.  1.
</event>
<event>
 5   0  0.4959347E-05  0.2311065E+04  0.7818609E-02  0.8473571E-01
       -2   -1    0    0    0  501  0.00000000000E+00  0.00000000000E+00  0.14128384778E+04  0.14128384778E+04  0.25500000920E-02 0. -1.
        2   -1    0    0  501    0  0.00000000000E+00  0.00000000000E+00 -0.94508689910E+03  0.94508689910E+03  0.25500000920E-02 0.  1.
    10030    2    1    2    0    0  0.00000000000E+00  0.00000000000E+00  0.46775157866E+03  0.23579253769E+04  0.23110648073E+04 0.  0.
        3    1    3    3  502    0  0.94191074374E+01  0.71861067019E+03  0.11570796170E+04  0.13621025164E+04  0.10100000352E+00 0. -1.
       -3    1    3    3    0  502 -0.94191074374E+01 -0.71861067019E+03 -0.68932803830E+03  0.99582286050E+03  0.10100000352E+00 0.  1.
</event>
<event>
 5   0  0.4959042E-05  0.2482157E+04  0.7818609E-02  0.8409370E-01
       -2   -1    0    0    0  501  0.00000000000E+00  0.00000000000E+00  0.67928193856E+03  0.67928193856E+03  0.25500000920E-02 0.  1.
        2   -1    0    0  501    0  0.00000000000E+00  0.00000000000E+00 -0.22675058970E+04  0.22675058970E+04  0.25500000920E-02 0. -1.
    10030    2    1    2    0    0  0.00000000000E+00  0.00000000000E+00 -0.15882239585E+04  0.29467878356E+04  0.24821569664E+04 0.  0.
        4    1    3    3  502    0 -0.13071231480E+03  0.10106233873E+04  0.46890814309E+02  0.10201204348E+04  0.12699999809E+01 0.  1.
       -4    1    3    3    0  502  0.13071231480E+03 -0.10106233873E+04 -0.16351147728E+04  0.19266674008E+04  0.12699999809E+01 0. -1.
</event>
<event>
 5   0  0.2081874E-05  0.2343786E+04  0.7818609E-02  0.8460854E-01
        1   -1    0    0  501    0  0.00000000000E+00  0.00000000000E+00  0.18905213060E+04  0.18905213060E+04  0.50400001928E-02 0.  1.
       -1   -1    0    0    0  501  0.00000000000E+00  0.00000000000E+00 -0.72643070843E+03  0.72643070845E+03  0.50400001928E-02 0. -1.
    10030    2    1    2    0    0  0.00000000000E+00  0.00000000000E+00  0.11640905976E+04  0.26169520145E+04  0.23437855974E+04 0.  0.
        1    1    3    3  502    0 -0.10724949746E+04  0.31825333301E+03  0.97172270480E+03  0.14818149917E+04  0.50400001928E-02 0.  1.
       -1    1    3    3    0  502  0.10724949746E+04 -0.31825333301E+03  0.19236789280E+03  0.11351370228E+04  0.50400001928E-02 0. -1.
</event>
<event>
 5   0  0.4959347E-05  0.2463628E+04  0.7818609E-02  0.8416059E-01
        2   -1    0    0  501    0  0.00000000000E+00  0.00000000000E+00  0.10854406817E+04  0.10854406818E+04  0.25500000920E-02 0.  1.
       -2   -1    0    0    0  501  0.00000000000E+00  0.00000000000E+00 -0.13979257700E+04  0.13979257700E+04  0.25500000920E-02 0. -1.
    10030    2    1    2    0    0  0.00000000000E+00  0.00000000000E+00 -0.31248508824E+03  0.24833664517E+04  0.24636278135E+04 0.  0.
        3    1    3    3  502    0  0.12247914161E+04 -0.19037244476E+01 -0.23859233133E+02  0.12250252693E+04  0.10100000352E+00 0.  1.
       -3    1    3    3    0  502 -0.12247914161E+04  0.19037244476E+01 -0.28862585510E+03  0.12583411825E+04  0.10100000352E+00 0. -1.
</event>
<event>
 5   0  0.2066170E-05  0.2504344E+04  0.7818609E-02  0.8401440E-01
        1   -1    0    0  501    0  0.00000000000E+00  0.00000000000E+00  0.20327059601E+04  0.20327059601E+04  0.50400001928E-02 0.  1.
       -1   -1    0    0    0  501  0.00000000000E+00  0.00000000000E+00 -0.77135359687E+03  0.77135359689E+03  0.50400001928E-02 0. -1.
    10030    2    1    2    0    0  0.00000000000E+00  0.00000000000E+00  0.12613523632E+04  0.28040595570E+04  0.25043442685E+04 0.  0.
        5    1    3    3  502    0  0.81403719336E+03 -0.94993726589E+03  0.57063383943E+03  0.13750208835E+04  0.46999998093E+01 0. -1.
       -5    1    3    3    0  502 -0.81403719336E+03  0.94993726589E+03  0.69071852382E+03  0.14290386735E+04  0.46999998093E+01 0.  1.
</event>
<event>
 5   0  0.2066170E-05  0.2368792E+04  0.7818609E-02  0.8451280E-01
       -1   -1    0    0    0  501  0.00000000000E+00  0.00000000000E+00  0.19722869669E+04  0.19722869669E+04  0.50400001928E-02 0.  1.
        1   -1    0    0  501    0  0.00000000000E+00  0.00000000000E+00 -0.71125259821E+03  0.71125259822E+03  0.50400001928E-02 0. -1.
    10030    2    1    2    0    0  0.00000000000E+00  0.00000000000E+00  0.12610343687E+04  0.26835395652E+04  0.23687922912E+04 0.  0.
        5    1    3    3  502    0  0.10874092243E+03  0.98884587015E+03  0.13586743409E+04  0.16839414473E+04  0.46999998093E+01 0.  1.
       -5    1    3    3    0  502 -0.10874092243E+03 -0.98884587015E+03 -0.97639972204E+02  0.99959811790E+03  0.46999998093E+01 0. -1.
</event>
<event>
 5   0  0.2081874E-05  0.2201143E+04  0.7818609E-02  0.8517953E-01
       -1   -1    0    0    0  501  0.00000000000E+00  0.00000000000E+00  0.81685968011E+03  0.81685968012E+03  0.50400001928E-02 0.  1.
        1   -1    0    0  501    0  0.00000000000E+00  0.00000000000E+00 -0.14828216420E+04  0.14828216420E+04  0.50400001928E-02 0. -1.
    10030    2    1    2    0    0  0.00000000000E+00  0.00000000000E+00 -0.66596196184E+03  0.22996813221E+04  0.22011426234E+04 0.  0.
        1    1    3    3  502    0  0.11790025151E+03 -0.83312528790E+03  0.40818460932E+03  0.93520740478E+03  0.50400001928E-02 0.  1.
       -1    1    3    3    0  502 -0.11790025151E+03  0.83312528790E+03 -0.10741465712E+04  0.13644739173E+04  0.50400001928E-02 0. -1.
</event>
<event>
 5   0  0.2063930E-05  0.2403241E+04  0.7818609E-02  0.8438291E-01
        1   -1    0    0  501    0  0.00000000000E+00  0.00000000000E+00  0.17246117817E+04  0.17246117817E+04  0.50400001928E-02 0. -1.
       -1   -1    0    0    0  501  0.00000000000E+00  0.00000000000E+00 -0.83722709797E+03  0.83722709799E+03  0.50400001928E-02 0.  1.
    10030    2    1    2    0    0  0.00000000000E+00  0.00000000000E+00  0.88738468376E+03  0.25618388797E+04  0.24032409094E+04 0.  0.
        3    1    3    3  502    0  0.79267297979E+03  0.88580269873E+03  0.25626283751E+03  0.12159965156E+04  0.10100000352E+00 0. -1.
       -3    1    3    3    0  502 -0.79267297979E+03 -0.88580269873E+03  0.63112184625E+03  0.13458423641E+04  0.10100000352E+00 0.  1.
</event>
<event>
 5   0  0.2063930E-05  0.2443177E+04  0.7818609E-02  0.8423513E-01
        1   -1    0    0  501    0  0.00000000000E+00  0.00000000000E+00  0.26643002780E+04  0.26643002780E+04  0.50400001928E-02 0. -1.
       -1   -1    0    0    0  501  0.00000000000E+00  0.00000000000E+00 -0.56010151574E+03  0.56010151576E+03  0.50400001928E-02 0.  1.
    10030    2    1    2    0    0  0.00000000000E+00  0.00000000000E+00  0.21041987623E+04  0.32244017938E+04  0.24431771317E+04 0.  0.
        3    1    3    3  502    0 -0.12121628592E+04  0.13832810622E+03  0.97068892343E+03  0.15590735898E+04  0.10100000352E+00 0. -1.
       -3    1    3    3    0  502  0.12121628592E+04 -0.13832810622E+03  0.11335098389E+04  0.16653282040E+04  0.10100000352E+00 0.  1.
</event>
<event>
 5   0  0.2041718E-05  0.2339999E+04  0.7818609E-02  0.8462315E-01
        1   -1    0    0  501    0  0.00000000000E+00  0.00000000000E+00  0.11761965855E+04  0.11761965855E+04  0.50400001928E-02 0.  1.
       -1   -1    0    0    0  501  0.00000000000E+00  0.00000000000E+00 -0.11638347777E+04  0.11638347777E+04  0.50400001928E-02 0. -1.
    10030    2    1    2    0    0  0.00000000000E+00  0.00000000000E+00  0.12361807815E+02  0.23400313632E+04  0.23399987108E+04 0.  0.
        4    1    3    3  502    0  0.10777848767E+04 -0.82411916021E+02  0.45394256992E+03  0.11723810959E+04  0.12699999809E+01 0.  1.
       -4    1    3    3    0  502 -0.10777848767E+04  0.82411916021E+02 -0.44158076211E+03  0.11676502673E+04  0.12699999809E+01 0. -1.
</event>
<event>
 5   0  0.2063930E-05  0.2512221E+04  0.7818609E-02  0.8398645E-01
        1   -1    0    0  501    0  0.00000000000E+00  0.00000000000E+00  0.10568917184E+04  0.10568917184E+04  0.50400001928E-02 0.  1.
       -1   -1    0    0    0  501  0.00000000000E+00  0.00000000000E+00 -0.14928813966E+04  0.14928813966E+04  0.50400001928E-02 0. -1.
    10030    2    1    2    0    0  0.00000000000E+00  0.00000000000E+00 -0.43598967819E+03  0.25497731150E+04  0.25122213156E+04 0.  0.
        3    1    3    3  502    0  0.25866008594E+03 -0.12122814254E+04 -0.11776358175E+02  0.12396249381E+04  0.10100000352E+00 0.  1.
       -3    1    3    3    0  502 -0.25866008594E+03  0.12122814254E+04 -0.42421332001E+03  0.13101481769E+04  0.10100000352E+00 0. -1.
</event>
<event>
 5   0  0.2081874E-05  0.1869107E+04  0.7818609E-02  0.8670388E-01
       -1   -1    0    0    0  501  0.00000000000E+00  0.00000000000E+00  0.90954958597E+03  0.90954958598E+03  0.50400001928E-02 0.  1.
        1   -1    0    0  501    0  0.00000000000E+00  0.00000000000E+00 -0.96024521521E+03  0.96024521523E+03  0.50400001928E-02 0. -1.
    10030    2    1    2    0    0  0.00000000000E+00  0.00000000000E+00 -0.50695629245E+02  0.18697948012E+04  0.18691074212E+04 0.  0.
        1    1    3    3  502    0  0.13217892725E+03 -0.22791077165E+03 -0.92232467943E+03  0.95921707812E+03  0.50400001928E-02 0. -1.
       -1    1    3    3    0  502 -0.13217892725E+03  0.22791077165E+03  0.87162905018E+03  0.91057772309E+03  0.50400001928E-02 0.  1.
</event>
<event>
 5   0  0.2066170E-05  0.2501593E+04  0.7818609E-02  0.8402418E-01
        1   -1    0    0  501    0  0.00000000000E+00  0.00000000000E+00  0.22199207461E+04  0.22199207461E+04  0.50400001928E-02 0.  1.
       -1   -1    0    0    0  501  0.00000000000E+00  0.00000000000E+00 -0.70475105857E+03  0.70475105859E+03  0.50400001928E-02 0. -1.
    10030    2    1    2    0    0  0.00000000000E+00  0.00000000000E+00  0.15151696876E+04  0.29246718047E+04  0.25015926893E+04 0.  0.
        5    1    3    3  502    0  0.57370730262E+03 -0.88354632623E+03  0.15459205272E+04  0.18707449174E+04  0.46999998093E+01 0.  1.
       -5    1    3    3    0  502 -0.57370730262E+03  0.88354632623E+03 -0.30750839614E+02  0.10539268873E+04  0.46999998093E+01 0. -1.
</event>
<event>
 5   0  0.4959347E-05  0.2698480E+04  0.7818609E-02  0.8335498E-01
        2   -1    0    0  501    0  0.00000000000E+00  0.00000000000E+00  0.26117909382E+04  0.26117909382E+04  0.25500000920E-02 0. -1.
       -2   -1    0    0    0  501  0.00000000000E+00  0.00000000000E+00 -0.69701134646E+03  0.69701134647E+03  0.25500000920E-02 0.  1.
    10030    2    1    2    0    0  0.00000000000E+00  0.00000000000E+00  0.19147795917E+04  0.33088022846E+04  0.26984795115E+04 0.  0.
        3    1    3    3  502    0 -0.25446192635E+03  0.11964330652E+04  0.25917619088E+03  0.12503500548E+04  0.10100000352E+00 0. -1.
       -3    1    3    3    0  502  0.25446192635E+03 -0.11964330652E+04  0.16556034008E+04  0.20584522298E+04  0.10100000352E+00 0.  1.
</event>
<event>
 5   0  0.4995256E-05  0.2525272E+04  0.7818609E-02  0.8394037E-01
        2   -1    0    0  501    0  0.00000000000E+00  0.00000000000E+00  0.17657253432E+04  0.17657253432E+04  0.25500000920E-02 0. -1.
       -2   -1    0    0    0  501  0.00000000000E+00  0.00000000000E+00 -0.90288650286E+03  0.90288650286E+03  0.25500000920E-02 0.  1.
    10030    2    1    2    0    0  0.00000000000E+00  0.00000000000E+00  0.86283884034E+03  0.26686118461E+04  0.25252719300E+04 0.  0.
        2    1    3    3  502    0  0.91100360247E+03 -0.78681615821E+03  0.28680231176E+02  0.12040887784E+04  0.25500000920E-02 0.  1.
       -2    1    3    3    0  502 -0.91100360247E+03  0.78681615821E+03  0.83415860916E+03  0.14645230677E+04  0.25500000920E-02 0. -1.
</event>
<event>
 5   0  0.2066170E-05  0.2472772E+04  0.7818609E-02  0.8412750E-01
       -1   -1    0    0    0  501  0.00000000000E+00  0.00000000000E+00  0.90925211317E+03  0.90925211319E+03  0.50400001928E-02 0.  1.
        1   -1    0    0  501    0  0.00000000000E+00  0.00000000000E+00 -0.16812168675E+04  0.16812168675E+04  0.50400001928E-02 0. -1.
    10030    2    1    2    0    0  0.00000000000E+00  0.00000000000E+00 -0.77196475434E+03  0.25904689807E+04  0.24727717157E+04 0.  0.
        5    1    3    3  502    0  0.72352033726E+03 -0.55098718985E+03 -0.12634408592E+04  0.15567188110E+04  0.46999998093E+01 0. -1.
       -5    1    3    3    0  502 -0.72352033726E+03  0.55098718985E+03  0.49147610484E+03  0.10337501697E+04  0.46999998093E+01 0.  1.
</event>
<event>
 5   0  0.4959347E-05  0.2239601E+04  0.7818609E-02  0.8502124E-01
       -2   -1    0    0    0  501  0.00000000000E+00  0.00000000000E+00  0.85134697789E+03  0.85134697790E+03  0.25500000920E-02 0. -1.
        2   -1    0    0  501    0  0.00000000000E+00  0.00000000000E+00 -0.14729044529E+04  0.14729044529E+04  0.25500000920E-02 0.  1.
    10030    2    1    2    0    0  0.00000000000E+00  0.00000000000E+00 -0.62155747498E+03  0.23242514308E+04  0.22396006382E+04 0.  0.
        3    1    3    3  502    0 -0.70316700608E+02 -0.14741331915E+02 -0.14705101064E+04  0.14722641504E+04  0.10100000352E+00 0.  1.
       -3    1    3    3    0  502  0.70316700608E+02  0.14741331915E+02  0.84895263145E+03  0.85198728037E+03  0.10100000352E+00 0. -1.
</event>
<event>
 5   0  0.5219468E-05  0.2480308E+04  0.7818609E-02  0.8410035E-01
       -2   -1    0    0    0  501  0.00000000000E+00  0.00000000000E+00  0.12085850976E+04  0.12085850976E+04  0.25500000920E-02 0.  1.
        2   -1    0    0  501    0  0.00000000000E+00  0.00000000000E+00 -0.12725478665E+04  0.12725478665E+04  0.25500000920E-02 0. -1.
    10030    2    1    2    0    0  0.00000000000E+00  0.00000000000E+00 -0.63962768900E+02  0.24811329641E+04  0.24803083578E+04 0.  0.
        1    1    3    3  502    0  0.91109533037E+03  0.12888820762E+03 -0.86368760499E+03  0.12620075872E+04  0.50400001928E-02 0. -1.
       -1    1    3    3    0  502 -0.91109533037E+03 -0.12888820762E+03  0.79972483609E+03  0.12191253769E+04  0.50400001928E-02 0.  1.
</event>
<event>
 5   0  0.4959042E-05  0.2566805E+04  0.7818609E-02  0.8379565E-01
        2   -1    0    0  501    0  0.00000000000E+00  0.00000000000E+00  0.14987457125E+04  0.14987457125E+04  0.25500000920E-02 0.  1.
       -2   -1    0    0    0  501  0.00000000000E+00  0.00000000000E+00 -0.10990004204E+04  0.10990004204E+04  0.25500000920E-02 0. -1.
    10030    2    1    2    0    0  0.00000000000E+00  0.00000000000E+00  0.39974529208E+03  0.25977461329E+04  0.25668051489E+04 0.  0.
        4    1    3    3  502    0  0.19049142665E+03  0.23122407405E+02  0.14841447724E+04  0.14964988967E+04  0.12699999809E+01 0.  1.
       -4    1    3    3    0  502 -0.19049142665E+03 -0.23122407405E+02 -0.10843994804E+04  0.11012472362E+04  0.12699999809E+01 0. -1.
</event>
<event>
 5   0  0.4995256E-05  0.2461511E+04  0.7818609E-02  0.8416827E-01
       -2   -1    0    0    0  501  0.00000000000E+00  0.00000000000E+00  0.17587671719E+04  0.17587671719E+04  0.25500000920E-02 0.  1.
        2   -1    0    0  501    0  0.00000000000E+00  0.00000000000E+00 -0.86126174609E+03  0.86126174610E+03  0.25500000920E-02 0. -1.
    10030    2    1    2    0    0  0.00000000000E+00  0.00000000000E+00  0.89750542577E+03  0.26200289180E+04  0.24615108250E+04 0.  0.
        2    1    3    3  502    0 -0.24676729513E+03  0.98018112427E+03 -0.29868693299E+03  0.10539748661E+04  0.25500000920E-02 0. -1.
       -2    1    3    3    0  502  0.24676729513E+03 -0.98018112427E+03  0.11961923588E+04  0.15660540519E+04  0.25500000920E-02 0.  1.
</event>
<event>
 5   0  0.2066170E-05  0.1619695E+04  0.7818609E-02  0.8808539E-01
        1   -1    0    0  501    0  0.00000000000E+00  0.00000000000E+00  0.71697700572E+03  0.71697700573E+03  0.50400001928E-02 0.  1.
       -1   -1    0    0    0  501  0.00000000000E+00  0.00000000000E+00 -0.91474757881E+03  0.91474757882E+03  0.50400001928E-02 0. -1.
    10030    2    1    2    0    0  0.00000000000E+00  0.00000000000E+00 -0.19777057309E+03  0.16317245846E+04  0.16196950084E+04 0.  0.
        5    1    3    3  502    0 -0.59854739634E+03  0.41175332825E+03  0.26158656177E+03  0.77217187743E+03  0.46999998093E+01 0.  1.
       -5    1    3    3    0  502  0.59854739634E+03 -0.41175332825E+03 -0.45935713486E+03  0.85955270713E+03  0.46999998093E+01 0. -1.
</event>
<event>
 5   0  0.4995256E-05  0.2459696E+04  0.7818609E-02  0.8417486E-01
        2   -1    0    0  501    0  0.00000000000E+00  0.00000000000E+00  0.15395327439E+04  0.15395327439E+04  0.25500000920E-02 0. -1.
       -2   -1    0    0    0  501  0.00000000000E+00  0.00000000000E+00 -0.98245809786E+03  0.98245809787E+03  0.25500000920E-02 0.  1.
    10030    2    1    2    0    0  0.00000000000E+00  0.00000000000E+00  0.55707464606E+03  0.25219908418E+04  0.24596962505E+04 0.  0.
        2    1    3    3  502    0  0.11269012135E+04 -0.38564653088E+03  0.59272378452E+03  0.13303950828E+04  0.25500000920E-02 0. -1.
       -2    1    3    3    0  502 -0.11269012135E+04  0.38564653088E+03 -0.35649138451E+02  0.11915957590E+04  0.25500000920E-02 0.  1.
</event>
<event>
 5   0  0.2066170E-05  0.2651094E+04  0.7818609E-02  0.8351050E-01
        1   -1    0    0  501    0  0.00000000000E+00  0.00000000000E+00  0.17330973597E+04  0.17330973597E+04  0.50400001928E-02 0.  1.
       -1   -1    0    0    0  501  0.00000000000E+00  0.00000000000E+00 -0.10138350200E+04  0.10138350200E+04  0.50400001928E-02 0. -1.
    10030    2    1    2    0    0  0.00000000000E+00  0.00000000000E+00  0.71926233968E+03  0.27469323797E+04  0.26510939601E+04 0.  0.
        5    1    3    3  502    0  0.34726492811E+02 -0.71544686465E+03  0.15152909379E+04  0.16760664849E+04  0.46999998093E+01 0.  1.
       -5    1    3    3    0  502 -0.34726492811E+02  0.71544686465E+03 -0.79602859820E+03  0.10708658948E+04  0.46999998093E+01 0. -1.
</event>
<event>
 5   0  0.2041718E-05  0.2489868E+04  0.7818609E-02  0.8406604E-01
        1   -1    0    0  501    0  0.00000000000E+00  0.00000000000E+00  0.15688311076E+04  0.15688311076E+04  0.50400001928E-02 0.  1.
       -1   -1    0    0    0  501  0.00000000000E+00  0.00000000000E+00 -0.98790789801E+03  0.98790789802E+03  0.50400001928E-02 0. -1.
    10030    2    1    2    0    0  0.00000000000E+00  0.00000000000E+00  0.58092320955E+03  0.25567390056E+04  0.24898679819E+04 0.  0.
        4    1    3    3  502    0 -0.12110139861E+04  0.19228203054E+03  0.51149075117E+03  0.13285901005E+04  0.12699999809E+01 0.  1.
       -4    1    3    3    0  502  0.12110139861E+04 -0.19228203054E+03  0.69432458379E+02  0.12281489051E+04  0.12699999809E+01 0. -1.
</event>
<event>
 5   0  0.2036578E-05  0.2525115E+04  0.7818609E-02  0.8394092E-01
        1   -1    0    0  501    0  0.00000000000E+00  0.00000000000E+00  0.17861780217E+04  0.17861780217E+04  0.50400001928E-02 0. -1.
       -1   -1    0    0    0  501  0.00000000000E+00  0.00000000000E+00 -0.89243733945E+03  0.89243733946E+03  0.50400001928E-02 0.  1.
    10030    2    1    2    0    0  0.00000000000E+00  0.00000000000E+00  0.89374068225E+03  0.26786153612E+04  0.25251154124E+04 0.  0.
        2    1    3    3  502    0  0.23713920324E+03  0.12234116433E+04  0.66187563528E+03  0.14110458559E+04  0.25500000920E-02 0. -1.
       -2    1    3    3    0  502 -0.23713920324E+03 -0.12234116433E+04  0.23186504697E+03  0.12675695053E+04  0.25500000920E-02 0.  1.
</event>
<event>
 5   0  0.2041718E-05  0.2347142E+04  0.7818609E-02  0.8459562E-01
       -1   -1    0    0    0  501  0.00000000000E+00  0.00000000000E+00  0.83836874132E+03  0.83836874134E+03  0.50400001928E-02 0.  1.
        1   -1    0    0  501    0  0.00000000000E+00  0.00000000000E+00 -0.16427955360E+04  0.16427955360E+04  0.50400001928E-02 0. -1.
    10030    2    1    2    0    0  0.00000000000E+00  0.00000000000E+00 -0.80442679468E+03  0.24811642773E+04  0.23471416027E+04 0.  0.
        4    1    3    3  502    0  0.96290271863E+03  0.17464102434E+03 -0.10869547514E+04  0.14625844856E+04  0.12699999809E+01 0. -1.
       -4    1    3    3    0  502 -0.96290271863E+03 -0.17464102434E+03  0.28252795675E+03  0.10185797918E+04  0.12699999809E+01 0.  1.
</event>
<event>
 5   0  0.5219468E-05  0.2459706E+04  0.7818609E-02  0.8417483E-01
       -2   -1    0    0    0  501  0.00000000000E+00  0.00000000000E+00  0.70880180921E+03  0.70880180921E+03  0.25500000920E-02 0. -1.
        2   -1    0    0  501    0  0.00000000000E+00  0.00000000000E+00 -0.21339364735E+04  0.21339364735E+04  0.25500000920E-02 0.  1.
    10030    2    1    2    0    0  0.00000000000E+00  0.00000000000E+00 -0.14251346643E+04  0.28427382827E+04  0.24597057004E+04 0.  0.
        1    1    3    3  502    0  0.47526082885E+03 -0.93448294902E+03  0.30524582993E+02  0.10488388759E+04  0.50400001928E-02 0. -1.
       -1    1    3    3    0  502 -0.47526082885E+03  0.93448294902E+03 -0.14556592473E+04  0.17938994068E+04  0.50400001928E-02 0.  1.
</event>
<event>
 5   0  0.4959042E-05  0.2456460E+04  0.7818609E-02  0.8418663E-01
        2   -1    0    0  501    0  0.00000000000E+00  0.00000000000E+00  0.12042199482E+04  0.12042199482E+04  0.25500000920E-02 0.  1.
       -2   -1    0    0    0  501  0.00000000000E+00  0.00000000000E+00 -0.12527189439E+04  0.12527189439E+04  0.25500000920E-02 0. -1.
    10030    2    1    2    0    0  0.00000000000E+00  0.00000000000E+00 -0.48498995689E+02  0.24569388920E+04  0.24564601699E+04 0.  0.
        4    1    3    3  502    0 -0.26009611744E+03  0.60434857731E+03  0.10130930839E+04  0.12079927164E+04  0.12699999809E+01 0.  1.
       -4    1    3    3    0  502  0.26009611744E+03 -0.60434857731E+03 -0.10615920796E+04  0.12489461756E+04  0.12699999809E+01 0. -1.
</event>
<event>
 5   0  0.2063930E-05  0.2521318E+04  0.7818609E-02  0.8395430E-01
       -1   -1    0    0    0  501  0.00000000000E+00  0.00000000000E+00  0.77107116282E+03  0.77107116283E+03  0.50400001928E-02 0. -1.
        1   -1    0    0  501    0  0.00000000000E+00  0.00000000000E+00 -0.20611078530E+04  0.20611078530E+04  0.50400001928E-02 0.  1.
    10030    2    1    2    0    0  0.00000000000E+00  0.00000000000E+00 -0.12900366902E+04  0.28321790158E+04  0.25213177737E+04 0.  0.
        3    1    3    3  502    0  0.47053378469E+03 -0.32505864381E+03  0.61697323011E+03  0.84126163666E+03  0.10100000352E+00 0. -1.
       -3    1    3    3    0  502 -0.47053378469E+03  0.32505864381E+03 -0.19070099203E+04  0.19909173792E+04  0.10100000352E+00 0.  1.
</event>
<event>
 5   0  0.4959347E-05  0.2521576E+04  0.7818609E-02  0.8395339E-01
       -2   -1    0    0    0  501  0.00000000000E+00  0.00000000000E+00  0.10382317554E+04  0.10382317555E+04  0.25500000920E-02 0.  1.
        2   -1    0    0  501    0  0.00000000000E+00  0.00000000000E+00 -0.15310511835E+04  0.15310511835E+04  0.25500000920E-02 0. -1.
    10030    2    1    2    0    0  0.00000000000E+00  0.00000000000E+00 -0.49281942801E+03  0.25692829389E+04  0.25215756645E+04 0.  0.
        3    1    3    3  502    0 -0.58240202081E+03 -0.10290083268E+04 -0.69233776459E+03  0.13701758431E+04  0.10100000352E+00 0. -1.
       -3    1    3    3    0  502  0.58240202081E+03  0.10290083268E+04  0.19951833658E+03  0.11991070958E+04  0.10100000352E+00 0.  1.
</event>
<event>
 5   0  0.2063930E-05  0.2531528E+04  0.7818609E-02  0.8391839E-01
       -1   -1    0    0    0  501  0.00000000000E+00  0.00000000000E+00  0.71091393438E+03  0.71091393440E+03  0.50400001928E-02 0. -1.
        1   -1    0    0  501    0  0.00000000000E+00  0.00000000000E+00 -0.22536599073E+04  0.22536599073E+04  0.50400001928E-02 0.  1.
    10030    2    1    2    0    0  0.00000000000E+00  0.00000000000E+00 -0.15427459729E+04  0.29645738417E+04  0.25315277849E+04 0.  0.
        3    1    3    3  502    0 -0.82180012361E+03 -0.81030377456E+03 -0.13801114467E+04  0.17990706673E+04  0.10100000352E+00 0.  1.
       -3    1    3    3    0  502  0.82180012361E+03  0.81030377456E+03 -0.16263452615E+03  0.11655031744E+04  0.10100000352E+00 0. -1.
</event>
<event>
 5   0  0.2036578E-05  0.2480082E+04  0.7818609E-02  0.8410116E-01
        1   -1    0    0  501    0  0.00000000000E+00  0.00000000000E+00  0.16803010091E+04  0.16803010091E+04  0.50400001928E-02 0. -1.
       -1   -1    0    0    0  501  0.00000000000E+00  0.00000000000E+00 -0.91513445832E+03  0.91513445833E+03  0.50400001928E-02 0.  1.
    10030    2    1    2    0    0  0.00000000000E+00  0.00000000000E+00  0.76516655077E+03  0.25954354674E+04  0.24800817356E+04 0.  0.
        2    1    3    3  502    0  0.92165979768E+02  0.88240947853E+03  0.12892277834E+04  0.15650077741E+04  0.25500000920E-02 0. -1.
       -2    1    3    3    0  502 -0.92165979768E+02 -0.88240947853E+03 -0.52406123260E+03  0.10304276933E+04  0.25500000920E-02 0.  1.
</event>
<event>
 5   0  0.4995256E-05  0.2530289E+04  0.7818609E-02  0.8392274E-01
        2   -1    0    0  501    0  0.00000000000E+00  0.00000000000E+00  0.34663273581E+04  0.34663273581E+04  0.25500000920E-02 0.  1.
       -2   -1    0    0    0  501  0.00000000000E+00  0.00000000000E+00 -0.46175385282E+03  0.46175385282E+03  0.25500000920E-02 0. -1.
    10030    2    1    2    0    0  0.00000000000E+00  0.00000000000E+00  0.30045735052E+04  0.39280812109E+04  0.25302885312E+04 0.  0.
        2    1    3    3  502    0 -0.22384643958E+03 -0.34876731390E+03  0.33579657002E+04  0.33834419622E+04  0.25500000920E-02 0.  1.
       -2    1    3    3    0  502  0.22384643958E+03  0.34876731390E+03 -0.35339219496E+03  0.54463924870E+03  0.25500000920E-02 0. -1.
</event>
<event>
 5   0  0.1692125E-05  0.2509740E+04  0.7818609E-02  0.8399524E-01
        3   -1    0    0  501    0  0.00000000000E+00  0.00000000000E+00  0.69515544769E+03  0.69515545503E+03  0.10100000352E+00 0. -1.
       -3   -1    0    0    0  501  0.00000000000E+00  0.00000000000E+00 -0.22652462731E+04  0.22652462753E+04  0.10100000352E+00 0.  1.
    10030    2    1    2    0    0  0.00000000000E+00  0.00000000000E+00 -0.15700908254E+04  0.29604017304E+04  0.25097396688E+04 0.  0.
        2    1    3    3  502    0  0.22733885056E+03  0.23183186534E+03 -0.22148368157E+04  0.22385109084E+04  0.25500000920E-02 0.  1.
       -2    1    3    3    0  502 -0.22733885056E+03 -0.23183186534E+03  0.64474599033E+03  0.72189082195E+03  0.25500000920E-02 0. -1.
</event>
<event>
 5   0  0.2081874E-05  0.2376173E+04  0.7818609E-02  0.8448478E-01
       -1   -1    0    0    0  501  0.00000000000E+00  0.00000000000E+00  0.10041456685E+04  0.10041456685E+04  0.50400001928E-02 0.  1.
        1   -1    0    0  501    0  0.00000000000E+00  0.00000000000E+00 -0.14057222345E+04  0.14057222345E+04  0.50400001928E-02 0. -1.
    10030    2    1    2    0    0  0.00000000000E+00  0.00000000000E+00 -0.40157656604E+03  0.24098679030E+04  0.23761733042E+04 0.  0.
        1    1    3    3  502    0 -0.10086775785E+04 -0.56567345456E+03  0.75346330415E+02  0.11589193174E+04  0.50400001928E-02 0.  1.
       -1    1    3    3    0  502  0.10086775785E+04  0.56567345456E+03 -0.47692289645E+03  0.12509485856E+04  0.50400001928E-02 0. -1.
</event>
<event>
 5   0  0.4959042E-05  0.2565608E+04  0.7818609E-02  0.8379978E-01
       -2   -1    0    0    0  501  0.00000000000E+00  0.00000000000E+00  0.80829036053E+03  0.80829036054E+03  0.25500000920E-02 0.  1.
        2   -1    0    0  501    0  0.00000000000E+00  0.00000000000E+00 -0.20358852036E+04  0.20358852036E+04  0.25500000920E-02 0. -1.
    10030    2    1    2    0    0  0.00000000000E+00  0.00000000000E+00 -0.12275948431E+04  0.28441755641E+04  0.25656082205E+04 0.  0.
        4    1    3    3  502    0 -0.53290363717E+03  0.21733443364E+03  0.65713929996E+03  0.87352974478E+03  0.12699999809E+01 0.  1.
       -4    1    3    3    0  502  0.53290363717E+03 -0.21733443364E+03 -0.18847341430E+04  0.19706458194E+04  0.12699999809E+01 0. -1.
</event>
<event>
 5   0  0.2081874E-05  0.1818218E+04  0.7818609E-02  0.8696671E-01
       -1   -1    0    0    0  501  0.00000000000E+00  0.00000000000E+00  0.40488188073E+03  0.40488188077E+03  0.50400001928E-02 0.  1.
        1   -1    0    0  501    0  0.00000000000E+00  0.00000000000E+00 -0.20412842763E+04  0.20412842763E+04  0.50400001928E-02 0. -1.
    10030    2    1    2    0    0  0.00000000000E+00  0.00000000000E+00 -0.16364023956E+04  0.24461661571E+04  0.18182178274E+04 0.  0.
        1    1    3    3  502    0  0.47496221657E+03 -0.46556926238E+03 -0.16520399567E+04  0.17808929962E+04  0.50400001928E-02 0. -1.
       -1    1    3    3    0  502 -0.47496221657E+03  0.46556926238E+03  0.15637561163E+02  0.66527316088E+03  0.50400001928E-02 0.  1.
</event>
<event>
 5   0  0.4959042E-05  0.2495077E+04  0.7818609E-02  0.8404742E-01
       -2   -1    0    0    0  501  0.00000000000E+00  0.00000000000E+00  0.75599475652E+03  0.75599475652E+03  0.25500000920E-02 0.  1.
        2   -1    0    0  501    0  0.00000000000E+00  0.00000000000E+00 -0.20586806897E+04  0.20586806897E+04  0.25500000920E-02 0. -1.
    10030    2    1    2    0    0  0.00000000000E+00  0.00000000000E+00 -0.13026859332E+04  0.28146754462E+04  0.24950765974E+04 0.  0.
        4    1    3    3  502    0  0.68771788380E+03 -0.78737213541E+03 -0.14193070884E+04  0.17627662895E+04  0.12699999809E+01 0. -1.
       -4    1    3    3    0  502 -0.68771788380E+03  0.78737213541E+03  0.11662115519E+03  0.10519091567E+04  0.12699999809E+01 0.  1.
</event>
<event>
 5   0  0.5024070E-05  0.2524074E+04  0.7818609E-02  0.8394459E-01
       -2   -1    0    0    0  501  0.00000000000E+00  0.00000000000E+00  0.82960136156E+03  0.82960136156E+03  0.25500000920E-02 0. -1.
        2   -1    0    0  501    0  0.00000000000E+00  0.00000000000E+00 -0.19198833568E+04  0.19198833568E+04  0.25500000920E-02 0.  1.
    10030    2    1    2    0    0  0.00000000000E+00  0.00000000000E+00 -0.10902819952E+04  0.27494847183E+04  0.25240743625E+04 0.  0.
        5    1    3    3  502    0 -0.85447729698E+03 -0.28984175405E+03  0.41602785422E+03  0.99359999946E+03  0.46999998093E+01 0. -1.
       -5    1    3    3    0  502  0.85447729698E+03  0.28984175405E+03 -0.15063098494E+04  0.17558847189E+04  0.46999998093E+01 0.  1.
</event>
<event>
 5   0  0.2041718E-05  0.2450908E+04  0.7818609E-02  0.8420687E-01
       -1   -1    0    0    0  501  0.00000000000E+00  0.00000000000E+00  0.76745077371E+03  0.76745077372E+03  0.50400001928E-02 0. -1.
        1   -1    0    0  501    0  0.00000000000E+00  0.00000000000E+00 -0.19567863502E+04  0.19567863502E+04  0.50400001928E-02 0.  1.
    10030    2    1    2    0    0  0.00000000000E+00  0.00000000000E+00 -0.11893355765E+04  0.27242371240E+04  0.24509077490E+04 0.  0.
        4    1    3    3  502    0 -0.10565832323E+04 -0.14011162134E+03  0.77537479654E+02  0.10686501143E+04  0.12699999809E+01 0. -1.
       -4    1    3    3    0  502  0.10565832323E+04  0.14011162134E+03 -0.12668730562E+04  0.16555870096E+04  0.12699999809E+01 0.  1.
</event>
<event>
 5   0  0.5024070E-05  0.2055930E+04  0.7818609E-02  0.8580909E-01
       -2   -1    0    0    0  501  0.00000000000E+00  0.00000000000E+00  0.48931652902E+03  0.48931652903E+03  0.25500000920E-02 0.  1.
        2   -1    0    0  501    0  0.00000000000E+00  0.00000000000E+00 -0.21595673783E+04  0.21595673783E+04  0.25500000920E-02 0. -1.
    10030    2    1    2    0    0  0.00000000000E+00  0.00000000000E+00 -0.16702508493E+04  0.26488839073E+04  0.20559299733E+04 0.  0.
        5    1    3    3  502    0 -0.26233104537E+03 -0.60895158272E+03  0.17695470039E+03  0.68627593827E+03  0.46999998093E+01 0.  1.
       -5    1    3    3    0  502  0.26233104537E+03  0.60895158272E+03 -0.18472055497E+04  0.19626079690E+04  0.46999998093E+01 0. -1.
</event>
<event>
 5   0  0.2036578E-05  0.2549953E+04  0.7818609E-02  0.8385403E-01
        1   -1    0    0  501    0  0.00000000000E+00  0.00000000000E+00  0.15155057375E+04  0.15155057375E+04  0.50400001928E-02 0. -1.
       -1   -1    0    0    0  501  0.00000000000E+00  0.00000000000E+00 -0.10726219634E+04  0.10726219635E+04  0.50400001928E-02 0.  1.
    10030    2    1    2    0    0  0.00000000000E+00  0.00000000000E+00  0.44288377402E+03  0.25881277009E+04  0.25499527366E+04 0.  0.
        2    1    3    3  502    0 -0.28293366127E+03  0.41237335147E+03 -0.96891664708E+03  0.10903681519E+04  0.25500000920E-02 0.  1.
       -2    1    3    3    0  502  0.28293366127E+03 -0.41237335147E+03  0.14118004211E+04  0.14977595490E+04  0.25500000920E-02 0. -1.
</event>
<event>
 5   0  0.4995256E-05  0.2437461E+04  0.7818609E-02  0.8425610E-01
       -2   -1    0    0    0  501  0.00000000000E+00  0.00000000000E+00  0.53367682766E+03  0.53367682767E+03  0.25500000920E-02 0.  1.
        2   -1    0    0  501    0  0.00000000000E+00  0.00000000000E+00 -0.27831533404E+04  0.27831533404E+04  0.25500000920E-02 0. -1.
    10030    2    1    2    0    0  0.00000000000E+00  0.00000000000E+00 -0.22494765127E+04  0.33168301680E+04  0.24374613397E+04 0.  0.
        2    1    3    3  502    0 -0.86718451242E+03  0.50480601036E+03 -0.18347478978E+03  0.10200495503E+04  0.25500000920E-02 0.  1.
       -2    1    3    3    0  502  0.86718451242E+03 -0.50480601036E+03 -0.20660017229E+04  0.22967806177E+04  0.25500000920E-02 0. -1.
</event>
<event>
 5   0  0.2066170E-05  0.2471245E+04  0.7818609E-02  0.8413302E-01
       -1   -1    0    0    0  501  0.00000000000E+00  0.00000000000E+00  0.64530117874E+03  0.64530117876E+03  0.50400001928E-02 0. -1.
        1   -1    0    0  501    0  0.00000000000E+00  0.00000000000E+00 -0.23659691326E+04  0.23659691326E+04  0.50400001928E-02 0.  1.
    10030    2    1    2    0    0  0.00000000000E+00  0.00000000000E+00 -0.17206679538E+04  0.30112703113E+04  0.24712447634E+04 0.  0.
        5    1    3    3  502    0 -0.11215035964E+04  0.14801977235E+03 -0.14660032751E+04  0.18517202441E+04  0.46999998093E+01 0.  1.
       -5    1    3    3    0  502  0.11215035964E+04 -0.14801977235E+03 -0.25466467871E+03  0.11595500672E+04  0.46999998093E+01 0. -1.
</event>
</LesHouchesEvents>
