<LesHouchesEvents version="3.0">
<header>
<!--
#*********************************************************************
#                                                                    *
#                        MadGraph5_aMC@NLO                           *
#                                                                    *
#                           Going Beyond                             *
#                                                                    *
#                   http://madgraph.hep.uiuc.edu                     *
#                   http://madgraph.phys.ucl.ac.be                   *
#                   http://amcatnlo.cern.ch                          *
#                                                                    *
#                     The MadGraph5_aMC@NLO team                     *
#                                                                    *
#....................................................................*
#                                                                    *
# This file contains all the information necessary to reproduce      *
# the events generated:                                              *
#                                                                    *
# 1. software version                                                *
# 2. proc_card          : code generation info including model       *
# 3. param_card         : model primary parameters in the LH format  *
# 4. run_card           : running parameters (collider and cuts)     *
# 5. pythia_card        : present only if pythia has been run        *
# 6. pgs_card           : present only if pgs has been run           *
# 7. delphes_cards      : present only if delphes has been run       *
#                                                                    *
#                                                                    *
#*********************************************************************
-->
<MGVersion>
#5.2.2.3
</MGVersion>
<MG5ProcCard>
#************************************************************
#*                     MadGraph5_aMC@NLO                    *
#*                                                          *
#*                *                       *                 *
#*                  *        * *        *                   *
#*                    * * * * 5 * * * *                     *
#*                  *        * *        *                   *
#*                *                       *                 *
#*                                                          *
#*                                                          *
#*         VERSION 2.2.3                 2015-02-10         *
#*                                                          *
#*    The MadGraph5_aMC@NLO Development Team - Find us at   *
#*    https://server06.fynu.ucl.ac.be/projects/madgraph     *
#*                                                          *
#************************************************************
#*                                                          *
#*               Command File for MadGraph5_aMC@NLO         *
#*                                                          *
#*     run as ./bin/mg5_aMC  filename                       *
#*                                                          *
#************************************************************
set group_subprocesses Auto
set ignore_six_quark_processes False
set loop_optimized_output True
set gauge unitary
set complex_mass_scheme False
import model sm
define p = g u c d s u~ c~ d~ s~
define j = g u c d s u~ c~ d~ s~
define l+ = e+ mu+
define l- = e- mu-
define vl = ve vm vt
define vl~ = ve~ vm~ vt~
import model Zprime_UFO
generate p p > zph, zph > j j
add process p p > zph, zph > b b~
output Dijet_signal
</MG5ProcCard>
<MGProcCard>
#*********************************************************************
#                        MadGraph/MadEvent                           *
#                   http://madgraph.hep.uiuc.edu                     *
#                                                                    *
#                          proc_card.dat                             *
#*********************************************************************
#                                                                    *
#            This Files is generated by MADGRAPH 5                   *
#                                                                    *
# WARNING: This Files is generated for MADEVENT (compatibility issue)*
#          This files is NOT a valid MG4 proc_card.dat               *
#          Running this in MG4 will NEVER reproduce the result of MG5*
#                                                                    *
#*********************************************************************
#*********************************************************************
# Process(es) requested : mg2 input                                  *
#*********************************************************************
# Begin PROCESS # This is TAG. Do not modify this line
p p > zph , zph > j j           #Process
# Be carefull the coupling are here in MG5 convention
          
end_coup           # End the couplings input

done               # this tells MG there are no more procs
# End PROCESS  # This is TAG. Do not modify this line
#*********************************************************************
# Model information                                                  *
#*********************************************************************
# Begin MODEL  # This is TAG. Do not modify this line
Zprime_UFO
# End   MODEL  # This is TAG. Do not modify this line
#*********************************************************************
# Start multiparticle definitions                                    *
#*********************************************************************
# Begin MULTIPARTICLES # This is TAG. Do not modify this line

# End  MULTIPARTICLES # This is TAG. Do not modify this line
</MGProcCard>
<MGRunCard>
#*********************************************************************
#                       MadGraph5_aMC@NLO                            *
#                                                                    *
#                     run_card.dat MadEvent                          *
#                                                                    *
#  This file is used to set the parameters of the run.               *
#                                                                    *
#  Some notation/conventions:                                        *
#                                                                    *
#   Lines starting with a '# ' are info or comments                  *
#                                                                    *
#   mind the format:   value    = variable     ! comment             *
#*********************************************************************
#
#*******************                                                 
# Running parameters
#*******************                                                 
#                                                                    
#*********************************************************************
# Tag name for the run (one word)                                    *
#*********************************************************************
  tag_1     = run_tag ! name of the run 
#*********************************************************************
# Run to generate the grid pack                                      *
#*********************************************************************
  .false.     = gridpack  !True = setting up the grid pack
#*********************************************************************
# Number of events and rnd seed                                      *
# Warning: Do not generate more than 1M events in a single run       *
# If you want to run Pythia, avoid more than 50k events in a run.    *
#*********************************************************************
  2000 = nevents ! Number of unweighted events requested 
 1983 = iseed   ! rnd seed (0=assigned automatically=default))
#*********************************************************************
# Collider type and energy                                           *
# lpp: 0=No PDF, 1=proton, -1=antiproton, 2=photon from proton,      *
#                                         3=photon from electron     *
#*********************************************************************
        1     = lpp1    ! beam 1 type 
        1     = lpp2    ! beam 2 type
     4000     = ebeam1  ! beam 1 total energy in GeV
     4000     = ebeam2  ! beam 2 total energy in GeV
#*********************************************************************
# Beam polarization from -100 (left-handed) to 100 (right-handed)    *
#*********************************************************************
        0     = polbeam1 ! beam polarization for beam 1
        0     = polbeam2 ! beam polarization for beam 2
#*********************************************************************
# PDF CHOICE: this automatically fixes also alpha_s and its evol.    *
#*********************************************************************
 'nn23lo1'    = pdlabel     ! PDF set                                     
 230000    = lhaid     ! if pdlabel=lhapdf, this is the lhapdf number
#*********************************************************************
# Renormalization and factorization scales                           *
#*********************************************************************
 F        = fixed_ren_scale  ! if .true. use fixed ren scale
 F        = fixed_fac_scale  ! if .true. use fixed fac scale
 91.1880  = scale            ! fixed ren scale
 91.1880  = dsqrt_q2fact1    ! fixed fact scale for pdf1
 91.1880  = dsqrt_q2fact2    ! fixed fact scale for pdf2
 1        = scalefact        ! scale factor for event-by-event scales
#*********************************************************************
# Matching - Warning! ickkw > 1 is still beta
#*********************************************************************
 0        = ickkw            ! 0 no matching, 1 MLM, 2 CKKW matching
 1        = highestmult      ! for ickkw=2, highest mult group
 1        = ktscheme         ! for ickkw=1, 1 Durham kT, 2 Pythia pTE
 1        = alpsfact         ! scale factor for QCD emission vx
 F        = chcluster        ! cluster only according to channel diag
 T        = pdfwgt           ! for ickkw=1, perform pdf reweighting
 5        = asrwgtflavor     ! highest quark flavor for a_s reweight
 T        = clusinfo         ! include clustering tag in output
 3.0      = lhe_version       ! Change the way clustering information pass to shower.        
#*********************************************************************
#**********************************************************
#
#**********************************************************
# Automatic ptj and mjj cuts if xqcut > 0
# (turn off for VBF and single top processes)
#**********************************************************
   T  = auto_ptj_mjj  ! Automatic setting of ptj and mjj
#**********************************************************
#                                                                    
#**********************************
# BW cutoff (M+/-bwcutoff*Gamma)
#**********************************
  15  = bwcutoff      ! (M+/-bwcutoff*Gamma)
#**********************************************************
# Apply pt/E/eta/dr/mij cuts on decay products or not
# (note that etmiss/ptll/ptheavy/ht/sorted cuts always apply)
#**********************************************************
   T  = cut_decays    ! Cut decay products 
#*************************************************************
# Number of helicities to sum per event (0 = all helicities)
# 0 gives more stable result, but longer run time (needed for
# long decay chains e.g.).
# Use >=2 if most helicities contribute, e.g. pure QCD.
#*************************************************************
   0  = nhel          ! Number of helicities used per event
#*******************                                                 
# Standard Cuts
#*******************                                                 
#                                                                    
#*********************************************************************
# Minimum and maximum pt's (for max, -1 means no cut)                *
#*********************************************************************
 20  = ptj       ! minimum pt for the jets 
  0  = ptb       ! minimum pt for the b 
 10  = pta       ! minimum pt for the photons 
 10  = ptl       ! minimum pt for the charged leptons 
  0  = misset    ! minimum missing Et (sum of neutrino's momenta)
  0  = ptheavy   ! minimum pt for one heavy final state
 1.0 = ptonium   ! minimum pt for the quarkonium states
 -1  = ptjmax    ! maximum pt for the jets
 -1  = ptbmax    ! maximum pt for the b
 -1  = ptamax    ! maximum pt for the photons
 -1  = ptlmax    ! maximum pt for the charged leptons
 -1  = missetmax ! maximum missing Et (sum of neutrino's momenta)
#*********************************************************************
# Minimum and maximum E's (in the center of mass frame)              *
#*********************************************************************
  0  = ej     ! minimum E for the jets 
  0  = eb     ! minimum E for the b 
  0  = ea     ! minimum E for the photons 
  0  = el     ! minimum E for the charged leptons 
 -1   = ejmax ! maximum E for the jets
 -1   = ebmax ! maximum E for the b
 -1   = eamax ! maximum E for the photons
 -1   = elmax ! maximum E for the charged leptons
#*********************************************************************
# Maximum and minimum absolute rapidity (for max, -1 means no cut)   *
#*********************************************************************
   5  = etaj    ! max rap for the jets 
  -1  = etab    ! max rap for the b
 2.5  = etaa    ! max rap for the photons 
 2.5  = etal    ! max rap for the charged leptons 
 0.6  = etaonium ! max rap for the quarkonium states
   0  = etajmin ! min rap for the jets
   0  = etabmin ! min rap for the b
   0  = etaamin ! min rap for the photons
   0  = etalmin ! main rap for the charged leptons
#*********************************************************************
# Minimum and maximum DeltaR distance                                *
#*********************************************************************
 0.4 = drjj    ! min distance between jets 
 0   = drbb    ! min distance between b's 
 0.4 = drll    ! min distance between leptons 
 0.4 = draa    ! min distance between gammas 
 0   = drbj    ! min distance between b and jet 
 0.4 = draj    ! min distance between gamma and jet 
 0.4 = drjl    ! min distance between jet and lepton 
 0   = drab    ! min distance between gamma and b 
 0   = drbl    ! min distance between b and lepton 
 0.4 = dral    ! min distance between gamma and lepton 
 -1  = drjjmax ! max distance between jets
 -1  = drbbmax ! max distance between b's
 -1  = drllmax ! max distance between leptons
 -1  = draamax ! max distance between gammas
 -1  = drbjmax ! max distance between b and jet
 -1  = drajmax ! max distance between gamma and jet
 -1  = drjlmax ! max distance between jet and lepton
 -1  = drabmax ! max distance between gamma and b
 -1  = drblmax ! max distance between b and lepton
 -1  = dralmax ! maxdistance between gamma and lepton
#*********************************************************************
# Minimum and maximum invariant mass for pairs                       *
# WARNING: for four lepton final state mmll cut require to have      *
#          different lepton masses for each flavor!                  *           
#*********************************************************************
 0   = mmjj    ! min invariant mass of a jet pair 
 0   = mmbb    ! min invariant mass of a b pair 
 0   = mmaa    ! min invariant mass of gamma gamma pair
 0   = mmll    ! min invariant mass of l+l- (same flavour) lepton pair
 -1  = mmjjmax ! max invariant mass of a jet pair
 -1  = mmbbmax ! max invariant mass of a b pair
 -1  = mmaamax ! max invariant mass of gamma gamma pair
 -1  = mmllmax ! max invariant mass of l+l- (same flavour) lepton pair
#*********************************************************************
# Minimum and maximum invariant mass for all letpons                 *
#*********************************************************************
 0   = mmnl    ! min invariant mass for all letpons (l+- and vl) 
 -1  = mmnlmax ! max invariant mass for all letpons (l+- and vl) 
#*********************************************************************
# Minimum and maximum pt for 4-momenta sum of leptons                *
#*********************************************************************
 0   = ptllmin  ! Minimum pt for 4-momenta sum of leptons(l and vl)
 -1  = ptllmax  ! Maximum pt for 4-momenta sum of leptons(l and vl)
#*********************************************************************
# Inclusive cuts                                                     *
#*********************************************************************
 0  = xptj ! minimum pt for at least one jet  
 0  = xptb ! minimum pt for at least one b 
 0  = xpta ! minimum pt for at least one photon 
 0  = xptl ! minimum pt for at least one charged lepton 
#*********************************************************************
# Control the pt's of the jets sorted by pt                          *
#*********************************************************************
 0   = ptj1min ! minimum pt for the leading jet in pt
 0   = ptj2min ! minimum pt for the second jet in pt
 0   = ptj3min ! minimum pt for the third jet in pt
 0   = ptj4min ! minimum pt for the fourth jet in pt
 -1  = ptj1max ! maximum pt for the leading jet in pt 
 -1  = ptj2max ! maximum pt for the second jet in pt
 -1  = ptj3max ! maximum pt for the third jet in pt
 -1  = ptj4max ! maximum pt for the fourth jet in pt
 0   = cutuse  ! reject event if fails any (0) / all (1) jet pt cuts
#*********************************************************************
# Control the pt's of leptons sorted by pt                           *
#*********************************************************************
 0   = ptl1min ! minimum pt for the leading lepton in pt
 0   = ptl2min ! minimum pt for the second lepton in pt
 0   = ptl3min ! minimum pt for the third lepton in pt
 0   = ptl4min ! minimum pt for the fourth lepton in pt
 -1  = ptl1max ! maximum pt for the leading lepton in pt 
 -1  = ptl2max ! maximum pt for the second lepton in pt
 -1  = ptl3max ! maximum pt for the third lepton in pt
 -1  = ptl4max ! maximum pt for the fourth lepton in pt
#*********************************************************************
# Control the Ht(k)=Sum of k leading jets                            *
#*********************************************************************
 0   = htjmin ! minimum jet HT=Sum(jet pt)
 -1  = htjmax ! maximum jet HT=Sum(jet pt)
 0   = ihtmin  !inclusive Ht for all partons (including b)
 -1  = ihtmax  !inclusive Ht for all partons (including b)
 0   = ht2min ! minimum Ht for the two leading jets
 0   = ht3min ! minimum Ht for the three leading jets
 0   = ht4min ! minimum Ht for the four leading jets
 -1  = ht2max ! maximum Ht for the two leading jets
 -1  = ht3max ! maximum Ht for the three leading jets
 -1  = ht4max ! maximum Ht for the four leading jets
#***********************************************************************
# Photon-isolation cuts, according to hep-ph/9801442                   *
# When ptgmin=0, all the other parameters are ignored                  *
# When ptgmin>0, pta and draj are not going to be used                 *
#***********************************************************************
   0 = ptgmin ! Min photon transverse momentum
 0.4 = R0gamma ! Radius of isolation code
 1.0 = xn ! n parameter of eq.(3.4) in hep-ph/9801442
 1.0 = epsgamma ! epsilon_gamma parameter of eq.(3.4) in hep-ph/9801442
 .true. = isoEM ! isolate photons from EM energy (photons and leptons)
#*********************************************************************
# WBF cuts                                                           *
#*********************************************************************
 0   = xetamin ! minimum rapidity for two jets in the WBF case  
 0   = deltaeta ! minimum rapidity for two jets in the WBF case 
#*********************************************************************
# KT DURHAM CUT                                                      *
#*********************************************************************
 -1    =  ktdurham        
 0.4  =  dparameter 
#*********************************************************************
# maximal pdg code for quark to be considered as a light jet         *
# (otherwise b cuts are applied)                                     *
#*********************************************************************
 4 = maxjetflavor    ! Maximum jet pdg code
#*********************************************************************
# Jet measure cuts                                                   *
#*********************************************************************
 0   = xqcut   ! minimum kt jet measure between partons
#*********************************************************************
#
#*********************************************************************
# Store info for systematics studies                                 *
# WARNING: If use_syst is T, matched Pythia output is                *
#          meaningful ONLY if plotted taking matchscale              *
#          reweighting into account!                                 *
#*********************************************************************
   F  = use_syst      ! Enable systematics studies
#
#**************************************
# Parameter of the systematics study
#  will be used by SysCalc (if installed)
#**************************************                                  
#
0.5 1 2 = sys_scalefact  # factorization/renormalization scale factor
0.5 1 2 = sys_alpsfact  # \alpha_s emission scale factors
30 50 = sys_matchscale # variation of merging scale
# PDF sets and number of members (0 or none for all members).
CT10nlo.LHgrid = sys_pdf # matching scales
# MSTW2008nlo68cl.LHgrid 1  = sys_pdf
</MGRunCard>
<slha>
######################################################################
## PARAM_CARD AUTOMATICALY GENERATED BY MG5 FOLLOWING UFO MODEL   ####
######################################################################
##                                                                  ##
##  Width set on Auto will be computed following the information    ##
##        present in the decay.py files of the model.               ##
##        See  arXiv:1402.1178 for more details.                    ##
##                                                                  ##
######################################################################

###################################
## INFORMATION FOR CKMBLOCK
###################################
Block ckmblock 
    1 2.277360e-01 # cabi 

###################################
## INFORMATION FOR FRBLOCK
###################################
Block frblock 
    1 1.000000e+00 # gz 

###################################
## INFORMATION FOR MASS
###################################
Block mass 
    1 5.040000e-03 # MD 
    2 2.550000e-03 # MU 
    3 1.010000e-01 # MS 
    4 1.270000e+00 # MC 
    5 4.700000e+00 # MB 
    6 1.720000e+02 # MT 
   11 5.110000e-04 # Me 
   13 1.056600e-01 # MM 
   15 1.777000e+00 # MTA 
   23 9.118760e+01 # MZ 
   25 1.200000e+02 # MH 
  10030 2.600000e+03 # MZph 
  10031 3.000000e+02 # MZpl 
## Dependent parameters, given by model restrictions.
## Those values should be edited following the 
## analytical expression. MG5 ignores those values 
## but they are important for interfacing the output of MG5
## to external program such as Pythia.
  12 0.000000 # ve : 0.0 
  14 0.000000 # vm : 0.0 
  16 0.000000 # vt : 0.0 
  21 0.000000 # g : 0.0 
  22 0.000000 # a : 0.0 
  24 79.824360 # w+ : cmath.sqrt(MZ__exp__2/2. + cmath.sqrt(MZ__exp__4/4. - (aEW*cmath.pi*MZ__exp__2)/(Gf*sqrt__2))) 

###################################
## INFORMATION FOR SMINPUTS
###################################
Block sminputs 
    1 1.279000e+02 # aEWM1 
    2 1.166370e-05 # Gf 
    3 1.184000e-01 # aS 

###################################
## INFORMATION FOR YUKAWA
###################################
Block yukawa 
    1 5.040000e-03 # ymdo 
    2 2.550000e-03 # ymup 
    3 1.010000e-01 # yms 
    4 1.270000e+00 # ymc 
    5 4.700000e+00 # ymb 
    6 1.720000e+02 # ymt 
   11 5.110000e-04 # yme 
   13 1.056600e-01 # ymm 
   15 1.777000e+00 # ymtau 

###################################
## INFORMATION FOR DECAY
###################################
DECAY   6 1.508336e+00 # WT 
DECAY  23 2.495200e+00 # WZ 
DECAY  24 2.085000e+00 # WW 
DECAY  25 5.753088e-03 # WH 
## Dependent parameters, given by model restrictions.
## Those values should be edited following the 
## analytical expression. MG5 ignores those values 
## but they are important for interfacing the output of MG5
## to external program such as Pythia.
DECAY  1 0.000000 # d : 0.0 
DECAY  2 0.000000 # u : 0.0 
DECAY  3 0.000000 # s : 0.0 
DECAY  4 0.000000 # c : 0.0 
DECAY  5 0.000000 # b : 0.0 
DECAY  11 0.000000 # e- : 0.0 
DECAY  12 0.000000 # ve : 0.0 
DECAY  13 0.000000 # mu- : 0.0 
DECAY  14 0.000000 # vm : 0.0 
DECAY  15 0.000000 # ta- : 0.0 
DECAY  16 0.000000 # vt : 0.0 
DECAY  21 0.000000 # g : 0.0 
DECAY  22 0.000000 # a : 0.0 
DECAY  10030 0.308725 # zph : (gz__exp__2*MZph*(5 + cmath.sqrt(1 - (4*MT__exp__2)/MZph__exp__2)))/(144.*cmath.pi) 
DECAY  10031 0.132629 # zpl : (5*gz__exp__2*MZpl)/(144.*cmath.pi) 
#===========================================================
# QUANTUM NUMBERS OF NEW STATE(S) (NON SM PDG CODE)
#===========================================================

Block QNUMBERS 10030  # zph 
        1 0  # 3 times electric charge
        2 3  # number of spin states (2S+1)
        3 1  # colour rep (1: singlet, 3: triplet, 8: octet)
        4 0  # Particle/Antiparticle distinction (0=own anti)
Block QNUMBERS 10031  # zpl 
        1 0  # 3 times electric charge
        2 3  # number of spin states (2S+1)
        3 1  # colour rep (1: singlet, 3: triplet, 8: octet)
        4 0  # Particle/Antiparticle distinction (0=own anti)
</slha>
## END BANNER##
<MGGenerationInfo>
#  Number of Events        :         3927
#  Integrated weight (pb)  :  0.46724E-02
#  Max wgt                 :  0.18700E-05
#  Average wgt             :  0.11898E-05
</MGGenerationInfo>
</header>
<init>
     2212     2212  0.40000000000E+04  0.40000000000E+04 0 0  247000  247000 2   1
  0.46771991366E-02  0.12799132814E-04  0.18699560000E-05   0
</init>
<event>
 5   0  0.1702345E-05  0.2590600E+04  0.7818609E-02  0.8371401E-01
       -2   -1    0    0    0  501  0.00000000000E+00  0.00000000000E+00  0.65647218696E+03  0.65647218697E+03  0.25500000920E-02 0.  1.
        2   -1    0    0  501    0  0.00000000000E+00  0.00000000000E+00 -0.25557862008E+04  0.25557862008E+04  0.25500000920E-02 0. -1.
    10030    2    1    2    0    0  0.00000000000E+00  0.00000000000E+00 -0.18993140138E+04  0.32122583877E+04  0.25906003603E+04 0.  0.
        1    1    3    3  502    0  0.28404134259E+03  0.68632536285E+03  0.36615784008E+03  0.82812653132E+03  0.50400001928E-02 0.  1.
       -1    1    3    3    0  502 -0.28404134259E+03 -0.68632536285E+03 -0.22654718539E+04  0.23841318564E+04  0.50400001928E-02 0. -1.
</event>
<event>
 5   0  0.1702345E-05  0.2585988E+04  0.7818609E-02  0.8372976E-01
       -2   -1    0    0    0  501  0.00000000000E+00  0.00000000000E+00  0.86515544732E+03  0.86515544733E+03  0.25500000920E-02 0.  1.
        2   -1    0    0  501    0  0.00000000000E+00  0.00000000000E+00 -0.19324087422E+04  0.19324087422E+04  0.25500000920E-02 0. -1.
    10030    2    1    2    0    0  0.00000000000E+00  0.00000000000E+00 -0.10672532948E+04  0.27975641895E+04  0.25859883602E+04 0.  0.
        1    1    3    3  502    0 -0.40814346402E+03 -0.52272086744E+03  0.66714831995E+03  0.94069393180E+03  0.50400001928E-02 0.  1.
       -1    1    3    3    0  502  0.40814346402E+03  0.52272086744E+03 -0.17344016148E+04  0.18568702577E+04  0.50400001928E-02 0. -1.
</event>
<event>
 5   0  0.1720129E-05  0.2591108E+04  0.7818609E-02  0.8371228E-01
       -2   -1    0    0    0  501  0.00000000000E+00  0.00000000000E+00  0.97496229811E+03  0.97496229811E+03  0.25500000920E-02 0. -1.
        2   -1    0    0  501    0  0.00000000000E+00  0.00000000000E+00 -0.17215636219E+04  0.17215636219E+04  0.25500000920E-02 0.  1.
    10030    2    1    2    0    0  0.00000000000E+00  0.00000000000E+00 -0.74660132383E+03  0.26965259201E+04  0.25911075819E+04 0.  0.
        3    1    3    3  502    0  0.38143960689E+03 -0.69651626183E+01 -0.16617821427E+04  0.17050116092E+04  0.10100000352E+00 0.  1.
       -3    1    3    3    0  502 -0.38143960689E+03  0.69651626183E+01  0.91518081892E+03  0.99151431090E+03  0.10100000352E+00 0. -1.
</event>
<event>
 5   0  0.1702345E-05  0.2597042E+04  0.7818609E-02  0.8369207E-01
       -2   -1    0    0    0  501  0.00000000000E+00  0.00000000000E+00  0.14138275777E+04  0.14138275777E+04  0.25500000920E-02 0. -1.
        2   -1    0    0  501    0  0.00000000000E+00  0.00000000000E+00 -0.11926183047E+04  0.11926183047E+04  0.25500000920E-02 0.  1.
    10030    2    1    2    0    0  0.00000000000E+00  0.00000000000E+00  0.22120927302E+03  0.26064458824E+04  0.25970418933E+04 0.  0.
        1    1    3    3  502    0  0.78404151626E+03  0.14855893919E+03 -0.91749027092E+03  0.12159684432E+04  0.50400001928E-02 0.  1.
       -1    1    3    3    0  502 -0.78404151626E+03 -0.14855893919E+03  0.11386995439E+04  0.13904774392E+04  0.50400001928E-02 0. -1.
</event>
<event>
 5   0  0.1720129E-05  0.2626529E+04  0.7818609E-02  0.8359245E-01
       -2   -1    0    0    0  501  0.00000000000E+00  0.00000000000E+00  0.77799420918E+03  0.77799420919E+03  0.25500000920E-02 0.  1.
        2   -1    0    0  501    0  0.00000000000E+00  0.00000000000E+00 -0.22168082622E+04  0.22168082622E+04  0.25500000920E-02 0. -1.
    10030    2    1    2    0    0  0.00000000000E+00  0.00000000000E+00 -0.14388140530E+04  0.29948024714E+04  0.26265292619E+04 0.  0.
        3    1    3    3  502    0 -0.25385635825E+03 -0.11116936047E+04  0.23359406433E+02  0.11405487247E+04  0.10100000352E+00 0.  1.
       -3    1    3    3    0  502  0.25385635825E+03  0.11116936047E+04 -0.14621734595E+04  0.18542537467E+04  0.10100000352E+00 0. -1.
</event>
<event>
 5   0  0.6993678E-06  0.2470803E+04  0.7818609E-02  0.8413462E-01
        1   -1    0    0  501    0  0.00000000000E+00  0.00000000000E+00  0.16151391427E+04  0.16151391427E+04  0.50400001928E-02 0. -1.
       -1   -1    0    0    0  501  0.00000000000E+00  0.00000000000E+00 -0.94494421486E+03  0.94494421487E+03  0.50400001928E-02 0.  1.
    10030    2    1    2    0    0  0.00000000000E+00  0.00000000000E+00  0.67019492783E+03  0.25600833576E+04  0.24708026138E+04 0.  0.
        1    1    3    3  502    0  0.35238739968E+03  0.11839073219E+04  0.31429817347E+03  0.12745967081E+04  0.50400001928E-02 0.  1.
       -1    1    3    3    0  502 -0.35238739968E+03 -0.11839073219E+04  0.35589675436E+03  0.12854866495E+04  0.50400001928E-02 0. -1.
</event>
<event>
 5   0  0.6984287E-06  0.2585031E+04  0.7818609E-02  0.8373304E-01
        1   -1    0    0  501    0  0.00000000000E+00  0.00000000000E+00  0.11357337565E+04  0.11357337565E+04  0.50400001928E-02 0. -1.
       -1   -1    0    0    0  501  0.00000000000E+00  0.00000000000E+00 -0.14709401431E+04  0.14709401432E+04  0.50400001928E-02 0.  1.
    10030    2    1    2    0    0  0.00000000000E+00  0.00000000000E+00 -0.33520638664E+03  0.26066738997E+04  0.25850310438E+04 0.  0.
        3    1    3    3  502    0  0.40117081839E+02  0.77680605872E+02 -0.14679550729E+04  0.14705562767E+04  0.10100000352E+00 0.  1.
       -3    1    3    3    0  502 -0.40117081839E+02 -0.77680605872E+02  0.11327486862E+04  0.11361176230E+04  0.10100000352E+00 0. -1.
</event>
<event>
 5   0  0.1702345E-05  0.2575839E+04  0.7818609E-02  0.8376455E-01
       -2   -1    0    0    0  501  0.00000000000E+00  0.00000000000E+00  0.13648427084E+04  0.13648427084E+04  0.25500000920E-02 0. -1.
        2   -1    0    0  501    0  0.00000000000E+00  0.00000000000E+00 -0.12153315254E+04  0.12153315254E+04  0.25500000920E-02 0.  1.
    10030    2    1    2    0    0  0.00000000000E+00  0.00000000000E+00  0.14951118296E+03  0.25801742338E+04  0.25758387921E+04 0.  0.
        1    1    3    3  502    0  0.20849872404E+03  0.23483933719E+03  0.13259035744E+04  0.13625863352E+04  0.50400001928E-02 0. -1.
       -1    1    3    3    0  502 -0.20849872404E+03 -0.23483933719E+03 -0.11763923914E+04  0.12175878986E+04  0.50400001928E-02 0.  1.
</event>
<event>
 5   0  0.7138294E-06  0.2579912E+04  0.7818609E-02  0.8375057E-01
       -1   -1    0    0    0  501  0.00000000000E+00  0.00000000000E+00  0.15433085700E+04  0.15433085700E+04  0.50400001928E-02 0. -1.
        1   -1    0    0  501    0  0.00000000000E+00  0.00000000000E+00 -0.10781941809E+04  0.10781941809E+04  0.50400001928E-02 0.  1.
    10030    2    1    2    0    0  0.00000000000E+00  0.00000000000E+00  0.46511438911E+03  0.26215027510E+04  0.25799118742E+04 0.  0.
        2    1    3    3  502    0  0.61266099520E+03 -0.15840304581E+03 -0.90963757547E+03  0.11080999678E+04  0.25500000920E-02 0.  1.
       -2    1    3    3    0  502 -0.61266099520E+03  0.15840304581E+03  0.13747519646E+04  0.15134027832E+04  0.25500000920E-02 0. -1.
</event>
<event>
 5   0  0.1702345E-05  0.2616073E+04  0.7818609E-02  0.8362762E-01
        2   -1    0    0  501    0  0.00000000000E+00  0.00000000000E+00  0.14761038820E+04  0.14761038820E+04  0.25500000920E-02 0. -1.
       -2   -1    0    0    0  501  0.00000000000E+00  0.00000000000E+00 -0.11591049370E+04  0.11591049371E+04  0.25500000920E-02 0.  1.
    10030    2    1    2    0    0  0.00000000000E+00  0.00000000000E+00  0.31699894499E+03  0.26352088191E+04  0.26160728562E+04 0.  0.
        1    1    3    3  502    0  0.12389737100E+04  0.19718264248E+03 -0.21437363554E+03  0.12727501342E+04  0.50400001928E-02 0.  1.
       -1    1    3    3    0  502 -0.12389737100E+04 -0.19718264248E+03  0.53137258053E+03  0.13624586849E+04  0.50400001928E-02 0. -1.
</event>
<event>
 5   0  0.7138294E-06  0.2606355E+04  0.7818609E-02  0.8366046E-01
        1   -1    0    0  501    0  0.00000000000E+00  0.00000000000E+00  0.17560361735E+04  0.17560361735E+04  0.50400001928E-02 0. -1.
       -1   -1    0    0    0  501  0.00000000000E+00  0.00000000000E+00 -0.96710512694E+03  0.96710512695E+03  0.50400001928E-02 0.  1.
    10030    2    1    2    0    0  0.00000000000E+00  0.00000000000E+00  0.78893104652E+03  0.27231413004E+04  0.26063549923E+04 0.  0.
        2    1    3    3  502    0  0.10462960208E+04  0.74626313665E+03  0.16885574069E+03  0.12962084298E+04  0.25500000920E-02 0.  1.
       -2    1    3    3    0  502 -0.10462960208E+04 -0.74626313665E+03  0.62007530584E+03  0.14269328706E+04  0.25500000920E-02 0. -1.
</event>
<event>
 5   0  0.1869956E-05  0.2644101E+04  0.7818609E-02  0.8353373E-01
        2   -1    0    0  501    0  0.00000000000E+00  0.00000000000E+00  0.10863466057E+04  0.10863466057E+04  0.25500000920E-02 0.  1.
       -2   -1    0    0    0  501  0.00000000000E+00  0.00000000000E+00 -0.16088954767E+04  0.16088954767E+04  0.25500000920E-02 0. -1.
    10030    2    1    2    0    0  0.00000000000E+00  0.00000000000E+00 -0.52254887105E+03  0.26952420824E+04  0.26441014656E+04 0.  0.
        5    1    3    3  502    0 -0.11713542965E+04 -0.28113763072E+03 -0.81649912573E+03  0.14552670434E+04  0.46999998093E+01 0. -1.
       -5    1    3    3    0  502  0.11713542965E+04  0.28113763072E+03  0.29395025468E+03  0.12399750390E+04  0.46999998093E+01 0.  1.
</event>
<event>
 5   0  0.6706225E-06  0.2641840E+04  0.7818609E-02  0.8354126E-01
       -1   -1    0    0    0  501  0.00000000000E+00  0.00000000000E+00  0.19357007244E+04  0.19357007244E+04  0.50400001928E-02 0.  1.
        1   -1    0    0  501    0  0.00000000000E+00  0.00000000000E+00 -0.90139453420E+03  0.90139453421E+03  0.50400001928E-02 0. -1.
    10030    2    1    2    0    0  0.00000000000E+00  0.00000000000E+00  0.10343061902E+04  0.28370952586E+04  0.26418403077E+04 0.  0.
        5    1    3    3  502    0 -0.45082105088E+03  0.10912240854E+04 -0.11890402656E+03  0.11866633398E+04  0.46999998093E+01 0. -1.
       -5    1    3    3    0  502  0.45082105088E+03 -0.10912240854E+04  0.11532102168E+04  0.16504319188E+04  0.46999998093E+01 0.  1.
</event>
<event>
 5   0  0.6993678E-06  0.2606902E+04  0.7818609E-02  0.8365861E-01
       -1   -1    0    0    0  501  0.00000000000E+00  0.00000000000E+00  0.77114082395E+03  0.77114082396E+03  0.50400001928E-02 0. -1.
        1   -1    0    0  501    0  0.00000000000E+00  0.00000000000E+00 -0.22032092827E+04  0.22032092827E+04  0.50400001928E-02 0.  1.
    10030    2    1    2    0    0  0.00000000000E+00  0.00000000000E+00 -0.14320684587E+04  0.29743501067E+04  0.26069020861E+04 0.  0.
        1    1    3    3  502    0  0.83772222206E+03 -0.22634495952E+03 -0.18257377950E+04  0.20214670559E+04  0.50400001928E-02 0.  1.
       -1    1    3    3    0  502 -0.83772222206E+03  0.22634495952E+03  0.39366933627E+03  0.95288305073E+03  0.50400001928E-02 0. -1.
</event>
<event>
 5   0  0.6984287E-06  0.2608829E+04  0.7818609E-02  0.8365208E-01
        1   -1    0    0  501    0  0.00000000000E+00  0.00000000000E+00  0.14907567505E+04  0.14907567505E+04  0.50400001928E-02 0.  1.
       -1   -1    0    0    0  501  0.00000000000E+00  0.00000000000E+00 -0.11413648096E+04  0.11413648096E+04  0.50400001928E-02 0. -1.
    10030    2    1    2    0    0  0.00000000000E+00  0.00000000000E+00  0.34939194085E+03  0.26321215601E+04  0.26088290820E+04 0.  0.
        3    1    3    3  502    0  0.63120627200E+02 -0.14380974914E+03 -0.11317909603E+04  0.11426356574E+04  0.10100000352E+00 0. -1.
       -3    1    3    3    0  502 -0.63120627200E+02  0.14380974914E+03  0.14811829012E+04  0.14894859027E+04  0.10100000352E+00 0.  1.
</event>
<event>
 5   0  0.6984287E-06  0.2489240E+04  0.7818609E-02  0.8406829E-01
       -1   -1    0    0    0  501  0.00000000000E+00  0.00000000000E+00  0.15785421923E+04  0.15785421923E+04  0.50400001928E-02 0.  1.
        1   -1    0    0  501    0  0.00000000000E+00  0.00000000000E+00 -0.98133498618E+03  0.98133498619E+03  0.50400001928E-02 0. -1.
    10030    2    1    2    0    0  0.00000000000E+00  0.00000000000E+00  0.59720720612E+03  0.25598771785E+04  0.24892397880E+04 0.  0.
        3    1    3    3  502    0 -0.92089028428E+03 -0.70305752584E+03  0.76620415704E+03  0.13890275810E+04  0.10100000352E+00 0.  1.
       -3    1    3    3    0  502  0.92089028428E+03  0.70305752584E+03 -0.16899695092E+03  0.11708495975E+04  0.10100000352E+00 0. -1.
</event>
<event>
 5   0  0.1702345E-05  0.2605046E+04  0.7818609E-02  0.8366489E-01
        2   -1    0    0  501    0  0.00000000000E+00  0.00000000000E+00  0.10742918172E+04  0.10742918172E+04  0.25500000920E-02 0. -1.
       -2   -1    0    0    0  501  0.00000000000E+00  0.00000000000E+00 -0.15792416391E+04  0.15792416391E+04  0.25500000920E-02 0.  1.
    10030    2    1    2    0    0  0.00000000000E+00  0.00000000000E+00 -0.50494982191E+03  0.26535334564E+04  0.26050461572E+04 0.  0.
        1    1    3    3  502    0 -0.10883681285E+03  0.11909232091E+04 -0.77824377345E+03  0.14268170565E+04  0.50400001928E-02 0.  1.
       -1    1    3    3    0  502  0.10883681285E+03 -0.11909232091E+04  0.27329395155E+03  0.12267163999E+04  0.50400001928E-02 0. -1.
</event>
<event>
 5   0  0.6918420E-06  0.2616569E+04  0.7818609E-02  0.8362595E-01
        1   -1    0    0  501    0  0.00000000000E+00  0.00000000000E+00  0.13843960434E+04  0.13843960434E+04  0.50400001928E-02 0.  1.
       -1   -1    0    0    0  501  0.00000000000E+00  0.00000000000E+00 -0.12363574448E+04  0.12363574448E+04  0.50400001928E-02 0. -1.
    10030    2    1    2    0    0  0.00000000000E+00  0.00000000000E+00  0.14803859862E+03  0.26207534882E+04  0.26165690167E+04 0.  0.
        4    1    3    3  502    0  0.11387386184E+04 -0.14798698219E+03  0.70190375175E+03  0.13458440763E+04  0.12699999809E+01 0.  1.
       -4    1    3    3    0  502 -0.11387386184E+04  0.14798698219E+03 -0.55386515313E+03  0.12749094120E+04  0.12699999809E+01 0. -1.
</event>
<event>
 5   0  0.6993678E-06  0.2557083E+04  0.7818609E-02  0.8382927E-01
        1   -1    0    0  501    0  0.00000000000E+00  0.00000000000E+00  0.14343210931E+04  0.14343210931E+04  0.50400001928E-02 0.  1.
       -1   -1    0    0    0  501  0.00000000000E+00  0.00000000000E+00 -0.11396810620E+04  0.11396810621E+04  0.50400001928E-02 0. -1.
    10030    2    1    2    0    0  0.00000000000E+00  0.00000000000E+00  0.29464003108E+03  0.25740021552E+04  0.25570831717E+04 0.  0.
        1    1    3    3  502    0 -0.50778490291E+02 -0.68457905793E+03  0.12330863075E+04  0.14112862160E+04  0.50400001928E-02 0.  1.
       -1    1    3    3    0  502  0.50778490291E+02  0.68457905793E+03 -0.93844627640E+03  0.11627159392E+04  0.50400001928E-02 0. -1.
</event>
<event>
 5   0  0.1681731E-05  0.2602874E+04  0.7818609E-02  0.8367226E-01
       -2   -1    0    0    0  501  0.00000000000E+00  0.00000000000E+00  0.12886945205E+04  0.12886945205E+04  0.25500000920E-02 0. -1.
        2   -1    0    0  501    0  0.00000000000E+00  0.00000000000E+00 -0.13143057237E+04  0.13143057237E+04  0.25500000920E-02 0.  1.
    10030    2    1    2    0    0  0.00000000000E+00  0.00000000000E+00 -0.25611203139E+02  0.26030002442E+04  0.26028742455E+04 0.  0.
        2    1    3    3  502    0 -0.84917143282E+03 -0.89424160340E+03 -0.42873247518E+03  0.13055924720E+04  0.25500000920E-02 0.  1.
       -2    1    3    3    0  502  0.84917143282E+03  0.89424160340E+03  0.40312127204E+03  0.12974077723E+04  0.25500000920E-02 0. -1.
</event>
<event>
 5   0  0.6984287E-06  0.2602790E+04  0.7818609E-02  0.8367254E-01
        1   -1    0    0  501    0  0.00000000000E+00  0.00000000000E+00  0.10780752031E+04  0.10780752031E+04  0.50400001928E-02 0. -1.
       -1   -1    0    0    0  501  0.00000000000E+00  0.00000000000E+00 -0.15709742714E+04  0.15709742714E+04  0.50400001928E-02 0.  1.
    10030    2    1    2    0    0  0.00000000000E+00  0.00000000000E+00 -0.49289906829E+03  0.26490494746E+04  0.26027895857E+04 0.  0.
        3    1    3    3  502    0  0.57063537098E+03 -0.12270971377E+03 -0.14302847092E+04  0.15447966727E+04  0.10100000352E+00 0.  1.
       -3    1    3    3    0  502 -0.57063537098E+03  0.12270971377E+03  0.93738564091E+03  0.11042528019E+04  0.10100000352E+00 0. -1.
</event>
<event>
 5   0  0.1720129E-05  0.2590744E+04  0.7818609E-02  0.8371352E-01
        2   -1    0    0  501    0  0.00000000000E+00  0.00000000000E+00  0.15683674715E+04  0.15683674715E+04  0.25500000920E-02 0.  1.
       -2   -1    0    0    0  501  0.00000000000E+00  0.00000000000E+00 -0.10698950223E+04  0.10698950223E+04  0.25500000920E-02 0. -1.
    10030    2    1    2    0    0  0.00000000000E+00  0.00000000000E+00  0.49847244927E+03  0.26382624938E+04  0.25907439479E+04 0.  0.
        3    1    3    3  502    0  0.40480001036E+03  0.10814799069E+04  0.84696608947E+03  0.14320661313E+04  0.10100000352E+00 0.  1.
       -3    1    3    3    0  502 -0.40480001036E+03 -0.10814799069E+04 -0.34849364020E+03  0.12061963625E+04  0.10100000352E+00 0. -1.
</event>
<event>
 5   0  0.6993678E-06  0.2702893E+04  0.7818609E-02  0.8334067E-01
       -1   -1    0    0    0  501  0.00000000000E+00  0.00000000000E+00  0.14441025677E+04  0.14441025677E+04  0.50400001928E-02 0. -1.
        1   -1    0    0  501    0  0.00000000000E+00  0.00000000000E+00 -0.12647356859E+04  0.12647356859E+04  0.50400001928E-02 0.  1.
    10030    2    1    2    0    0  0.00000000000E+00  0.00000000000E+00  0.17936688178E+03  0.27088382536E+04  0.27028933027E+04 0.  0.
        1    1    3    3  502    0  0.14750404689E+02 -0.11851917839E+04 -0.56098326205E+03  0.13113349532E+04  0.50400001928E-02 0.  1.
       -1    1    3    3    0  502 -0.14750404689E+02  0.11851917839E+04  0.74035014383E+03  0.13975033004E+04  0.50400001928E-02 0. -1.
</event>
<event>
 5   0  0.1681731E-05  0.2672283E+04  0.7818609E-02  0.8344055E-01
        2   -1    0    0  501    0  0.00000000000E+00  0.00000000000E+00  0.18950559079E+04  0.18950559079E+04  0.25500000920E-02 0.  1.
       -2   -1    0    0    0  501  0.00000000000E+00  0.00000000000E+00 -0.94206925767E+03  0.94206925767E+03  0.25500000920E-02 0. -1.
    10030    2    1    2    0    0  0.00000000000E+00  0.00000000000E+00  0.95298665028E+03  0.28371251656E+04  0.26722828536E+04 0.  0.
        2    1    3    3  502    0  0.10844216717E+04 -0.77868665333E+03  0.41882270214E+03  0.13991910956E+04  0.25500000920E-02 0. -1.
       -2    1    3    3    0  502 -0.10844216717E+04  0.77868665333E+03  0.53416394814E+03  0.14379340700E+04  0.25500000920E-02 0.  1.
</event>
<event>
 5   0  0.7138294E-06  0.2590899E+04  0.7818609E-02  0.8371299E-01
       -1   -1    0    0    0  501  0.00000000000E+00  0.00000000000E+00  0.15592872492E+04  0.15592872492E+04  0.50400001928E-02 0.  1.
        1   -1    0    0  501    0  0.00000000000E+00  0.00000000000E+00 -0.10762541353E+04  0.10762541353E+04  0.50400001928E-02 0. -1.
    10030    2    1    2    0    0  0.00000000000E+00  0.00000000000E+00  0.48303311389E+03  0.26355413845E+04  0.25908989560E+04 0.  0.
        2    1    3    3  502    0  0.90742735970E+03 -0.75716119167E+03 -0.29816411034E+03  0.12188598443E+04  0.25500000920E-02 0. -1.
       -2    1    3    3    0  502 -0.90742735970E+03  0.75716119167E+03  0.78119722423E+03  0.14166815402E+04  0.25500000920E-02 0.  1.
</event>
<event>
 5   0  0.1720129E-05  0.2539923E+04  0.7818609E-02  0.8388899E-01
       -2   -1    0    0    0  501  0.00000000000E+00  0.00000000000E+00  0.60286822472E+03  0.60286822473E+03  0.25500000920E-02 0.  1.
        2   -1    0    0  501    0  0.00000000000E+00  0.00000000000E+00 -0.26752144656E+04  0.26752144656E+04  0.25500000920E-02 0. -1.
    10030    2    1    2    0    0  0.00000000000E+00  0.00000000000E+00 -0.20723462408E+04  0.32780826903E+04  0.25399226725E+04 0.  0.
        3    1    3    3  502    0  0.10349774380E+04  0.70640667345E+03 -0.76975057462E+03  0.14706136960E+04  0.10100000352E+00 0.  1.
       -3    1    3    3    0  502 -0.10349774380E+04 -0.70640667345E+03 -0.13025956662E+04  0.18074689943E+04  0.10100000352E+00 0. -1.
</event>
<event>
 5   0  0.1869956E-05  0.2597001E+04  0.7818609E-02  0.8369220E-01
        2   -1    0    0  501    0  0.00000000000E+00  0.00000000000E+00  0.17525331379E+04  0.17525331379E+04  0.25500000920E-02 0. -1.
       -2   -1    0    0    0  501  0.00000000000E+00  0.00000000000E+00 -0.96209543182E+03  0.96209543182E+03  0.25500000920E-02 0.  1.
    10030    2    1    2    0    0  0.00000000000E+00  0.00000000000E+00  0.79043770607E+03  0.27146285697E+04  0.25970014448E+04 0.  0.
        5    1    3    3  502    0 -0.10181801460E+04  0.23756237556E+02 -0.44676281682E+03  0.11121484942E+04  0.46999998093E+01 0.  1.
       -5    1    3    3    0  502  0.10181801460E+04 -0.23756237556E+02  0.12372005229E+04  0.16024800755E+04  0.46999998093E+01 0. -1.
</event>
<event>
 5   0  0.7138294E-06  0.2223949E+04  0.7818609E-02  0.8508526E-01
       -1   -1    0    0    0  501  0.00000000000E+00  0.00000000000E+00  0.64604421188E+03  0.64604421190E+03  0.50400001928E-02 0. -1.
        1   -1    0    0  501    0  0.00000000000E+00  0.00000000000E+00 -0.19139364672E+04  0.19139364672E+04  0.50400001928E-02 0.  1.
    10030    2    1    2    0    0  0.00000000000E+00  0.00000000000E+00 -0.12678922553E+04  0.25599806791E+04  0.22239492589E+04 0.  0.
        2    1    3    3  502    0 -0.16188009313E+03  0.33936621131E+03 -0.18385417426E+04  0.18765954090E+04  0.25500000920E-02 0.  1.
       -2    1    3    3    0  502  0.16188009313E+03 -0.33936621131E+03  0.57064948731E+03  0.68338527004E+03  0.25500000920E-02 0. -1.
</event>
<event>
 5   0  0.1720129E-05  0.2599003E+04  0.7818609E-02  0.8368540E-01
       -2   -1    0    0    0  501  0.00000000000E+00  0.00000000000E+00  0.13354389921E+04  0.13354389921E+04  0.25500000920E-02 0. -1.
        2   -1    0    0  501    0  0.00000000000E+00  0.00000000000E+00 -0.12645308044E+04  0.12645308044E+04  0.25500000920E-02 0.  1.
    10030    2    1    2    0    0  0.00000000000E+00  0.00000000000E+00  0.70908187775E+02  0.25999697965E+04  0.25990026879E+04 0.  0.
        3    1    3    3  502    0  0.19947987178E+03  0.37647896807E+03  0.12635815186E+04  0.13334792451E+04  0.10100000352E+00 0. -1.
       -3    1    3    3    0  502 -0.19947987178E+03 -0.37647896807E+03 -0.11926733308E+04  0.12664905514E+04  0.10100000352E+00 0.  1.
</event>
<event>
 5   0  0.1702345E-05  0.2605100E+04  0.7818609E-02  0.8366471E-01
        2   -1    0    0  501    0  0.00000000000E+00  0.00000000000E+00  0.14195125747E+04  0.14195125747E+04  0.25500000920E-02 0.  1.
       -2   -1    0    0    0  501  0.00000000000E+00  0.00000000000E+00 -0.11952250653E+04  0.11952250653E+04  0.25500000920E-02 0. -1.
    10030    2    1    2    0    0  0.00000000000E+00  0.00000000000E+00  0.22428750934E+03  0.26147376400E+04  0.26051003894E+04 0.  0.
        1    1    3    3  502    0 -0.94243002757E+03 -0.86522857497E+03  0.35767530548E+03  0.13284300764E+04  0.50400001928E-02 0.  1.
       -1    1    3    3    0  502  0.94243002757E+03  0.86522857497E+03 -0.13338779614E+03  0.12863075635E+04  0.50400001928E-02 0. -1.
</event>
<event>
 5   0  0.6706225E-06  0.2644342E+04  0.7818609E-02  0.8353293E-01
        1   -1    0    0  501    0  0.00000000000E+00  0.00000000000E+00  0.11039043734E+04  0.11039043734E+04  0.50400001928E-02 0.  1.
       -1   -1    0    0    0  501  0.00000000000E+00  0.00000000000E+00 -0.15835935362E+04  0.15835935362E+04  0.50400001928E-02 0. -1.
    10030    2    1    2    0    0  0.00000000000E+00  0.00000000000E+00 -0.47968916282E+03  0.26874979096E+04  0.26443417557E+04 0.  0.
        5    1    3    3  502    0  0.25899956925E+03 -0.32786403910E+03  0.10350350679E+04  0.11161967958E+04  0.46999998093E+01 0.  1.
       -5    1    3    3    0  502 -0.25899956925E+03  0.32786403910E+03 -0.15147242308E+04  0.15713011138E+04  0.46999998093E+01 0. -1.
</event>
<event>
 5   0  0.1720129E-05  0.2520705E+04  0.7818609E-02  0.8395646E-01
        2   -1    0    0  501    0  0.00000000000E+00  0.00000000000E+00  0.15443272943E+04  0.15443272943E+04  0.25500000920E-02 0. -1.
       -2   -1    0    0    0  501  0.00000000000E+00  0.00000000000E+00 -0.10285956650E+04  0.10285956650E+04  0.25500000920E-02 0.  1.
    10030    2    1    2    0    0  0.00000000000E+00  0.00000000000E+00  0.51573162933E+03  0.25729229594E+04  0.25207049493E+04 0.  0.
        3    1    3    3  502    0  0.10801998475E+04 -0.31318057598E+03  0.83848576887E+03  0.14028443173E+04  0.10100000352E+00 0. -1.
       -3    1    3    3    0  502 -0.10801998475E+04  0.31318057598E+03 -0.32275413954E+03  0.11700786421E+04  0.10100000352E+00 0.  1.
</event>
<event>
 5   0  0.6918420E-06  0.2598943E+04  0.7818609E-02  0.8368560E-01
       -1   -1    0    0    0  501  0.00000000000E+00  0.00000000000E+00  0.68114109794E+03  0.68114109796E+03  0.50400001928E-02 0.  1.
        1   -1    0    0  501    0  0.00000000000E+00  0.00000000000E+00 -0.24791132703E+04  0.24791132703E+04  0.50400001928E-02 0. -1.
    10030    2    1    2    0    0  0.00000000000E+00  0.00000000000E+00 -0.17979721724E+04  0.31602543683E+04  0.25989428119E+04 0.  0.
        4    1    3    3  502    0 -0.56936383639E+03  0.11060416797E+04 -0.44219138480E+03  0.13202417237E+04  0.12699999809E+01 0.  1.
       -4    1    3    3    0  502  0.56936383639E+03 -0.11060416797E+04 -0.13557807876E+04  0.18400126446E+04  0.12699999809E+01 0. -1.
</event>
<event>
 5   0  0.6993678E-06  0.2595455E+04  0.7818609E-02  0.8369747E-01
       -1   -1    0    0    0  501  0.00000000000E+00  0.00000000000E+00  0.13199021459E+04  0.13199021459E+04  0.50400001928E-02 0.  1.
        1   -1    0    0  501    0  0.00000000000E+00  0.00000000000E+00 -0.12759249598E+04  0.12759249598E+04  0.50400001928E-02 0. -1.
    10030    2    1    2    0    0  0.00000000000E+00  0.00000000000E+00  0.43977186098E+02  0.25958271057E+04  0.25954545593E+04 0.  0.
        1    1    3    3  502    0 -0.10168362048E+04  0.33230166339E+03  0.75674758759E+03  0.13103614670E+04  0.50400001928E-02 0.  1.
       -1    1    3    3    0  502  0.10168362048E+04 -0.33230166339E+03 -0.71277040149E+03  0.12854656386E+04  0.50400001928E-02 0. -1.
</event>
<event>
 5   0  0.6984287E-06  0.2641123E+04  0.7818609E-02  0.8354365E-01
        1   -1    0    0  501    0  0.00000000000E+00  0.00000000000E+00  0.17636770590E+04  0.17636770590E+04  0.50400001928E-02 0.  1.
       -1   -1    0    0    0  501  0.00000000000E+00  0.00000000000E+00 -0.98877685633E+03  0.98877685634E+03  0.50400001928E-02 0. -1.
    10030    2    1    2    0    0  0.00000000000E+00  0.00000000000E+00  0.77490020267E+03  0.27524539154E+04  0.26411232898E+04 0.  0.
        3    1    3    3  502    0 -0.51786975184E+03  0.68099163441E+03 -0.66090810439E+03  0.10810819667E+04  0.10100000352E+00 0. -1.
       -3    1    3    3    0  502  0.51786975184E+03 -0.68099163441E+03  0.14358083071E+04  0.16713719487E+04  0.10100000352E+00 0.  1.
</event>
<event>
 5   0  0.1677971E-05  0.2606440E+04  0.7818609E-02  0.8366017E-01
       -2   -1    0    0    0  501  0.00000000000E+00  0.00000000000E+00  0.15187123779E+04  0.15187123779E+04  0.25500000920E-02 0.  1.
        2   -1    0    0  501    0  0.00000000000E+00  0.00000000000E+00 -0.11183038804E+04  0.11183038804E+04  0.25500000920E-02 0. -1.
    10030    2    1    2    0    0  0.00000000000E+00  0.00000000000E+00  0.40040849746E+03  0.26370162583E+04  0.26064396754E+04 0.  0.
        4    1    3    3  502    0 -0.46889739352E+03  0.47337101536E+02  0.14294783382E+04  0.15051629476E+04  0.12699999809E+01 0.  1.
       -4    1    3    3    0  502  0.46889739352E+03 -0.47337101536E+02 -0.10290698407E+04  0.11318533106E+04  0.12699999809E+01 0. -1.
</event>
<event>
 5   0  0.1677971E-05  0.2605433E+04  0.7818609E-02  0.8366358E-01
       -2   -1    0    0    0  501  0.00000000000E+00  0.00000000000E+00  0.83056021061E+03  0.83056021061E+03  0.25500000920E-02 0. -1.
        2   -1    0    0  501    0  0.00000000000E+00  0.00000000000E+00 -0.20432834711E+04  0.20432834711E+04  0.25500000920E-02 0.  1.
    10030    2    1    2    0    0  0.00000000000E+00  0.00000000000E+00 -0.12127232604E+04  0.28738436817E+04  0.26054327472E+04 0.  0.
        4    1    3    3  502    0 -0.62138693318E+02 -0.54926873943E+03 -0.19075093104E+04  0.19859886071E+04  0.12699999809E+01 0.  1.
       -4    1    3    3    0  502  0.62138693318E+02  0.54926873943E+03  0.69478604996E+03  0.88785507457E+03  0.12699999809E+01 0. -1.
</event>
<event>
 5   0  0.7138294E-06  0.2626557E+04  0.7818609E-02  0.8359236E-01
        1   -1    0    0  501    0  0.00000000000E+00  0.00000000000E+00  0.16705190438E+04  0.16705190438E+04  0.50400001928E-02 0. -1.
       -1   -1    0    0    0  501  0.00000000000E+00  0.00000000000E+00 -0.10324336358E+04  0.10324336358E+04  0.50400001928E-02 0.  1.
    10030    2    1    2    0    0  0.00000000000E+00  0.00000000000E+00  0.63808540795E+03  0.27029526796E+04  0.26265567195E+04 0.  0.
        2    1    3    3  502    0  0.12719984434E+04 -0.32464905208E+03  0.35647375949E+03  0.13603126804E+04  0.25500000920E-02 0. -1.
       -2    1    3    3    0  502 -0.12719984434E+04  0.32464905208E+03  0.28161164846E+03  0.13426399993E+04  0.25500000920E-02 0.  1.
</event>
<event>
 5   0  0.6706225E-06  0.2610739E+04  0.7818609E-02  0.8364563E-01
        1   -1    0    0  501    0  0.00000000000E+00  0.00000000000E+00  0.23542928232E+04  0.23542928232E+04  0.50400001928E-02 0.  1.
       -1   -1    0    0    0  501  0.00000000000E+00  0.00000000000E+00 -0.72377976896E+03  0.72377976898E+03  0.50400001928E-02 0. -1.
    10030    2    1    2    0    0  0.00000000000E+00  0.00000000000E+00  0.16305130542E+04  0.30780725921E+04  0.26107389878E+04 0.  0.
        5    1    3    3  502    0  0.13850787078E+03  0.51127010886E+03 -0.59136327929E+03  0.79392327877E+03  0.46999998093E+01 0. -1.
       -5    1    3    3    0  502 -0.13850787078E+03 -0.51127010886E+03  0.22218763335E+04  0.22841493134E+04  0.46999998093E+01 0.  1.
</event>
<event>
 5   0  0.6706225E-06  0.2616468E+04  0.7818609E-02  0.8362629E-01
        1   -1    0    0  501    0  0.00000000000E+00  0.00000000000E+00  0.26122097936E+04  0.26122097936E+04  0.50400001928E-02 0.  1.
       -1   -1    0    0    0  501  0.00000000000E+00  0.00000000000E+00 -0.65518338202E+03  0.65518338204E+03  0.50400001928E-02 0. -1.
    10030    2    1    2    0    0  0.00000000000E+00  0.00000000000E+00  0.19570264115E+04  0.32673931756E+04  0.26164681899E+04 0.  0.
        5    1    3    3  502    0 -0.11809696742E+04  0.27743915244E+03  0.15900234523E+04  0.19999646306E+04  0.46999998093E+01 0.  1.
       -5    1    3    3    0  502  0.11809696742E+04 -0.27743915244E+03  0.36700295919E+03  0.12674285450E+04  0.46999998093E+01 0. -1.
</event>
<event>
 5   0  0.1681731E-05  0.2601940E+04  0.7818609E-02  0.8367543E-01
       -2   -1    0    0    0  501  0.00000000000E+00  0.00000000000E+00  0.70574353397E+03  0.70574353398E+03  0.25500000920E-02 0.  1.
        2   -1    0    0  501    0  0.00000000000E+00  0.00000000000E+00 -0.23982124302E+04  0.23982124302E+04  0.25500000920E-02 0. -1.
    10030    2    1    2    0    0  0.00000000000E+00  0.00000000000E+00 -0.16924688962E+04  0.31039559642E+04  0.26019399806E+04 0.  0.
        2    1    3    3  502    0 -0.19927959803E+03  0.92049266226E+03  0.22442678545E+03  0.96818721408E+03  0.25500000920E-02 0.  1.
       -2    1    3    3    0  502  0.19927959803E+03 -0.92049266226E+03 -0.19168956817E+04  0.21357687501E+04  0.25500000920E-02 0. -1.
</event>
<event>
 5   0  0.1720129E-05  0.2590925E+04  0.7818609E-02  0.8371290E-01
        2   -1    0    0  501    0  0.00000000000E+00  0.00000000000E+00  0.10613404855E+04  0.10613404855E+04  0.25500000920E-02 0. -1.
       -2   -1    0    0    0  501  0.00000000000E+00  0.00000000000E+00 -0.15812302053E+04  0.15812302053E+04  0.25500000920E-02 0.  1.
    10030    2    1    2    0    0  0.00000000000E+00  0.00000000000E+00 -0.51988971988E+03  0.26425706908E+04  0.25909254206E+04 0.  0.
        3    1    3    3  502    0  0.80212974261E+02 -0.11602562550E+04  0.32203843006E+03  0.12067880755E+04  0.10100000352E+00 0. -1.
       -3    1    3    3    0  502 -0.80212974261E+02  0.11602562550E+04 -0.84192814994E+03  0.14357826153E+04  0.10100000352E+00 0.  1.
</event>
<event>
 5   0  0.1702345E-05  0.2597979E+04  0.7818609E-02  0.8368888E-01
       -2   -1    0    0    0  501  0.00000000000E+00  0.00000000000E+00  0.81157712719E+03  0.81157712719E+03  0.25500000920E-02 0. -1.
        2   -1    0    0  501    0  0.00000000000E+00  0.00000000000E+00 -0.20791285769E+04  0.20791285769E+04  0.25500000920E-02 0.  1.
    10030    2    1    2    0    0  0.00000000000E+00  0.00000000000E+00 -0.12675514497E+04  0.28907057041E+04  0.25979785969E+04 0.  0.
        1    1    3    3  502    0  0.36745699330E+03  0.10872944555E+04  0.43165438485E+02  0.11485195384E+04  0.50400001928E-02 0. -1.
       -1    1    3    3    0  502 -0.36745699330E+03 -0.10872944555E+04 -0.13107168882E+04  0.17421861657E+04  0.50400001928E-02 0.  1.
</event>
<event>
 5   0  0.1681731E-05  0.2575979E+04  0.7818609E-02  0.8376407E-01
       -2   -1    0    0    0  501  0.00000000000E+00  0.00000000000E+00  0.13246268040E+04  0.13246268040E+04  0.25500000920E-02 0. -1.
        2   -1    0    0  501    0  0.00000000000E+00  0.00000000000E+00 -0.12523651257E+04  0.12523651257E+04  0.25500000920E-02 0.  1.
    10030    2    1    2    0    0  0.00000000000E+00  0.00000000000E+00  0.72261678221E+02  0.25769919297E+04  0.25759785821E+04 0.  0.
        2    1    3    3  502    0  0.24497593036E+03  0.21023626708E+03 -0.12112373302E+04  0.12535183942E+04  0.25500000920E-02 0.  1.
       -2    1    3    3    0  502 -0.24497593036E+03 -0.21023626708E+03  0.12834990085E+04  0.13234735355E+04  0.25500000920E-02 0. -1.
</event>
<event>
 5   0  0.1720129E-05  0.2630525E+04  0.7818609E-02  0.8357906E-01
       -2   -1    0    0    0  501  0.00000000000E+00  0.00000000000E+00  0.90228748134E+03  0.90228748134E+03  0.25500000920E-02 0. -1.
        2   -1    0    0  501    0  0.00000000000E+00  0.00000000000E+00 -0.19172547603E+04  0.19172547603E+04  0.25500000920E-02 0.  1.
    10030    2    1    2    0    0  0.00000000000E+00  0.00000000000E+00 -0.10149672789E+04  0.28195422416E+04  0.26305246387E+04 0.  0.
        3    1    3    3  502    0 -0.11708183655E+04  0.43870066213E+03 -0.94503316631E+03  0.15672784091E+04  0.10100000352E+00 0.  1.
       -3    1    3    3    0  502  0.11708183655E+04 -0.43870066213E+03 -0.69934112618E+02  0.12522638325E+04  0.10100000352E+00 0. -1.
</event>
<event>
 5   0  0.6984287E-06  0.2518147E+04  0.7818609E-02  0.8396549E-01
       -1   -1    0    0    0  501  0.00000000000E+00  0.00000000000E+00  0.94271596987E+03  0.94271596989E+03  0.50400001928E-02 0.  1.
        1   -1    0    0  501    0  0.00000000000E+00  0.00000000000E+00 -0.16815945956E+04  0.16815945956E+04  0.50400001928E-02 0. -1.
    10030    2    1    2    0    0  0.00000000000E+00  0.00000000000E+00 -0.73887862576E+03  0.26243105655E+04  0.25181470014E+04 0.  0.
        3    1    3    3  502    0 -0.10934959119E+04 -0.58083145594E+03 -0.60747084786E+03  0.13791734230E+04  0.10100000352E+00 0.  1.
       -3    1    3    3    0  502  0.10934959119E+04  0.58083145594E+03 -0.13140777790E+03  0.12451371425E+04  0.10100000352E+00 0. -1.
</event>
<event>
 5   0  0.1869956E-05  0.2467188E+04  0.7818609E-02  0.8414769E-01
       -2   -1    0    0    0  501  0.00000000000E+00  0.00000000000E+00  0.62970878936E+03  0.62970878936E+03  0.25500000920E-02 0.  1.
        2   -1    0    0  501    0  0.00000000000E+00  0.00000000000E+00 -0.24165989940E+04  0.24165989940E+04  0.25500000920E-02 0. -1.
    10030    2    1    2    0    0  0.00000000000E+00  0.00000000000E+00 -0.17868902046E+04  0.30463077833E+04  0.24671875704E+04 0.  0.
        5    1    3    3  502    0  0.54217906677E+03 -0.56421854739E+03 -0.20709329873E+04  0.22138397046E+04  0.46999998093E+01 0. -1.
       -5    1    3    3    0  502 -0.54217906677E+03  0.56421854739E+03  0.28404278273E+03  0.83246807872E+03  0.46999998093E+01 0.  1.
</event>
<event>
 5   0  0.6706225E-06  0.2266649E+04  0.7818609E-02  0.8491188E-01
        1   -1    0    0  501    0  0.00000000000E+00  0.00000000000E+00  0.99714303302E+03  0.99714303304E+03  0.50400001928E-02 0.  1.
       -1   -1    0    0    0  501  0.00000000000E+00  0.00000000000E+00 -0.12881046161E+04  0.12881046161E+04  0.50400001928E-02 0. -1.
    10030    2    1    2    0    0  0.00000000000E+00  0.00000000000E+00 -0.29096158308E+03  0.22852476492E+04  0.22666491072E+04 0.  0.
        5    1    3    3  502    0 -0.32083005149E+03  0.33049436267E+03  0.89850789244E+03  0.10097014254E+04  0.46999998093E+01 0.  1.
       -5    1    3    3    0  502  0.32083005149E+03 -0.33049436267E+03 -0.11894694755E+04  0.12755462237E+04  0.46999998093E+01 0. -1.
</event>
<event>
 5   0  0.6984287E-06  0.2601814E+04  0.7818609E-02  0.8367585E-01
        1   -1    0    0  501    0  0.00000000000E+00  0.00000000000E+00  0.13140200253E+04  0.13140200253E+04  0.50400001928E-02 0. -1.
       -1   -1    0    0    0  501  0.00000000000E+00  0.00000000000E+00 -0.12879244269E+04  0.12879244269E+04  0.50400001928E-02 0.  1.
    10030    2    1    2    0    0  0.00000000000E+00  0.00000000000E+00  0.26095598329E+02  0.26019444522E+04  0.26018135891E+04 0.  0.
        3    1    3    3  502    0 -0.29457867574E+03  0.72230631372E+03  0.10541839587E+04  0.13114140597E+04  0.10100000352E+00 0. -1.
       -3    1    3    3    0  502  0.29457867574E+03 -0.72230631372E+03 -0.10280883604E+04  0.12905303925E+04  0.10100000352E+00 0.  1.
</event>
<event>
 5   0  0.1720129E-05  0.2645743E+04  0.7818609E-02  0.8352827E-01
        2   -1    0    0  501    0  0.00000000000E+00  0.00000000000E+00  0.13198470552E+04  0.13198470552E+04  0.25500000920E-02 0.  1.
       -2   -1    0    0    0  501  0.00000000000E+00  0.00000000000E+00 -0.13259031616E+04  0.13259031616E+04  0.25500000920E-02 0. -1.
    10030    2    1    2    0    0  0.00000000000E+00  0.00000000000E+00 -0.60561063630E+01  0.26457502169E+04  0.26457432856E+04 0.  0.
        3    1    3    3  502    0  0.48588196401E+03  0.66340152810E+03  0.10332210139E+04  0.13205031405E+04  0.10100000352E+00 0.  1.
       -3    1    3    3    0  502 -0.48588196401E+03 -0.66340152810E+03 -0.10392771202E+04  0.13252470763E+04  0.10100000352E+00 0. -1.
</event>
<event>
 5   0  0.6993678E-06  0.2611037E+04  0.7818609E-02  0.8364462E-01
       -1   -1    0    0    0  501  0.00000000000E+00  0.00000000000E+00  0.16535733292E+04  0.16535733292E+04  0.50400001928E-02 0.  1.
        1   -1    0    0  501    0  0.00000000000E+00  0.00000000000E+00 -0.10307244840E+04  0.10307244840E+04  0.50400001928E-02 0. -1.
    10030    2    1    2    0    0  0.00000000000E+00  0.00000000000E+00  0.62284884520E+03  0.26842978132E+04  0.26110369714E+04 0.  0.
        1    1    3    3  502    0  0.52236179065E+03  0.24221671365E+03 -0.89313675726E+03  0.10626495395E+04  0.50400001928E-02 0. -1.
       -1    1    3    3    0  502 -0.52236179065E+03 -0.24221671365E+03  0.15159856025E+04  0.16216482737E+04  0.50400001928E-02 0.  1.
</event>
<event>
 5   0  0.6984287E-06  0.2593472E+04  0.7818609E-02  0.8370422E-01
       -1   -1    0    0    0  501  0.00000000000E+00  0.00000000000E+00  0.96390732690E+03  0.96390732691E+03  0.50400001928E-02 0. -1.
        1   -1    0    0  501    0  0.00000000000E+00  0.00000000000E+00 -0.17444874523E+04  0.17444874523E+04  0.50400001928E-02 0.  1.
    10030    2    1    2    0    0  0.00000000000E+00  0.00000000000E+00 -0.78058012538E+03  0.27083947792E+04  0.25934719871E+04 0.  0.
        3    1    3    3  502    0 -0.43059307864E+03 -0.44470229192E+03  0.79965501361E+03  0.10112461020E+04  0.10100000352E+00 0. -1.
       -3    1    3    3    0  502  0.43059307864E+03  0.44470229192E+03 -0.15802351390E+04  0.16971486772E+04  0.10100000352E+00 0.  1.
</event>
<event>
 5   0  0.6918420E-06  0.2631065E+04  0.7818609E-02  0.8357725E-01
        1   -1    0    0  501    0  0.00000000000E+00  0.00000000000E+00  0.11794671136E+04  0.11794671136E+04  0.50400001928E-02 0.  1.
       -1   -1    0    0    0  501  0.00000000000E+00  0.00000000000E+00 -0.14672942414E+04  0.14672942415E+04  0.50400001928E-02 0. -1.
    10030    2    1    2    0    0  0.00000000000E+00  0.00000000000E+00 -0.28782712786E+03  0.26467613550E+04  0.26310646543E+04 0.  0.
        4    1    3    3  502    0  0.36580617511E+03 -0.18322655472E+03 -0.14016677044E+04  0.14601575581E+04  0.12699999809E+01 0. -1.
       -4    1    3    3    0  502 -0.36580617511E+03  0.18322655472E+03  0.11138405765E+04  0.11866037969E+04  0.12699999809E+01 0.  1.
</event>
<event>
 5   0  0.6706225E-06  0.2571249E+04  0.7818609E-02  0.8378033E-01
        1   -1    0    0  501    0  0.00000000000E+00  0.00000000000E+00  0.12407319441E+04  0.12407319441E+04  0.50400001928E-02 0.  1.
       -1   -1    0    0    0  501  0.00000000000E+00  0.00000000000E+00 -0.13321413643E+04  0.13321413643E+04  0.50400001928E-02 0. -1.
    10030    2    1    2    0    0  0.00000000000E+00  0.00000000000E+00 -0.91409420234E+02  0.25728733084E+04  0.25712489920E+04 0.  0.
        5    1    3    3  502    0  0.77814754004E+03 -0.48432863152E+03  0.85637488149E+03  0.12543874382E+04  0.46999998093E+01 0.  1.
       -5    1    3    3    0  502 -0.77814754004E+03  0.48432863152E+03 -0.94778430173E+03  0.13184858702E+04  0.46999998093E+01 0. -1.
</event>
<event>
 5   0  0.1677971E-05  0.2600493E+04  0.7818609E-02  0.8368034E-01
       -2   -1    0    0    0  501  0.00000000000E+00  0.00000000000E+00  0.10042308952E+04  0.10042308952E+04  0.25500000920E-02 0. -1.
        2   -1    0    0  501    0  0.00000000000E+00  0.00000000000E+00 -0.16835182794E+04  0.16835182794E+04  0.25500000920E-02 0.  1.
    10030    2    1    2    0    0  0.00000000000E+00  0.00000000000E+00 -0.67928738426E+03  0.26877491746E+04  0.26004930831E+04 0.  0.
        4    1    3    3  502    0 -0.23056466185E+03 -0.47378219900E+03  0.88894248381E+03  0.10333682731E+04  0.12699999809E+01 0. -1.
       -4    1    3    3    0  502  0.23056466185E+03  0.47378219900E+03 -0.15682298681E+04  0.16543809015E+04  0.12699999809E+01 0.  1.
</event>
<event>
 5   0  0.1702345E-05  0.2624499E+04  0.7818609E-02  0.8359927E-01
       -2   -1    0    0    0  501  0.00000000000E+00  0.00000000000E+00  0.13399407894E+04  0.13399407894E+04  0.25500000920E-02 0. -1.
        2   -1    0    0  501    0  0.00000000000E+00  0.00000000000E+00 -0.12851303842E+04  0.12851303842E+04  0.25500000920E-02 0.  1.
    10030    2    1    2    0    0  0.00000000000E+00  0.00000000000E+00  0.54810405232E+02  0.26250711736E+04  0.26244989019E+04 0.  0.
        1    1    3    3  502    0 -0.12564496746E+04  0.37602878702E+03  0.71405565220E+02  0.13134542963E+04  0.50400001928E-02 0. -1.
       -1    1    3    3    0  502  0.12564496746E+04 -0.37602878702E+03 -0.16595159987E+02  0.13116168774E+04  0.50400001928E-02 0.  1.
</event>
<event>
 5   0  0.6918420E-06  0.2600934E+04  0.7818609E-02  0.8367884E-01
       -1   -1    0    0    0  501  0.00000000000E+00  0.00000000000E+00  0.78733468345E+03  0.78733468346E+03  0.50400001928E-02 0. -1.
        1   -1    0    0  501    0  0.00000000000E+00  0.00000000000E+00 -0.21480253899E+04  0.21480253899E+04  0.50400001928E-02 0.  1.
    10030    2    1    2    0    0  0.00000000000E+00  0.00000000000E+00 -0.13606907064E+04  0.29353600733E+04  0.26009343632E+04 0.  0.
        4    1    3    3  502    0 -0.36010198421E+03  0.41282487781E+03 -0.20114542265E+04  0.20847176157E+04  0.12699999809E+01 0.  1.
       -4    1    3    3    0  502  0.36010198421E+03 -0.41282487781E+03  0.65076352011E+03  0.85064245766E+03  0.12699999809E+01 0. -1.
</event>
<event>
 5   0  0.1681731E-05  0.2599954E+04  0.7818609E-02  0.8368217E-01
        2   -1    0    0  501    0  0.00000000000E+00  0.00000000000E+00  0.10381323786E+04  0.10381323786E+04  0.25500000920E-02 0. -1.
       -2   -1    0    0    0  501  0.00000000000E+00  0.00000000000E+00 -0.16278658108E+04  0.16278658109E+04  0.25500000920E-02 0.  1.
    10030    2    1    2    0    0  0.00000000000E+00  0.00000000000E+00 -0.58973343228E+03  0.26659981894E+04  0.25999540044E+04 0.  0.
        2    1    3    3  502    0  0.33547747415E+03  0.12532610040E+04 -0.21073420255E+03  0.13143885209E+04  0.25500000920E-02 0. -1.
       -2    1    3    3    0  502 -0.33547747415E+03 -0.12532610040E+04 -0.37899922973E+03  0.13516096685E+04  0.25500000920E-02 0.  1.
</event>
<event>
 5   0  0.6706225E-06  0.2593405E+04  0.7818609E-02  0.8370445E-01
       -1   -1    0    0    0  501  0.00000000000E+00  0.00000000000E+00  0.98905672516E+03  0.98905672517E+03  0.50400001928E-02 0. -1.
        1   -1    0    0  501    0  0.00000000000E+00  0.00000000000E+00 -0.17000413585E+04  0.17000413586E+04  0.50400001928E-02 0.  1.
    10030    2    1    2    0    0  0.00000000000E+00  0.00000000000E+00 -0.71098463338E+03  0.26890980837E+04  0.25934049732E+04 0.  0.
        5    1    3    3  502    0  0.83594642132E+03  0.17421758524E+03 -0.13673359539E+04  0.16120756456E+04  0.46999998093E+01 0.  1.
       -5    1    3    3    0  502 -0.83594642132E+03 -0.17421758524E+03  0.65635132050E+03  0.10770224381E+04  0.46999998093E+01 0. -1.
</event>
<event>
 5   0  0.1681731E-05  0.2604145E+04  0.7818609E-02  0.8366795E-01
        2   -1    0    0  501    0  0.00000000000E+00  0.00000000000E+00  0.10835174286E+04  0.10835174286E+04  0.25500000920E-02 0.  1.
       -2   -1    0    0    0  501  0.00000000000E+00  0.00000000000E+00 -0.15647115728E+04  0.15647115728E+04  0.25500000920E-02 0. -1.
    10030    2    1    2    0    0  0.00000000000E+00  0.00000000000E+00 -0.48119414419E+03  0.26482290015E+04  0.26041445889E+04 0.  0.
        2    1    3    3  502    0 -0.89695824029E+03  0.65759724657E+03  0.44793493552E+03  0.11990053920E+04  0.25500000920E-02 0.  1.
       -2    1    3    3    0  502  0.89695824029E+03 -0.65759724657E+03 -0.92912907971E+03  0.14492236095E+04  0.25500000920E-02 0. -1.
</event>
<event>
 5   0  0.6918420E-06  0.2592039E+04  0.7818609E-02  0.8370910E-01
        1   -1    0    0  501    0  0.00000000000E+00  0.00000000000E+00  0.28777315802E+04  0.28777315802E+04  0.50400001928E-02 0. -1.
       -1   -1    0    0    0  501  0.00000000000E+00  0.00000000000E+00 -0.58367726257E+03  0.58367726259E+03  0.50400001928E-02 0.  1.
    10030    2    1    2    0    0  0.00000000000E+00  0.00000000000E+00  0.22940543176E+04  0.34614088427E+04  0.25920389589E+04 0.  0.
        4    1    3    3  502    0 -0.51946197004E+03 -0.57965317695E+03  0.25308433229E+04  0.26478308257E+04  0.12699999809E+01 0. -1.
       -4    1    3    3    0  502  0.51946197004E+03  0.57965317695E+03 -0.23678900528E+03  0.81357801703E+03  0.12699999809E+01 0.  1.
</event>
<event>
 5   0  0.6918420E-06  0.2509115E+04  0.7818609E-02  0.8399745E-01
       -1   -1    0    0    0  501  0.00000000000E+00  0.00000000000E+00  0.12750129811E+04  0.12750129811E+04  0.50400001928E-02 0.  1.
        1   -1    0    0  501    0  0.00000000000E+00  0.00000000000E+00 -0.12344302370E+04  0.12344302370E+04  0.50400001928E-02 0. -1.
    10030    2    1    2    0    0  0.00000000000E+00  0.00000000000E+00  0.40582744059E+02  0.25094432182E+04  0.25091150444E+04 0.  0.
        4    1    3    3  502    0  0.51204082306E+03 -0.11403679030E+04 -0.85968488644E+02  0.12530031734E+04  0.12699999809E+01 0. -1.
       -4    1    3    3    0  502 -0.51204082306E+03  0.11403679030E+04  0.12655123270E+03  0.12564400447E+04  0.12699999809E+01 0.  1.
</event>
<event>
 5   0  0.6918420E-06  0.2606157E+04  0.7818609E-02  0.8366113E-01
        1   -1    0    0  501    0  0.00000000000E+00  0.00000000000E+00  0.24458520215E+04  0.24458520215E+04  0.50400001928E-02 0.  1.
       -1   -1    0    0    0  501  0.00000000000E+00  0.00000000000E+00 -0.69424207060E+03  0.69424207062E+03  0.50400001928E-02 0. -1.
    10030    2    1    2    0    0  0.00000000000E+00  0.00000000000E+00  0.17516099509E+04  0.31400940921E+04  0.26061568424E+04 0.  0.
        4    1    3    3  502    0 -0.11491261098E+04 -0.20350527566E+03  0.17728215604E+03  0.11803964542E+04  0.12699999809E+01 0. -1.
       -4    1    3    3    0  502  0.11491261098E+04  0.20350527566E+03  0.15743277948E+04  0.19596976379E+04  0.12699999809E+01 0.  1.
</event>
<event>
 5   0  0.1681731E-05  0.2763650E+04  0.7818609E-02  0.8314643E-01
        2   -1    0    0  501    0  0.00000000000E+00  0.00000000000E+00  0.11642838102E+04  0.11642838102E+04  0.25500000920E-02 0. -1.
       -2   -1    0    0    0  501  0.00000000000E+00  0.00000000000E+00 -0.16400125056E+04  0.16400125056E+04  0.25500000920E-02 0.  1.
    10030    2    1    2    0    0  0.00000000000E+00  0.00000000000E+00 -0.47572869539E+03  0.28042963157E+04  0.27636497670E+04 0.  0.
        2    1    3    3  502    0 -0.11720812233E+03 -0.99882468540E+03 -0.11994578522E+04  0.15652755780E+04  0.25500000920E-02 0.  1.
       -2    1    3    3    0  502  0.11720812233E+03  0.99882468540E+03  0.72372915677E+03  0.12390207377E+04  0.25500000920E-02 0. -1.
</event>
<event>
 5   0  0.5840500E-06  0.2596916E+04  0.7818609E-02  0.8369250E-01
        3   -1    0    0  501    0  0.00000000000E+00  0.00000000000E+00  0.12965992752E+04  0.12965992791E+04  0.10100000352E+00 0. -1.
       -3   -1    0    0    0  501  0.00000000000E+00  0.00000000000E+00 -0.13003190922E+04  0.13003190961E+04  0.10100000352E+00 0.  1.
    10030    2    1    2    0    0  0.00000000000E+00  0.00000000000E+00 -0.37198170525E+01  0.25969183752E+04  0.25969157111E+04 0.  0.
        2    1    3    3  502    0  0.87383127812E+03 -0.79942797558E+03 -0.53414478824E+03  0.12992216307E+04  0.25500000920E-02 0.  1.
       -2    1    3    3    0  502 -0.87383127812E+03  0.79942797558E+03  0.53042497118E+03  0.12976967446E+04  0.25500000920E-02 0. -1.
</event>
<event>
 5   0  0.1869956E-05  0.2476515E+04  0.7818609E-02  0.8411400E-01
       -2   -1    0    0    0  501  0.00000000000E+00  0.00000000000E+00  0.10114024868E+04  0.10114024868E+04  0.25500000920E-02 0.  1.
        2   -1    0    0  501    0  0.00000000000E+00  0.00000000000E+00 -0.15159950494E+04  0.15159950494E+04  0.25500000920E-02 0. -1.
    10030    2    1    2    0    0  0.00000000000E+00  0.00000000000E+00 -0.50459256260E+03  0.25273975362E+04  0.24765146177E+04 0.  0.
        5    1    3    3  502    0  0.29890524683E+03  0.64325205718E+03  0.78351612248E+03  0.10568997870E+04  0.46999998093E+01 0.  1.
       -5    1    3    3    0  502 -0.29890524683E+03 -0.64325205718E+03 -0.12881086851E+04  0.14704977491E+04  0.46999998093E+01 0. -1.
</event>
<event>
 5   0  0.1869956E-05  0.2571676E+04  0.7818609E-02  0.8377886E-01
       -2   -1    0    0    0  501  0.00000000000E+00  0.00000000000E+00  0.14154791084E+04  0.14154791084E+04  0.25500000920E-02 0. -1.
        2   -1    0    0  501    0  0.00000000000E+00  0.00000000000E+00 -0.11680706087E+04  0.11680706087E+04  0.25500000920E-02 0.  1.
    10030    2    1    2    0    0  0.00000000000E+00  0.00000000000E+00  0.24740849976E+03  0.25835497171E+04  0.25716761411E+04 0.  0.
        5    1    3    3  502    0 -0.10554434871E+03 -0.10355915197E+04 -0.63461065687E+03  0.12191563398E+04  0.46999998093E+01 0.  1.
       -5    1    3    3    0  502  0.10554434871E+03  0.10355915197E+04  0.88201915663E+03  0.13643933772E+04  0.46999998093E+01 0. -1.
</event>
<event>
 5   0  0.1677971E-05  0.2583308E+04  0.7818609E-02  0.8373893E-01
        2   -1    0    0  501    0  0.00000000000E+00  0.00000000000E+00  0.17718769206E+04  0.17718769206E+04  0.25500000920E-02 0.  1.
       -2   -1    0    0    0  501  0.00000000000E+00  0.00000000000E+00 -0.94158363428E+03  0.94158363429E+03  0.25500000920E-02 0. -1.
    10030    2    1    2    0    0  0.00000000000E+00  0.00000000000E+00  0.83029328633E+03  0.27134605549E+04  0.25833081972E+04 0.  0.
        4    1    3    3  502    0  0.49548670658E+03 -0.10068321251E+03  0.16636106637E+04  0.17387484692E+04  0.12699999809E+01 0.  1.
       -4    1    3    3    0  502 -0.49548670658E+03  0.10068321251E+03 -0.83331737740E+03  0.97471208573E+03  0.12699999809E+01 0. -1.
</event>
<event>
 5   0  0.6918420E-06  0.2609190E+04  0.7818609E-02  0.8365086E-01
       -1   -1    0    0    0  501  0.00000000000E+00  0.00000000000E+00  0.11289165119E+04  0.11289165119E+04  0.50400001928E-02 0.  1.
        1   -1    0    0  501    0  0.00000000000E+00  0.00000000000E+00 -0.15076115350E+04  0.15076115350E+04  0.50400001928E-02 0. -1.
    10030    2    1    2    0    0  0.00000000000E+00  0.00000000000E+00 -0.37869502309E+03  0.26365280469E+04  0.26091895718E+04 0.  0.
        4    1    3    3  502    0  0.28206230977E+03  0.32203597497E+03 -0.14346151577E+04  0.14971267746E+04  0.12699999809E+01 0. -1.
       -4    1    3    3    0  502 -0.28206230977E+03 -0.32203597497E+03  0.10559201346E+04  0.11394012723E+04  0.12699999809E+01 0.  1.
</event>
<event>
 5   0  0.7138294E-06  0.2625396E+04  0.7818609E-02  0.8359625E-01
       -1   -1    0    0    0  501  0.00000000000E+00  0.00000000000E+00  0.13680202423E+04  0.13680202423E+04  0.50400001928E-02 0. -1.
        1   -1    0    0  501    0  0.00000000000E+00  0.00000000000E+00 -0.12596133277E+04  0.12596133277E+04  0.50400001928E-02 0.  1.
    10030    2    1    2    0    0  0.00000000000E+00  0.00000000000E+00  0.10840691465E+03  0.26276335700E+04  0.26253963737E+04 0.  0.
        2    1    3    3  502    0  0.50282656039E+03 -0.18824283111E+03  0.12531000881E+04  0.13632790412E+04  0.25500000920E-02 0. -1.
       -2    1    3    3    0  502 -0.50282656039E+03  0.18824283111E+03 -0.11446931734E+04  0.12643545288E+04  0.25500000920E-02 0.  1.
</event>
<event>
 5   0  0.1681731E-05  0.2297469E+04  0.7818609E-02  0.8478920E-01
        2   -1    0    0  501    0  0.00000000000E+00  0.00000000000E+00  0.12563830459E+04  0.12563830459E+04  0.25500000920E-02 0. -1.
       -2   -1    0    0    0  501  0.00000000000E+00  0.00000000000E+00 -0.10503096771E+04  0.10503096771E+04  0.25500000920E-02 0.  1.
    10030    2    1    2    0    0  0.00000000000E+00  0.00000000000E+00  0.20607336882E+03  0.23066927230E+04  0.22974692783E+04 0.  0.
        2    1    3    3  502    0 -0.18410174894E+03  0.59193219353E+03 -0.86796229290E+03  0.10666000739E+04  0.25500000920E-02 0.  1.
       -2    1    3    3    0  502  0.18410174894E+03 -0.59193219353E+03  0.10740356617E+04  0.12400926491E+04  0.25500000920E-02 0. -1.
</event>
<event>
 5   0  0.7138294E-06  0.2595302E+04  0.7818609E-02  0.8369799E-01
        1   -1    0    0  501    0  0.00000000000E+00  0.00000000000E+00  0.16101262329E+04  0.16101262329E+04  0.50400001928E-02 0.  1.
       -1   -1    0    0    0  501  0.00000000000E+00  0.00000000000E+00 -0.10458173507E+04  0.10458173507E+04  0.50400001928E-02 0. -1.
    10030    2    1    2    0    0  0.00000000000E+00  0.00000000000E+00  0.56430888221E+03  0.26559435836E+04  0.25953018716E+04 0.  0.
        2    1    3    3  502    0 -0.41582193915E+03  0.96224619121E+03 -0.50061839590E+03  0.11616558853E+04  0.25500000920E-02 0. -1.
       -2    1    3    3    0  502  0.41582193915E+03 -0.96224619121E+03  0.10649272781E+04  0.14942876983E+04  0.25500000920E-02 0.  1.
</event>
<event>
 5   0  0.1720129E-05  0.2595180E+04  0.7818609E-02  0.8369840E-01
       -2   -1    0    0    0  501  0.00000000000E+00  0.00000000000E+00  0.20717871267E+04  0.20717871267E+04  0.25500000920E-02 0. -1.
        2   -1    0    0  501    0  0.00000000000E+00  0.00000000000E+00 -0.81269951125E+03  0.81269951125E+03  0.25500000920E-02 0.  1.
    10030    2    1    2    0    0  0.00000000000E+00  0.00000000000E+00  0.12590876155E+04  0.28844866380E+04  0.25951804448E+04 0.  0.
        3    1    3    3  502    0 -0.41047185814E+03 -0.80095227708E+03 -0.40939332065E+03  0.98874394950E+03  0.10100000352E+00 0.  1.
       -3    1    3    3    0  502  0.41047185814E+03  0.80095227708E+03  0.16684809361E+04  0.18957426885E+04  0.10100000352E+00 0. -1.
</event>
<event>
 5   0  0.1869956E-05  0.2668331E+04  0.7818609E-02  0.8345354E-01
        2   -1    0    0  501    0  0.00000000000E+00  0.00000000000E+00  0.25138002195E+04  0.25138002195E+04  0.25500000920E-02 0.  1.
       -2   -1    0    0    0  501  0.00000000000E+00  0.00000000000E+00 -0.70809034458E+03  0.70809034459E+03  0.25500000920E-02 0. -1.
    10030    2    1    2    0    0  0.00000000000E+00  0.00000000000E+00  0.18057098749E+04  0.32218905641E+04  0.26683310617E+04 0.  0.
        5    1    3    3  502    0 -0.11529326195E+03  0.10499867051E+04 -0.81210753924E+02  0.10594252657E+04  0.46999998093E+01 0. -1.
       -5    1    3    3    0  502  0.11529326195E+03 -0.10499867051E+04  0.18869206288E+04  0.21624652984E+04  0.46999998093E+01 0.  1.
</event>
<event>
 5   0  0.6706225E-06  0.2577874E+04  0.7818609E-02  0.8375756E-01
       -1   -1    0    0    0  501  0.00000000000E+00  0.00000000000E+00  0.68564187070E+03  0.68564187072E+03  0.50400001928E-02 0. -1.
        1   -1    0    0  501    0  0.00000000000E+00  0.00000000000E+00 -0.24230707219E+04  0.24230707219E+04  0.50400001928E-02 0.  1.
    10030    2    1    2    0    0  0.00000000000E+00  0.00000000000E+00 -0.17374288512E+04  0.31087125926E+04  0.25778741184E+04 0.  0.
        5    1    3    3  502    0 -0.89600255270E+03  0.74804561365E+02  0.24499810455E+03  0.93191333184E+03  0.46999998093E+01 0. -1.
       -5    1    3    3    0  502  0.89600255270E+03 -0.74804561365E+02 -0.19824269557E+04  0.21767992608E+04  0.46999998093E+01 0.  1.
</event>
<event>
 5   0  0.6984287E-06  0.2602611E+04  0.7818609E-02  0.8367315E-01
       -1   -1    0    0    0  501  0.00000000000E+00  0.00000000000E+00  0.13306814307E+04  0.13306814307E+04  0.50400001928E-02 0.  1.
        1   -1    0    0  501    0  0.00000000000E+00  0.00000000000E+00 -0.12725783008E+04  0.12725783008E+04  0.50400001928E-02 0. -1.
    10030    2    1    2    0    0  0.00000000000E+00  0.00000000000E+00  0.58103129922E+02  0.26032597314E+04  0.26026112379E+04 0.  0.
        3    1    3    3  502    0 -0.21110053157E+03  0.15080958797E+03  0.13045513826E+04  0.13300982243E+04  0.10100000352E+00 0.  1.
       -3    1    3    3    0  502  0.21110053157E+03 -0.15080958797E+03 -0.12464482527E+04  0.12731615071E+04  0.10100000352E+00 0. -1.
</event>
<event>
 5   0  0.1720129E-05  0.2583507E+04  0.7818609E-02  0.8373825E-01
        2   -1    0    0  501    0  0.00000000000E+00  0.00000000000E+00  0.14285991583E+04  0.14285991583E+04  0.25500000920E-02 0. -1.
       -2   -1    0    0    0  501  0.00000000000E+00  0.00000000000E+00 -0.11680166274E+04  0.11680166274E+04  0.25500000920E-02 0.  1.
    10030    2    1    2    0    0  0.00000000000E+00  0.00000000000E+00  0.26058253095E+03  0.25966157857E+04  0.25835073608E+04 0.  0.
        3    1    3    3  502    0 -0.10709190169E+03 -0.11806432448E+03  0.14186766996E+04  0.14276033932E+04  0.10100000352E+00 0. -1.
       -3    1    3    3    0  502  0.10709190169E+03  0.11806432448E+03 -0.11580941687E+04  0.11690123925E+04  0.10100000352E+00 0.  1.
</event>
<event>
 5   0  0.1702345E-05  0.2589206E+04  0.7818609E-02  0.8371877E-01
       -2   -1    0    0    0  501  0.00000000000E+00  0.00000000000E+00  0.90921665084E+03  0.90921665084E+03  0.25500000920E-02 0. -1.
        2   -1    0    0  501    0  0.00000000000E+00  0.00000000000E+00 -0.18433414509E+04  0.18433414509E+04  0.25500000920E-02 0.  1.
    10030    2    1    2    0    0  0.00000000000E+00  0.00000000000E+00 -0.93412480005E+03  0.27525581017E+04  0.25892058553E+04 0.  0.
        1    1    3    3  502    0 -0.64151038830E+03  0.53438065630E+03  0.58475110003E+03  0.10193292467E+04  0.50400001928E-02 0. -1.
       -1    1    3    3    0  502  0.64151038830E+03 -0.53438065630E+03 -0.15188759001E+04  0.17332288551E+04  0.50400001928E-02 0.  1.
</event>
<event>
 5   0  0.1702345E-05  0.2600681E+04  0.7818609E-02  0.8367970E-01
       -2   -1    0    0    0  501  0.00000000000E+00  0.00000000000E+00  0.10004040897E+04  0.10004040897E+04  0.25500000920E-02 0. -1.
        2   -1    0    0  501    0  0.00000000000E+00  0.00000000000E+00 -0.16902028986E+04  0.16902028986E+04  0.25500000920E-02 0.  1.
    10030    2    1    2    0    0  0.00000000000E+00  0.00000000000E+00 -0.68979880890E+03  0.26906069882E+04  0.26006813662E+04 0.  0.
        1    1    3    3  502    0 -0.71230210728E+03  0.10098454684E+04 -0.76351840369E+03  0.14526260753E+04  0.50400001928E-02 0. -1.
       -1    1    3    3    0  502  0.71230210728E+03 -0.10098454684E+04  0.73719594792E+02  0.12379809129E+04  0.50400001928E-02 0.  1.
</event>
<event>
 5   0  0.1681731E-05  0.2590721E+04  0.7818609E-02  0.8371360E-01
        2   -1    0    0  501    0  0.00000000000E+00  0.00000000000E+00  0.99949597199E+03  0.99949597199E+03  0.25500000920E-02 0.  1.
       -2   -1    0    0    0  501  0.00000000000E+00  0.00000000000E+00 -0.16788049378E+04  0.16788049378E+04  0.25500000920E-02 0. -1.
    10030    2    1    2    0    0  0.00000000000E+00  0.00000000000E+00 -0.67930896584E+03  0.26783009098E+04  0.25907209600E+04 0.  0.
        2    1    3    3  502    0 -0.10482751629E+04 -0.50848418834E+03 -0.92493963571E+03  0.14875988426E+04  0.25500000920E-02 0. -1.
       -2    1    3    3    0  502  0.10482751629E+04  0.50848418834E+03  0.24563066988E+03  0.11907020672E+04  0.25500000920E-02 0.  1.
</event>
<event>
 5   0  0.6993678E-06  0.2600942E+04  0.7818609E-02  0.8367881E-01
        1   -1    0    0  501    0  0.00000000000E+00  0.00000000000E+00  0.11626309552E+04  0.11626309552E+04  0.50400001928E-02 0.  1.
       -1   -1    0    0    0  501  0.00000000000E+00  0.00000000000E+00 -0.14546536273E+04  0.14546536273E+04  0.50400001928E-02 0. -1.
    10030    2    1    2    0    0  0.00000000000E+00  0.00000000000E+00 -0.29202267213E+03  0.26172845824E+04  0.26009423955E+04 0.  0.
        1    1    3    3  502    0  0.39939835222E+03  0.11636292621E+04  0.27815013373E+03  0.12613166138E+04  0.50400001928E-02 0.  1.
       -1    1    3    3    0  502 -0.39939835222E+03 -0.11636292621E+04 -0.57017280586E+03  0.13559679686E+04  0.50400001928E-02 0. -1.
</event>
<event>
 5   0  0.1702345E-05  0.2598258E+04  0.7818609E-02  0.8368793E-01
        2   -1    0    0  501    0  0.00000000000E+00  0.00000000000E+00  0.15259446347E+04  0.15259446347E+04  0.25500000920E-02 0.  1.
       -2   -1    0    0    0  501  0.00000000000E+00  0.00000000000E+00 -0.11060269789E+04  0.11060269789E+04  0.25500000920E-02 0. -1.
    10030    2    1    2    0    0  0.00000000000E+00  0.00000000000E+00  0.41991765579E+03  0.26319716136E+04  0.25982578273E+04 0.  0.
        1    1    3    3  502    0  0.48314915479E+03  0.34195341317E+02  0.14310601888E+04  0.15108063050E+04  0.50400001928E-02 0.  1.
       -1    1    3    3    0  502 -0.48314915479E+03 -0.34195341317E+02 -0.10111425330E+04  0.11211653086E+04  0.50400001928E-02 0. -1.
</event>
<event>
 5   0  0.1677971E-05  0.2606342E+04  0.7818609E-02  0.8366050E-01
       -2   -1    0    0    0  501  0.00000000000E+00  0.00000000000E+00  0.18839223357E+04  0.18839223357E+04  0.25500000920E-02 0. -1.
        2   -1    0    0  501    0  0.00000000000E+00  0.00000000000E+00 -0.90144613248E+03  0.90144613248E+03  0.25500000920E-02 0.  1.
    10030    2    1    2    0    0  0.00000000000E+00  0.00000000000E+00  0.98247620321E+03  0.27853684682E+04  0.26063418835E+04 0.  0.
        4    1    3    3  502    0 -0.48697615766E+03 -0.16093134188E+03  0.17715292049E+04  0.18442781817E+04  0.12699999809E+01 0. -1.
       -4    1    3    3    0  502  0.48697615766E+03  0.16093134188E+03 -0.78905300166E+03  0.94109028645E+03  0.12699999809E+01 0.  1.
</event>
<event>
 5   0  0.1720129E-05  0.2585797E+04  0.7818609E-02  0.8373042E-01
       -2   -1    0    0    0  501  0.00000000000E+00  0.00000000000E+00  0.10141040132E+04  0.10141040132E+04  0.25500000920E-02 0.  1.
        2   -1    0    0  501    0  0.00000000000E+00  0.00000000000E+00 -0.16483385943E+04  0.16483385944E+04  0.25500000920E-02 0. -1.
    10030    2    1    2    0    0  0.00000000000E+00  0.00000000000E+00 -0.63423458110E+03  0.26624426076E+04  0.25857971952E+04 0.  0.
        3    1    3    3  502    0 -0.61591005021E+03 -0.16274679341E+03 -0.14755228460E+04  0.16071712379E+04  0.10100000352E+00 0. -1.
       -3    1    3    3    0  502  0.61591005021E+03  0.16274679341E+03  0.84128826492E+03  0.10552713697E+04  0.10100000352E+00 0.  1.
</event>
<event>
 5   0  0.6706225E-06  0.2583080E+04  0.7818609E-02  0.8373971E-01
       -1   -1    0    0    0  501  0.00000000000E+00  0.00000000000E+00  0.19914368977E+04  0.19914368977E+04  0.50400001928E-02 0.  1.
        1   -1    0    0  501    0  0.00000000000E+00  0.00000000000E+00 -0.83762434509E+03  0.83762434511E+03  0.50400001928E-02 0. -1.
    10030    2    1    2    0    0  0.00000000000E+00  0.00000000000E+00  0.11538125526E+04  0.28290612428E+04  0.25830803528E+04 0.  0.
        5    1    3    3  502    0  0.62926090349E+03  0.75072451671E+03  0.14987844840E+04  0.17905121067E+04  0.46999998093E+01 0.  1.
       -5    1    3    3    0  502 -0.62926090349E+03 -0.75072451671E+03 -0.34497193142E+03  0.10385491361E+04  0.46999998093E+01 0. -1.
</event>
<event>
 5   0  0.7138294E-06  0.2140055E+04  0.7818609E-02  0.8543801E-01
       -1   -1    0    0    0  501  0.00000000000E+00  0.00000000000E+00  0.86506942249E+03  0.86506942250E+03  0.50400001928E-02 0. -1.
        1   -1    0    0  501    0  0.00000000000E+00  0.00000000000E+00 -0.13235460517E+04  0.13235460517E+04  0.50400001928E-02 0.  1.
    10030    2    1    2    0    0  0.00000000000E+00  0.00000000000E+00 -0.45847662918E+03  0.21886154742E+04  0.21400553438E+04 0.  0.
        2    1    3    3  502    0 -0.97442998763E+03 -0.39555884324E+03 -0.27328380733E+02  0.10520111405E+04  0.25500000920E-02 0. -1.
       -2    1    3    3    0  502  0.97442998763E+03  0.39555884324E+03 -0.43114824845E+03  0.11366043337E+04  0.25500000920E-02 0.  1.
</event>
<event>
 5   0  0.1702345E-05  0.2617284E+04  0.7818609E-02  0.8362354E-01
       -2   -1    0    0    0  501  0.00000000000E+00  0.00000000000E+00  0.62964445412E+03  0.62964445413E+03  0.25500000920E-02 0. -1.
        2   -1    0    0  501    0  0.00000000000E+00  0.00000000000E+00 -0.27198592466E+04  0.27198592466E+04  0.25500000920E-02 0.  1.
    10030    2    1    2    0    0  0.00000000000E+00  0.00000000000E+00 -0.20902147925E+04  0.33495037007E+04  0.26172843106E+04 0.  0.
        1    1    3    3  502    0  0.27294931140E+03 -0.82201356865E+03 -0.23005390506E+04  0.24581878604E+04  0.50400001928E-02 0.  1.
       -1    1    3    3    0  502 -0.27294931140E+03  0.82201356865E+03  0.21032425812E+03  0.89131584033E+03  0.50400001928E-02 0. -1.
</event>
<event>
 5   0  0.1677971E-05  0.2580349E+04  0.7818609E-02  0.8374907E-01
       -2   -1    0    0    0  501  0.00000000000E+00  0.00000000000E+00  0.13788244748E+04  0.13788244748E+04  0.25500000920E-02 0. -1.
        2   -1    0    0  501    0  0.00000000000E+00  0.00000000000E+00 -0.12072240358E+04  0.12072240358E+04  0.25500000920E-02 0.  1.
    10030    2    1    2    0    0  0.00000000000E+00  0.00000000000E+00  0.17160043897E+03  0.25860485106E+04  0.25803488502E+04 0.  0.
        4    1    3    3  502    0 -0.10169389161E+04  0.15175035844E+03 -0.69525138475E+03  0.12411966126E+04  0.12699999809E+01 0.  1.
       -4    1    3    3    0  502  0.10169389161E+04 -0.15175035844E+03  0.86685182373E+03  0.13448518980E+04  0.12699999809E+01 0. -1.
</event>
<event>
 5   0  0.1720129E-05  0.2580934E+04  0.7818609E-02  0.8374706E-01
       -2   -1    0    0    0  501  0.00000000000E+00  0.00000000000E+00  0.12934153072E+04  0.12934153072E+04  0.25500000920E-02 0.  1.
        2   -1    0    0  501    0  0.00000000000E+00  0.00000000000E+00 -0.12875254349E+04  0.12875254349E+04  0.25500000920E-02 0. -1.
    10030    2    1    2    0    0  0.00000000000E+00  0.00000000000E+00  0.58898723412E+01  0.25809407421E+04  0.25809340215E+04 0.  0.
        3    1    3    3  502    0  0.38864556263E+03  0.11801549939E+03 -0.12219386819E+04  0.12876751080E+04  0.10100000352E+00 0. -1.
       -3    1    3    3    0  502 -0.38864556263E+03 -0.11801549939E+03  0.12278285542E+04  0.12932656340E+04  0.10100000352E+00 0.  1.
</event>
<event>
 5   0  0.6993678E-06  0.2586579E+04  0.7818609E-02  0.8372774E-01
        1   -1    0    0  501    0  0.00000000000E+00  0.00000000000E+00  0.12731727024E+04  0.12731727024E+04  0.50400001928E-02 0. -1.
       -1   -1    0    0    0  501  0.00000000000E+00  0.00000000000E+00 -0.13137239183E+04  0.13137239184E+04  0.50400001928E-02 0.  1.
    10030    2    1    2    0    0  0.00000000000E+00  0.00000000000E+00 -0.40551215984E+02  0.25868966207E+04  0.25865787684E+04 0.  0.
        1    1    3    3  502    0  0.12846722199E+04  0.48216149294E+02 -0.16132457220E+03  0.12956593407E+04  0.50400001928E-02 0.  1.
       -1    1    3    3    0  502 -0.12846722199E+04 -0.48216149294E+02  0.12077335621E+03  0.12912372800E+04  0.50400001928E-02 0. -1.
</event>
<event>
 5   0  0.1681731E-05  0.2612097E+04  0.7818609E-02  0.8364104E-01
       -2   -1    0    0    0  501  0.00000000000E+00  0.00000000000E+00  0.11105693426E+04  0.11105693426E+04  0.25500000920E-02 0. -1.
        2   -1    0    0  501    0  0.00000000000E+00  0.00000000000E+00 -0.15359347687E+04  0.15359347687E+04  0.25500000920E-02 0.  1.
    10030    2    1    2    0    0  0.00000000000E+00  0.00000000000E+00 -0.42536542609E+03  0.26465041113E+04  0.26120965268E+04 0.  0.
        2    1    3    3  502    0 -0.10286307174E+04 -0.12087499322E+03 -0.10188204825E+04  0.14528203924E+04  0.25500000920E-02 0.  1.
       -2    1    3    3    0  502  0.10286307174E+04  0.12087499322E+03  0.59345505645E+03  0.11936837189E+04  0.25500000920E-02 0. -1.
</event>
<event>
 5   0  0.6993678E-06  0.2622702E+04  0.7818609E-02  0.8360530E-01
       -1   -1    0    0    0  501  0.00000000000E+00  0.00000000000E+00  0.10865255333E+04  0.10865255333E+04  0.50400001928E-02 0. -1.
        1   -1    0    0  501    0  0.00000000000E+00  0.00000000000E+00 -0.15826982751E+04  0.15826982751E+04  0.50400001928E-02 0.  1.
    10030    2    1    2    0    0  0.00000000000E+00  0.00000000000E+00 -0.49617274176E+03  0.26692238084E+04  0.26227024897E+04 0.  0.
        1    1    3    3  502    0 -0.64693733229E+03  0.37502597039E+03 -0.13444455665E+04  0.15384103067E+04  0.50400001928E-02 0.  1.
       -1    1    3    3    0  502  0.64693733229E+03 -0.37502597039E+03  0.84827282477E+03  0.11308135017E+04  0.50400001928E-02 0. -1.
</event>
<event>
 5   0  0.7138294E-06  0.2640052E+04  0.7818609E-02  0.8354722E-01
       -1   -1    0    0    0  501  0.00000000000E+00  0.00000000000E+00  0.78910753007E+03  0.78910753008E+03  0.50400001928E-02 0. -1.
        1   -1    0    0  501    0  0.00000000000E+00  0.00000000000E+00 -0.22081506669E+04  0.22081506669E+04  0.50400001928E-02 0.  1.
    10030    2    1    2    0    0  0.00000000000E+00  0.00000000000E+00 -0.14190431368E+04  0.29972581969E+04  0.26400517561E+04 0.  0.
        2    1    3    3  502    0 -0.48544061455E+03 -0.60118828876E+03  0.50551150640E+03  0.92337523895E+03  0.25500000920E-02 0. -1.
       -2    1    3    3    0  502  0.48544061455E+03  0.60118828876E+03 -0.19245546432E+04  0.20738829580E+04  0.25500000920E-02 0.  1.
</event>
<event>
 5   0  0.1869956E-05  0.2600410E+04  0.7818609E-02  0.8368062E-01
       -2   -1    0    0    0  501  0.00000000000E+00  0.00000000000E+00  0.10180062841E+04  0.10180062841E+04  0.25500000920E-02 0.  1.
        2   -1    0    0  501    0  0.00000000000E+00  0.00000000000E+00 -0.16606307543E+04  0.16606307543E+04  0.25500000920E-02 0. -1.
    10030    2    1    2    0    0  0.00000000000E+00  0.00000000000E+00 -0.64262447011E+03  0.26786370384E+04  0.26004096166E+04 0.  0.
        5    1    3    3  502    0 -0.24494919562E+03 -0.88910999595E+03  0.62277067539E+03  0.11128261758E+04  0.46999998093E+01 0.  1.
       -5    1    3    3    0  502  0.24494919562E+03  0.88910999595E+03 -0.12653951455E+04  0.15658108627E+04  0.46999998093E+01 0. -1.
</event>
<event>
 5   0  0.6993678E-06  0.2598578E+04  0.7818609E-02  0.8368684E-01
       -1   -1    0    0    0  501  0.00000000000E+00  0.00000000000E+00  0.14262124289E+04  0.14262124289E+04  0.50400001928E-02 0.  1.
        1   -1    0    0  501    0  0.00000000000E+00  0.00000000000E+00 -0.11836608680E+04  0.11836608680E+04  0.50400001928E-02 0. -1.
    10030    2    1    2    0    0  0.00000000000E+00  0.00000000000E+00  0.24255156089E+03  0.26098732970E+04  0.25985779508E+04 0.  0.
        1    1    3    3  502    0  0.85313200960E+03  0.41261189264E+03  0.10139976974E+04  0.13879027812E+04  0.50400001928E-02 0.  1.
       -1    1    3    3    0  502 -0.85313200960E+03 -0.41261189264E+03 -0.77144613652E+03  0.12219705157E+04  0.50400001928E-02 0. -1.
</event>
<event>
 5   0  0.1677971E-05  0.2604923E+04  0.7818609E-02  0.8366531E-01
        2   -1    0    0  501    0  0.00000000000E+00  0.00000000000E+00  0.15574136542E+04  0.15574136542E+04  0.25500000920E-02 0. -1.
       -2   -1    0    0    0  501  0.00000000000E+00  0.00000000000E+00 -0.10892452837E+04  0.10892452837E+04  0.25500000920E-02 0.  1.
    10030    2    1    2    0    0  0.00000000000E+00  0.00000000000E+00  0.46816837053E+03  0.26466589380E+04  0.26049226305E+04 0.  0.
        4    1    3    3  502    0  0.11740193175E+04 -0.43816375200E+03  0.59487223266E+03  0.13871493854E+04  0.12699999809E+01 0. -1.
       -4    1    3    3    0  502 -0.11740193175E+04  0.43816375200E+03 -0.12670386213E+03  0.12595095525E+04  0.12699999809E+01 0.  1.
</event>
<event>
 5   0  0.5840500E-06  0.2595153E+04  0.7818609E-02  0.8369849E-01
        3   -1    0    0  501    0  0.00000000000E+00  0.00000000000E+00  0.22288601956E+04  0.22288601979E+04  0.10100000352E+00 0. -1.
       -3   -1    0    0    0  501  0.00000000000E+00  0.00000000000E+00 -0.75541081918E+03  0.75541082593E+03  0.10100000352E+00 0.  1.
    10030    2    1    2    0    0  0.00000000000E+00  0.00000000000E+00  0.14734493764E+04  0.29842710238E+04  0.25951532669E+04 0.  0.
        4    1    3    3  502    0  0.20389280685E+03  0.27130152024E+03  0.21769193944E+04  0.22032150267E+04  0.12699999809E+01 0. -1.
       -4    1    3    3    0  502 -0.20389280685E+03 -0.27130152024E+03 -0.70347001793E+03  0.78105599710E+03  0.12699999809E+01 0.  1.
</event>
<event>
 5   0  0.1720129E-05  0.2587126E+04  0.7818609E-02  0.8372587E-01
        2   -1    0    0  501    0  0.00000000000E+00  0.00000000000E+00  0.18871798287E+04  0.18871798287E+04  0.25500000920E-02 0. -1.
       -2   -1    0    0    0  501  0.00000000000E+00  0.00000000000E+00 -0.88666971454E+03  0.88666971455E+03  0.25500000920E-02 0.  1.
    10030    2    1    2    0    0  0.00000000000E+00  0.00000000000E+00  0.10005101141E+04  0.27738495432E+04  0.25871259729E+04 0.  0.
        3    1    3    3  502    0 -0.49439763209E+03 -0.19906156767E+02 -0.78119709306E+03  0.92471302689E+03  0.10100000352E+00 0.  1.
       -3    1    3    3    0  502  0.49439763209E+03  0.19906156767E+02  0.17817072072E+04  0.18491365163E+04  0.10100000352E+00 0. -1.
</event>
<event>
 5   0  0.1720129E-05  0.2550866E+04  0.7818609E-02  0.8385085E-01
        2   -1    0    0  501    0  0.00000000000E+00  0.00000000000E+00  0.12112848399E+04  0.12112848399E+04  0.25500000920E-02 0.  1.
       -2   -1    0    0    0  501  0.00000000000E+00  0.00000000000E+00 -0.13429781308E+04  0.13429781308E+04  0.25500000920E-02 0. -1.
    10030    2    1    2    0    0  0.00000000000E+00  0.00000000000E+00 -0.13169329090E+03  0.25542629708E+04  0.25508657748E+04 0.  0.
        3    1    3    3  502    0 -0.12732330971E+04  0.73367168151E+02 -0.50867474944E+02  0.12763591858E+04  0.10100000352E+00 0.  1.
       -3    1    3    3    0  502  0.12732330971E+04 -0.73367168151E+02 -0.80825815954E+02  0.12779037850E+04  0.10100000352E+00 0. -1.
</event>
<event>
 5   0  0.6984287E-06  0.2598955E+04  0.7818609E-02  0.8368556E-01
       -1   -1    0    0    0  501  0.00000000000E+00  0.00000000000E+00  0.14258967976E+04  0.14258967976E+04  0.50400001928E-02 0.  1.
        1   -1    0    0  501    0  0.00000000000E+00  0.00000000000E+00 -0.11842665837E+04  0.11842665837E+04  0.50400001928E-02 0. -1.
    10030    2    1    2    0    0  0.00000000000E+00  0.00000000000E+00  0.24163021389E+03  0.26101633813E+04  0.25989551202E+04 0.  0.
        3    1    3    3  502    0  0.25676291064E+02 -0.18043870422E+03  0.14129968614E+04  0.14247026140E+04  0.10100000352E+00 0.  1.
       -3    1    3    3    0  502 -0.25676291064E+02  0.18043870422E+03 -0.11713666475E+04  0.11854607673E+04  0.10100000352E+00 0. -1.
</event>
<event>
 5   0  0.1681731E-05  0.2394611E+04  0.7818609E-02  0.8441524E-01
        2   -1    0    0  501    0  0.00000000000E+00  0.00000000000E+00  0.14245479670E+04  0.14245479670E+04  0.25500000920E-02 0.  1.
       -2   -1    0    0    0  501  0.00000000000E+00  0.00000000000E+00 -0.10063124004E+04  0.10063124004E+04  0.25500000920E-02 0. -1.
    10030    2    1    2    0    0  0.00000000000E+00  0.00000000000E+00  0.41823556660E+03  0.24308603673E+04  0.23946108528E+04 0.  0.
        2    1    3    3  502    0 -0.60264222939E+03  0.87515423877E+03 -0.35102103343E+03  0.11190569084E+04  0.25500000920E-02 0. -1.
       -2    1    3    3    0  502  0.60264222939E+03 -0.87515423877E+03  0.76925660003E+03  0.13118034590E+04  0.25500000920E-02 0.  1.
</event>
<event>
 5   0  0.1677971E-05  0.2654378E+04  0.7818609E-02  0.8349961E-01
       -2   -1    0    0    0  501  0.00000000000E+00  0.00000000000E+00  0.77954459833E+03  0.77954459833E+03  0.25500000920E-02 0.  1.
        2   -1    0    0  501    0  0.00000000000E+00  0.00000000000E+00 -0.22595632854E+04  0.22595632854E+04  0.25500000920E-02 0. -1.
    10030    2    1    2    0    0  0.00000000000E+00  0.00000000000E+00 -0.14800186871E+04  0.30391078838E+04  0.26543777830E+04 0.  0.
        4    1    3    3  502    0 -0.29446534676E+03  0.90092068369E+03  0.32365373586E+03  0.10015594203E+04  0.12699999809E+01 0.  1.
       -4    1    3    3    0  502  0.29446534676E+03 -0.90092068369E+03 -0.18036724230E+04  0.20375484635E+04  0.12699999809E+01 0. -1.
</event>
<event>
 5   0  0.1677971E-05  0.2583577E+04  0.7818609E-02  0.8373801E-01
       -2   -1    0    0    0  501  0.00000000000E+00  0.00000000000E+00  0.57883329467E+03  0.57883329468E+03  0.25500000920E-02 0.  1.
        2   -1    0    0  501    0  0.00000000000E+00  0.00000000000E+00 -0.28828977731E+04  0.28828977731E+04  0.25500000920E-02 0. -1.
    10030    2    1    2    0    0  0.00000000000E+00  0.00000000000E+00 -0.23040644784E+04  0.34617310678E+04  0.25835767581E+04 0.  0.
        4    1    3    3  502    0  0.68883240694E+03 -0.10842579651E+04 -0.13348200730E+04  0.18525257515E+04  0.12699999809E+01 0.  1.
       -4    1    3    3    0  502 -0.68883240694E+03  0.10842579651E+04 -0.96924440548E+03  0.16092053163E+04  0.12699999809E+01 0. -1.
</event>
<event>
 5   0  0.6918420E-06  0.2607243E+04  0.7818609E-02  0.8365745E-01
        1   -1    0    0  501    0  0.00000000000E+00  0.00000000000E+00  0.19706207014E+04  0.19706207014E+04  0.50400001928E-02 0.  1.
       -1   -1    0    0    0  501  0.00000000000E+00  0.00000000000E+00 -0.86238232426E+03  0.86238232428E+03  0.50400001928E-02 0. -1.
    10030    2    1    2    0    0  0.00000000000E+00  0.00000000000E+00  0.11082383771E+04  0.28330030257E+04  0.26072425746E+04 0.  0.
        4    1    3    3  502    0  0.12448730826E+03  0.12100751746E+04  0.10633668664E+04  0.16157133792E+04  0.12699999809E+01 0. -1.
       -4    1    3    3    0  502 -0.12448730826E+03 -0.12100751746E+04  0.44871510717E+02  0.12172896465E+04  0.12699999809E+01 0.  1.
</event>
<event>
 5   0  0.6706225E-06  0.2584432E+04  0.7818609E-02  0.8373509E-01
       -1   -1    0    0    0  501  0.00000000000E+00  0.00000000000E+00  0.87788873183E+03  0.87788873185E+03  0.50400001928E-02 0.  1.
        1   -1    0    0  501    0  0.00000000000E+00  0.00000000000E+00 -0.19020880996E+04  0.19020880996E+04  0.50400001928E-02 0. -1.
    10030    2    1    2    0    0  0.00000000000E+00  0.00000000000E+00 -0.10241993678E+04  0.27799768315E+04  0.25844316278E+04 0.  0.
        5    1    3    3  502    0  0.35939959794E+02  0.74017200700E+03 -0.16508061165E+04  0.18095107640E+04  0.46999998093E+01 0. -1.
       -5    1    3    3    0  502 -0.35939959794E+02 -0.74017200700E+03  0.62660674871E+03  0.97046606751E+03  0.46999998093E+01 0.  1.
</event>
<event>
 5   0  0.6993678E-06  0.2576370E+04  0.7818609E-02  0.8376272E-01
        1   -1    0    0  501    0  0.00000000000E+00  0.00000000000E+00  0.20583419602E+04  0.20583419602E+04  0.50400001928E-02 0. -1.
       -1   -1    0    0    0  501  0.00000000000E+00  0.00000000000E+00 -0.80619295710E+03  0.80619295712E+03  0.50400001928E-02 0.  1.
    10030    2    1    2    0    0  0.00000000000E+00  0.00000000000E+00  0.12521490031E+04  0.28645349174E+04  0.25763701533E+04 0.  0.
        1    1    3    3  502    0  0.11432700774E+04 -0.29856269122E+03  0.11965025640E+04  0.16816136703E+04  0.50400001928E-02 0. -1.
       -1    1    3    3    0  502 -0.11432700774E+04  0.29856269122E+03  0.55646439111E+02  0.11829212470E+04  0.50400001928E-02 0.  1.
</event>
<event>
 5   0  0.6918420E-06  0.2621766E+04  0.7818609E-02  0.8360845E-01
       -1   -1    0    0    0  501  0.00000000000E+00  0.00000000000E+00  0.11747725740E+04  0.11747725740E+04  0.50400001928E-02 0.  1.
        1   -1    0    0  501    0  0.00000000000E+00  0.00000000000E+00 -0.14627629707E+04  0.14627629707E+04  0.50400001928E-02 0. -1.
    10030    2    1    2    0    0  0.00000000000E+00  0.00000000000E+00 -0.28799039670E+03  0.26375355448E+04  0.26217656801E+04 0.  0.
        4    1    3    3  502    0  0.43601836013E+03  0.78511894093E+03 -0.11046675758E+04  0.14236628210E+04  0.12699999809E+01 0. -1.
       -4    1    3    3    0  502 -0.43601836013E+03 -0.78511894093E+03  0.81667717914E+03  0.12138727238E+04  0.12699999809E+01 0.  1.
</event>
<event>
 5   0  0.6993678E-06  0.2638259E+04  0.7818609E-02  0.8355320E-01
        1   -1    0    0  501    0  0.00000000000E+00  0.00000000000E+00  0.16992990666E+04  0.16992990666E+04  0.50400001928E-02 0.  1.
       -1   -1    0    0    0  501  0.00000000000E+00  0.00000000000E+00 -0.10240121080E+04  0.10240121080E+04  0.50400001928E-02 0. -1.
    10030    2    1    2    0    0  0.00000000000E+00  0.00000000000E+00  0.67528695868E+03  0.27233111746E+04  0.26382591376E+04 0.  0.
        1    1    3    3  502    0  0.94697909754E+03 -0.80560514728E+03  0.79268805112E+03  0.14744908989E+04  0.50400001928E-02 0.  1.
       -1    1    3    3    0  502 -0.94697909754E+03  0.80560514728E+03 -0.11740109244E+03  0.12488202757E+04  0.50400001928E-02 0. -1.
</event>
<event>
 5   0  0.1681731E-05  0.2602508E+04  0.7818609E-02  0.8367350E-01
        2   -1    0    0  501    0  0.00000000000E+00  0.00000000000E+00  0.17725428534E+04  0.17725428534E+04  0.25500000920E-02 0.  1.
       -2   -1    0    0    0  501  0.00000000000E+00  0.00000000000E+00 -0.95527305108E+03  0.95527305109E+03  0.25500000920E-02 0. -1.
    10030    2    1    2    0    0  0.00000000000E+00  0.00000000000E+00  0.81726980232E+03  0.27278159045E+04  0.26025083437E+04 0.  0.
        2    1    3    3  502    0  0.84107117055E+03  0.99290537564E+03  0.40780902519E+03  0.13636605149E+04  0.25500000920E-02 0.  1.
       -2    1    3    3    0  502 -0.84107117055E+03 -0.99290537564E+03  0.40946077712E+03  0.13641553896E+04  0.25500000920E-02 0. -1.
</event>
<event>
 5   0  0.6918420E-06  0.2585252E+04  0.7818609E-02  0.8373228E-01
       -1   -1    0    0    0  501  0.00000000000E+00  0.00000000000E+00  0.15354842845E+04  0.15354842845E+04  0.50400001928E-02 0. -1.
        1   -1    0    0  501    0  0.00000000000E+00  0.00000000000E+00 -0.10881791962E+04  0.10881791963E+04  0.50400001928E-02 0.  1.
    10030    2    1    2    0    0  0.00000000000E+00  0.00000000000E+00  0.44730508827E+03  0.26236634808E+04  0.25852520609E+04 0.  0.
        4    1    3    3  502    0  0.61118011782E+03  0.61501303705E+03 -0.74928779824E+03  0.11459563646E+04  0.12699999809E+01 0.  1.
       -4    1    3    3    0  502 -0.61118011782E+03 -0.61501303705E+03  0.11965928865E+04  0.14777071161E+04  0.12699999809E+01 0. -1.
</event>
<event>
 5   0  0.1681731E-05  0.2549116E+04  0.7818609E-02  0.8385694E-01
        2   -1    0    0  501    0  0.00000000000E+00  0.00000000000E+00  0.21499168426E+04  0.21499168427E+04  0.25500000920E-02 0. -1.
       -2   -1    0    0    0  501  0.00000000000E+00  0.00000000000E+00 -0.75561002029E+03  0.75561002029E+03  0.25500000920E-02 0.  1.
    10030    2    1    2    0    0  0.00000000000E+00  0.00000000000E+00  0.13943068224E+04  0.29055268629E+04  0.25491164815E+04 0.  0.
        2    1    3    3  502    0  0.51980672922E+03  0.29807123651E+02  0.20231734847E+04  0.20890951270E+04  0.25500000920E-02 0. -1.
       -2    1    3    3    0  502 -0.51980672922E+03 -0.29807123651E+02 -0.62886666238E+03  0.81643173592E+03  0.25500000920E-02 0.  1.
</event>
<event>
 5   0  0.6993678E-06  0.2749333E+04  0.7818609E-02  0.8319173E-01
       -1   -1    0    0    0  501  0.00000000000E+00  0.00000000000E+00  0.10087075385E+04  0.10087075385E+04  0.50400001928E-02 0.  1.
        1   -1    0    0  501    0  0.00000000000E+00  0.00000000000E+00 -0.18733948750E+04  0.18733948750E+04  0.50400001928E-02 0. -1.
    10030    2    1    2    0    0  0.00000000000E+00  0.00000000000E+00 -0.86468733651E+03  0.28821024136E+04  0.27493326704E+04 0.  0.
        1    1    3    3  502    0 -0.74729042207E+03 -0.59711305906E+03  0.60261302634E+03  0.11305438690E+04  0.50400001928E-02 0.  1.
       -1    1    3    3    0  502  0.74729042207E+03  0.59711305906E+03 -0.14673003628E+04  0.17515585446E+04  0.50400001928E-02 0. -1.
</event>
<event>
 5   0  0.6984287E-06  0.2584621E+04  0.7818609E-02  0.8373444E-01
       -1   -1    0    0    0  501  0.00000000000E+00  0.00000000000E+00  0.11075804958E+04  0.11075804958E+04  0.50400001928E-02 0. -1.
        1   -1    0    0  501    0  0.00000000000E+00  0.00000000000E+00 -0.15078512383E+04  0.15078512383E+04  0.50400001928E-02 0.  1.
    10030    2    1    2    0    0  0.00000000000E+00  0.00000000000E+00 -0.40027074248E+03  0.26154317342E+04  0.25846211500E+04 0.  0.
        3    1    3    3  502    0  0.94403802027E+03  0.17897302537E+01  0.69291298516E+03  0.11710420155E+04  0.10100000352E+00 0. -1.
       -3    1    3    3    0  502 -0.94403802027E+03 -0.17897302537E+01 -0.10931837276E+04  0.14443897187E+04  0.10100000352E+00 0.  1.
</event>
<event>
 5   0  0.1681731E-05  0.2124721E+04  0.7818609E-02  0.8550431E-01
       -2   -1    0    0    0  501  0.00000000000E+00  0.00000000000E+00  0.81974133892E+03  0.81974133893E+03  0.25500000920E-02 0. -1.
        2   -1    0    0  501    0  0.00000000000E+00  0.00000000000E+00 -0.13767873742E+04  0.13767873742E+04  0.25500000920E-02 0.  1.
    10030    2    1    2    0    0  0.00000000000E+00  0.00000000000E+00 -0.55704603526E+03  0.21965287131E+04  0.21247207116E+04 0.  0.
        2    1    3    3  502    0  0.40207345491E+03  0.22912003000E+03  0.71006451266E+03  0.84755569931E+03  0.25500000920E-02 0. -1.
       -2    1    3    3    0  502 -0.40207345491E+03 -0.22912003000E+03 -0.12671105479E+04  0.13489730138E+04  0.25500000920E-02 0.  1.
</event>
<event>
 5   0  0.1702345E-05  0.2608596E+04  0.7818609E-02  0.8365287E-01
        2   -1    0    0  501    0  0.00000000000E+00  0.00000000000E+00  0.13933581762E+04  0.13933581762E+04  0.25500000920E-02 0. -1.
       -2   -1    0    0    0  501  0.00000000000E+00  0.00000000000E+00 -0.12209298841E+04  0.12209298841E+04  0.25500000920E-02 0.  1.
    10030    2    1    2    0    0  0.00000000000E+00  0.00000000000E+00  0.17242829211E+03  0.26142880603E+04  0.26085955122E+04 0.  0.
        1    1    3    3  502    0  0.97128928962E+03  0.69204087970E+03  0.61544718833E+03  0.13420501872E+04  0.50400001928E-02 0.  1.
       -1    1    3    3    0  502 -0.97128928962E+03 -0.69204087970E+03 -0.44301889622E+03  0.12722378731E+04  0.50400001928E-02 0. -1.
</event>
<event>
 5   0  0.1869956E-05  0.2612457E+04  0.7818609E-02  0.8363982E-01
       -2   -1    0    0    0  501  0.00000000000E+00  0.00000000000E+00  0.67579498762E+03  0.67579498762E+03  0.25500000920E-02 0.  1.
        2   -1    0    0  501    0  0.00000000000E+00  0.00000000000E+00 -0.25247785981E+04  0.25247785981E+04  0.25500000920E-02 0. -1.
    10030    2    1    2    0    0  0.00000000000E+00  0.00000000000E+00 -0.18489836105E+04  0.32005735857E+04  0.26124568677E+04 0.  0.
        5    1    3    3  502    0  0.12745353140E+04 -0.27637526197E+03 -0.10144116141E+04  0.16522338106E+04  0.46999998093E+01 0.  1.
       -5    1    3    3    0  502 -0.12745353140E+04  0.27637526197E+03 -0.83457199634E+03  0.15483397751E+04  0.46999998093E+01 0. -1.
</event>
<event>
 5   0  0.6918420E-06  0.2516457E+04  0.7818609E-02  0.8397146E-01
       -1   -1    0    0    0  501  0.00000000000E+00  0.00000000000E+00  0.10543848083E+04  0.10543848083E+04  0.50400001928E-02 0.  1.
        1   -1    0    0  501    0  0.00000000000E+00  0.00000000000E+00 -0.15014807686E+04  0.15014807686E+04  0.50400001928E-02 0. -1.
    10030    2    1    2    0    0  0.00000000000E+00  0.00000000000E+00 -0.44709596024E+03  0.25558655769E+04  0.25164566457E+04 0.  0.
        4    1    3    3  502    0  0.12049734810E+04  0.34956005420E+03 -0.31981404709E+03  0.12947725511E+04  0.12699999809E+01 0. -1.
       -4    1    3    3    0  502 -0.12049734810E+04 -0.34956005420E+03 -0.12728191315E+03  0.12610930258E+04  0.12699999809E+01 0.  1.
</event>
<event>
 5   0  0.6993678E-06  0.2665520E+04  0.7818609E-02  0.8346280E-01
        1   -1    0    0  501    0  0.00000000000E+00  0.00000000000E+00  0.21477216791E+04  0.21477216791E+04  0.50400001928E-02 0.  1.
       -1   -1    0    0    0  501  0.00000000000E+00  0.00000000000E+00 -0.82703887239E+03  0.82703887241E+03  0.50400001928E-02 0. -1.
    10030    2    1    2    0    0  0.00000000000E+00  0.00000000000E+00  0.13206828067E+04  0.29747605515E+04  0.26655200736E+04 0.  0.
        1    1    3    3  502    0 -0.56150152880E+03  0.11811160028E+04  0.94689951276E+03  0.16146013955E+04  0.50400001928E-02 0.  1.
       -1    1    3    3    0  502  0.56150152880E+03 -0.11811160028E+04  0.37378329392E+03  0.13601591560E+04  0.50400001928E-02 0. -1.
</event>
<event>
 5   0  0.6984287E-06  0.2607312E+04  0.7818609E-02  0.8365722E-01
        1   -1    0    0  501    0  0.00000000000E+00  0.00000000000E+00  0.18728290186E+04  0.18728290186E+04  0.50400001928E-02 0.  1.
       -1   -1    0    0    0  501  0.00000000000E+00  0.00000000000E+00 -0.90746107942E+03  0.90746107943E+03  0.50400001928E-02 0. -1.
    10030    2    1    2    0    0  0.00000000000E+00  0.00000000000E+00  0.96536793918E+03  0.27802900980E+04  0.26073123655E+04 0.  0.
        3    1    3    3  502    0  0.48947023530E+03  0.44794050044E+03  0.16793129518E+04  0.18056366753E+04  0.10100000352E+00 0.  1.
       -3    1    3    3    0  502 -0.48947023530E+03 -0.44794050044E+03 -0.71394501258E+03  0.97465342269E+03  0.10100000352E+00 0. -1.
</event>
<event>
 5   0  0.1720129E-05  0.2606316E+04  0.7818609E-02  0.8366059E-01
        2   -1    0    0  501    0  0.00000000000E+00  0.00000000000E+00  0.14086486512E+04  0.14086486512E+04  0.25500000920E-02 0.  1.
       -2   -1    0    0    0  501  0.00000000000E+00  0.00000000000E+00 -0.12055677563E+04  0.12055677563E+04  0.25500000920E-02 0. -1.
    10030    2    1    2    0    0  0.00000000000E+00  0.00000000000E+00  0.20308089488E+03  0.26142164075E+04  0.26063164765E+04 0.  0.
        3    1    3    3  502    0  0.77920446931E+03 -0.10349734771E+04 -0.39924917306E+02  0.12961187108E+04  0.10100000352E+00 0. -1.
       -3    1    3    3    0  502 -0.77920446931E+03  0.10349734771E+04  0.24300581219E+03  0.13180976968E+04  0.10100000352E+00 0.  1.
</event>
<event>
 5   0  0.1681731E-05  0.2577428E+04  0.7818609E-02  0.8375909E-01
        2   -1    0    0  501    0  0.00000000000E+00  0.00000000000E+00  0.77971946405E+03  0.77971946406E+03  0.25500000920E-02 0.  1.
       -2   -1    0    0    0  501  0.00000000000E+00  0.00000000000E+00 -0.21299759295E+04  0.21299759295E+04  0.25500000920E-02 0. -1.
    10030    2    1    2    0    0  0.00000000000E+00  0.00000000000E+00 -0.13502564654E+04  0.29096953935E+04  0.25774279351E+04 0.  0.
        2    1    3    3  502    0  0.58740937621E+03  0.36384021320E+03 -0.19031848118E+04  0.20247325512E+04  0.25500000920E-02 0. -1.
       -2    1    3    3    0  502 -0.58740937621E+03 -0.36384021320E+03  0.55292834641E+03  0.88496284231E+03  0.25500000920E-02 0.  1.
</event>
<event>
 5   0  0.7138294E-06  0.2582590E+04  0.7818609E-02  0.8374139E-01
        1   -1    0    0  501    0  0.00000000000E+00  0.00000000000E+00  0.15054933065E+04  0.15054933065E+04  0.50400001928E-02 0.  1.
       -1   -1    0    0    0  501  0.00000000000E+00  0.00000000000E+00 -0.11075726496E+04  0.11075726497E+04  0.50400001928E-02 0. -1.
    10030    2    1    2    0    0  0.00000000000E+00  0.00000000000E+00  0.39792065688E+03  0.26130659562E+04  0.25825903357E+04 0.  0.
        2    1    3    3  502    0  0.33699617065E+03  0.56499517687E+03 -0.92530302431E+03  0.11353288756E+04  0.25500000920E-02 0. -1.
       -2    1    3    3    0  502 -0.33699617065E+03 -0.56499517687E+03  0.13232236812E+04  0.14777370806E+04  0.25500000920E-02 0.  1.
</event>
<event>
 5   0  0.7138294E-06  0.2631659E+04  0.7818609E-02  0.8357526E-01
       -1   -1    0    0    0  501  0.00000000000E+00  0.00000000000E+00  0.10814155262E+04  0.10814155262E+04  0.50400001928E-02 0.  1.
        1   -1    0    0  501    0  0.00000000000E+00  0.00000000000E+00 -0.16010558558E+04  0.16010558558E+04  0.50400001928E-02 0. -1.
    10030    2    1    2    0    0  0.00000000000E+00  0.00000000000E+00 -0.51964032959E+03  0.26824713820E+04  0.26316585347E+04 0.  0.
        2    1    3    3  502    0 -0.95655091309E+03  0.46671806921E+03  0.52880520446E+03  0.11884655442E+04  0.25500000920E-02 0.  1.
       -2    1    3    3    0  502  0.95655091309E+03 -0.46671806921E+03 -0.10484455341E+04  0.14940058378E+04  0.25500000920E-02 0. -1.
</event>
<event>
 5   0  0.1677971E-05  0.2593410E+04  0.7818609E-02  0.8370443E-01
        2   -1    0    0  501    0  0.00000000000E+00  0.00000000000E+00  0.29537467067E+04  0.29537467067E+04  0.25500000920E-02 0. -1.
       -2   -1    0    0    0  501  0.00000000000E+00  0.00000000000E+00 -0.56925806889E+03  0.56925806890E+03  0.25500000920E-02 0.  1.
    10030    2    1    2    0    0  0.00000000000E+00  0.00000000000E+00  0.23844886378E+04  0.35230047756E+04  0.25934102230E+04 0.  0.
        4    1    3    3  502    0 -0.18694909927E+03 -0.10674230300E+04  0.21596064759E+04  0.24162457728E+04  0.12699999809E+01 0. -1.
       -4    1    3    3    0  502  0.18694909927E+03  0.10674230300E+04  0.22488216186E+03  0.11067590028E+04  0.12699999809E+01 0.  1.
</event>
<event>
 5   0  0.6984287E-06  0.2595517E+04  0.7818609E-02  0.8369726E-01
        1   -1    0    0  501    0  0.00000000000E+00  0.00000000000E+00  0.26072770210E+04  0.26072770210E+04  0.50400001928E-02 0.  1.
       -1   -1    0    0    0  501  0.00000000000E+00  0.00000000000E+00 -0.64595243916E+03  0.64595243918E+03  0.50400001928E-02 0. -1.
    10030    2    1    2    0    0  0.00000000000E+00  0.00000000000E+00  0.19613245818E+04  0.32532294602E+04  0.25955168667E+04 0.  0.
        3    1    3    3  502    0  0.32742109589E+02 -0.48830442937E+03 -0.52585533846E+03  0.71835722915E+03  0.10100000352E+00 0. -1.
       -3    1    3    3    0  502 -0.32742109589E+02  0.48830442937E+03  0.24871799203E+04  0.25348722310E+04  0.10100000352E+00 0.  1.
</event>
<event>
 5   0  0.1702345E-05  0.2627263E+04  0.7818609E-02  0.8358999E-01
        2   -1    0    0  501    0  0.00000000000E+00  0.00000000000E+00  0.23582667825E+04  0.23582667825E+04  0.25500000920E-02 0.  1.
       -2   -1    0    0    0  501  0.00000000000E+00  0.00000000000E+00 -0.73173546584E+03  0.73173546584E+03  0.25500000920E-02 0. -1.
    10030    2    1    2    0    0  0.00000000000E+00  0.00000000000E+00  0.16265313167E+04  0.30900022484E+04  0.26272627906E+04 0.  0.
        1    1    3    3  502    0 -0.12008567740E+04 -0.18164465792E+03  0.22452405022E+03  0.12350962807E+04  0.50400001928E-02 0. -1.
       -1    1    3    3    0  502  0.12008567740E+04  0.18164465792E+03  0.14020072665E+04  0.18549059676E+04  0.50400001928E-02 0.  1.
</event>
<event>
 5   0  0.7138294E-06  0.2602018E+04  0.7818609E-02  0.8367516E-01
        1   -1    0    0  501    0  0.00000000000E+00  0.00000000000E+00  0.11520636943E+04  0.11520636944E+04  0.50400001928E-02 0. -1.
       -1   -1    0    0    0  501  0.00000000000E+00  0.00000000000E+00 -0.14692105545E+04  0.14692105545E+04  0.50400001928E-02 0.  1.
    10030    2    1    2    0    0  0.00000000000E+00  0.00000000000E+00 -0.31714686014E+03  0.26212742489E+04  0.26020177856E+04 0.  0.
        2    1    3    3  502    0  0.77671081318E+03 -0.88773852257E+03  0.39436448735E+03  0.12437374002E+04  0.25500000920E-02 0. -1.
       -2    1    3    3    0  502 -0.77671081318E+03  0.88773852257E+03 -0.71151134749E+03  0.13775368487E+04  0.25500000920E-02 0.  1.
</event>
<event>
 5   0  0.6918420E-06  0.2612945E+04  0.7818609E-02  0.8363817E-01
       -1   -1    0    0    0  501  0.00000000000E+00  0.00000000000E+00  0.76894022100E+03  0.76894022101E+03  0.50400001928E-02 0. -1.
        1   -1    0    0  501    0  0.00000000000E+00  0.00000000000E+00 -0.22197700869E+04  0.22197700869E+04  0.50400001928E-02 0.  1.
    10030    2    1    2    0    0  0.00000000000E+00  0.00000000000E+00 -0.14508298659E+04  0.29887103079E+04  0.26129450826E+04 0.  0.
        4    1    3    3  502    0 -0.97661084236E+03 -0.15470786033E+03 -0.17021271809E+04  0.19684871887E+04  0.12699999809E+01 0.  1.
       -4    1    3    3    0  502  0.97661084236E+03  0.15470786033E+03  0.25129731499E+03  0.10202231192E+04  0.12699999809E+01 0. -1.
</event>
<event>
 5   0  0.1677971E-05  0.2598835E+04  0.7818609E-02  0.8368597E-01
        2   -1    0    0  501    0  0.00000000000E+00  0.00000000000E+00  0.15585548989E+04  0.15585548989E+04  0.25500000920E-02 0.  1.
       -2   -1    0    0    0  501  0.00000000000E+00  0.00000000000E+00 -0.10833660247E+04  0.10833660247E+04  0.25500000920E-02 0. -1.
    10030    2    1    2    0    0  0.00000000000E+00  0.00000000000E+00  0.47518887417E+03  0.26419209236E+04  0.25988346813E+04 0.  0.
        4    1    3    3  502    0 -0.74623451709E+02 -0.12619957275E+04  0.54304546685E+03  0.13759003844E+04  0.12699999809E+01 0.  1.
       -4    1    3    3    0  502  0.74623451709E+02  0.12619957275E+04 -0.67856592684E+02  0.12660205393E+04  0.12699999809E+01 0. -1.
</event>
<event>
 5   0  0.1681731E-05  0.2602684E+04  0.7818609E-02  0.8367290E-01
        2   -1    0    0  501    0  0.00000000000E+00  0.00000000000E+00  0.20016767613E+04  0.20016767613E+04  0.25500000920E-02 0.  1.
       -2   -1    0    0    0  501  0.00000000000E+00  0.00000000000E+00 -0.84603589160E+03  0.84603589161E+03  0.25500000920E-02 0. -1.
    10030    2    1    2    0    0  0.00000000000E+00  0.00000000000E+00  0.11556408697E+04  0.28477126529E+04  0.26026835255E+04 0.  0.
        2    1    3    3  502    0  0.64799644146E+03 -0.92592611825E+03 -0.12809531869E+03  0.11373860274E+04  0.25500000920E-02 0.  1.
       -2    1    3    3    0  502 -0.64799644146E+03  0.92592611825E+03  0.12837361884E+04  0.17103266255E+04  0.25500000920E-02 0. -1.
</event>
<event>
 5   0  0.6706225E-06  0.2467281E+04  0.7818609E-02  0.8414735E-01
       -1   -1    0    0    0  501  0.00000000000E+00  0.00000000000E+00  0.94350492312E+03  0.94350492313E+03  0.50400001928E-02 0.  1.
        1   -1    0    0  501    0  0.00000000000E+00  0.00000000000E+00 -0.16129948635E+04  0.16129948635E+04  0.50400001928E-02 0. -1.
    10030    2    1    2    0    0  0.00000000000E+00  0.00000000000E+00 -0.66948994039E+03  0.25564997866E+04  0.24672807661E+04 0.  0.
        5    1    3    3  502    0  0.98671443722E+03 -0.28271493958E+03 -0.10438253586E+04  0.14639421392E+04  0.46999998093E+01 0. -1.
       -5    1    3    3    0  502 -0.98671443722E+03  0.28271493958E+03  0.37433541821E+03  0.10925576474E+04  0.46999998093E+01 0.  1.
</event>
<event>
 5   0  0.1869956E-05  0.2575644E+04  0.7818609E-02  0.8376522E-01
        2   -1    0    0  501    0  0.00000000000E+00  0.00000000000E+00  0.22671220887E+04  0.22671220887E+04  0.25500000920E-02 0. -1.
       -2   -1    0    0    0  501  0.00000000000E+00  0.00000000000E+00 -0.73153757809E+03  0.73153757810E+03  0.25500000920E-02 0.  1.
    10030    2    1    2    0    0  0.00000000000E+00  0.00000000000E+00  0.15355845106E+04  0.29986596668E+04  0.25756436104E+04 0.  0.
        5    1    3    3  502    0 -0.36602869529E+03  0.52833882045E+03  0.20670223572E+04  0.21646529583E+04  0.46999998093E+01 0. -1.
       -5    1    3    3    0  502  0.36602869529E+03 -0.52833882045E+03 -0.53143784658E+03  0.83400670845E+03  0.46999998093E+01 0.  1.
</event>
<event>
 5   0  0.1681731E-05  0.2607188E+04  0.7818609E-02  0.8365764E-01
       -2   -1    0    0    0  501  0.00000000000E+00  0.00000000000E+00  0.95352932635E+03  0.95352932635E+03  0.25500000920E-02 0.  1.
        2   -1    0    0  501    0  0.00000000000E+00  0.00000000000E+00 -0.17821756953E+04  0.17821756953E+04  0.25500000920E-02 0. -1.
    10030    2    1    2    0    0  0.00000000000E+00  0.00000000000E+00 -0.82864636897E+03  0.27357050217E+04  0.26071875960E+04 0.  0.
        2    1    3    3  502    0  0.52593219879E+03 -0.11410228526E+04 -0.49599020807E+02  0.12573773860E+04  0.25500000920E-02 0. -1.
       -2    1    3    3    0  502 -0.52593219879E+03  0.11410228526E+04 -0.77904734816E+03  0.14783276357E+04  0.25500000920E-02 0.  1.
</event>
<event>
 5   0  0.5840500E-06  0.2603382E+04  0.7818609E-02  0.8367053E-01
       -4   -1    0    0    0  501  0.00000000000E+00  0.00000000000E+00  0.10190297565E+04  0.10190305479E+04  0.12699999809E+01 0.  1.
        4   -1    0    0  501    0  0.00000000000E+00  0.00000000000E+00 -0.16627555524E+04  0.16627560374E+04  0.12699999809E+01 0. -1.
    10030    2    1    2    0    0  0.00000000000E+00  0.00000000000E+00 -0.64372579589E+03  0.26817865853E+04  0.26033817217E+04 0.  0.
        1    1    3    3  502    0  0.18404215995E+03 -0.12878053833E+04 -0.36889846779E+03  0.13521835309E+04  0.50400001928E-02 0. -1.
       -1    1    3    3    0  502 -0.18404215995E+03  0.12878053833E+04 -0.27482732809E+03  0.13296030543E+04  0.50400001928E-02 0.  1.
</event>
<event>
 5   0  0.6984287E-06  0.2632146E+04  0.7818609E-02  0.8357363E-01
        1   -1    0    0  501    0  0.00000000000E+00  0.00000000000E+00  0.20958548599E+04  0.20958548599E+04  0.50400001928E-02 0. -1.
       -1   -1    0    0    0  501  0.00000000000E+00  0.00000000000E+00 -0.82641626087E+03  0.82641626089E+03  0.50400001928E-02 0.  1.
    10030    2    1    2    0    0  0.00000000000E+00  0.00000000000E+00  0.12694385990E+04  0.29222711208E+04  0.26321463004E+04 0.  0.
        3    1    3    3  502    0  0.69667667204E+03 -0.79238274058E+03 -0.23863921535E+03  0.10817474189E+04  0.10100000352E+00 0.  1.
       -3    1    3    3    0  502 -0.69667667204E+03  0.79238274058E+03  0.15080778144E+04  0.18405237019E+04  0.10100000352E+00 0. -1.
</event>
<event>
 5   0  0.1702345E-05  0.2612368E+04  0.7818609E-02  0.8364012E-01
       -2   -1    0    0    0  501  0.00000000000E+00  0.00000000000E+00  0.10328564721E+04  0.10328564722E+04  0.25500000920E-02 0.  1.
        2   -1    0    0  501    0  0.00000000000E+00  0.00000000000E+00 -0.16518424991E+04  0.16518424991E+04  0.25500000920E-02 0. -1.
    10030    2    1    2    0    0  0.00000000000E+00  0.00000000000E+00 -0.61898602692E+03  0.26846989712E+04  0.26123676741E+04 0.  0.
        1    1    3    3  502    0 -0.25560019474E+03  0.12122610656E+01 -0.16258900839E+04  0.16458588925E+04  0.50400001928E-02 0. -1.
       -1    1    3    3    0  502  0.25560019474E+03 -0.12122610656E+01  0.10069040570E+04  0.10388400787E+04  0.50400001928E-02 0.  1.
</event>
<event>
 5   0  0.6984287E-06  0.2613120E+04  0.7818609E-02  0.8363758E-01
       -1   -1    0    0    0  501  0.00000000000E+00  0.00000000000E+00  0.19594180168E+04  0.19594180168E+04  0.50400001928E-02 0.  1.
        1   -1    0    0  501    0  0.00000000000E+00  0.00000000000E+00 -0.87122778439E+03  0.87122778441E+03  0.50400001928E-02 0. -1.
    10030    2    1    2    0    0  0.00000000000E+00  0.00000000000E+00  0.10881902324E+04  0.28306458012E+04  0.26131202938E+04 0.  0.
        3    1    3    3  502    0  0.30259161942E+03  0.31796053175E+03 -0.78897193223E+03  0.90284954890E+03  0.10100000352E+00 0. -1.
       -3    1    3    3    0  502 -0.30259161942E+03 -0.31796053175E+03  0.18771621646E+04  0.19277962523E+04  0.10100000352E+00 0.  1.
</event>
<event>
 5   0  0.1681731E-05  0.2598073E+04  0.7818609E-02  0.8368856E-01
       -2   -1    0    0    0  501  0.00000000000E+00  0.00000000000E+00  0.51445187142E+03  0.51445187143E+03  0.25500000920E-02 0. -1.
        2   -1    0    0  501    0  0.00000000000E+00  0.00000000000E+00 -0.32801811514E+04  0.32801811514E+04  0.25500000920E-02 0.  1.
    10030    2    1    2    0    0  0.00000000000E+00  0.00000000000E+00 -0.27657292800E+04  0.37946330229E+04  0.25980726179E+04 0.  0.
        2    1    3    3  502    0 -0.74570297867E+03  0.96794111494E+03 -0.20270222467E+04  0.23668126506E+04  0.25500000920E-02 0.  1.
       -2    1    3    3    0  502  0.74570297867E+03 -0.96794111494E+03 -0.73870703331E+03  0.14278203723E+04  0.25500000920E-02 0. -1.
</event>
<event>
 5   0  0.1720129E-05  0.2620643E+04  0.7818609E-02  0.8361223E-01
        2   -1    0    0  501    0  0.00000000000E+00  0.00000000000E+00  0.10011273876E+04  0.10011273876E+04  0.25500000920E-02 0. -1.
       -2   -1    0    0    0  501  0.00000000000E+00  0.00000000000E+00 -0.17150089925E+04  0.17150089925E+04  0.25500000920E-02 0.  1.
    10030    2    1    2    0    0  0.00000000000E+00  0.00000000000E+00 -0.71388160490E+03  0.27161363800E+04  0.26206430297E+04 0.  0.
        3    1    3    3  502    0 -0.15204974411E+03 -0.19240442233E+03 -0.16910127615E+04  0.17087020677E+04  0.10100000352E+00 0.  1.
       -3    1    3    3    0  502  0.15204974411E+03  0.19240442233E+03  0.97713115655E+03  0.10074343124E+04  0.10100000352E+00 0. -1.
</event>
<event>
 5   0  0.1702345E-05  0.2410044E+04  0.7818609E-02  0.8435753E-01
       -2   -1    0    0    0  501  0.00000000000E+00  0.00000000000E+00  0.10823671519E+04  0.10823671519E+04  0.25500000920E-02 0. -1.
        2   -1    0    0  501    0  0.00000000000E+00  0.00000000000E+00 -0.13415760407E+04  0.13415760407E+04  0.25500000920E-02 0.  1.
    10030    2    1    2    0    0  0.00000000000E+00  0.00000000000E+00 -0.25920888876E+03  0.24239431926E+04  0.24100438487E+04 0.  0.
        1    1    3    3  502    0 -0.33196521312E+03  0.94296897177E+03 -0.80630454746E+03  0.12843357846E+04  0.50400001928E-02 0.  1.
       -1    1    3    3    0  502  0.33196521312E+03 -0.94296897177E+03  0.54709565870E+03  0.11396074079E+04  0.50400001928E-02 0. -1.
</event>
<event>
 5   0  0.1869956E-05  0.2621014E+04  0.7818609E-02  0.8361098E-01
       -2   -1    0    0    0  501  0.00000000000E+00  0.00000000000E+00  0.11697726045E+04  0.11697726045E+04  0.25500000920E-02 0.  1.
        2   -1    0    0  501    0  0.00000000000E+00  0.00000000000E+00 -0.14681729109E+04  0.14681729109E+04  0.25500000920E-02 0. -1.
    10030    2    1    2    0    0  0.00000000000E+00  0.00000000000E+00 -0.29840030639E+03  0.26379455154E+04  0.26210138877E+04 0.  0.
        5    1    3    3  502    0  0.20376398800E+02  0.90171264812E+02 -0.14648786602E+04  0.14678002704E+04  0.46999998093E+01 0. -1.
       -5    1    3    3    0  502 -0.20376398800E+02 -0.90171264812E+02  0.11664783538E+04  0.11701452451E+04  0.46999998093E+01 0.  1.
</event>
<event>
 5   0  0.6918420E-06  0.2605906E+04  0.7818609E-02  0.8366198E-01
        1   -1    0    0  501    0  0.00000000000E+00  0.00000000000E+00  0.20342599344E+04  0.20342599344E+04  0.50400001928E-02 0. -1.
       -1   -1    0    0    0  501  0.00000000000E+00  0.00000000000E+00 -0.83454764875E+03  0.83454764876E+03  0.50400001928E-02 0.  1.
    10030    2    1    2    0    0  0.00000000000E+00  0.00000000000E+00  0.11997122856E+04  0.28688075831E+04  0.26059062494E+04 0.  0.
        4    1    3    3  502    0  0.12790111017E+04  0.23778609166E+01  0.32615750484E+03  0.13199452198E+04  0.12699999809E+01 0.  1.
       -4    1    3    3    0  502 -0.12790111017E+04 -0.23778609166E+01  0.87355478077E+03  0.15488623633E+04  0.12699999809E+01 0. -1.
</event>
<event>
 5   0  0.6706225E-06  0.2566767E+04  0.7818609E-02  0.8379578E-01
       -1   -1    0    0    0  501  0.00000000000E+00  0.00000000000E+00  0.11522522860E+04  0.11522522860E+04  0.50400001928E-02 0. -1.
        1   -1    0    0  501    0  0.00000000000E+00  0.00000000000E+00 -0.14294378916E+04  0.14294378916E+04  0.50400001928E-02 0.  1.
    10030    2    1    2    0    0  0.00000000000E+00  0.00000000000E+00 -0.27718560564E+03  0.25816901776E+04  0.25667668989E+04 0.  0.
        5    1    3    3  502    0 -0.42341574135E+03 -0.11430319239E+04 -0.54248458923E+03  0.13342093121E+04  0.46999998093E+01 0.  1.
       -5    1    3    3    0  502  0.42341574135E+03  0.11430319239E+04  0.26529898358E+03  0.12474808655E+04  0.46999998093E+01 0. -1.
</event>
<event>
 5   0  0.1677971E-05  0.2603492E+04  0.7818609E-02  0.8367016E-01
       -2   -1    0    0    0  501  0.00000000000E+00  0.00000000000E+00  0.90456592909E+03  0.90456592909E+03  0.25500000920E-02 0.  1.
        2   -1    0    0  501    0  0.00000000000E+00  0.00000000000E+00 -0.18733214828E+04  0.18733214828E+04  0.25500000920E-02 0. -1.
    10030    2    1    2    0    0  0.00000000000E+00  0.00000000000E+00 -0.96875555374E+03  0.27778874119E+04  0.26034921068E+04 0.  0.
        4    1    3    3  502    0  0.94532909400E+03 -0.29994722280E+03 -0.13840213763E+04  0.17026838272E+04  0.12699999809E+01 0. -1.
       -4    1    3    3    0  502 -0.94532909400E+03  0.29994722280E+03  0.41526582253E+03  0.10752035848E+04  0.12699999809E+01 0.  1.
</event>
<event>
 5   0  0.6918420E-06  0.2611447E+04  0.7818609E-02  0.8364323E-01
        1   -1    0    0  501    0  0.00000000000E+00  0.00000000000E+00  0.15355242409E+04  0.15355242409E+04  0.50400001928E-02 0.  1.
       -1   -1    0    0    0  501  0.00000000000E+00  0.00000000000E+00 -0.11103135980E+04  0.11103135980E+04  0.50400001928E-02 0. -1.
    10030    2    1    2    0    0  0.00000000000E+00  0.00000000000E+00  0.42521064295E+03  0.26458378389E+04  0.26114466831E+04 0.  0.
        4    1    3    3  502    0  0.27650537645E+03 -0.12328165209E+04  0.54652116646E+03  0.13765822880E+04  0.12699999809E+01 0. -1.
       -4    1    3    3    0  502 -0.27650537645E+03  0.12328165209E+04 -0.12131052351E+03  0.12692555509E+04  0.12699999809E+01 0.  1.
</event>
<event>
 5   0  0.6993678E-06  0.2600031E+04  0.7818609E-02  0.8368191E-01
       -1   -1    0    0    0  501  0.00000000000E+00  0.00000000000E+00  0.88397886867E+03  0.88397886869E+03  0.50400001928E-02 0. -1.
        1   -1    0    0  501    0  0.00000000000E+00  0.00000000000E+00 -0.19118553545E+04  0.19118553545E+04  0.50400001928E-02 0.  1.
    10030    2    1    2    0    0  0.00000000000E+00  0.00000000000E+00 -0.10278764859E+04  0.27958342232E+04  0.26000305640E+04 0.  0.
        1    1    3    3  502    0  0.57910801347E+03  0.29113718934E+03 -0.17257074444E+04  0.18434188721E+04  0.50400001928E-02 0.  1.
       -1    1    3    3    0  502 -0.57910801347E+03 -0.29113718934E+03  0.69783095856E+03  0.95241535112E+03  0.50400001928E-02 0. -1.
</event>
<event>
 5   0  0.1702345E-05  0.2590585E+04  0.7818609E-02  0.8371406E-01
       -2   -1    0    0    0  501  0.00000000000E+00  0.00000000000E+00  0.10591835945E+04  0.10591835945E+04  0.25500000920E-02 0. -1.
        2   -1    0    0  501    0  0.00000000000E+00  0.00000000000E+00 -0.15840339126E+04  0.15840339126E+04  0.25500000920E-02 0.  1.
    10030    2    1    2    0    0  0.00000000000E+00  0.00000000000E+00 -0.52485031801E+03  0.26432175071E+04  0.25905850562E+04 0.  0.
        1    1    3    3  502    0  0.37725976605E+03 -0.12251801282E+03 -0.15205412272E+04  0.15714264915E+04  0.50400001928E-02 0.  1.
       -1    1    3    3    0  502 -0.37725976605E+03  0.12251801282E+03  0.99569090917E+03  0.10717910156E+04  0.50400001928E-02 0. -1.
</event>
<event>
 5   0  0.6706225E-06  0.2581624E+04  0.7818609E-02  0.8374470E-01
        1   -1    0    0  501    0  0.00000000000E+00  0.00000000000E+00  0.26921973551E+04  0.26921973551E+04  0.50400001928E-02 0.  1.
       -1   -1    0    0    0  501  0.00000000000E+00  0.00000000000E+00 -0.61889791637E+03  0.61889791640E+03  0.50400001928E-02 0. -1.
    10030    2    1    2    0    0  0.00000000000E+00  0.00000000000E+00  0.20732994387E+04  0.33110952715E+04  0.25816237786E+04 0.  0.
        5    1    3    3  502    0 -0.39835500521E+03 -0.15654995171E+03  0.25985243589E+04  0.26335423921E+04  0.46999998093E+01 0.  1.
       -5    1    3    3    0  502  0.39835500521E+03  0.15654995171E+03 -0.52522492016E+03  0.67755287935E+03  0.46999998093E+01 0. -1.
</event>
<event>
 5   0  0.1677971E-05  0.2614655E+04  0.7818609E-02  0.8363240E-01
        2   -1    0    0  501    0  0.00000000000E+00  0.00000000000E+00  0.20798760071E+04  0.20798760071E+04  0.25500000920E-02 0. -1.
       -2   -1    0    0    0  501  0.00000000000E+00  0.00000000000E+00 -0.82173446455E+03  0.82173446455E+03  0.25500000920E-02 0.  1.
    10030    2    1    2    0    0  0.00000000000E+00  0.00000000000E+00  0.12581415426E+04  0.29016104717E+04  0.26146554626E+04 0.  0.
        4    1    3    3  502    0 -0.55745525435E+03  0.93825251127E+03  0.14278046702E+04  0.17971371468E+04  0.12699999809E+01 0. -1.
       -4    1    3    3    0  502  0.55745525435E+03 -0.93825251127E+03 -0.16966312759E+03  0.11044733248E+04  0.12699999809E+01 0.  1.
</event>
<event>
 5   0  0.1702345E-05  0.2586037E+04  0.7818609E-02  0.8372959E-01
        2   -1    0    0  501    0  0.00000000000E+00  0.00000000000E+00  0.10143331337E+04  0.10143331337E+04  0.25500000920E-02 0. -1.
       -2   -1    0    0    0  501  0.00000000000E+00  0.00000000000E+00 -0.16482725600E+04  0.16482725600E+04  0.25500000920E-02 0.  1.
    10030    2    1    2    0    0  0.00000000000E+00  0.00000000000E+00 -0.63393942637E+03  0.26626056937E+04  0.25860374869E+04 0.  0.
        1    1    3    3  502    0  0.97188914575E+03 -0.31257043828E+03  0.50001567933E+03  0.11367869062E+04  0.50400001928E-02 0. -1.
       -1    1    3    3    0  502 -0.97188914575E+03  0.31257043828E+03 -0.11339551057E+04  0.15258187875E+04  0.50400001928E-02 0.  1.
</event>
<event>
 5   0  0.1720129E-05  0.2609114E+04  0.7818609E-02  0.8365112E-01
       -2   -1    0    0    0  501  0.00000000000E+00  0.00000000000E+00  0.13628345577E+04  0.13628345577E+04  0.25500000920E-02 0.  1.
        2   -1    0    0  501    0  0.00000000000E+00  0.00000000000E+00 -0.12487717115E+04  0.12487717115E+04  0.25500000920E-02 0. -1.
    10030    2    1    2    0    0  0.00000000000E+00  0.00000000000E+00  0.11406284622E+03  0.26116062692E+04  0.26091142122E+04 0.  0.
        3    1    3    3  502    0 -0.79378529701E+03  0.26046865958E+03 -0.94588876648E+03  0.12620002334E+04  0.10100000352E+00 0. -1.
       -3    1    3    3    0  502  0.79378529701E+03 -0.26046865958E+03  0.10599516127E+04  0.13496060358E+04  0.10100000352E+00 0.  1.
</event>
<event>
 5   0  0.1681731E-05  0.2627288E+04  0.7818609E-02  0.8358991E-01
       -2   -1    0    0    0  501  0.00000000000E+00  0.00000000000E+00  0.26887868951E+04  0.26887868951E+04  0.25500000920E-02 0. -1.
        2   -1    0    0  501    0  0.00000000000E+00  0.00000000000E+00 -0.64179879532E+03  0.64179879532E+03  0.25500000920E-02 0.  1.
    10030    2    1    2    0    0  0.00000000000E+00  0.00000000000E+00  0.20469880998E+04  0.33305856904E+04  0.26272877194E+04 0.  0.
        2    1    3    3  502    0 -0.55220229231E+03  0.42858742364E+03 -0.38646285021E+03  0.79872904413E+03  0.25500000920E-02 0.  1.
       -2    1    3    3    0  502  0.55220229231E+03 -0.42858742364E+03  0.24334509500E+04  0.25318566463E+04  0.25500000920E-02 0. -1.
</event>
<event>
 5   0  0.1702345E-05  0.2625520E+04  0.7818609E-02  0.8359584E-01
       -2   -1    0    0    0  501  0.00000000000E+00  0.00000000000E+00  0.99499647299E+03  0.99499647299E+03  0.25500000920E-02 0.  1.
        2   -1    0    0  501    0  0.00000000000E+00  0.00000000000E+00 -0.17320047830E+04  0.17320047830E+04  0.25500000920E-02 0. -1.
    10030    2    1    2    0    0  0.00000000000E+00  0.00000000000E+00 -0.73700830997E+03  0.27270012559E+04  0.26255198725E+04 0.  0.
        1    1    3    3  502    0 -0.62679835398E+03  0.10821494723E+04 -0.78320470430E+03  0.14755789596E+04  0.50400001928E-02 0. -1.
       -1    1    3    3    0  502  0.62679835398E+03 -0.10821494723E+04  0.46196394338E+02  0.12514222964E+04  0.50400001928E-02 0.  1.
</event>
<event>
 5   0  0.1720129E-05  0.2437776E+04  0.7818609E-02  0.8425495E-01
        2   -1    0    0  501    0  0.00000000000E+00  0.00000000000E+00  0.88330819212E+03  0.88330819212E+03  0.25500000920E-02 0. -1.
       -2   -1    0    0    0  501  0.00000000000E+00  0.00000000000E+00 -0.16819589993E+04  0.16819589993E+04  0.25500000920E-02 0.  1.
    10030    2    1    2    0    0  0.00000000000E+00  0.00000000000E+00 -0.79865080716E+03  0.25652671914E+04  0.24377761693E+04 0.  0.
        3    1    3    3  502    0  0.57356046004E+03 -0.22413479746E+02  0.73218337203E+03  0.93035824599E+03  0.10100000352E+00 0. -1.
       -3    1    3    3    0  502 -0.57356046004E+03  0.22413479746E+02 -0.15308341792E+04  0.16349089454E+04  0.10100000352E+00 0.  1.
</event>
<event>
 5   0  0.1681731E-05  0.2611164E+04  0.7818609E-02  0.8364419E-01
       -2   -1    0    0    0  501  0.00000000000E+00  0.00000000000E+00  0.72470257298E+03  0.72470257298E+03  0.25500000920E-02 0.  1.
        2   -1    0    0  501    0  0.00000000000E+00  0.00000000000E+00 -0.23520600104E+04  0.23520600104E+04  0.25500000920E-02 0. -1.
    10030    2    1    2    0    0  0.00000000000E+00  0.00000000000E+00 -0.16273574374E+04  0.30767625834E+04  0.26111636803E+04 0.  0.
        2    1    3    3  502    0 -0.11309026676E+04  0.37158787427E+03 -0.18185182135E+03  0.12041961953E+04  0.25500000920E-02 0.  1.
       -2    1    3    3    0  502  0.11309026676E+04 -0.37158787427E+03 -0.14455056161E+04  0.18725663881E+04  0.25500000920E-02 0. -1.
</event>
<event>
 5   0  0.6984287E-06  0.2576686E+04  0.7818609E-02  0.8376164E-01
       -1   -1    0    0    0  501  0.00000000000E+00  0.00000000000E+00  0.91630460721E+03  0.91630460722E+03  0.50400001928E-02 0.  1.
        1   -1    0    0  501    0  0.00000000000E+00  0.00000000000E+00 -0.18114370780E+04  0.18114370780E+04  0.50400001928E-02 0. -1.
    10030    2    1    2    0    0  0.00000000000E+00  0.00000000000E+00 -0.89513247081E+03  0.27277416852E+04  0.25766863529E+04 0.  0.
        3    1    3    3  502    0 -0.49017666758E+03 -0.11258116320E+04 -0.86043379913E+03  0.14993569718E+04  0.10100000352E+00 0. -1.
       -3    1    3    3    0  502  0.49017666758E+03  0.11258116320E+04 -0.34698671679E+02  0.12283847134E+04  0.10100000352E+00 0.  1.
</event>
<event>
 5   0  0.6993678E-06  0.2601727E+04  0.7818609E-02  0.8367615E-01
        1   -1    0    0  501    0  0.00000000000E+00  0.00000000000E+00  0.22242527447E+04  0.22242527447E+04  0.50400001928E-02 0.  1.
       -1   -1    0    0    0  501  0.00000000000E+00  0.00000000000E+00 -0.76081565976E+03  0.76081565978E+03  0.50400001928E-02 0. -1.
    10030    2    1    2    0    0  0.00000000000E+00  0.00000000000E+00  0.14634370850E+04  0.29850684045E+04  0.26017273643E+04 0.  0.
        1    1    3    3  502    0 -0.12985319070E+04 -0.77330986844E+02  0.72138454670E+03  0.14874679356E+04  0.50400001928E-02 0.  1.
       -1    1    3    3    0  502  0.12985319070E+04  0.77330986844E+02  0.74205253826E+03  0.14976004690E+04  0.50400001928E-02 0. -1.
</event>
<event>
 5   0  0.1681731E-05  0.2577525E+04  0.7818609E-02  0.8375876E-01
       -2   -1    0    0    0  501  0.00000000000E+00  0.00000000000E+00  0.13159318147E+04  0.13159318147E+04  0.25500000920E-02 0. -1.
        2   -1    0    0  501    0  0.00000000000E+00  0.00000000000E+00 -0.12621545393E+04  0.12621545393E+04  0.25500000920E-02 0.  1.
    10030    2    1    2    0    0  0.00000000000E+00  0.00000000000E+00  0.53777275441E+02  0.25780863541E+04  0.25775254128E+04 0.  0.
        2    1    3    3  502    0 -0.85197037680E+03 -0.13841838674E+03  0.98412154199E+03  0.13090104591E+04  0.25500000920E-02 0. -1.
       -2    1    3    3    0  502  0.85197037680E+03  0.13841838674E+03 -0.93034426655E+03  0.12690758949E+04  0.25500000920E-02 0.  1.
</event>
<event>
 5   0  0.1869956E-05  0.2627632E+04  0.7818609E-02  0.8358875E-01
       -2   -1    0    0    0  501  0.00000000000E+00  0.00000000000E+00  0.20863956599E+04  0.20863956599E+04  0.25500000920E-02 0.  1.
        2   -1    0    0  501    0  0.00000000000E+00  0.00000000000E+00 -0.82731812300E+03  0.82731812301E+03  0.25500000920E-02 0. -1.
    10030    2    1    2    0    0  0.00000000000E+00  0.00000000000E+00  0.12590775369E+04  0.29137137829E+04  0.26276323496E+04 0.  0.
        5    1    3    3  502    0  0.93960611152E+03  0.84365759409E+03  0.22746967472E+03  0.12831143066E+04  0.46999998093E+01 0. -1.
       -5    1    3    3    0  502 -0.93960611152E+03 -0.84365759409E+03  0.10316078622E+04  0.16305994763E+04  0.46999998093E+01 0.  1.
</event>
<event>
 5   0  0.1869956E-05  0.2652565E+04  0.7818609E-02  0.8350562E-01
       -2   -1    0    0    0  501  0.00000000000E+00  0.00000000000E+00  0.21209503754E+04  0.21209503755E+04  0.25500000920E-02 0. -1.
        2   -1    0    0  501    0  0.00000000000E+00  0.00000000000E+00 -0.82935683728E+03  0.82935683728E+03  0.25500000920E-02 0.  1.
    10030    2    1    2    0    0  0.00000000000E+00  0.00000000000E+00  0.12915935382E+04  0.29503072127E+04  0.26525645669E+04 0.  0.
        5    1    3    3  502    0 -0.18133441084E+03  0.22848462663E+03  0.20848206629E+04  0.21051334113E+04  0.46999998093E+01 0. -1.
       -5    1    3    3    0  502  0.18133441084E+03 -0.22848462663E+03 -0.79322712472E+03  0.84517380139E+03  0.46999998093E+01 0.  1.
</event>
<event>
 5   0  0.6918420E-06  0.2602113E+04  0.7818609E-02  0.8367484E-01
       -1   -1    0    0    0  501  0.00000000000E+00  0.00000000000E+00  0.97846733149E+03  0.97846733151E+03  0.50400001928E-02 0. -1.
        1   -1    0    0  501    0  0.00000000000E+00  0.00000000000E+00 -0.17299998606E+04  0.17299998606E+04  0.50400001928E-02 0.  1.
    10030    2    1    2    0    0  0.00000000000E+00  0.00000000000E+00 -0.75153252914E+03  0.27084671921E+04  0.26021132544E+04 0.  0.
        4    1    3    3  502    0 -0.10987792679E+04 -0.59463627962E+03  0.21700231040E+01  0.12493656416E+04  0.12699999809E+01 0. -1.
       -4    1    3    3    0  502  0.10987792679E+04  0.59463627962E+03 -0.75370255224E+03  0.14591015505E+04  0.12699999809E+01 0.  1.
</event>
<event>
 5   0  0.6706225E-06  0.2612221E+04  0.7818609E-02  0.8364062E-01
        1   -1    0    0  501    0  0.00000000000E+00  0.00000000000E+00  0.16890788698E+04  0.16890788698E+04  0.50400001928E-02 0.  1.
       -1   -1    0    0    0  501  0.00000000000E+00  0.00000000000E+00 -0.10099731886E+04  0.10099731886E+04  0.50400001928E-02 0. -1.
    10030    2    1    2    0    0  0.00000000000E+00  0.00000000000E+00  0.67910568124E+03  0.26990520584E+04  0.26122207962E+04 0.  0.
        5    1    3    3  502    0  0.75000881319E+03 -0.76572721438E+03 -0.43161483416E+03  0.11554933326E+04  0.46999998093E+01 0. -1.
       -5    1    3    3    0  502 -0.75000881319E+03  0.76572721438E+03  0.11107205154E+04  0.15435587258E+04  0.46999998093E+01 0.  1.
</event>
<event>
 5   0  0.1702345E-05  0.2612295E+04  0.7818609E-02  0.8364037E-01
        2   -1    0    0  501    0  0.00000000000E+00  0.00000000000E+00  0.17500329849E+04  0.17500329849E+04  0.25500000920E-02 0. -1.
       -2   -1    0    0    0  501  0.00000000000E+00  0.00000000000E+00 -0.97485127554E+03  0.97485127555E+03  0.25500000920E-02 0.  1.
    10030    2    1    2    0    0  0.00000000000E+00  0.00000000000E+00  0.77518170934E+03  0.27248842604E+04  0.26122954562E+04 0.  0.
        1    1    3    3  502    0 -0.48624158446E+03 -0.11983409660E+04  0.19647309905E+03  0.13080724857E+04  0.50400001928E-02 0. -1.
       -1    1    3    3    0  502  0.48624158446E+03  0.11983409660E+04  0.57870861030E+03  0.14168117747E+04  0.50400001928E-02 0.  1.
</event>
<event>
 5   0  0.1677971E-05  0.2568303E+04  0.7818609E-02  0.8379048E-01
        2   -1    0    0  501    0  0.00000000000E+00  0.00000000000E+00  0.24344179773E+04  0.24344179773E+04  0.25500000920E-02 0. -1.
       -2   -1    0    0    0  501  0.00000000000E+00  0.00000000000E+00 -0.67738770802E+03  0.67738770802E+03  0.25500000920E-02 0.  1.
    10030    2    1    2    0    0  0.00000000000E+00  0.00000000000E+00  0.17570302693E+04  0.31118056854E+04  0.25683027968E+04 0.  0.
        4    1    3    3  502    0 -0.63928697747E+03  0.82186823728E+03  0.17891565654E+04  0.20700816572E+04  0.12699999809E+01 0. -1.
       -4    1    3    3    0  502  0.63928697747E+03 -0.82186823728E+03 -0.32126296101E+02  0.10417240281E+04  0.12699999809E+01 0.  1.
</event>
<event>
 5   0  0.1681731E-05  0.2619457E+04  0.7818609E-02  0.8361622E-01
       -2   -1    0    0    0  501  0.00000000000E+00  0.00000000000E+00  0.16670822743E+04  0.16670822743E+04  0.25500000920E-02 0. -1.
        2   -1    0    0  501    0  0.00000000000E+00  0.00000000000E+00 -0.10289764182E+04  0.10289764182E+04  0.25500000920E-02 0.  1.
    10030    2    1    2    0    0  0.00000000000E+00  0.00000000000E+00  0.63810585616E+03  0.26960586925E+04  0.26194566974E+04 0.  0.
        2    1    3    3  502    0 -0.20975775629E+03  0.88537410032E+03  0.12886760621E+04  0.15775207152E+04  0.25500000920E-02 0. -1.
       -2    1    3    3    0  502  0.20975775629E+03 -0.88537410032E+03 -0.65057020592E+03  0.11185379773E+04  0.25500000920E-02 0.  1.
</event>
<event>
 5   0  0.1681731E-05  0.2597423E+04  0.7818609E-02  0.8369077E-01
       -2   -1    0    0    0  501  0.00000000000E+00  0.00000000000E+00  0.24882977795E+04  0.24882977795E+04  0.25500000920E-02 0. -1.
        2   -1    0    0  501    0  0.00000000000E+00  0.00000000000E+00 -0.67783334071E+03  0.67783334072E+03  0.25500000920E-02 0.  1.
    10030    2    1    2    0    0  0.00000000000E+00  0.00000000000E+00  0.18104644388E+04  0.31661311202E+04  0.25974227200E+04 0.  0.
        2    1    3    3  502    0 -0.96267925964E+03 -0.67182645510E+03  0.22813914609E+03  0.11958886289E+04  0.25500000920E-02 0.  1.
       -2    1    3    3    0  502  0.96267925964E+03  0.67182645510E+03  0.15823252927E+04  0.19702424913E+04  0.25500000920E-02 0. -1.
</event>
<event>
 5   0  0.7138294E-06  0.2636828E+04  0.7818609E-02  0.8355798E-01
        1   -1    0    0  501    0  0.00000000000E+00  0.00000000000E+00  0.15423867659E+04  0.15423867659E+04  0.50400001928E-02 0.  1.
       -1   -1    0    0    0  501  0.00000000000E+00  0.00000000000E+00 -0.11269643095E+04  0.11269643095E+04  0.50400001928E-02 0. -1.
    10030    2    1    2    0    0  0.00000000000E+00  0.00000000000E+00  0.41542245637E+03  0.26693510754E+04  0.26368275155E+04 0.  0.
        2    1    3    3  502    0 -0.74045910212E+03 -0.45252625161E+03  0.12125035080E+04  0.14910481036E+04  0.25500000920E-02 0.  1.
       -2    1    3    3    0  502  0.74045910212E+03  0.45252625161E+03 -0.79708105167E+03  0.11783029718E+04  0.25500000920E-02 0. -1.
</event>
<event>
 5   0  0.6984287E-06  0.2582708E+04  0.7818609E-02  0.8374099E-01
        1   -1    0    0  501    0  0.00000000000E+00  0.00000000000E+00  0.15875009670E+04  0.15875009670E+04  0.50400001928E-02 0.  1.
       -1   -1    0    0    0  501  0.00000000000E+00  0.00000000000E+00 -0.10504530536E+04  0.10504530536E+04  0.50400001928E-02 0. -1.
    10030    2    1    2    0    0  0.00000000000E+00  0.00000000000E+00  0.53704791344E+03  0.26379540206E+04  0.25827080659E+04 0.  0.
        3    1    3    3  502    0 -0.90585181746E+03 -0.40041225160E+03 -0.57787420663E+03  0.11466630261E+04  0.10100000352E+00 0. -1.
       -3    1    3    3    0  502  0.90585181746E+03  0.40041225160E+03  0.11149221201E+04  0.14912909946E+04  0.10100000352E+00 0.  1.
</event>
<event>
 5   0  0.1869956E-05  0.2599228E+04  0.7818609E-02  0.8368464E-01
       -2   -1    0    0    0  501  0.00000000000E+00  0.00000000000E+00  0.12162759374E+04  0.12162759374E+04  0.25500000920E-02 0. -1.
        2   -1    0    0  501    0  0.00000000000E+00  0.00000000000E+00 -0.13886619836E+04  0.13886619836E+04  0.25500000920E-02 0.  1.
    10030    2    1    2    0    0  0.00000000000E+00  0.00000000000E+00 -0.17238604613E+03  0.26049379210E+04  0.25992276975E+04 0.  0.
        5    1    3    3  502    0  0.12178964670E+04  0.42500086061E+03 -0.24489662066E+03  0.13129714318E+04  0.46999998093E+01 0.  1.
       -5    1    3    3    0  502 -0.12178964670E+04 -0.42500086061E+03  0.72510574529E+02  0.12919664892E+04  0.46999998093E+01 0. -1.
</event>
<event>
 5   0  0.1702345E-05  0.2587006E+04  0.7818609E-02  0.8372629E-01
        2   -1    0    0  501    0  0.00000000000E+00  0.00000000000E+00  0.17818523383E+04  0.17818523383E+04  0.25500000920E-02 0. -1.
       -2   -1    0    0    0  501  0.00000000000E+00  0.00000000000E+00 -0.93899442716E+03  0.93899442716E+03  0.25500000920E-02 0.  1.
    10030    2    1    2    0    0  0.00000000000E+00  0.00000000000E+00  0.84285791115E+03  0.27208467655E+04  0.25870055398E+04 0.  0.
        1    1    3    3  502    0  0.62433794383E+03 -0.33037099202E+03 -0.71824067398E+03  0.10073790380E+04  0.50400001928E-02 0.  1.
       -1    1    3    3    0  502 -0.62433794383E+03  0.33037099202E+03  0.15610985851E+04  0.17134677274E+04  0.50400001928E-02 0. -1.
</event>
<event>
 5   0  0.6918420E-06  0.2499789E+04  0.7818609E-02  0.8403061E-01
       -1   -1    0    0    0  501  0.00000000000E+00  0.00000000000E+00  0.11199753828E+04  0.11199753828E+04  0.50400001928E-02 0.  1.
        1   -1    0    0  501    0  0.00000000000E+00  0.00000000000E+00 -0.13948840519E+04  0.13948840519E+04  0.50400001928E-02 0. -1.
    10030    2    1    2    0    0  0.00000000000E+00  0.00000000000E+00 -0.27490866913E+03  0.25148594348E+04  0.24997886311E+04 0.  0.
        4    1    3    3  502    0  0.36773917302E+03 -0.15914604173E+03  0.10536067432E+04  0.11272303865E+04  0.12699999809E+01 0.  1.
       -4    1    3    3    0  502 -0.36773917302E+03  0.15914604173E+03 -0.13285154123E+04  0.13876290483E+04  0.12699999809E+01 0. -1.
</event>
<event>
 5   0  0.6984287E-06  0.2557601E+04  0.7818609E-02  0.8382748E-01
       -1   -1    0    0    0  501  0.00000000000E+00  0.00000000000E+00  0.13818253340E+04  0.13818253340E+04  0.50400001928E-02 0.  1.
        1   -1    0    0  501    0  0.00000000000E+00  0.00000000000E+00 -0.11834566331E+04  0.11834566331E+04  0.50400001928E-02 0. -1.
    10030    2    1    2    0    0  0.00000000000E+00  0.00000000000E+00  0.19836870090E+03  0.25652819671E+04  0.25576007173E+04 0.  0.
        3    1    3    3  502    0  0.73993875540E+03  0.83876126143E+03  0.72096593578E+03  0.13307222498E+04  0.10100000352E+00 0.  1.
       -3    1    3    3    0  502 -0.73993875540E+03 -0.83876126143E+03 -0.52259723488E+03  0.12345597173E+04  0.10100000352E+00 0. -1.
</event>
<event>
 5   0  0.1869956E-05  0.2616678E+04  0.7818609E-02  0.8362558E-01
       -2   -1    0    0    0  501  0.00000000000E+00  0.00000000000E+00  0.10079281683E+04  0.10079281683E+04  0.25500000920E-02 0.  1.
        2   -1    0    0  501    0  0.00000000000E+00  0.00000000000E+00 -0.16982859902E+04  0.16982859902E+04  0.25500000920E-02 0. -1.
    10030    2    1    2    0    0  0.00000000000E+00  0.00000000000E+00 -0.69035782184E+03  0.27062141585E+04  0.26166775020E+04 0.  0.
        5    1    3    3  502    0 -0.95537588579E+03  0.80812854295E+03  0.49877859284E+02  0.12523277191E+04  0.46999998093E+01 0.  1.
       -5    1    3    3    0  502  0.95537588579E+03 -0.80812854295E+03 -0.74023568113E+03  0.14538864394E+04  0.46999998093E+01 0. -1.
</event>
<event>
 5   0  0.1869956E-05  0.2581116E+04  0.7818609E-02  0.8374644E-01
       -2   -1    0    0    0  501  0.00000000000E+00  0.00000000000E+00  0.12375898441E+04  0.12375898441E+04  0.25500000920E-02 0. -1.
        2   -1    0    0  501    0  0.00000000000E+00  0.00000000000E+00 -0.13457928504E+04  0.13457928504E+04  0.25500000920E-02 0.  1.
    10030    2    1    2    0    0  0.00000000000E+00  0.00000000000E+00 -0.10820300627E+03  0.25833826945E+04  0.25811156998E+04 0.  0.
        5    1    3    3  502    0  0.34842708366E+03  0.71782575455E+03 -0.10693109820E+04  0.13342126190E+04  0.46999998093E+01 0.  1.
       -5    1    3    3    0  502 -0.34842708366E+03 -0.71782575455E+03  0.96110797571E+03  0.12491700755E+04  0.46999998093E+01 0. -1.
</event>
<event>
 5   0  0.1681731E-05  0.2590737E+04  0.7818609E-02  0.8371355E-01
        2   -1    0    0  501    0  0.00000000000E+00  0.00000000000E+00  0.14017960278E+04  0.14017960278E+04  0.25500000920E-02 0. -1.
       -2   -1    0    0    0  501  0.00000000000E+00  0.00000000000E+00 -0.11970208599E+04  0.11970208599E+04  0.25500000920E-02 0.  1.
    10030    2    1    2    0    0  0.00000000000E+00  0.00000000000E+00  0.20477516791E+03  0.25988168877E+04  0.25907366417E+04 0.  0.
        2    1    3    3  502    0  0.14896466595E+03  0.99127037178E+03 -0.72064177285E+03  0.12345574051E+04  0.25500000920E-02 0.  1.
       -2    1    3    3    0  502 -0.14896466595E+03 -0.99127037178E+03  0.92541694076E+03  0.13642594826E+04  0.25500000920E-02 0. -1.
</event>
<event>
 5   0  0.1677971E-05  0.2610942E+04  0.7818609E-02  0.8364494E-01
       -2   -1    0    0    0  501  0.00000000000E+00  0.00000000000E+00  0.14537453479E+04  0.14537453479E+04  0.25500000920E-02 0.  1.
        2   -1    0    0  501    0  0.00000000000E+00  0.00000000000E+00 -0.11723201681E+04  0.11723201681E+04  0.25500000920E-02 0. -1.
    10030    2    1    2    0    0  0.00000000000E+00  0.00000000000E+00  0.28142517977E+03  0.26260655161E+04  0.26109423515E+04 0.  0.
        4    1    3    3  502    0  0.67600775385E+03  0.38033740015E+03  0.11968472796E+04  0.14262145858E+04  0.12699999809E+01 0.  1.
       -4    1    3    3    0  502 -0.67600775385E+03 -0.38033740015E+03 -0.91542209979E+03  0.11998509303E+04  0.12699999809E+01 0. -1.
</event>
<event>
 5   0  0.6993678E-06  0.2651392E+04  0.7818609E-02  0.8350951E-01
       -1   -1    0    0    0  501  0.00000000000E+00  0.00000000000E+00  0.16537512197E+04  0.16537512197E+04  0.50400001928E-02 0. -1.
        1   -1    0    0  501    0  0.00000000000E+00  0.00000000000E+00 -0.10627172007E+04  0.10627172007E+04  0.50400001928E-02 0.  1.
    10030    2    1    2    0    0  0.00000000000E+00  0.00000000000E+00  0.59103401899E+03  0.27164684204E+04  0.26513919868E+04 0.  0.
        1    1    3    3  502    0  0.44896214099E+03 -0.11065166466E+04 -0.29439611683E+03  0.12298842087E+04  0.50400001928E-02 0.  1.
       -1    1    3    3    0  502 -0.44896214099E+03  0.11065166466E+04  0.88543013582E+03  0.14865842117E+04  0.50400001928E-02 0. -1.
</event>
<event>
 5   0  0.6993678E-06  0.2600071E+04  0.7818609E-02  0.8368177E-01
        1   -1    0    0  501    0  0.00000000000E+00  0.00000000000E+00  0.12440089272E+04  0.12440089272E+04  0.50400001928E-02 0.  1.
       -1   -1    0    0    0  501  0.00000000000E+00  0.00000000000E+00 -0.13585855674E+04  0.13585855674E+04  0.50400001928E-02 0. -1.
    10030    2    1    2    0    0  0.00000000000E+00  0.00000000000E+00 -0.11457664023E+03  0.26025944946E+04  0.26000712099E+04 0.  0.
        1    1    3    3  502    0  0.39372622830E+03 -0.10176367089E+04  0.65014203248E+03  0.12701533280E+04  0.50400001928E-02 0.  1.
       -1    1    3    3    0  502 -0.39372622830E+03  0.10176367089E+04 -0.76471867271E+03  0.13324411666E+04  0.50400001928E-02 0. -1.
</event>
<event>
 5   0  0.6706225E-06  0.2452644E+04  0.7818609E-02  0.8420053E-01
       -1   -1    0    0    0  501  0.00000000000E+00  0.00000000000E+00  0.82800976677E+03  0.82800976679E+03  0.50400001928E-02 0.  1.
        1   -1    0    0  501    0  0.00000000000E+00  0.00000000000E+00 -0.18162416614E+04  0.18162416614E+04  0.50400001928E-02 0. -1.
    10030    2    1    2    0    0  0.00000000000E+00  0.00000000000E+00 -0.98823189467E+03  0.26442514282E+04  0.24526441524E+04 0.  0.
        5    1    3    3  502    0 -0.21108564789E+03  0.71788681997E+03  0.55334291234E+03  0.93066057490E+03  0.46999998093E+01 0.  1.
       -5    1    3    3    0  502  0.21108564789E+03 -0.71788681997E+03 -0.15415748070E+04  0.17135908533E+04  0.46999998093E+01 0. -1.
</event>
<event>
 5   0  0.1702345E-05  0.2612333E+04  0.7818609E-02  0.8364024E-01
       -2   -1    0    0    0  501  0.00000000000E+00  0.00000000000E+00  0.12079675412E+04  0.12079675412E+04  0.25500000920E-02 0.  1.
        2   -1    0    0  501    0  0.00000000000E+00  0.00000000000E+00 -0.14123483327E+04  0.14123483327E+04  0.25500000920E-02 0. -1.
    10030    2    1    2    0    0  0.00000000000E+00  0.00000000000E+00 -0.20438079148E+03  0.26203158739E+04  0.26123330130E+04 0.  0.
        1    1    3    3  502    0  0.81680455233E+03  0.17814435388E+02  0.92003320711E+03  0.12304259966E+04  0.50400001928E-02 0.  1.
       -1    1    3    3    0  502 -0.81680455233E+03 -0.17814435388E+02 -0.11244139986E+04  0.13898898773E+04  0.50400001928E-02 0. -1.
</event>
<event>
 5   0  0.1677971E-05  0.2593511E+04  0.7818609E-02  0.8370409E-01
       -2   -1    0    0    0  501  0.00000000000E+00  0.00000000000E+00  0.14595034824E+04  0.14595034824E+04  0.25500000920E-02 0. -1.
        2   -1    0    0  501    0  0.00000000000E+00  0.00000000000E+00 -0.11521557132E+04  0.11521557132E+04  0.25500000920E-02 0.  1.
    10030    2    1    2    0    0  0.00000000000E+00  0.00000000000E+00  0.30734776925E+03  0.26116591956E+04  0.25935113462E+04 0.  0.
        4    1    3    3  502    0 -0.45201948956E+03 -0.10236788248E+04 -0.50614667655E+03  0.12281799650E+04  0.12699999809E+01 0.  1.
       -4    1    3    3    0  502  0.45201948956E+03  0.10236788248E+04  0.81349444580E+03  0.13834792306E+04  0.12699999809E+01 0. -1.
</event>
<event>
 5   0  0.6918420E-06  0.2587847E+04  0.7818609E-02  0.8372341E-01
        1   -1    0    0  501    0  0.00000000000E+00  0.00000000000E+00  0.20994303542E+04  0.20994303542E+04  0.50400001928E-02 0. -1.
       -1   -1    0    0    0  501  0.00000000000E+00  0.00000000000E+00 -0.79747255518E+03  0.79747255520E+03  0.50400001928E-02 0.  1.
    10030    2    1    2    0    0  0.00000000000E+00  0.00000000000E+00  0.13019577990E+04  0.28969029094E+04  0.25878470503E+04 0.  0.
        4    1    3    3  502    0  0.81294306397E+03 -0.92046280244E+03  0.19474140232E+03  0.12434042073E+04  0.12699999809E+01 0.  1.
       -4    1    3    3    0  502 -0.81294306397E+03  0.92046280244E+03  0.11072163966E+04  0.16534987021E+04  0.12699999809E+01 0. -1.
</event>
<event>
 5   0  0.6706225E-06  0.2587710E+04  0.7818609E-02  0.8372388E-01
       -1   -1    0    0    0  501  0.00000000000E+00  0.00000000000E+00  0.10260824237E+04  0.10260824237E+04  0.50400001928E-02 0. -1.
        1   -1    0    0  501    0  0.00000000000E+00  0.00000000000E+00 -0.16315073722E+04  0.16315073722E+04  0.50400001928E-02 0.  1.
    10030    2    1    2    0    0  0.00000000000E+00  0.00000000000E+00 -0.60542494845E+03  0.26575897959E+04  0.25877102146E+04 0.  0.
        5    1    3    3  502    0  0.11921487196E+04 -0.34627440667E+03  0.71706930494E+02  0.12434984955E+04  0.46999998093E+01 0.  1.
       -5    1    3    3    0  502 -0.11921487196E+04  0.34627440667E+03 -0.67713187895E+03  0.14140913004E+04  0.46999998093E+01 0. -1.
</event>
<event>
 5   0  0.1702345E-05  0.2578804E+04  0.7818609E-02  0.8375437E-01
        2   -1    0    0  501    0  0.00000000000E+00  0.00000000000E+00  0.29670203495E+04  0.29670203495E+04  0.25500000920E-02 0. -1.
       -2   -1    0    0    0  501  0.00000000000E+00  0.00000000000E+00 -0.56034562614E+03  0.56034562614E+03  0.25500000920E-02 0.  1.
    10030    2    1    2    0    0  0.00000000000E+00  0.00000000000E+00  0.24066747234E+04  0.35273659757E+04  0.25788035020E+04 0.  0.
        1    1    3    3  502    0 -0.10833990873E+04  0.21191642880E+03  0.29201451102E+03  0.11418995708E+04  0.50400001928E-02 0.  1.
       -1    1    3    3    0  502  0.10833990873E+04 -0.21191642880E+03  0.21146602124E+04  0.23854664049E+04  0.50400001928E-02 0. -1.
</event>
<event>
 5   0  0.6984287E-06  0.2575153E+04  0.7818609E-02  0.8376691E-01
       -1   -1    0    0    0  501  0.00000000000E+00  0.00000000000E+00  0.81417531040E+03  0.81417531041E+03  0.50400001928E-02 0. -1.
        1   -1    0    0  501    0  0.00000000000E+00  0.00000000000E+00 -0.20362356528E+04  0.20362356528E+04  0.50400001928E-02 0.  1.
    10030    2    1    2    0    0  0.00000000000E+00  0.00000000000E+00 -0.12220603424E+04  0.28504109632E+04  0.25751526515E+04 0.  0.
        3    1    3    3  502    0 -0.89067421431E+03 -0.55487617961E+03  0.21482011610E+03  0.10711376304E+04  0.10100000352E+00 0. -1.
       -3    1    3    3    0  502  0.89067421431E+03  0.55487617961E+03 -0.14368804585E+04  0.17792733328E+04  0.10100000352E+00 0.  1.
</event>
<event>
 5   0  0.1681731E-05  0.2635988E+04  0.7818609E-02  0.8356079E-01
       -2   -1    0    0    0  501  0.00000000000E+00  0.00000000000E+00  0.16802572775E+04  0.16802572775E+04  0.25500000920E-02 0. -1.
        2   -1    0    0  501    0  0.00000000000E+00  0.00000000000E+00 -0.10338345907E+04  0.10338345907E+04  0.25500000920E-02 0.  1.
    10030    2    1    2    0    0  0.00000000000E+00  0.00000000000E+00  0.64642268680E+03  0.27140918682E+04  0.26359879323E+04 0.  0.
        2    1    3    3  502    0  0.26996223137E+03  0.10532071088E+04 -0.44383406334E+03  0.11743566307E+04  0.25500000920E-02 0. -1.
       -2    1    3    3    0  502 -0.26996223137E+03 -0.10532071088E+04  0.10902567501E+04  0.15397352375E+04  0.25500000920E-02 0.  1.
</event>
<event>
 5   0  0.1681731E-05  0.2545749E+04  0.7818609E-02  0.8386866E-01
       -2   -1    0    0    0  501  0.00000000000E+00  0.00000000000E+00  0.80571602100E+03  0.80571602100E+03  0.25500000920E-02 0. -1.
        2   -1    0    0  501    0  0.00000000000E+00  0.00000000000E+00 -0.20108937218E+04  0.20108937218E+04  0.25500000920E-02 0.  1.
    10030    2    1    2    0    0  0.00000000000E+00  0.00000000000E+00 -0.12051777008E+04  0.28166097428E+04  0.25457488393E+04 0.  0.
        2    1    3    3  502    0  0.46347367646E+03 -0.10857454821E+04 -0.11292132824E+04  0.16336381906E+04  0.25500000920E-02 0.  1.
       -2    1    3    3    0  502 -0.46347367646E+03  0.10857454821E+04 -0.75964418427E+02  0.11829715523E+04  0.25500000920E-02 0. -1.
</event>
<event>
 5   0  0.1677971E-05  0.2602224E+04  0.7818609E-02  0.8367446E-01
       -2   -1    0    0    0  501  0.00000000000E+00  0.00000000000E+00  0.10405413684E+04  0.10405413684E+04  0.25500000920E-02 0.  1.
        2   -1    0    0  501    0  0.00000000000E+00  0.00000000000E+00 -0.16269349009E+04  0.16269349009E+04  0.25500000920E-02 0. -1.
    10030    2    1    2    0    0  0.00000000000E+00  0.00000000000E+00 -0.58639353249E+03  0.26674762694E+04  0.26022244855E+04 0.  0.
        4    1    3    3  502    0 -0.62945881065E+03 -0.10218912569E+04 -0.80820031242E+03  0.14469517937E+04  0.12699999809E+01 0.  1.
       -4    1    3    3    0  502  0.62945881065E+03  0.10218912569E+04  0.22180677993E+03  0.12205244757E+04  0.12699999809E+01 0. -1.
</event>
<event>
 5   0  0.1720129E-05  0.2606615E+04  0.7818609E-02  0.8365958E-01
       -2   -1    0    0    0  501  0.00000000000E+00  0.00000000000E+00  0.12273090887E+04  0.12273090888E+04  0.25500000920E-02 0. -1.
        2   -1    0    0  501    0  0.00000000000E+00  0.00000000000E+00 -0.13840122965E+04  0.13840122965E+04  0.25500000920E-02 0.  1.
    10030    2    1    2    0    0  0.00000000000E+00  0.00000000000E+00 -0.15670320780E+03  0.26113213853E+04  0.26066153307E+04 0.  0.
        3    1    3    3  502    0 -0.97654164383E+03 -0.14010544309E+03  0.77485952626E+03  0.12544602078E+04  0.10100000352E+00 0. -1.
       -3    1    3    3    0  502  0.97654164383E+03  0.14010544309E+03 -0.93156273405E+03  0.13568611775E+04  0.10100000352E+00 0.  1.
</event>
<event>
 5   0  0.1702345E-05  0.2602864E+04  0.7818609E-02  0.8367229E-01
       -2   -1    0    0    0  501  0.00000000000E+00  0.00000000000E+00  0.10063681863E+04  0.10063681863E+04  0.25500000920E-02 0.  1.
        2   -1    0    0  501    0  0.00000000000E+00  0.00000000000E+00 -0.16830078872E+04  0.16830078872E+04  0.25500000920E-02 0. -1.
    10030    2    1    2    0    0  0.00000000000E+00  0.00000000000E+00 -0.67663970095E+03  0.26893760735E+04  0.26028642645E+04 0.  0.
        1    1    3    3  502    0 -0.35788302162E+03 -0.13542458215E+03 -0.16235711550E+04  0.16680537671E+04  0.50400001928E-02 0. -1.
       -1    1    3    3    0  502  0.35788302162E+03  0.13542458215E+03  0.94693145409E+03  0.10213223063E+04  0.50400001928E-02 0.  1.
</event>
<event>
 5   0  0.1869956E-05  0.2598556E+04  0.7818609E-02  0.8368692E-01
        2   -1    0    0  501    0  0.00000000000E+00  0.00000000000E+00  0.19907441084E+04  0.19907441084E+04  0.25500000920E-02 0.  1.
       -2   -1    0    0    0  501  0.00000000000E+00  0.00000000000E+00 -0.84798593250E+03  0.84798593250E+03  0.25500000920E-02 0. -1.
    10030    2    1    2    0    0  0.00000000000E+00  0.00000000000E+00  0.11427581759E+04  0.28387300409E+04  0.25985557520E+04 0.  0.
        5    1    3    3  502    0 -0.86093918566E+03  0.48727891817E+03  0.14915130888E+04  0.17897738431E+04  0.46999998093E+01 0.  1.
       -5    1    3    3    0  502  0.86093918566E+03 -0.48727891817E+03 -0.34875491292E+03  0.10489561977E+04  0.46999998093E+01 0. -1.
</event>
<event>
 5   0  0.6918420E-06  0.2599676E+04  0.7818609E-02  0.8368311E-01
        1   -1    0    0  501    0  0.00000000000E+00  0.00000000000E+00  0.10937789066E+04  0.10937789066E+04  0.50400001928E-02 0.  1.
       -1   -1    0    0    0  501  0.00000000000E+00  0.00000000000E+00 -0.15447170034E+04  0.15447170034E+04  0.50400001928E-02 0. -1.
    10030    2    1    2    0    0  0.00000000000E+00  0.00000000000E+00 -0.45093809682E+03  0.26384959100E+04  0.25996760375E+04 0.  0.
        4    1    3    3  502    0 -0.52793451438E+03  0.71449269157E+03  0.73757448309E+03  0.11546568273E+04  0.12699999809E+01 0.  1.
       -4    1    3    3    0  502  0.52793451438E+03 -0.71449269157E+03 -0.11885125799E+04  0.14838390827E+04  0.12699999809E+01 0. -1.
</event>
<event>
 5   0  0.6706225E-06  0.2589750E+04  0.7818609E-02  0.8371691E-01
        1   -1    0    0  501    0  0.00000000000E+00  0.00000000000E+00  0.15798413935E+04  0.15798413935E+04  0.50400001928E-02 0. -1.
       -1   -1    0    0    0  501  0.00000000000E+00  0.00000000000E+00 -0.10613097665E+04  0.10613097665E+04  0.50400001928E-02 0.  1.
    10030    2    1    2    0    0  0.00000000000E+00  0.00000000000E+00  0.51853162704E+03  0.26411511600E+04  0.25897498725E+04 0.  0.
        5    1    3    3  502    0  0.59127465989E+03 -0.99902628848E+03  0.84425310219E+03  0.14354248984E+04  0.46999998093E+01 0. -1.
       -5    1    3    3    0  502 -0.59127465989E+03  0.99902628848E+03 -0.32572147515E+03  0.12057262616E+04  0.46999998093E+01 0.  1.
</event>
<event>
 5   0  0.1677971E-05  0.2597629E+04  0.7818609E-02  0.8369007E-01
        2   -1    0    0  501    0  0.00000000000E+00  0.00000000000E+00  0.24393348639E+04  0.24393348639E+04  0.25500000920E-02 0.  1.
       -2   -1    0    0    0  501  0.00000000000E+00  0.00000000000E+00 -0.69154863267E+03  0.69154863268E+03  0.25500000920E-02 0. -1.
    10030    2    1    2    0    0  0.00000000000E+00  0.00000000000E+00  0.17477862312E+04  0.31308834966E+04  0.25976286800E+04 0.  0.
        4    1    3    3  502    0  0.90686045826E+03  0.12415250954E+03 -0.23674131905E+03  0.94544053299E+03  0.12699999809E+01 0. -1.
       -4    1    3    3    0  502 -0.90686045826E+03 -0.12415250954E+03  0.19845275503E+04  0.21854429636E+04  0.12699999809E+01 0.  1.
</event>
<event>
 5   0  0.1681731E-05  0.2614750E+04  0.7818609E-02  0.8363208E-01
       -2   -1    0    0    0  501  0.00000000000E+00  0.00000000000E+00  0.18259037857E+04  0.18259037857E+04  0.25500000920E-02 0. -1.
        2   -1    0    0  501    0  0.00000000000E+00  0.00000000000E+00 -0.93610050564E+03  0.93610050564E+03  0.25500000920E-02 0.  1.
    10030    2    1    2    0    0  0.00000000000E+00  0.00000000000E+00  0.88980328009E+03  0.27620042914E+04  0.26147500508E+04 0.  0.
        2    1    3    3  502    0  0.13042623522E+04  0.86077704267E+02  0.47324170686E+03  0.13901321403E+04  0.25500000920E-02 0. -1.
       -2    1    3    3    0  502 -0.13042623522E+04 -0.86077704267E+02  0.41656157323E+03  0.13718721510E+04  0.25500000920E-02 0.  1.
</event>
<event>
 5   0  0.6706225E-06  0.2396722E+04  0.7818609E-02  0.8440732E-01
        1   -1    0    0  501    0  0.00000000000E+00  0.00000000000E+00  0.67323712904E+03  0.67323712906E+03  0.50400001928E-02 0. -1.
       -1   -1    0    0    0  501  0.00000000000E+00  0.00000000000E+00 -0.21330798855E+04  0.21330798855E+04  0.50400001928E-02 0.  1.
    10030    2    1    2    0    0  0.00000000000E+00  0.00000000000E+00 -0.14598427565E+04  0.28063170146E+04  0.23967215760E+04 0.  0.
        5    1    3    3  502    0  0.10213135442E+04  0.62394239680E+03 -0.65907460484E+03  0.13663041005E+04  0.46999998093E+01 0. -1.
       -5    1    3    3    0  502 -0.10213135442E+04 -0.62394239680E+03 -0.80076815162E+03  0.14400129141E+04  0.46999998093E+01 0.  1.
</event>
<event>
 5   0  0.6918420E-06  0.2552983E+04  0.7818609E-02  0.8384349E-01
        1   -1    0    0  501    0  0.00000000000E+00  0.00000000000E+00  0.13313879901E+04  0.13313879901E+04  0.50400001928E-02 0.  1.
       -1   -1    0    0    0  501  0.00000000000E+00  0.00000000000E+00 -0.12238589939E+04  0.12238589939E+04  0.50400001928E-02 0. -1.
    10030    2    1    2    0    0  0.00000000000E+00  0.00000000000E+00  0.10752899625E+03  0.25552469840E+04  0.25529834830E+04 0.  0.
        4    1    3    3  502    0  0.16538600202E+03 -0.30353848517E+03  0.12836506950E+04  0.13293791262E+04  0.12699999809E+01 0.  1.
       -4    1    3    3    0  502 -0.16538600202E+03  0.30353848517E+03 -0.11761216987E+04  0.12258678578E+04  0.12699999809E+01 0. -1.
</event>
<event>
 5   0  0.1869956E-05  0.2613474E+04  0.7818609E-02  0.8363639E-01
        2   -1    0    0  501    0  0.00000000000E+00  0.00000000000E+00  0.18421794935E+04  0.18421794935E+04  0.25500000920E-02 0.  1.
       -2   -1    0    0    0  501  0.00000000000E+00  0.00000000000E+00 -0.92692432629E+03  0.92692432630E+03  0.25500000920E-02 0. -1.
    10030    2    1    2    0    0  0.00000000000E+00  0.00000000000E+00  0.91525516719E+03  0.27691038198E+04  0.26134735399E+04 0.  0.
        5    1    3    3  502    0 -0.23335353019E+03  0.12847422267E+04  0.51084224133E+03  0.14021406294E+04  0.46999998093E+01 0.  1.
       -5    1    3    3    0  502  0.23335353019E+03 -0.12847422267E+04  0.40441292586E+03  0.13669631904E+04  0.46999998093E+01 0. -1.
</event>
<event>
 5   0  0.7138294E-06  0.2588938E+04  0.7818609E-02  0.8371968E-01
       -1   -1    0    0    0  501  0.00000000000E+00  0.00000000000E+00  0.10396380195E+04  0.10396380195E+04  0.50400001928E-02 0.  1.
        1   -1    0    0  501    0  0.00000000000E+00  0.00000000000E+00 -0.16117631555E+04  0.16117631555E+04  0.50400001928E-02 0. -1.
    10030    2    1    2    0    0  0.00000000000E+00  0.00000000000E+00 -0.57212513600E+03  0.26514011750E+04  0.25889382031E+04 0.  0.
        2    1    3    3  502    0 -0.23965705261E+01  0.30732435930E+03 -0.15738573115E+04  0.16035837497E+04  0.25500000920E-02 0. -1.
       -2    1    3    3    0  502  0.23965705261E+01 -0.30732435930E+03  0.10017321755E+04  0.10478174253E+04  0.25500000920E-02 0.  1.
</event>
<event>
 5   0  0.6984287E-06  0.2568593E+04  0.7818609E-02  0.8378948E-01
        1   -1    0    0  501    0  0.00000000000E+00  0.00000000000E+00  0.13259143782E+04  0.13259143782E+04  0.50400001928E-02 0. -1.
       -1   -1    0    0    0  501  0.00000000000E+00  0.00000000000E+00 -0.12439849819E+04  0.12439849819E+04  0.50400001928E-02 0.  1.
    10030    2    1    2    0    0  0.00000000000E+00  0.00000000000E+00  0.81929396297E+02  0.25698993601E+04  0.25685930575E+04 0.  0.
        3    1    3    3  502    0  0.62735564489E+03 -0.11440552905E+03  0.11563203378E+04  0.13205076539E+04  0.10100000352E+00 0. -1.
       -3    1    3    3    0  502 -0.62735564489E+03  0.11440552905E+03 -0.10743909415E+04  0.12493917062E+04  0.10100000352E+00 0.  1.
</event>
<event>
 5   0  0.6993678E-06  0.2594054E+04  0.7818609E-02  0.8370224E-01
       -1   -1    0    0    0  501  0.00000000000E+00  0.00000000000E+00  0.12841092661E+04  0.12841092661E+04  0.50400001928E-02 0. -1.
        1   -1    0    0  501    0  0.00000000000E+00  0.00000000000E+00 -0.13100747621E+04  0.13100747621E+04  0.50400001928E-02 0.  1.
    10030    2    1    2    0    0  0.00000000000E+00  0.00000000000E+00 -0.25965496005E+02  0.25941840282E+04  0.25940540791E+04 0.  0.
        1    1    3    3  502    0  0.53414978839E+03 -0.53310770835E+03 -0.10679096679E+04  0.13076509029E+04  0.50400001928E-02 0.  1.
       -1    1    3    3    0  502 -0.53414978839E+03  0.53310770835E+03  0.10419441719E+04  0.12865331253E+04  0.50400001928E-02 0. -1.
</event>
<event>
 5   0  0.1702345E-05  0.2570002E+04  0.7818609E-02  0.8378463E-01
       -2   -1    0    0    0  501  0.00000000000E+00  0.00000000000E+00  0.88973836203E+03  0.88973836203E+03  0.25500000920E-02 0.  1.
        2   -1    0    0  501    0  0.00000000000E+00  0.00000000000E+00 -0.18558568468E+04  0.18558568468E+04  0.25500000920E-02 0. -1.
    10030    2    1    2    0    0  0.00000000000E+00  0.00000000000E+00 -0.96611848473E+03  0.27455952088E+04  0.25700015805E+04 0.  0.
        1    1    3    3  502    0  0.34573187432E+02  0.12475229024E+04 -0.15600830581E+03  0.12577151064E+04  0.50400001928E-02 0.  1.
       -1    1    3    3    0  502 -0.34573187432E+02 -0.12475229024E+04 -0.81011017892E+03  0.14878801024E+04  0.50400001928E-02 0. -1.
</event>
<event>
 5   0  0.1720129E-05  0.2583971E+04  0.7818609E-02  0.8373666E-01
       -2   -1    0    0    0  501  0.00000000000E+00  0.00000000000E+00  0.12878536913E+04  0.12878536913E+04  0.25500000920E-02 0.  1.
        2   -1    0    0  501    0  0.00000000000E+00  0.00000000000E+00 -0.12961301148E+04  0.12961301148E+04  0.25500000920E-02 0. -1.
    10030    2    1    2    0    0  0.00000000000E+00  0.00000000000E+00 -0.82764234733E+01  0.25839838062E+04  0.25839705516E+04 0.  0.
        3    1    3    3  502    0 -0.34653973339E+03  0.63635547145E+03 -0.10738108758E+04  0.12954180329E+04  0.10100000352E+00 0. -1.
       -3    1    3    3    0  502  0.34653973339E+03 -0.63635547145E+03  0.10655344523E+04  0.12885657733E+04  0.10100000352E+00 0.  1.
</event>
<event>
 5   0  0.1869956E-05  0.2262870E+04  0.7818609E-02  0.8492707E-01
       -2   -1    0    0    0  501  0.00000000000E+00  0.00000000000E+00  0.61430734444E+03  0.61430734445E+03  0.25500000920E-02 0. -1.
        2   -1    0    0  501    0  0.00000000000E+00  0.00000000000E+00 -0.20838831339E+04  0.20838831339E+04  0.25500000920E-02 0.  1.
    10030    2    1    2    0    0  0.00000000000E+00  0.00000000000E+00 -0.14695757894E+04  0.26981904783E+04  0.22628696066E+04 0.  0.
        5    1    3    3  502    0  0.56835988623E+02 -0.53987054819E+03  0.44887061698E+03  0.70441284713E+03  0.46999998093E+01 0. -1.
       -5    1    3    3    0  502 -0.56835988623E+02  0.53987054819E+03 -0.19184464064E+04  0.19937776312E+04  0.46999998093E+01 0.  1.
</event>
<event>
 5   0  0.1677971E-05  0.2600438E+04  0.7818609E-02  0.8368052E-01
       -2   -1    0    0    0  501  0.00000000000E+00  0.00000000000E+00  0.91942295532E+03  0.91942295532E+03  0.25500000920E-02 0.  1.
        2   -1    0    0  501    0  0.00000000000E+00  0.00000000000E+00 -0.18387287642E+04  0.18387287642E+04  0.25500000920E-02 0. -1.
    10030    2    1    2    0    0  0.00000000000E+00  0.00000000000E+00 -0.91930580892E+03  0.27581517196E+04  0.26004379896E+04 0.  0.
        4    1    3    3  502    0  0.92270754443E+03  0.22604077679E+03 -0.14012344842E+04  0.16929097253E+04  0.12699999809E+01 0. -1.
       -4    1    3    3    0  502 -0.92270754443E+03 -0.22604077679E+03  0.48192867532E+03  0.10652419942E+04  0.12699999809E+01 0.  1.
</event>
<event>
 5   0  0.1702345E-05  0.2557814E+04  0.7818609E-02  0.8382674E-01
       -2   -1    0    0    0  501  0.00000000000E+00  0.00000000000E+00  0.11581928655E+04  0.11581928655E+04  0.25500000920E-02 0.  1.
        2   -1    0    0  501    0  0.00000000000E+00  0.00000000000E+00 -0.14122026361E+04  0.14122026361E+04  0.25500000920E-02 0. -1.
    10030    2    1    2    0    0  0.00000000000E+00  0.00000000000E+00 -0.25400977054E+03  0.25703955016E+04  0.25578139243E+04 0.  0.
        1    1    3    3  502    0  0.40279883891E+03  0.93996610158E+03 -0.89877986340E+03  0.13614655411E+04  0.50400001928E-02 0. -1.
       -1    1    3    3    0  502 -0.40279883891E+03 -0.93996610158E+03  0.64477009286E+03  0.12089299605E+04  0.50400001928E-02 0.  1.
</event>
<event>
 5   0  0.7138294E-06  0.2605024E+04  0.7818609E-02  0.8366497E-01
       -1   -1    0    0    0  501  0.00000000000E+00  0.00000000000E+00  0.69889597984E+03  0.69889597986E+03  0.50400001928E-02 0. -1.
        1   -1    0    0  501    0  0.00000000000E+00  0.00000000000E+00 -0.24274534927E+04  0.24274534927E+04  0.50400001928E-02 0.  1.
    10030    2    1    2    0    0  0.00000000000E+00  0.00000000000E+00 -0.17285575129E+04  0.31263494726E+04  0.26050239825E+04 0.  0.
        2    1    3    3  502    0 -0.12419161791E+04 -0.85009428977E+02 -0.13243426085E+04  0.18175438767E+04  0.25500000920E-02 0.  1.
       -2    1    3    3    0  502  0.12419161791E+04  0.85009428977E+02 -0.40421490436E+03  0.13088055959E+04  0.25500000920E-02 0. -1.
</event>
<event>
 5   0  0.6984287E-06  0.2624413E+04  0.7818609E-02  0.8359956E-01
        1   -1    0    0  501    0  0.00000000000E+00  0.00000000000E+00  0.16089736172E+04  0.16089736172E+04  0.50400001928E-02 0.  1.
       -1   -1    0    0    0  501  0.00000000000E+00  0.00000000000E+00 -0.10701767868E+04  0.10701767868E+04  0.50400001928E-02 0. -1.
    10030    2    1    2    0    0  0.00000000000E+00  0.00000000000E+00  0.53879683041E+03  0.26791504040E+04  0.26244132417E+04 0.  0.
        3    1    3    3  502    0  0.10163731545E+03 -0.93143457156E+03  0.12072463339E+04  0.15281833090E+04  0.10100000352E+00 0.  1.
       -3    1    3    3    0  502 -0.10163731545E+03  0.93143457156E+03 -0.66844950348E+03  0.11509670950E+04  0.10100000352E+00 0. -1.
</event>
<event>
 5   0  0.1720129E-05  0.2551659E+04  0.7818609E-02  0.8384809E-01
        2   -1    0    0  501    0  0.00000000000E+00  0.00000000000E+00  0.12413819962E+04  0.12413819962E+04  0.25500000920E-02 0.  1.
       -2   -1    0    0    0  501  0.00000000000E+00  0.00000000000E+00 -0.13112333297E+04  0.13112333297E+04  0.25500000920E-02 0. -1.
    10030    2    1    2    0    0  0.00000000000E+00  0.00000000000E+00 -0.69851333505E+02  0.25526153259E+04  0.25516594196E+04 0.  0.
        3    1    3    3  502    0  0.36047564775E+03 -0.84880744206E+03 -0.91691613492E+03  0.13004429918E+04  0.10100000352E+00 0. -1.
       -3    1    3    3    0  502 -0.36047564775E+03  0.84880744206E+03  0.84706480142E+03  0.12521723341E+04  0.10100000352E+00 0.  1.
</event>
<event>
 5   0  0.1720129E-05  0.2637502E+04  0.7818609E-02  0.8355573E-01
        2   -1    0    0  501    0  0.00000000000E+00  0.00000000000E+00  0.15955796147E+04  0.15955796147E+04  0.25500000920E-02 0.  1.
       -2   -1    0    0    0  501  0.00000000000E+00  0.00000000000E+00 -0.10899514220E+04  0.10899514220E+04  0.25500000920E-02 0. -1.
    10030    2    1    2    0    0  0.00000000000E+00  0.00000000000E+00  0.50562819266E+03  0.26855310368E+04  0.26375020531E+04 0.  0.
        3    1    3    3  502    0  0.76355247049E+03 -0.86744488003E+03  0.89970310027E+03  0.14645609151E+04  0.10100000352E+00 0.  1.
       -3    1    3    3    0  502 -0.76355247049E+03  0.86744488003E+03 -0.39407490761E+03  0.12209701217E+04  0.10100000352E+00 0. -1.
</event>
<event>
 5   0  0.6918420E-06  0.2624560E+04  0.7818609E-02  0.8359906E-01
        1   -1    0    0  501    0  0.00000000000E+00  0.00000000000E+00  0.12999190967E+04  0.12999190968E+04  0.50400001928E-02 0.  1.
       -1   -1    0    0    0  501  0.00000000000E+00  0.00000000000E+00 -0.13247586462E+04  0.13247586462E+04  0.50400001928E-02 0. -1.
    10030    2    1    2    0    0  0.00000000000E+00  0.00000000000E+00 -0.24839549464E+02  0.26246777430E+04  0.26245602015E+04 0.  0.
        4    1    3    3  502    0  0.27100150034E+03 -0.60911420726E+03 -0.11427869533E+04  0.13230364939E+04  0.12699999809E+01 0. -1.
       -4    1    3    3    0  502 -0.27100150034E+03  0.60911420726E+03  0.11179474038E+04  0.13016412491E+04  0.12699999809E+01 0.  1.
</event>
<event>
 5   0  0.6993678E-06  0.2598111E+04  0.7818609E-02  0.8368843E-01
       -1   -1    0    0    0  501  0.00000000000E+00  0.00000000000E+00  0.95285432036E+03  0.95285432037E+03  0.50400001928E-02 0. -1.
        1   -1    0    0  501    0  0.00000000000E+00  0.00000000000E+00 -0.17710423141E+04  0.17710423141E+04  0.50400001928E-02 0.  1.
    10030    2    1    2    0    0  0.00000000000E+00  0.00000000000E+00 -0.81818799372E+03  0.27238966345E+04  0.25981110989E+04 0.  0.
        1    1    3    3  502    0 -0.18864552606E+03  0.11680018469E+04  0.15328019350E+03  0.11930256772E+04  0.50400001928E-02 0. -1.
       -1    1    3    3    0  502  0.18864552606E+03 -0.11680018469E+04 -0.97146818721E+03  0.15308709572E+04  0.50400001928E-02 0.  1.
</event>
<event>
 5   0  0.1869956E-05  0.2615732E+04  0.7818609E-02  0.8362877E-01
       -2   -1    0    0    0  501  0.00000000000E+00  0.00000000000E+00  0.14896577160E+04  0.14896577160E+04  0.25500000920E-02 0.  1.
        2   -1    0    0  501    0  0.00000000000E+00  0.00000000000E+00 -0.11482594803E+04  0.11482594803E+04  0.25500000920E-02 0. -1.
    10030    2    1    2    0    0  0.00000000000E+00  0.00000000000E+00  0.34139823567E+03  0.26379171963E+04  0.26157320924E+04 0.  0.
        5    1    3    3  502    0  0.10930057371E+04 -0.24173769887E+02  0.89459322428E+03  0.14126446968E+04  0.46999998093E+01 0. -1.
       -5    1    3    3    0  502 -0.10930057371E+04  0.24173769887E+02 -0.55319498861E+03  0.12252724995E+04  0.46999998093E+01 0.  1.
</event>
<event>
 5   0  0.6918420E-06  0.2595194E+04  0.7818609E-02  0.8369836E-01
        1   -1    0    0  501    0  0.00000000000E+00  0.00000000000E+00  0.21430172693E+04  0.21430172693E+04  0.50400001928E-02 0. -1.
       -1   -1    0    0    0  501  0.00000000000E+00  0.00000000000E+00 -0.78569491454E+03  0.78569491456E+03  0.50400001928E-02 0.  1.
    10030    2    1    2    0    0  0.00000000000E+00  0.00000000000E+00  0.13573223548E+04  0.29287121839E+04  0.25951938427E+04 0.  0.
        4    1    3    3  502    0  0.42054454715E+03 -0.10793949884E+04  0.18885905689E+02  0.11585808333E+04  0.12699999809E+01 0.  1.
       -4    1    3    3    0  502 -0.42054454715E+03  0.10793949884E+04  0.13384364491E+04  0.17701313505E+04  0.12699999809E+01 0. -1.
</event>
<event>
 5   0  0.6993678E-06  0.2599384E+04  0.7818609E-02  0.8368410E-01
        1   -1    0    0  501    0  0.00000000000E+00  0.00000000000E+00  0.87912480723E+03  0.87912480725E+03  0.50400001928E-02 0. -1.
       -1   -1    0    0    0  501  0.00000000000E+00  0.00000000000E+00 -0.19214557783E+04  0.19214557783E+04  0.50400001928E-02 0.  1.
    10030    2    1    2    0    0  0.00000000000E+00  0.00000000000E+00 -0.10423309711E+04  0.28005805856E+04  0.25993841122E+04 0.  0.
        1    1    3    3  502    0 -0.96267563924E+03 -0.64999425923E+03 -0.11493585422E+04  0.16340936270E+04  0.50400001928E-02 0.  1.
       -1    1    3    3    0  502  0.96267563924E+03  0.64999425923E+03  0.10702757109E+03  0.11664869585E+04  0.50400001928E-02 0. -1.
</event>
<event>
 5   0  0.1677971E-05  0.2606764E+04  0.7818609E-02  0.8365907E-01
        2   -1    0    0  501    0  0.00000000000E+00  0.00000000000E+00  0.10014361189E+04  0.10014361189E+04  0.25500000920E-02 0. -1.
       -2   -1    0    0    0  501  0.00000000000E+00  0.00000000000E+00 -0.16963679004E+04  0.16963679004E+04  0.25500000920E-02 0.  1.
    10030    2    1    2    0    0  0.00000000000E+00  0.00000000000E+00 -0.69493178146E+03  0.26978040193E+04  0.26067635769E+04 0.  0.
        4    1    3    3  502    0 -0.49127568438E+03 -0.33111761554E+03 -0.15489647986E+04  0.16583980926E+04  0.12699999809E+01 0.  1.
       -4    1    3    3    0  502  0.49127568438E+03  0.33111761554E+03  0.85403301709E+03  0.10394059268E+04  0.12699999809E+01 0. -1.
</event>
<event>
 5   0  0.6984287E-06  0.2600343E+04  0.7818609E-02  0.8368085E-01
        1   -1    0    0  501    0  0.00000000000E+00  0.00000000000E+00  0.13568084552E+04  0.13568084552E+04  0.50400001928E-02 0.  1.
       -1   -1    0    0    0  501  0.00000000000E+00  0.00000000000E+00 -0.12458982830E+04  0.12458982830E+04  0.50400001928E-02 0. -1.
    10030    2    1    2    0    0  0.00000000000E+00  0.00000000000E+00  0.11091017228E+03  0.26027067382E+04  0.26003425349E+04 0.  0.
        3    1    3    3  502    0  0.34843211183E+03  0.37007848537E+03  0.12532395174E+04  0.13523950311E+04  0.10100000352E+00 0.  1.
       -3    1    3    3    0  502 -0.34843211183E+03 -0.37007848537E+03 -0.11423293452E+04  0.12503117071E+04  0.10100000352E+00 0. -1.
</event>
<event>
 5   0  0.6984287E-06  0.2549709E+04  0.7818609E-02  0.8385487E-01
       -1   -1    0    0    0  501  0.00000000000E+00  0.00000000000E+00  0.73792147333E+03  0.73792147335E+03  0.50400001928E-02 0. -1.
        1   -1    0    0  501    0  0.00000000000E+00  0.00000000000E+00 -0.22024757214E+04  0.22024757214E+04  0.50400001928E-02 0.  1.
    10030    2    1    2    0    0  0.00000000000E+00  0.00000000000E+00 -0.14645542481E+04  0.29403971947E+04  0.25497091045E+04 0.  0.
        3    1    3    3  502    0  0.28399793144E+03 -0.87645839699E+03 -0.17484409119E+04  0.19763298761E+04  0.10100000352E+00 0.  1.
       -3    1    3    3    0  502 -0.28399793144E+03  0.87645839699E+03  0.28388666382E+03  0.96406731862E+03  0.10100000352E+00 0. -1.
</event>
<event>
 5   0  0.6993678E-06  0.2591316E+04  0.7818609E-02  0.8371157E-01
       -1   -1    0    0    0  501  0.00000000000E+00  0.00000000000E+00  0.95052281211E+03  0.95052281213E+03  0.50400001928E-02 0. -1.
        1   -1    0    0  501    0  0.00000000000E+00  0.00000000000E+00 -0.17661117503E+04  0.17661117503E+04  0.50400001928E-02 0.  1.
    10030    2    1    2    0    0  0.00000000000E+00  0.00000000000E+00 -0.81558893822E+03  0.27166345625E+04  0.25913158877E+04 0.  0.
        1    1    3    3  502    0 -0.49734170564E+03  0.66929275522E+03 -0.14474324474E+04  0.16704377433E+04  0.50400001928E-02 0.  1.
       -1    1    3    3    0  502  0.49734170564E+03 -0.66929275522E+03  0.63184350918E+03  0.10461968192E+04  0.50400001928E-02 0. -1.
</event>
<event>
 5   0  0.6706225E-06  0.2577491E+04  0.7818609E-02  0.8375888E-01
        1   -1    0    0  501    0  0.00000000000E+00  0.00000000000E+00  0.21701039558E+04  0.21701039558E+04  0.50400001928E-02 0. -1.
       -1   -1    0    0    0  501  0.00000000000E+00  0.00000000000E+00 -0.76533868407E+03  0.76533868409E+03  0.50400001928E-02 0.  1.
    10030    2    1    2    0    0  0.00000000000E+00  0.00000000000E+00  0.14047652717E+04  0.29354426399E+04  0.25774906447E+04 0.  0.
        5    1    3    3  502    0 -0.77204488436E+03  0.10248009539E+04  0.83986209965E+03  0.15335125481E+04  0.46999998093E+01 0.  1.
       -5    1    3    3    0  502  0.77204488436E+03 -0.10248009539E+04  0.56490317209E+03  0.14019300919E+04  0.46999998093E+01 0. -1.
</event>
<event>
 5   0  0.6706225E-06  0.2595127E+04  0.7818609E-02  0.8369858E-01
        1   -1    0    0  501    0  0.00000000000E+00  0.00000000000E+00  0.17746233413E+04  0.17746233413E+04  0.50400001928E-02 0. -1.
       -1   -1    0    0    0  501  0.00000000000E+00  0.00000000000E+00 -0.94874813200E+03  0.94874813201E+03  0.50400001928E-02 0.  1.
    10030    2    1    2    0    0  0.00000000000E+00  0.00000000000E+00  0.82587520928E+03  0.27233714733E+04  0.25951266482E+04 0.  0.
        5    1    3    3  502    0 -0.15172430897E+03  0.35553116126E+03 -0.88691159187E+03  0.96750035367E+03  0.46999998093E+01 0.  1.
       -5    1    3    3    0  502  0.15172430897E+03 -0.35553116126E+03  0.17127868012E+04  0.17558711196E+04  0.46999998093E+01 0. -1.
</event>
<event>
 5   0  0.7138294E-06  0.2602918E+04  0.7818609E-02  0.8367211E-01
       -1   -1    0    0    0  501  0.00000000000E+00  0.00000000000E+00  0.78785211602E+03  0.78785211603E+03  0.50400001928E-02 0. -1.
        1   -1    0    0  501    0  0.00000000000E+00  0.00000000000E+00 -0.21498901991E+04  0.21498901991E+04  0.50400001928E-02 0.  1.
    10030    2    1    2    0    0  0.00000000000E+00  0.00000000000E+00 -0.13620380831E+04  0.29377423152E+04  0.26029180107E+04 0.  0.
        2    1    3    3  502    0 -0.38832209822E+03  0.79241967823E+03  0.39862594618E+03  0.96831071634E+03  0.25500000920E-02 0. -1.
       -2    1    3    3    0  502  0.38832209822E+03 -0.79241967823E+03 -0.17606640293E+04  0.19694315988E+04  0.25500000920E-02 0.  1.
</event>
<event>
 5   0  0.7138294E-06  0.2637331E+04  0.7818609E-02  0.8355630E-01
        1   -1    0    0  501    0  0.00000000000E+00  0.00000000000E+00  0.16409957812E+04  0.16409957812E+04  0.50400001928E-02 0.  1.
       -1   -1    0    0    0  501  0.00000000000E+00  0.00000000000E+00 -0.10596488277E+04  0.10596488278E+04  0.50400001928E-02 0. -1.
    10030    2    1    2    0    0  0.00000000000E+00  0.00000000000E+00  0.58134695343E+03  0.27006446089E+04  0.26373314209E+04 0.  0.
        2    1    3    3  502    0  0.92981969745E+03  0.71151281759E+03 -0.33057373965E+03  0.12165912036E+04  0.25500000920E-02 0. -1.
       -2    1    3    3    0  502 -0.92981969745E+03 -0.71151281759E+03  0.91192069308E+03  0.14840534053E+04  0.25500000920E-02 0.  1.
</event>
<event>
 5   0  0.7138294E-06  0.2605435E+04  0.7818609E-02  0.8366357E-01
        1   -1    0    0  501    0  0.00000000000E+00  0.00000000000E+00  0.63797174616E+03  0.63797174618E+03  0.50400001928E-02 0. -1.
       -1   -1    0    0    0  501  0.00000000000E+00  0.00000000000E+00 -0.26601066620E+04  0.26601066620E+04  0.50400001928E-02 0.  1.
    10030    2    1    2    0    0  0.00000000000E+00  0.00000000000E+00 -0.20221349159E+04  0.32980784082E+04  0.26054350057E+04 0.  0.
        2    1    3    3  502    0 -0.44259855909E+03 -0.61610116776E+03  0.32953339830E+03  0.82708306356E+03  0.25500000920E-02 0. -1.
       -2    1    3    3    0  502  0.44259855909E+03  0.61610116776E+03 -0.23516683142E+04  0.24709953447E+04  0.25500000920E-02 0.  1.
</event>
<event>
 5   0  0.1869956E-05  0.2620664E+04  0.7818609E-02  0.8361216E-01
       -2   -1    0    0    0  501  0.00000000000E+00  0.00000000000E+00  0.14732022541E+04  0.14732022541E+04  0.25500000920E-02 0. -1.
        2   -1    0    0  501    0  0.00000000000E+00  0.00000000000E+00 -0.11654677665E+04  0.11654677665E+04  0.25500000920E-02 0.  1.
    10030    2    1    2    0    0  0.00000000000E+00  0.00000000000E+00  0.30773448757E+03  0.26386700206E+04  0.26206638401E+04 0.  0.
        5    1    3    3  502    0  0.86258572652E+03 -0.11725729666E+02  0.11469277960E+04  0.14351505453E+04  0.46999998093E+01 0. -1.
       -5    1    3    3    0  502 -0.86258572652E+03  0.11725729666E+02 -0.83919330848E+03  0.12035194753E+04  0.46999998093E+01 0.  1.
</event>
<event>
 5   0  0.6993678E-06  0.2622288E+04  0.7818609E-02  0.8360670E-01
        1   -1    0    0  501    0  0.00000000000E+00  0.00000000000E+00  0.90552797603E+03  0.90552797605E+03  0.50400001928E-02 0.  1.
       -1   -1    0    0    0  501  0.00000000000E+00  0.00000000000E+00 -0.18984485498E+04  0.18984485498E+04  0.50400001928E-02 0. -1.
    10030    2    1    2    0    0  0.00000000000E+00  0.00000000000E+00 -0.99292057380E+03  0.28039765259E+04  0.26222877592E+04 0.  0.
        1    1    3    3  502    0 -0.76570002262E+02 -0.48963843576E+03  0.80151836627E+03  0.94235898389E+03  0.50400001928E-02 0.  1.
       -1    1    3    3    0  502  0.76570002262E+02  0.48963843576E+03 -0.17944389401E+04  0.18616175420E+04  0.50400001928E-02 0. -1.
</event>
<event>
 5   0  0.5840500E-06  0.2637102E+04  0.7818609E-02  0.8355707E-01
       -3   -1    0    0    0  501  0.00000000000E+00  0.00000000000E+00  0.21148484001E+04  0.21148484026E+04  0.10100000352E+00 0.  1.
        3   -1    0    0  501    0  0.00000000000E+00  0.00000000000E+00 -0.82208097229E+03  0.82208097850E+03  0.10100000352E+00 0. -1.
    10030    2    1    2    0    0  0.00000000000E+00  0.00000000000E+00  0.12927674279E+04  0.29369293811E+04  0.26371019258E+04 0.  0.
        1    1    3    3  502    0  0.97169461051E+03  0.76786119432E+03  0.11503546507E+04  0.16903008763E+04  0.50400001928E-02 0.  1.
       -1    1    3    3    0  502 -0.97169461051E+03 -0.76786119432E+03  0.14241277712E+03  0.12466285048E+04  0.50400001928E-02 0. -1.
</event>
<event>
 5   0  0.1720129E-05  0.2591163E+04  0.7818609E-02  0.8371209E-01
        2   -1    0    0  501    0  0.00000000000E+00  0.00000000000E+00  0.22697863802E+04  0.22697863802E+04  0.25500000920E-02 0.  1.
       -2   -1    0    0    0  501  0.00000000000E+00  0.00000000000E+00 -0.73951075387E+03  0.73951075387E+03  0.25500000920E-02 0. -1.
    10030    2    1    2    0    0  0.00000000000E+00  0.00000000000E+00  0.15302756264E+04  0.30092971341E+04  0.25911630108E+04 0.  0.
        3    1    3    3  502    0  0.11749977435E+04  0.46456322617E+02  0.13967279101E+04  0.18258222126E+04  0.10100000352E+00 0.  1.
       -3    1    3    3    0  502 -0.11749977435E+04 -0.46456322617E+02  0.13354771625E+03  0.11834749215E+04  0.10100000352E+00 0. -1.
</event>
<event>
 5   0  0.6918420E-06  0.2551957E+04  0.7818609E-02  0.8384706E-01
       -1   -1    0    0    0  501  0.00000000000E+00  0.00000000000E+00  0.88430379393E+03  0.88430379395E+03  0.50400001928E-02 0.  1.
        1   -1    0    0  501    0  0.00000000000E+00  0.00000000000E+00 -0.18411332816E+04  0.18411332816E+04  0.50400001928E-02 0. -1.
    10030    2    1    2    0    0  0.00000000000E+00  0.00000000000E+00 -0.95682948767E+03  0.27254370756E+04  0.25519570107E+04 0.  0.
        4    1    3    3  502    0  0.98215214580E+03  0.65210129807E+03 -0.99971617156E+03  0.15457337989E+04  0.12699999809E+01 0. -1.
       -4    1    3    3    0  502 -0.98215214580E+03 -0.65210129807E+03  0.42886683892E+02  0.11797032767E+04  0.12699999809E+01 0.  1.
</event>
<event>
 5   0  0.1677971E-05  0.2173242E+04  0.7818609E-02  0.8529649E-01
       -2   -1    0    0    0  501  0.00000000000E+00  0.00000000000E+00  0.88296999813E+03  0.88296999813E+03  0.25500000920E-02 0. -1.
        2   -1    0    0  501    0  0.00000000000E+00  0.00000000000E+00 -0.13372424557E+04  0.13372424557E+04  0.25500000920E-02 0.  1.
    10030    2    1    2    0    0  0.00000000000E+00  0.00000000000E+00 -0.45427245754E+03  0.22202124538E+04  0.21732417892E+04 0.  0.
        4    1    3    3  502    0 -0.64003181998E+03 -0.81549169226E+03 -0.55986848168E+03  0.11781857920E+04  0.12699999809E+01 0. -1.
       -4    1    3    3    0  502  0.64003181998E+03  0.81549169226E+03  0.10559602414E+03  0.10420266618E+04  0.12699999809E+01 0.  1.
</event>
<event>
 5   0  0.1702345E-05  0.2644594E+04  0.7818609E-02  0.8353209E-01
       -2   -1    0    0    0  501  0.00000000000E+00  0.00000000000E+00  0.95376775732E+03  0.95376775732E+03  0.25500000920E-02 0. -1.
        2   -1    0    0  501    0  0.00000000000E+00  0.00000000000E+00 -0.18332234955E+04  0.18332234955E+04  0.25500000920E-02 0.  1.
    10030    2    1    2    0    0  0.00000000000E+00  0.00000000000E+00 -0.87945573817E+03  0.27869912528E+04  0.26445940800E+04 0.  0.
        1    1    3    3  502    0  0.15182355987E+03 -0.12911557676E+04 -0.18519471557E+03  0.13131758040E+04  0.50400001928E-02 0. -1.
       -1    1    3    3    0  502 -0.15182355987E+03  0.12911557676E+04 -0.69426102260E+03  0.14738154488E+04  0.50400001928E-02 0.  1.
</event>
<event>
 5   0  0.6984287E-06  0.2593042E+04  0.7818609E-02  0.8370569E-01
        1   -1    0    0  501    0  0.00000000000E+00  0.00000000000E+00  0.17160594552E+04  0.17160594552E+04  0.50400001928E-02 0. -1.
       -1   -1    0    0    0  501  0.00000000000E+00  0.00000000000E+00 -0.97955030634E+03  0.97955030635E+03  0.50400001928E-02 0.  1.
    10030    2    1    2    0    0  0.00000000000E+00  0.00000000000E+00  0.73650914886E+03  0.26956097616E+04  0.25930418933E+04 0.  0.
        3    1    3    3  502    0  0.62257578217E+03  0.31850982812E+03 -0.76667934081E+03  0.10377120684E+04  0.10100000352E+00 0.  1.
       -3    1    3    3    0  502 -0.62257578217E+03 -0.31850982812E+03  0.15031884897E+04  0.16578976931E+04  0.10100000352E+00 0. -1.
</event>
<event>
 5   0  0.1720129E-05  0.2614976E+04  0.7818609E-02  0.8363132E-01
       -2   -1    0    0    0  501  0.00000000000E+00  0.00000000000E+00  0.10336770639E+04  0.10336770639E+04  0.25500000920E-02 0. -1.
        2   -1    0    0  501    0  0.00000000000E+00  0.00000000000E+00 -0.16538289726E+04  0.16538289726E+04  0.25500000920E-02 0.  1.
    10030    2    1    2    0    0  0.00000000000E+00  0.00000000000E+00 -0.62015190866E+03  0.26875060365E+04  0.26149761579E+04 0.  0.
        3    1    3    3  502    0  0.93390992574E+03  0.33484642741E+03  0.56513986738E+03  0.11417937464E+04  0.10100000352E+00 0. -1.
       -3    1    3    3    0  502 -0.93390992574E+03 -0.33484642741E+03 -0.11852917760E+04  0.15457122901E+04  0.10100000352E+00 0.  1.
</event>
<event>
 5   0  0.6918420E-06  0.2579585E+04  0.7818609E-02  0.8375169E-01
        1   -1    0    0  501    0  0.00000000000E+00  0.00000000000E+00  0.11693939169E+04  0.11693939169E+04  0.50400001928E-02 0.  1.
       -1   -1    0    0    0  501  0.00000000000E+00  0.00000000000E+00 -0.14225868069E+04  0.14225868070E+04  0.50400001928E-02 0. -1.
    10030    2    1    2    0    0  0.00000000000E+00  0.00000000000E+00 -0.25319289003E+03  0.25919807239E+04  0.25795847405E+04 0.  0.
        4    1    3    3  502    0  0.34027638245E+03  0.11427500572E+04  0.36759729690E+03  0.12477159513E+04  0.12699999809E+01 0. -1.
       -4    1    3    3    0  502 -0.34027638245E+03 -0.11427500572E+04 -0.62079018693E+03  0.13442647726E+04  0.12699999809E+01 0.  1.
</event>
<event>
 5   0  0.1681731E-05  0.2416620E+04  0.7818609E-02  0.8433307E-01
        2   -1    0    0  501    0  0.00000000000E+00  0.00000000000E+00  0.10028648070E+04  0.10028648070E+04  0.25500000920E-02 0.  1.
       -2   -1    0    0    0  501  0.00000000000E+00  0.00000000000E+00 -0.14558421338E+04  0.14558421338E+04  0.25500000920E-02 0. -1.
    10030    2    1    2    0    0  0.00000000000E+00  0.00000000000E+00 -0.45297732683E+03  0.24587069408E+04  0.24166198216E+04 0.  0.
        2    1    3    3  502    0  0.64079590017E+03  0.12202217239E+03  0.80833066123E+03  0.10387046039E+04  0.25500000920E-02 0.  1.
       -2    1    3    3    0  502 -0.64079590017E+03 -0.12202217239E+03 -0.12613079881E+04  0.14200023370E+04  0.25500000920E-02 0. -1.
</event>
<event>
 5   0  0.6918420E-06  0.2627445E+04  0.7818609E-02  0.8358938E-01
       -1   -1    0    0    0  501  0.00000000000E+00  0.00000000000E+00  0.17396989963E+04  0.17396989963E+04  0.50400001928E-02 0.  1.
        1   -1    0    0  501    0  0.00000000000E+00  0.00000000000E+00 -0.99204898170E+03  0.99204898171E+03  0.50400001928E-02 0. -1.
    10030    2    1    2    0    0  0.00000000000E+00  0.00000000000E+00  0.74765001462E+03  0.27317479780E+04  0.26274448560E+04 0.  0.
        4    1    3    3  502    0 -0.23489341569E+03  0.19192507986E+03 -0.95514064453E+03  0.10021503963E+04  0.12699999809E+01 0. -1.
       -4    1    3    3    0  502  0.23489341569E+03 -0.19192507986E+03  0.17027906591E+04  0.17295975818E+04  0.12699999809E+01 0.  1.
</event>
<event>
 5   0  0.6918420E-06  0.2592946E+04  0.7818609E-02  0.8370601E-01
        1   -1    0    0  501    0  0.00000000000E+00  0.00000000000E+00  0.98777667111E+03  0.98777667112E+03  0.50400001928E-02 0.  1.
       -1   -1    0    0    0  501  0.00000000000E+00  0.00000000000E+00 -0.17016416957E+04  0.17016416957E+04  0.50400001928E-02 0. -1.
    10030    2    1    2    0    0  0.00000000000E+00  0.00000000000E+00 -0.71386502457E+03  0.26894183668E+04  0.25929457917E+04 0.  0.
        4    1    3    3  502    0  0.10468509914E+04 -0.30882817083E+03  0.36879179722E+03  0.11520767509E+04  0.12699999809E+01 0.  1.
       -4    1    3    3    0  502 -0.10468509914E+04  0.30882817083E+03 -0.10826568218E+04  0.15373416159E+04  0.12699999809E+01 0. -1.
</event>
<event>
 5   0  0.7138294E-06  0.2647525E+04  0.7818609E-02  0.8352235E-01
        1   -1    0    0  501    0  0.00000000000E+00  0.00000000000E+00  0.29716728506E+04  0.29716728506E+04  0.50400001928E-02 0.  1.
       -1   -1    0    0    0  501  0.00000000000E+00  0.00000000000E+00 -0.58968353938E+03  0.58968353940E+03  0.50400001928E-02 0. -1.
    10030    2    1    2    0    0  0.00000000000E+00  0.00000000000E+00  0.23819893112E+04  0.35613563900E+04  0.26475245528E+04 0.  0.
        2    1    3    3  502    0 -0.11070994722E+04  0.11827746810E+03  0.22782694220E+03  0.11364699364E+04  0.25500000920E-02 0. -1.
       -2    1    3    3    0  502  0.11070994722E+04 -0.11827746810E+03  0.21541623690E+04  0.24248864536E+04  0.25500000920E-02 0.  1.
</event>
<event>
 5   0  0.1681731E-05  0.2604161E+04  0.7818609E-02  0.8366789E-01
       -2   -1    0    0    0  501  0.00000000000E+00  0.00000000000E+00  0.11245291117E+04  0.11245291117E+04  0.25500000920E-02 0. -1.
        2   -1    0    0  501    0  0.00000000000E+00  0.00000000000E+00 -0.15076651978E+04  0.15076651978E+04  0.25500000920E-02 0.  1.
    10030    2    1    2    0    0  0.00000000000E+00  0.00000000000E+00 -0.38313608606E+03  0.26321943095E+04  0.26041608289E+04 0.  0.
        2    1    3    3  502    0 -0.17620788436E+03  0.10772768335E+04  0.52588908238E+03  0.12116657631E+04  0.25500000920E-02 0. -1.
       -2    1    3    3    0  502  0.17620788436E+03 -0.10772768335E+04 -0.90902516844E+03  0.14205285465E+04  0.25500000920E-02 0.  1.
</event>
<event>
 5   0  0.1702345E-05  0.2244295E+04  0.7818609E-02  0.8500214E-01
        2   -1    0    0  501    0  0.00000000000E+00  0.00000000000E+00  0.18950725087E+04  0.18950725087E+04  0.25500000920E-02 0. -1.
       -2   -1    0    0    0  501  0.00000000000E+00  0.00000000000E+00 -0.66446827760E+03  0.66446827760E+03  0.25500000920E-02 0.  1.
    10030    2    1    2    0    0  0.00000000000E+00  0.00000000000E+00  0.12306042311E+04  0.25595407863E+04  0.22442954937E+04 0.  0.
        1    1    3    3  502    0 -0.15095164365E+03 -0.10806104148E+04  0.91424824494E+03  0.14235010083E+04  0.50400001928E-02 0. -1.
       -1    1    3    3    0  502  0.15095164365E+03  0.10806104148E+04  0.31635598615E+03  0.11360397780E+04  0.50400001928E-02 0.  1.
</event>
<event>
 5   0  0.5840500E-06  0.2603377E+04  0.7818609E-02  0.8367055E-01
       -4   -1    0    0    0  501  0.00000000000E+00  0.00000000000E+00  0.12838813126E+04  0.12838819407E+04  0.12699999809E+01 0. -1.
        4   -1    0    0  501    0  0.00000000000E+00  0.00000000000E+00 -0.13197415020E+04  0.13197421130E+04  0.12699999809E+01 0.  1.
    10030    2    1    2    0    0  0.00000000000E+00  0.00000000000E+00 -0.35860189365E+02  0.26036240538E+04  0.26033770876E+04 0.  0.
        4    1    3    3  502    0  0.83870133795E+03  0.13119025847E+03  0.96895662218E+03  0.12882194560E+04  0.12699999809E+01 0. -1.
       -4    1    3    3    0  502 -0.83870133795E+03 -0.13119025847E+03 -0.10048168115E+04  0.13154045978E+04  0.12699999809E+01 0.  1.
</event>
<event>
 5   0  0.1702345E-05  0.2579887E+04  0.7818609E-02  0.8375065E-01
        2   -1    0    0  501    0  0.00000000000E+00  0.00000000000E+00  0.12530561633E+04  0.12530561633E+04  0.25500000920E-02 0. -1.
       -2   -1    0    0    0  501  0.00000000000E+00  0.00000000000E+00 -0.13279166829E+04  0.13279166829E+04  0.25500000920E-02 0.  1.
    10030    2    1    2    0    0  0.00000000000E+00  0.00000000000E+00 -0.74860519587E+02  0.25809728462E+04  0.25798869618E+04 0.  0.
        1    1    3    3  502    0 -0.79427178851E+03 -0.96109903062E+03 -0.36828862137E+03  0.13000828933E+04  0.50400001928E-02 0.  1.
       -1    1    3    3    0  502  0.79427178851E+03  0.96109903062E+03  0.29342810178E+03  0.12808899530E+04  0.50400001928E-02 0. -1.
</event>
<event>
 5   0  0.6993678E-06  0.2603761E+04  0.7818609E-02  0.8366925E-01
       -1   -1    0    0    0  501  0.00000000000E+00  0.00000000000E+00  0.13091283335E+04  0.13091283335E+04  0.50400001928E-02 0.  1.
        1   -1    0    0  501    0  0.00000000000E+00  0.00000000000E+00 -0.12946723237E+04  0.12946723237E+04  0.50400001928E-02 0. -1.
    10030    2    1    2    0    0  0.00000000000E+00  0.00000000000E+00  0.14456009828E+02  0.26038006572E+04  0.26037605278E+04 0.  0.
        1    1    3    3  502    0  0.56763399044E+03 -0.10937342851E+04  0.42726922460E+03  0.13042323504E+04  0.50400001928E-02 0.  1.
       -1    1    3    3    0  502 -0.56763399044E+03  0.10937342851E+04 -0.41281321477E+03  0.12995683068E+04  0.50400001928E-02 0. -1.
</event>
<event>
 5   0  0.1869956E-05  0.2549834E+04  0.7818609E-02  0.8385444E-01
       -2   -1    0    0    0  501  0.00000000000E+00  0.00000000000E+00  0.95629230189E+03  0.95629230190E+03  0.25500000920E-02 0. -1.
        2   -1    0    0  501    0  0.00000000000E+00  0.00000000000E+00 -0.16997035218E+04  0.16997035218E+04  0.25500000920E-02 0.  1.
    10030    2    1    2    0    0  0.00000000000E+00  0.00000000000E+00 -0.74341121995E+03  0.26559958237E+04  0.25498340287E+04 0.  0.
        5    1    3    3  502    0  0.57390039631E+03  0.76578542926E+03 -0.12491568397E+04  0.15735958467E+04  0.46999998093E+01 0.  1.
       -5    1    3    3    0  502 -0.57390039631E+03 -0.76578542926E+03  0.50574561971E+03  0.10823999771E+04  0.46999998093E+01 0. -1.
</event>
<event>
 5   0  0.1677971E-05  0.2580344E+04  0.7818609E-02  0.8374909E-01
       -2   -1    0    0    0  501  0.00000000000E+00  0.00000000000E+00  0.73042330695E+03  0.73042330695E+03  0.25500000920E-02 0.  1.
        2   -1    0    0  501    0  0.00000000000E+00  0.00000000000E+00 -0.22788750083E+04  0.22788750083E+04  0.25500000920E-02 0. -1.
    10030    2    1    2    0    0  0.00000000000E+00  0.00000000000E+00 -0.15484517014E+04  0.30092983153E+04  0.25803437133E+04 0.  0.
        4    1    3    3  502    0 -0.26810992588E+03  0.35939821584E+03 -0.21850823023E+04  0.22306134337E+04  0.12699999809E+01 0. -1.
       -4    1    3    3    0  502  0.26810992588E+03 -0.35939821584E+03  0.63663060091E+03  0.77868488159E+03  0.12699999809E+01 0.  1.
</event>
<event>
 5   0  0.1677971E-05  0.2584365E+04  0.7818609E-02  0.8373532E-01
       -2   -1    0    0    0  501  0.00000000000E+00  0.00000000000E+00  0.14660529160E+04  0.14660529160E+04  0.25500000920E-02 0.  1.
        2   -1    0    0  501    0  0.00000000000E+00  0.00000000000E+00 -0.11389324226E+04  0.11389324226E+04  0.25500000920E-02 0. -1.
    10030    2    1    2    0    0  0.00000000000E+00  0.00000000000E+00  0.32712049344E+03  0.26049853386E+04  0.25843646796E+04 0.  0.
        4    1    3    3  502    0  0.38800414941E+03  0.11727843281E+04  0.54574686978E+03  0.13504856752E+04  0.12699999809E+01 0.  1.
       -4    1    3    3    0  502 -0.38800414941E+03 -0.11727843281E+04 -0.21862637634E+03  0.12544996634E+04  0.12699999809E+01 0. -1.
</event>
<event>
 5   0  0.7138294E-06  0.2545659E+04  0.7818609E-02  0.8386898E-01
        1   -1    0    0  501    0  0.00000000000E+00  0.00000000000E+00  0.19517562727E+04  0.19517562727E+04  0.50400001928E-02 0.  1.
       -1   -1    0    0    0  501  0.00000000000E+00  0.00000000000E+00 -0.83007015317E+03  0.83007015318E+03  0.50400001928E-02 0. -1.
    10030    2    1    2    0    0  0.00000000000E+00  0.00000000000E+00  0.11216861195E+04  0.27818264259E+04  0.25456587581E+04 0.  0.
        2    1    3    3  502    0 -0.19477108211E+03  0.81748362607E+03 -0.48381528960E+03  0.96968679880E+03  0.25500000920E-02 0. -1.
       -2    1    3    3    0  502  0.19477108211E+03 -0.81748362607E+03  0.16055014091E+04  0.18121396271E+04  0.25500000920E-02 0.  1.
</event>
<event>
 5   0  0.6984287E-06  0.2606174E+04  0.7818609E-02  0.8366107E-01
       -1   -1    0    0    0  501  0.00000000000E+00  0.00000000000E+00  0.21456965136E+04  0.21456965136E+04  0.50400001928E-02 0. -1.
        1   -1    0    0  501    0  0.00000000000E+00  0.00000000000E+00 -0.79136814819E+03  0.79136814821E+03  0.50400001928E-02 0.  1.
    10030    2    1    2    0    0  0.00000000000E+00  0.00000000000E+00  0.13543283654E+04  0.29370646618E+04  0.26061741128E+04 0.  0.
        3    1    3    3  502    0  0.29525616105E+03 -0.68659263898E+03 -0.52581402065E+03  0.91381948275E+03  0.10100000352E+00 0.  1.
       -3    1    3    3    0  502 -0.29525616105E+03  0.68659263898E+03  0.18801423860E+04  0.20232451790E+04  0.10100000352E+00 0. -1.
</event>
<event>
 5   0  0.6706225E-06  0.2746138E+04  0.7818609E-02  0.8320188E-01
       -1   -1    0    0    0  501  0.00000000000E+00  0.00000000000E+00  0.15936456074E+04  0.15936456074E+04  0.50400001928E-02 0. -1.
        1   -1    0    0  501    0  0.00000000000E+00  0.00000000000E+00 -0.11830220405E+04  0.11830220405E+04  0.50400001928E-02 0.  1.
    10030    2    1    2    0    0  0.00000000000E+00  0.00000000000E+00  0.41062356690E+03  0.27766676480E+04  0.27461375628E+04 0.  0.
        5    1    3    3  502    0  0.83906674906E+03 -0.76225232806E+03 -0.57804925624E+03  0.12724875849E+04  0.46999998093E+01 0.  1.
       -5    1    3    3    0  502 -0.83906674906E+03  0.76225232806E+03  0.98867282314E+03  0.15041800631E+04  0.46999998093E+01 0. -1.
</event>
<event>
 5   0  0.1677971E-05  0.2490730E+04  0.7818609E-02  0.8406296E-01
       -2   -1    0    0    0  501  0.00000000000E+00  0.00000000000E+00  0.10387112114E+04  0.10387112114E+04  0.25500000920E-02 0.  1.
        2   -1    0    0  501    0  0.00000000000E+00  0.00000000000E+00 -0.14931324565E+04  0.14931324565E+04  0.25500000920E-02 0. -1.
    10030    2    1    2    0    0  0.00000000000E+00  0.00000000000E+00 -0.45442124511E+03  0.25318436678E+04  0.24907295498E+04 0.  0.
        4    1    3    3  502    0  0.34507537711E+03 -0.11163885812E+03 -0.14382588043E+04  0.14832836046E+04  0.12699999809E+01 0. -1.
       -4    1    3    3    0  502 -0.34507537711E+03  0.11163885812E+03  0.98383755918E+03  0.10485600633E+04  0.12699999809E+01 0.  1.
</event>
<event>
 5   0  0.1869956E-05  0.2920808E+04  0.7818609E-02  0.8266713E-01
       -2   -1    0    0    0  501  0.00000000000E+00  0.00000000000E+00  0.10126555846E+04  0.10126555847E+04  0.25500000920E-02 0. -1.
        2   -1    0    0  501    0  0.00000000000E+00  0.00000000000E+00 -0.21061249294E+04  0.21061249294E+04  0.25500000920E-02 0.  1.
    10030    2    1    2    0    0  0.00000000000E+00  0.00000000000E+00 -0.10934693447E+04  0.31187805140E+04  0.29208075402E+04 0.  0.
        5    1    3    3  502    0 -0.10014220563E+04 -0.22917303185E+03  0.56159376341E+03  0.11708014599E+04  0.46999998093E+01 0. -1.
       -5    1    3    3    0  502  0.10014220563E+04  0.22917303185E+03 -0.16550631081E+04  0.19479790541E+04  0.46999998093E+01 0.  1.
</event>
<event>
 5   0  0.1702345E-05  0.2569595E+04  0.7818609E-02  0.8378603E-01
       -2   -1    0    0    0  501  0.00000000000E+00  0.00000000000E+00  0.89987261787E+03  0.89987261787E+03  0.25500000920E-02 0. -1.
        2   -1    0    0  501    0  0.00000000000E+00  0.00000000000E+00 -0.18343758866E+04  0.18343758866E+04  0.25500000920E-02 0.  1.
    10030    2    1    2    0    0  0.00000000000E+00  0.00000000000E+00 -0.93450326871E+03  0.27342485045E+04  0.25695950118E+04 0.  0.
        1    1    3    3  502    0 -0.89121641520E+03 -0.26070021752E+03 -0.14121102041E+04  0.16900551857E+04  0.50400001928E-02 0.  1.
       -1    1    3    3    0  502  0.89121641520E+03  0.26070021752E+03  0.47760693541E+03  0.10441933187E+04  0.50400001928E-02 0. -1.
</event>
<event>
 5   0  0.1702345E-05  0.2619521E+04  0.7818609E-02  0.8361601E-01
       -2   -1    0    0    0  501  0.00000000000E+00  0.00000000000E+00  0.26480458485E+04  0.26480458485E+04  0.25500000920E-02 0. -1.
        2   -1    0    0  501    0  0.00000000000E+00  0.00000000000E+00 -0.64782575119E+03  0.64782575119E+03  0.25500000920E-02 0.  1.
    10030    2    1    2    0    0  0.00000000000E+00  0.00000000000E+00  0.20002200973E+04  0.32958715997E+04  0.26195207890E+04 0.  0.
        1    1    3    3  502    0 -0.99501525889E+03  0.81642015168E+03  0.69481896432E+03  0.14626587513E+04  0.50400001928E-02 0. -1.
       -1    1    3    3    0  502  0.99501525889E+03 -0.81642015168E+03  0.13054011330E+04  0.18332128484E+04  0.50400001928E-02 0.  1.
</event>
<event>
 5   0  0.5840500E-06  0.2591866E+04  0.7818609E-02  0.8370969E-01
       -3   -1    0    0    0  501  0.00000000000E+00  0.00000000000E+00  0.87688937410E+03  0.87688937991E+03  0.10100000352E+00 0.  1.
        3   -1    0    0  501    0  0.00000000000E+00  0.00000000000E+00 -0.19152267936E+04  0.19152267963E+04  0.10100000352E+00 0. -1.
    10030    2    1    2    0    0  0.00000000000E+00  0.00000000000E+00 -0.10383374195E+04  0.27921161762E+04  0.25918657652E+04 0.  0.
        2    1    3    3  502    0  0.39691991244E+03 -0.65077512195E+03 -0.16481817038E+04  0.18159175656E+04  0.25500000920E-02 0. -1.
       -2    1    3    3    0  502 -0.39691991244E+03  0.65077512195E+03  0.60984428429E+03  0.97619861060E+03  0.25500000920E-02 0.  1.
</event>
<event>
 5   0  0.5840500E-06  0.2609199E+04  0.7818609E-02  0.8365083E-01
        3   -1    0    0  501    0  0.00000000000E+00  0.00000000000E+00  0.17480188724E+04  0.17480188753E+04  0.10100000352E+00 0.  1.
       -3   -1    0    0    0  501  0.00000000000E+00  0.00000000000E+00 -0.97366223888E+03  0.97366224412E+03  0.10100000352E+00 0. -1.
    10030    2    1    2    0    0  0.00000000000E+00  0.00000000000E+00  0.77435663355E+03  0.27216811195E+04  0.26091990955E+04 0.  0.
        2    1    3    3  502    0 -0.35231526293E+03  0.29140645075E+03  0.16617100352E+04  0.17234627949E+04  0.25500000920E-02 0.  1.
       -2    1    3    3    0  502  0.35231526293E+03 -0.29140645075E+03 -0.88735340170E+03  0.99821832459E+03  0.25500000920E-02 0. -1.
</event>
<event>
 5   0  0.1677971E-05  0.2146948E+04  0.7818609E-02  0.8540840E-01
       -2   -1    0    0    0  501  0.00000000000E+00  0.00000000000E+00  0.86162727761E+03  0.86162727761E+03  0.25500000920E-02 0.  1.
        2   -1    0    0  501    0  0.00000000000E+00  0.00000000000E+00 -0.13374075013E+04  0.13374075013E+04  0.25500000920E-02 0. -1.
    10030    2    1    2    0    0  0.00000000000E+00  0.00000000000E+00 -0.47578022368E+03  0.21990347789E+04  0.21469483314E+04 0.  0.
        4    1    3    3  502    0 -0.19508663231E+03 -0.42861846379E+03  0.75017515585E+03  0.88574090961E+03  0.12699999809E+01 0.  1.
       -4    1    3    3    0  502  0.19508663231E+03  0.42861846379E+03 -0.12259553795E+04  0.13132938693E+04  0.12699999809E+01 0. -1.
</event>
<event>
 5   0  0.6918420E-06  0.2602269E+04  0.7818609E-02  0.8367431E-01
       -1   -1    0    0    0  501  0.00000000000E+00  0.00000000000E+00  0.11776473482E+04  0.11776473482E+04  0.50400001928E-02 0.  1.
        1   -1    0    0  501    0  0.00000000000E+00  0.00000000000E+00 -0.14375701026E+04  0.14375701026E+04  0.50400001928E-02 0. -1.
    10030    2    1    2    0    0  0.00000000000E+00  0.00000000000E+00 -0.25992275443E+03  0.26152174508E+04  0.26022687172E+04 0.  0.
        4    1    3    3  502    0 -0.43962037946E+03 -0.61412935883E+03  0.93480484953E+03  0.12017831198E+04  0.12699999809E+01 0.  1.
       -4    1    3    3    0  502  0.43962037946E+03  0.61412935883E+03 -0.11947276040E+04  0.14134343310E+04  0.12699999809E+01 0. -1.
</event>
<event>
 5   0  0.1677971E-05  0.2553921E+04  0.7818609E-02  0.8384024E-01
        2   -1    0    0  501    0  0.00000000000E+00  0.00000000000E+00  0.16171859171E+04  0.16171859171E+04  0.25500000920E-02 0.  1.
       -2   -1    0    0    0  501  0.00000000000E+00  0.00000000000E+00 -0.10083123147E+04  0.10083123147E+04  0.25500000920E-02 0. -1.
    10030    2    1    2    0    0  0.00000000000E+00  0.00000000000E+00  0.60887360235E+03  0.26254982318E+04  0.25539212794E+04 0.  0.
        4    1    3    3  502    0  0.26384404694E+03 -0.12155776560E+04  0.60129288896E+03  0.13815923676E+04  0.12699999809E+01 0.  1.
       -4    1    3    3    0  502 -0.26384404694E+03  0.12155776560E+04  0.75807133926E+01  0.12439058642E+04  0.12699999809E+01 0. -1.
</event>
<event>
 5   0  0.6984287E-06  0.2561557E+04  0.7818609E-02  0.8381378E-01
       -1   -1    0    0    0  501  0.00000000000E+00  0.00000000000E+00  0.13199846396E+04  0.13199846396E+04  0.50400001928E-02 0. -1.
        1   -1    0    0  501    0  0.00000000000E+00  0.00000000000E+00 -0.12427365232E+04  0.12427365232E+04  0.50400001928E-02 0.  1.
    10030    2    1    2    0    0  0.00000000000E+00  0.00000000000E+00  0.77248116344E+02  0.25627211628E+04  0.25615566530E+04 0.  0.
        3    1    3    3  502    0  0.42095643602E+03 -0.11782726198E+04  0.31235842897E+03  0.12896117579E+04  0.10100000352E+00 0. -1.
       -3    1    3    3    0  502 -0.42095643602E+03  0.11782726198E+04 -0.23511031263E+03  0.12731094049E+04  0.10100000352E+00 0.  1.
</event>
<event>
 5   0  0.6918420E-06  0.2538575E+04  0.7818609E-02  0.8389370E-01
       -1   -1    0    0    0  501  0.00000000000E+00  0.00000000000E+00  0.73372769498E+03  0.73372769500E+03  0.50400001928E-02 0.  1.
        1   -1    0    0  501    0  0.00000000000E+00  0.00000000000E+00 -0.21957612249E+04  0.21957612249E+04  0.50400001928E-02 0. -1.
    10030    2    1    2    0    0  0.00000000000E+00  0.00000000000E+00 -0.14620335299E+04  0.29294889199E+04  0.25385750509E+04 0.  0.
        4    1    3    3  502    0  0.12171583190E+04 -0.34303808124E+03 -0.60492150659E+03  0.14018135185E+04  0.12699999809E+01 0.  1.
       -4    1    3    3    0  502 -0.12171583190E+04  0.34303808124E+03 -0.85711202334E+03  0.15276754014E+04  0.12699999809E+01 0. -1.
</event>
<event>
 5   0  0.7138294E-06  0.2597390E+04  0.7818609E-02  0.8369088E-01
       -1   -1    0    0    0  501  0.00000000000E+00  0.00000000000E+00  0.85532521561E+03  0.85532521563E+03  0.50400001928E-02 0. -1.
        1   -1    0    0  501    0  0.00000000000E+00  0.00000000000E+00 -0.19718910009E+04  0.19718910009E+04  0.50400001928E-02 0.  1.
    10030    2    1    2    0    0  0.00000000000E+00  0.00000000000E+00 -0.11165657852E+04  0.28272162165E+04  0.25973895322E+04 0.  0.
        2    1    3    3  502    0  0.32670641432E+03 -0.12537701027E+04 -0.65522239828E+03  0.14518928827E+04  0.25500000920E-02 0.  1.
       -2    1    3    3    0  502 -0.32670641432E+03  0.12537701027E+04 -0.46134338697E+03  0.13753233338E+04  0.25500000920E-02 0. -1.
</event>
<event>
 5   0  0.1702345E-05  0.2498206E+04  0.7818609E-02  0.8403625E-01
       -2   -1    0    0    0  501  0.00000000000E+00  0.00000000000E+00  0.59699355494E+03  0.59699355494E+03  0.25500000920E-02 0.  1.
        2   -1    0    0  501    0  0.00000000000E+00  0.00000000000E+00 -0.26135251758E+04  0.26135251758E+04  0.25500000920E-02 0. -1.
    10030    2    1    2    0    0  0.00000000000E+00  0.00000000000E+00 -0.20165316209E+04  0.32105187308E+04  0.24982055045E+04 0.  0.
        1    1    3    3  502    0 -0.69153933139E+03 -0.82364988163E+03 -0.18247349878E+04  0.21180848779E+04  0.50400001928E-02 0. -1.
       -1    1    3    3    0  502  0.69153933139E+03  0.82364988163E+03 -0.19179663310E+03  0.10924338529E+04  0.50400001928E-02 0.  1.
</event>
<event>
 5   0  0.6984287E-06  0.2588021E+04  0.7818609E-02  0.8372282E-01
        1   -1    0    0  501    0  0.00000000000E+00  0.00000000000E+00  0.16895390011E+04  0.16895390011E+04  0.50400001928E-02 0.  1.
       -1   -1    0    0    0  501  0.00000000000E+00  0.00000000000E+00 -0.99107671694E+03  0.99107671695E+03  0.50400001928E-02 0. -1.
    10030    2    1    2    0    0  0.00000000000E+00  0.00000000000E+00  0.69846228411E+03  0.26806157180E+04  0.25880206849E+04 0.  0.
        3    1    3    3  502    0 -0.52029567355E+03  0.15632497704E+03 -0.86723203329E+03  0.10233457364E+04  0.10100000352E+00 0. -1.
       -3    1    3    3    0  502  0.52029567355E+03 -0.15632497704E+03  0.15656943174E+04  0.16572699817E+04  0.10100000352E+00 0.  1.
</event>
<event>
 5   0  0.1702345E-05  0.2580761E+04  0.7818609E-02  0.8374766E-01
       -2   -1    0    0    0  501  0.00000000000E+00  0.00000000000E+00  0.15641459733E+04  0.15641459733E+04  0.25500000920E-02 0.  1.
        2   -1    0    0  501    0  0.00000000000E+00  0.00000000000E+00 -0.10645308916E+04  0.10645308916E+04  0.25500000920E-02 0. -1.
    10030    2    1    2    0    0  0.00000000000E+00  0.00000000000E+00  0.49961508170E+03  0.26286768649E+04  0.25807609014E+04 0.  0.
        1    1    3    3  502    0  0.80419503541E+03 -0.40016078252E+03  0.11934111828E+04  0.14936828840E+04  0.50400001928E-02 0.  1.
       -1    1    3    3    0  502 -0.80419503541E+03  0.40016078252E+03 -0.69379610106E+03  0.11349939809E+04  0.50400001928E-02 0. -1.
</event>
<event>
 5   0  0.1681731E-05  0.2616440E+04  0.7818609E-02  0.8362638E-01
       -2   -1    0    0    0  501  0.00000000000E+00  0.00000000000E+00  0.11844490776E+04  0.11844490776E+04  0.25500000920E-02 0.  1.
        2   -1    0    0  501    0  0.00000000000E+00  0.00000000000E+00 -0.14449240525E+04  0.14449240525E+04  0.25500000920E-02 0. -1.
    10030    2    1    2    0    0  0.00000000000E+00  0.00000000000E+00 -0.26047497487E+03  0.26293731301E+04  0.26164395358E+04 0.  0.
        2    1    3    3  502    0 -0.10681816849E+03 -0.12893410479E+04 -0.32517704849E+03  0.13339979654E+04  0.25500000920E-02 0.  1.
       -2    1    3    3    0  502  0.10681816849E+03  0.12893410479E+04  0.64702073626E+02  0.12953751647E+04  0.25500000920E-02 0. -1.
</event>
<event>
 5   0  0.1677971E-05  0.2583608E+04  0.7818609E-02  0.8373791E-01
        2   -1    0    0  501    0  0.00000000000E+00  0.00000000000E+00  0.20328725895E+04  0.20328725895E+04  0.25500000920E-02 0. -1.
       -2   -1    0    0    0  501  0.00000000000E+00  0.00000000000E+00 -0.82088649196E+03  0.82088649196E+03  0.25500000920E-02 0.  1.
    10030    2    1    2    0    0  0.00000000000E+00  0.00000000000E+00  0.12119860976E+04  0.28537590815E+04  0.25836080575E+04 0.  0.
        4    1    3    3  502    0 -0.57888171720E+03 -0.45520932590E+03 -0.56632115338E+03  0.92899991096E+03  0.12699999809E+01 0.  1.
       -4    1    3    3    0  502  0.57888171720E+03  0.45520932590E+03  0.17783072510E+04  0.19247591705E+04  0.12699999809E+01 0. -1.
</event>
<event>
 5   0  0.6918420E-06  0.2615734E+04  0.7818609E-02  0.8362876E-01
       -1   -1    0    0    0  501  0.00000000000E+00  0.00000000000E+00  0.81896501877E+03  0.81896501878E+03  0.50400001928E-02 0. -1.
        1   -1    0    0  501    0  0.00000000000E+00  0.00000000000E+00 -0.20886309692E+04  0.20886309692E+04  0.50400001928E-02 0.  1.
    10030    2    1    2    0    0  0.00000000000E+00  0.00000000000E+00 -0.12696659504E+04  0.29075959880E+04  0.26157337027E+04 0.  0.
        4    1    3    3  502    0 -0.35557335591E+03  0.11421316986E+04 -0.12226229975E+04  0.17104694781E+04  0.12699999809E+01 0.  1.
       -4    1    3    3    0  502  0.35557335591E+03 -0.11421316986E+04 -0.47042952895E+02  0.11971265099E+04  0.12699999809E+01 0. -1.
</event>
<event>
 5   0  0.6993678E-06  0.2590305E+04  0.7818609E-02  0.8371502E-01
        1   -1    0    0  501    0  0.00000000000E+00  0.00000000000E+00  0.17680284023E+04  0.17680284023E+04  0.50400001928E-02 0.  1.
       -1   -1    0    0    0  501  0.00000000000E+00  0.00000000000E+00 -0.94875207062E+03  0.94875207063E+03  0.50400001928E-02 0. -1.
    10030    2    1    2    0    0  0.00000000000E+00  0.00000000000E+00  0.81927633169E+03  0.27167804729E+04  0.25903054705E+04 0.  0.
        1    1    3    3  502    0  0.27518610196E+03 -0.29103856434E+03 -0.88216067494E+03  0.96883347025E+03  0.50400001928E-02 0. -1.
       -1    1    3    3    0  502 -0.27518610196E+03  0.29103856434E+03  0.17014370066E+04  0.17479470027E+04  0.50400001928E-02 0.  1.
</event>
<event>
 5   0  0.1677971E-05  0.2595009E+04  0.7818609E-02  0.8369899E-01
        2   -1    0    0  501    0  0.00000000000E+00  0.00000000000E+00  0.16852349098E+04  0.16852349098E+04  0.25500000920E-02 0. -1.
       -2   -1    0    0    0  501  0.00000000000E+00  0.00000000000E+00 -0.99898083568E+03  0.99898083568E+03  0.25500000920E-02 0.  1.
    10030    2    1    2    0    0  0.00000000000E+00  0.00000000000E+00  0.68625407410E+03  0.26842157455E+04  0.25950085769E+04 0.  0.
        4    1    3    3  502    0  0.77853322813E+03 -0.10324079134E+04  0.45422349112E+03  0.13705111016E+04  0.12699999809E+01 0. -1.
       -4    1    3    3    0  502 -0.77853322813E+03  0.10324079134E+04  0.23203058298E+03  0.13137046438E+04  0.12699999809E+01 0.  1.
</event>
<event>
 5   0  0.1720129E-05  0.2314187E+04  0.7818609E-02  0.8472348E-01
        2   -1    0    0  501    0  0.00000000000E+00  0.00000000000E+00  0.18733242830E+04  0.18733242830E+04  0.25500000920E-02 0.  1.
       -2   -1    0    0    0  501  0.00000000000E+00  0.00000000000E+00 -0.71470025361E+03  0.71470025362E+03  0.25500000920E-02 0. -1.
    10030    2    1    2    0    0  0.00000000000E+00  0.00000000000E+00  0.11586240294E+04  0.25880245366E+04  0.23141869761E+04 0.  0.
        3    1    3    3  502    0 -0.14286059271E+03  0.18063924257E+03 -0.68880983648E+03  0.72629104767E+03  0.10100000352E+00 0. -1.
       -3    1    3    3    0  502  0.14286059271E+03 -0.18063924257E+03  0.18474338658E+04  0.18617334889E+04  0.10100000352E+00 0.  1.
</event>
<event>
 5   0  0.7138294E-06  0.2597763E+04  0.7818609E-02  0.8368961E-01
        1   -1    0    0  501    0  0.00000000000E+00  0.00000000000E+00  0.16047406224E+04  0.16047406224E+04  0.50400001928E-02 0. -1.
       -1   -1    0    0    0  501  0.00000000000E+00  0.00000000000E+00 -0.10513181666E+04  0.10513181666E+04  0.50400001928E-02 0.  1.
    10030    2    1    2    0    0  0.00000000000E+00  0.00000000000E+00  0.55342245584E+03  0.26560587890E+04  0.25977628599E+04 0.  0.
        2    1    3    3  502    0  0.75939164575E+03 -0.22367753679E+03  0.13295699576E+04  0.15474054363E+04  0.25500000920E-02 0. -1.
       -2    1    3    3    0  502 -0.75939164575E+03  0.22367753679E+03 -0.77614750173E+03  0.11086533527E+04  0.25500000920E-02 0.  1.
</event>
<event>
 5   0  0.6984287E-06  0.2583795E+04  0.7818609E-02  0.8373727E-01
        1   -1    0    0  501    0  0.00000000000E+00  0.00000000000E+00  0.13331235891E+04  0.13331235891E+04  0.50400001928E-02 0. -1.
       -1   -1    0    0    0  501  0.00000000000E+00  0.00000000000E+00 -0.12519463436E+04  0.12519463436E+04  0.50400001928E-02 0.  1.
    10030    2    1    2    0    0  0.00000000000E+00  0.00000000000E+00  0.81177245539E+02  0.25850699327E+04  0.25837950406E+04 0.  0.
        3    1    3    3  502    0 -0.26246900686E+02  0.16312573666E+03  0.13225093602E+04  0.13327902775E+04  0.10100000352E+00 0. -1.
       -3    1    3    3    0  502  0.26246900686E+02 -0.16312573666E+03 -0.12413321147E+04  0.12522796552E+04  0.10100000352E+00 0.  1.
</event>
<event>
 5   0  0.1681731E-05  0.2589489E+04  0.7818609E-02  0.8371780E-01
        2   -1    0    0  501    0  0.00000000000E+00  0.00000000000E+00  0.21540685192E+04  0.21540685192E+04  0.25500000920E-02 0.  1.
       -2   -1    0    0    0  501  0.00000000000E+00  0.00000000000E+00 -0.77823123928E+03  0.77823123928E+03  0.25500000920E-02 0. -1.
    10030    2    1    2    0    0  0.00000000000E+00  0.00000000000E+00  0.13758372799E+04  0.29322997585E+04  0.25894890718E+04 0.  0.
        2    1    3    3  502    0  0.45005864781E+03 -0.30637204790E+02 -0.68636628761E+03  0.82133434457E+03  0.25500000920E-02 0. -1.
       -2    1    3    3    0  502 -0.45005864781E+03  0.30637204790E+02  0.20622035675E+04  0.21109654139E+04  0.25500000920E-02 0.  1.
</event>
<event>
 5   0  0.1677971E-05  0.2610434E+04  0.7818609E-02  0.8364666E-01
       -2   -1    0    0    0  501  0.00000000000E+00  0.00000000000E+00  0.68909715309E+03  0.68909715309E+03  0.25500000920E-02 0.  1.
        2   -1    0    0  501    0  0.00000000000E+00  0.00000000000E+00 -0.24722069915E+04  0.24722069915E+04  0.25500000920E-02 0. -1.
    10030    2    1    2    0    0  0.00000000000E+00  0.00000000000E+00 -0.17831098385E+04  0.31613041446E+04  0.26104335270E+04 0.  0.
        4    1    3    3  502    0  0.99091675737E+03  0.71685566413E+03 -0.33951925299E+03  0.12692805046E+04  0.12699999809E+01 0. -1.
       -4    1    3    3    0  502 -0.99091675737E+03 -0.71685566413E+03 -0.14435905855E+04  0.18920236401E+04  0.12699999809E+01 0.  1.
</event>
<event>
 5   0  0.6993678E-06  0.2619146E+04  0.7818609E-02  0.8361727E-01
       -1   -1    0    0    0  501  0.00000000000E+00  0.00000000000E+00  0.93624085104E+03  0.93624085105E+03  0.50400001928E-02 0.  1.
        1   -1    0    0  501    0  0.00000000000E+00  0.00000000000E+00 -0.18317735696E+04  0.18317735696E+04  0.50400001928E-02 0. -1.
    10030    2    1    2    0    0  0.00000000000E+00  0.00000000000E+00 -0.89553271857E+03  0.27680144207E+04  0.26191458499E+04 0.  0.
        1    1    3    3  502    0 -0.78632493432E+03  0.10280995597E+04 -0.23723085120E+03  0.13158928846E+04  0.50400001928E-02 0. -1.
       -1    1    3    3    0  502  0.78632493432E+03 -0.10280995597E+04 -0.65830186737E+03  0.14521215361E+04  0.50400001928E-02 0.  1.
</event>
<event>
 5   0  0.6993678E-06  0.2623184E+04  0.7818609E-02  0.8360369E-01
       -1   -1    0    0    0  501  0.00000000000E+00  0.00000000000E+00  0.86392533837E+03  0.86392533838E+03  0.50400001928E-02 0.  1.
        1   -1    0    0  501    0  0.00000000000E+00  0.00000000000E+00 -0.19912292232E+04  0.19912292232E+04  0.50400001928E-02 0. -1.
    10030    2    1    2    0    0  0.00000000000E+00  0.00000000000E+00 -0.11273038848E+04  0.28551545616E+04  0.26231838521E+04 0.  0.
        1    1    3    3  502    0 -0.79864738894E+02 -0.83646643732E+03  0.53248986822E+03  0.99478637760E+03  0.50400001928E-02 0.  1.
       -1    1    3    3    0  502  0.79864738894E+02  0.83646643732E+03 -0.16597937530E+04  0.18603681840E+04  0.50400001928E-02 0. -1.
</event>
<event>
 5   0  0.1720129E-05  0.2589062E+04  0.7818609E-02  0.8371926E-01
        2   -1    0    0  501    0  0.00000000000E+00  0.00000000000E+00  0.13766552275E+04  0.13766552275E+04  0.25500000920E-02 0. -1.
       -2   -1    0    0    0  501  0.00000000000E+00  0.00000000000E+00 -0.12173057969E+04  0.12173057969E+04  0.25500000920E-02 0.  1.
    10030    2    1    2    0    0  0.00000000000E+00  0.00000000000E+00  0.15934943058E+03  0.25939610245E+04  0.25890619065E+04 0.  0.
        3    1    3    3  502    0  0.87798669593E+03 -0.86842662977E+03  0.46871984196E+03  0.13208799150E+04  0.10100000352E+00 0. -1.
       -3    1    3    3    0  502 -0.87798669593E+03  0.86842662977E+03 -0.30937041138E+03  0.12730811094E+04  0.10100000352E+00 0.  1.
</event>
<event>
 5   0  0.6918420E-06  0.2579218E+04  0.7818609E-02  0.8375295E-01
       -1   -1    0    0    0  501  0.00000000000E+00  0.00000000000E+00  0.13025745853E+04  0.13025745853E+04  0.50400001928E-02 0.  1.
        1   -1    0    0  501    0  0.00000000000E+00  0.00000000000E+00 -0.12767729658E+04  0.12767729658E+04  0.50400001928E-02 0. -1.
    10030    2    1    2    0    0  0.00000000000E+00  0.00000000000E+00  0.25801619530E+02  0.25793475511E+04  0.25792184990E+04 0.  0.
        4    1    3    3  502    0  0.20710991271E+03 -0.30494762894E+03  0.12487631254E+04  0.13020363008E+04  0.12699999809E+01 0.  1.
       -4    1    3    3    0  502 -0.20710991271E+03  0.30494762894E+03 -0.12229615059E+04  0.12773112503E+04  0.12699999809E+01 0. -1.
</event>
<event>
 5   0  0.6984287E-06  0.2541826E+04  0.7818609E-02  0.8388234E-01
        1   -1    0    0  501    0  0.00000000000E+00  0.00000000000E+00  0.68155487436E+03  0.68155487438E+03  0.50400001928E-02 0. -1.
       -1   -1    0    0    0  501  0.00000000000E+00  0.00000000000E+00 -0.23699047486E+04  0.23699047486E+04  0.50400001928E-02 0.  1.
    10030    2    1    2    0    0  0.00000000000E+00  0.00000000000E+00 -0.16883498742E+04  0.30514596230E+04  0.25418262200E+04 0.  0.
        3    1    3    3  502    0 -0.82772495908E+03  0.93237914252E+03 -0.11400940232E+04  0.16894596370E+04  0.10100000352E+00 0.  1.
       -3    1    3    3    0  502  0.82772495908E+03 -0.93237914252E+03 -0.54825585104E+03  0.13619999859E+04  0.10100000352E+00 0. -1.
</event>
<event>
 5   0  0.6993678E-06  0.2613448E+04  0.7818609E-02  0.8363647E-01
        1   -1    0    0  501    0  0.00000000000E+00  0.00000000000E+00  0.70410163975E+03  0.70410163977E+03  0.50400001928E-02 0.  1.
       -1   -1    0    0    0  501  0.00000000000E+00  0.00000000000E+00 -0.24251159685E+04  0.24251159685E+04  0.50400001928E-02 0. -1.
    10030    2    1    2    0    0  0.00000000000E+00  0.00000000000E+00 -0.17210143288E+04  0.31292176083E+04  0.26134483963E+04 0.  0.
        1    1    3    3  502    0 -0.58528799026E+03  0.85108484081E+03  0.97838797851E+02  0.10375354780E+04  0.50400001928E-02 0.  1.
       -1    1    3    3    0  502  0.58528799026E+03 -0.85108484081E+03 -0.18188531266E+04  0.20916821302E+04  0.50400001928E-02 0. -1.
</event>
<event>
 5   0  0.6984287E-06  0.2602136E+04  0.7818609E-02  0.8367476E-01
        1   -1    0    0  501    0  0.00000000000E+00  0.00000000000E+00  0.19119127627E+04  0.19119127627E+04  0.50400001928E-02 0.  1.
       -1   -1    0    0    0  501  0.00000000000E+00  0.00000000000E+00 -0.88538445793E+03  0.88538445795E+03  0.50400001928E-02 0. -1.
    10030    2    1    2    0    0  0.00000000000E+00  0.00000000000E+00  0.10265283048E+04  0.27972972207E+04  0.26021359266E+04 0.  0.
        3    1    3    3  502    0  0.12931533204E+04  0.49022799753E+02  0.65800684173E+03  0.14517650495E+04  0.10100000352E+00 0. -1.
       -3    1    3    3    0  502 -0.12931533204E+04 -0.49022799753E+02  0.36852146306E+03  0.13455321712E+04  0.10100000352E+00 0.  1.
</event>
<event>
 5   0  0.1869956E-05  0.2529410E+04  0.7818609E-02  0.8392582E-01
       -2   -1    0    0    0  501  0.00000000000E+00  0.00000000000E+00  0.59746753839E+03  0.59746753840E+03  0.25500000920E-02 0.  1.
        2   -1    0    0  501    0  0.00000000000E+00  0.00000000000E+00 -0.26770971621E+04  0.26770971621E+04  0.25500000920E-02 0. -1.
    10030    2    1    2    0    0  0.00000000000E+00  0.00000000000E+00 -0.20796296237E+04  0.32745647005E+04  0.25294099324E+04 0.  0.
        5    1    3    3  502    0 -0.43312318893E+03 -0.65051958064E+03  0.24743654895E+03  0.81976725804E+03  0.46999998093E+01 0.  1.
       -5    1    3    3    0  502  0.43312318893E+03  0.65051958064E+03 -0.23270661727E+04  0.24547974425E+04  0.46999998093E+01 0. -1.
</event>
<event>
 5   0  0.6918420E-06  0.2604176E+04  0.7818609E-02  0.8366784E-01
        1   -1    0    0  501    0  0.00000000000E+00  0.00000000000E+00  0.10013848231E+04  0.10013848232E+04  0.50400001928E-02 0. -1.
       -1   -1    0    0    0  501  0.00000000000E+00  0.00000000000E+00 -0.16930890611E+04  0.16930890611E+04  0.50400001928E-02 0.  1.
    10030    2    1    2    0    0  0.00000000000E+00  0.00000000000E+00 -0.69170423796E+03  0.26944738843E+04  0.26041764073E+04 0.  0.
        4    1    3    3  502    0 -0.89295787651E+03 -0.57898051527E+03 -0.11220920967E+04  0.15465071913E+04  0.12699999809E+01 0. -1.
       -4    1    3    3    0  502  0.89295787651E+03  0.57898051527E+03  0.43038785878E+03  0.11479666930E+04  0.12699999809E+01 0.  1.
</event>
<event>
 5   0  0.6993678E-06  0.2609987E+04  0.7818609E-02  0.8364817E-01
       -1   -1    0    0    0  501  0.00000000000E+00  0.00000000000E+00  0.17237448537E+04  0.17237448537E+04  0.50400001928E-02 0. -1.
        1   -1    0    0  501    0  0.00000000000E+00  0.00000000000E+00 -0.98796986815E+03  0.98796986817E+03  0.50400001928E-02 0.  1.
    10030    2    1    2    0    0  0.00000000000E+00  0.00000000000E+00  0.73577498552E+03  0.27117147218E+04  0.26099869546E+04 0.  0.
        1    1    3    3  502    0 -0.90020763394E+03  0.41361675447E+03 -0.51466489538E+03  0.11163926542E+04  0.50400001928E-02 0.  1.
       -1    1    3    3    0  502  0.90020763394E+03 -0.41361675447E+03  0.12504398809E+04  0.15953220677E+04  0.50400001928E-02 0. -1.
</event>
<event>
 5   0  0.6984287E-06  0.2542337E+04  0.7818609E-02  0.8388056E-01
        1   -1    0    0  501    0  0.00000000000E+00  0.00000000000E+00  0.18210191616E+04  0.18210191616E+04  0.50400001928E-02 0.  1.
       -1   -1    0    0    0  501  0.00000000000E+00  0.00000000000E+00 -0.88734349806E+03  0.88734349808E+03  0.50400001928E-02 0. -1.
    10030    2    1    2    0    0  0.00000000000E+00  0.00000000000E+00  0.93367566350E+03  0.27083626596E+04  0.25423371239E+04 0.  0.
        3    1    3    3  502    0 -0.12294848939E+04 -0.29058545691E+03  0.61672614880E+03  0.14058535360E+04  0.10100000352E+00 0. -1.
       -3    1    3    3    0  502  0.12294848939E+04  0.29058545691E+03  0.31694951470E+03  0.13025091236E+04  0.10100000352E+00 0.  1.
</event>
<event>
 5   0  0.1869956E-05  0.2685494E+04  0.7818609E-02  0.8339727E-01
        2   -1    0    0  501    0  0.00000000000E+00  0.00000000000E+00  0.19481803101E+04  0.19481803101E+04  0.25500000920E-02 0.  1.
       -2   -1    0    0    0  501  0.00000000000E+00  0.00000000000E+00 -0.92546347371E+03  0.92546347372E+03  0.25500000920E-02 0. -1.
    10030    2    1    2    0    0  0.00000000000E+00  0.00000000000E+00  0.10227168364E+04  0.28736437838E+04  0.26854941573E+04 0.  0.
        5    1    3    3  502    0 -0.49777165683E+03  0.25459295396E+03 -0.79497295277E+03  0.97190446042E+03  0.46999998093E+01 0. -1.
       -5    1    3    3    0  502  0.49777165683E+03 -0.25459295396E+03  0.18176897891E+04  0.19017393234E+04  0.46999998093E+01 0.  1.
</event>
<event>
 5   0  0.1677971E-05  0.2657153E+04  0.7818609E-02  0.8349043E-01
       -2   -1    0    0    0  501  0.00000000000E+00  0.00000000000E+00  0.75065414608E+03  0.75065414608E+03  0.25500000920E-02 0. -1.
        2   -1    0    0  501    0  0.00000000000E+00  0.00000000000E+00 -0.23514362543E+04  0.23514362543E+04  0.25500000920E-02 0.  1.
    10030    2    1    2    0    0  0.00000000000E+00  0.00000000000E+00 -0.16007821082E+04  0.31020904004E+04  0.26571528925E+04 0.  0.
        4    1    3    3  502    0  0.13037773035E+04  0.10824546841E+03 -0.53020436188E+03  0.14116198557E+04  0.12699999809E+01 0. -1.
       -4    1    3    3    0  502 -0.13037773035E+04 -0.10824546841E+03 -0.10705777463E+04  0.16904705447E+04  0.12699999809E+01 0.  1.
</event>
<event>
 5   0  0.6706225E-06  0.2600589E+04  0.7818609E-02  0.8368001E-01
        1   -1    0    0  501    0  0.00000000000E+00  0.00000000000E+00  0.14312953921E+04  0.14312953921E+04  0.50400001928E-02 0.  1.
       -1   -1    0    0    0  501  0.00000000000E+00  0.00000000000E+00 -0.11812836799E+04  0.11812836799E+04  0.50400001928E-02 0. -1.
    10030    2    1    2    0    0  0.00000000000E+00  0.00000000000E+00  0.25001171221E+03  0.26125790720E+04  0.26005890777E+04 0.  0.
        5    1    3    3  502    0 -0.49932743020E+03 -0.21530019735E+03 -0.10615670391E+04  0.11927400077E+04  0.46999998093E+01 0. -1.
       -5    1    3    3    0  502  0.49932743020E+03  0.21530019735E+03  0.13115787513E+04  0.14198390642E+04  0.46999998093E+01 0.  1.
</event>
<event>
 5   0  0.1677971E-05  0.2591561E+04  0.7818609E-02  0.8371073E-01
        2   -1    0    0  501    0  0.00000000000E+00  0.00000000000E+00  0.24929678153E+04  0.24929678153E+04  0.25500000920E-02 0. -1.
       -2   -1    0    0    0  501  0.00000000000E+00  0.00000000000E+00 -0.67351343136E+03  0.67351343136E+03  0.25500000920E-02 0.  1.
    10030    2    1    2    0    0  0.00000000000E+00  0.00000000000E+00  0.18194543839E+04  0.31664812466E+04  0.25915611569E+04 0.  0.
        4    1    3    3  502    0  0.47628587674E+03 -0.78497126262E+03 -0.20745283313E+03  0.94131100620E+03  0.12699999809E+01 0.  1.
       -4    1    3    3    0  502 -0.47628587674E+03  0.78497126262E+03  0.20269072170E+04  0.22251702404E+04  0.12699999809E+01 0. -1.
</event>
<event>
 5   0  0.6984287E-06  0.2594320E+04  0.7818609E-02  0.8370133E-01
       -1   -1    0    0    0  501  0.00000000000E+00  0.00000000000E+00  0.17115396335E+04  0.17115396335E+04  0.50400001928E-02 0. -1.
        1   -1    0    0  501    0  0.00000000000E+00  0.00000000000E+00 -0.98310527929E+03  0.98310527931E+03  0.50400001928E-02 0.  1.
    10030    2    1    2    0    0  0.00000000000E+00  0.00000000000E+00  0.72843435420E+03  0.26946449128E+04  0.25943196792E+04 0.  0.
        3    1    3    3  502    0  0.11314331283E+04  0.31491165546E+03  0.93625379130E+03  0.15019592027E+04  0.10100000352E+00 0. -1.
       -3    1    3    3    0  502 -0.11314331283E+04 -0.31491165546E+03 -0.20781943710E+03  0.11926857101E+04  0.10100000352E+00 0.  1.
</event>
<event>
 5   0  0.1681731E-05  0.2583624E+04  0.7818609E-02  0.8373785E-01
        2   -1    0    0  501    0  0.00000000000E+00  0.00000000000E+00  0.13646613025E+04  0.13646613025E+04  0.25500000920E-02 0. -1.
       -2   -1    0    0    0  501  0.00000000000E+00  0.00000000000E+00 -0.12228515638E+04  0.12228515638E+04  0.25500000920E-02 0.  1.
    10030    2    1    2    0    0  0.00000000000E+00  0.00000000000E+00  0.14180973870E+03  0.25875128664E+04  0.25836239726E+04 0.  0.
        2    1    3    3  502    0  0.27370173165E+02 -0.41687017838E+02 -0.12218871798E+04  0.12229044173E+04  0.25500000920E-02 0.  1.
       -2    1    3    3    0  502 -0.27370173165E+02  0.41687017838E+02  0.13636969185E+04  0.13646084491E+04  0.25500000920E-02 0. -1.
</event>
<event>
 5   0  0.1702345E-05  0.2488998E+04  0.7818609E-02  0.8406916E-01
        2   -1    0    0  501    0  0.00000000000E+00  0.00000000000E+00  0.10273459578E+04  0.10273459578E+04  0.25500000920E-02 0.  1.
       -2   -1    0    0    0  501  0.00000000000E+00  0.00000000000E+00 -0.15075519660E+04  0.15075519660E+04  0.25500000920E-02 0. -1.
    10030    2    1    2    0    0  0.00000000000E+00  0.00000000000E+00 -0.48020600823E+03  0.25348979238E+04  0.24889977248E+04 0.  0.
        1    1    3    3  502    0  0.27017971451E+03 -0.63298887190E+03  0.81589112430E+03  0.10674035398E+04  0.50400001928E-02 0. -1.
       -1    1    3    3    0  502 -0.27017971451E+03  0.63298887190E+03 -0.12960971325E+04  0.14674943840E+04  0.50400001928E-02 0.  1.
</event>
<event>
 5   0  0.6918420E-06  0.2608281E+04  0.7818609E-02  0.8365394E-01
       -1   -1    0    0    0  501  0.00000000000E+00  0.00000000000E+00  0.10380656274E+04  0.10380656274E+04  0.50400001928E-02 0.  1.
        1   -1    0    0  501    0  0.00000000000E+00  0.00000000000E+00 -0.16384156923E+04  0.16384156923E+04  0.50400001928E-02 0. -1.
    10030    2    1    2    0    0  0.00000000000E+00  0.00000000000E+00 -0.60035006486E+03  0.26764813197E+04  0.26082814369E+04 0.  0.
        4    1    3    3  502    0 -0.20176354709E+03 -0.60347110809E+03  0.86796459199E+03  0.10762202623E+04  0.12699999809E+01 0.  1.
       -4    1    3    3    0  502  0.20176354709E+03  0.60347110809E+03 -0.14683146569E+04  0.16002610573E+04  0.12699999809E+01 0. -1.
</event>
<event>
 5   0  0.1702345E-05  0.2600330E+04  0.7818609E-02  0.8368089E-01
       -2   -1    0    0    0  501  0.00000000000E+00  0.00000000000E+00  0.85733134797E+03  0.85733134797E+03  0.25500000920E-02 0.  1.
        2   -1    0    0  501    0  0.00000000000E+00  0.00000000000E+00 -0.19717337426E+04  0.19717337426E+04  0.25500000920E-02 0. -1.
    10030    2    1    2    0    0  0.00000000000E+00  0.00000000000E+00 -0.11144023946E+04  0.28290650906E+04  0.26003300924E+04 0.  0.
        1    1    3    3  502    0 -0.76370602243E+03  0.47475452041E+03 -0.15788394415E+04  0.18169680034E+04  0.50400001928E-02 0. -1.
       -1    1    3    3    0  502  0.76370602243E+03 -0.47475452041E+03  0.46443704686E+03  0.10120970872E+04  0.50400001928E-02 0.  1.
</event>
<event>
 5   0  0.7138294E-06  0.2633931E+04  0.7818609E-02  0.8356766E-01
        1   -1    0    0  501    0  0.00000000000E+00  0.00000000000E+00  0.16654750107E+04  0.16654750107E+04  0.50400001928E-02 0.  1.
       -1   -1    0    0    0  501  0.00000000000E+00  0.00000000000E+00 -0.10413831957E+04  0.10413831957E+04  0.50400001928E-02 0. -1.
    10030    2    1    2    0    0  0.00000000000E+00  0.00000000000E+00  0.62409181498E+03  0.27068582063E+04  0.26339306665E+04 0.  0.
        2    1    3    3  502    0 -0.52154748755E+03  0.97958865714E+03 -0.41666510779E+03  0.11854178719E+04  0.25500000920E-02 0. -1.
       -2    1    3    3    0  502  0.52154748755E+03 -0.97958865714E+03  0.10407569228E+04  0.15214403344E+04  0.25500000920E-02 0.  1.
</event>
<event>
 5   0  0.1677971E-05  0.2601787E+04  0.7818609E-02  0.8367595E-01
        2   -1    0    0  501    0  0.00000000000E+00  0.00000000000E+00  0.14040834928E+04  0.14040834928E+04  0.25500000920E-02 0. -1.
       -2   -1    0    0    0  501  0.00000000000E+00  0.00000000000E+00 -0.12052868748E+04  0.12052868748E+04  0.25500000920E-02 0.  1.
    10030    2    1    2    0    0  0.00000000000E+00  0.00000000000E+00  0.19879661804E+03  0.26093703677E+04  0.26017866208E+04 0.  0.
        4    1    3    3  502    0 -0.24049598092E+03  0.12464912282E+04 -0.18558323930E+03  0.12829736749E+04  0.12699999809E+01 0.  1.
       -4    1    3    3    0  502  0.24049598092E+03 -0.12464912282E+04  0.38437985733E+03  0.13263966927E+04  0.12699999809E+01 0. -1.
</event>
<event>
 5   0  0.1720129E-05  0.2601089E+04  0.7818609E-02  0.8367831E-01
       -2   -1    0    0    0  501  0.00000000000E+00  0.00000000000E+00  0.78529564662E+03  0.78529564662E+03  0.25500000920E-02 0. -1.
        2   -1    0    0  501    0  0.00000000000E+00  0.00000000000E+00 -0.21538583284E+04  0.21538583284E+04  0.25500000920E-02 0.  1.
    10030    2    1    2    0    0  0.00000000000E+00  0.00000000000E+00 -0.13685626818E+04  0.29391539750E+04  0.26010886711E+04 0.  0.
        3    1    3    3  502    0  0.68677574389E+03  0.54404732466E+03  0.40176519984E+03  0.96387950485E+03  0.10100000352E+00 0. -1.
       -3    1    3    3    0  502 -0.68677574389E+03 -0.54404732466E+03 -0.17703278816E+04  0.19752744702E+04  0.10100000352E+00 0.  1.
</event>
<event>
 5   0  0.7138294E-06  0.2593529E+04  0.7818609E-02  0.8370402E-01
       -1   -1    0    0    0  501  0.00000000000E+00  0.00000000000E+00  0.16409289878E+04  0.16409289878E+04  0.50400001928E-02 0. -1.
        1   -1    0    0  501    0  0.00000000000E+00  0.00000000000E+00 -0.10247843977E+04  0.10247843977E+04  0.50400001928E-02 0.  1.
    10030    2    1    2    0    0  0.00000000000E+00  0.00000000000E+00  0.61614459010E+03  0.26657133855E+04  0.25935291974E+04 0.  0.
        2    1    3    3  502    0  0.63971777879E+02 -0.11733539369E+04 -0.25559476515E+03  0.12025724650E+04  0.25500000920E-02 0.  1.
       -2    1    3    3    0  502 -0.63971777879E+02  0.11733539369E+04  0.87173935525E+03  0.14631409205E+04  0.25500000920E-02 0. -1.
</event>
<event>
 5   0  0.6918420E-06  0.2607687E+04  0.7818609E-02  0.8365595E-01
        1   -1    0    0  501    0  0.00000000000E+00  0.00000000000E+00  0.19532042083E+04  0.19532042083E+04  0.50400001928E-02 0. -1.
       -1   -1    0    0    0  501  0.00000000000E+00  0.00000000000E+00 -0.87036902132E+03  0.87036902134E+03  0.50400001928E-02 0.  1.
    10030    2    1    2    0    0  0.00000000000E+00  0.00000000000E+00  0.10828351869E+04  0.28235732296E+04  0.26076874316E+04 0.  0.
        4    1    3    3  502    0  0.11699710754E+04  0.15918962290E+03 -0.57387952887E+02  0.11821457792E+04  0.12699999809E+01 0. -1.
       -4    1    3    3    0  502 -0.11699710754E+04 -0.15918962290E+03  0.11402231398E+04  0.16414274504E+04  0.12699999809E+01 0.  1.
</event>
<event>
 5   0  0.6984287E-06  0.2604630E+04  0.7818609E-02  0.8366630E-01
        1   -1    0    0  501    0  0.00000000000E+00  0.00000000000E+00  0.17172673682E+04  0.17172673682E+04  0.50400001928E-02 0. -1.
       -1   -1    0    0    0  501  0.00000000000E+00  0.00000000000E+00 -0.98762951062E+03  0.98762951063E+03  0.50400001928E-02 0.  1.
    10030    2    1    2    0    0  0.00000000000E+00  0.00000000000E+00  0.72963785761E+03  0.27048968789E+04  0.26046296708E+04 0.  0.
        3    1    3    3  502    0  0.70817009138E+03  0.92653715336E+03 -0.23719335297E+03  0.11900574237E+04  0.10100000352E+00 0.  1.
       -3    1    3    3    0  502 -0.70817009138E+03 -0.92653715336E+03  0.96683121058E+03  0.15148394551E+04  0.10100000352E+00 0. -1.
</event>
<event>
 5   0  0.6984287E-06  0.2480263E+04  0.7818609E-02  0.8410051E-01
       -1   -1    0    0    0  501  0.00000000000E+00  0.00000000000E+00  0.12182066720E+04  0.12182066720E+04  0.50400001928E-02 0. -1.
        1   -1    0    0  501    0  0.00000000000E+00  0.00000000000E+00 -0.12624510624E+04  0.12624510624E+04  0.50400001928E-02 0.  1.
    10030    2    1    2    0    0  0.00000000000E+00  0.00000000000E+00 -0.44244390414E+02  0.24806577344E+04  0.24802631371E+04 0.  0.
        3    1    3    3  502    0  0.51712663887E+03 -0.97358566011E+03  0.54597987923E+03  0.12301963408E+04  0.10100000352E+00 0. -1.
       -3    1    3    3    0  502 -0.51712663887E+03  0.97358566011E+03 -0.59022426964E+03  0.12504613936E+04  0.10100000352E+00 0.  1.
</event>
<event>
 5   0  0.1702345E-05  0.2601530E+04  0.7818609E-02  0.8367682E-01
        2   -1    0    0  501    0  0.00000000000E+00  0.00000000000E+00  0.19469296224E+04  0.19469296225E+04  0.25500000920E-02 0.  1.
       -2   -1    0    0    0  501  0.00000000000E+00  0.00000000000E+00 -0.86905554326E+03  0.86905554326E+03  0.25500000920E-02 0. -1.
    10030    2    1    2    0    0  0.00000000000E+00  0.00000000000E+00  0.10778740792E+04  0.28159851657E+04  0.26015303041E+04 0.  0.
        1    1    3    3  502    0  0.58457709860E+03 -0.57563220794E+03  0.16315561193E+04  0.18262141697E+04  0.50400001928E-02 0.  1.
       -1    1    3    3    0  502 -0.58457709860E+03  0.57563220794E+03 -0.55368204012E+03  0.98977099604E+03  0.50400001928E-02 0. -1.
</event>
<event>
 5   0  0.1869956E-05  0.2623582E+04  0.7818609E-02  0.8360235E-01
       -2   -1    0    0    0  501  0.00000000000E+00  0.00000000000E+00  0.61257765618E+03  0.61257765618E+03  0.25500000920E-02 0.  1.
        2   -1    0    0  501    0  0.00000000000E+00  0.00000000000E+00 -0.28091059700E+04  0.28091059700E+04  0.25500000920E-02 0. -1.
    10030    2    1    2    0    0  0.00000000000E+00  0.00000000000E+00 -0.21965283138E+04  0.34216836261E+04  0.26235819416E+04 0.  0.
        5    1    3    3  502    0 -0.41216042542E+03  0.45219487194E+03 -0.26115989557E+04  0.26823175826E+04  0.46999998093E+01 0. -1.
       -5    1    3    3    0  502  0.41216042542E+03 -0.45219487194E+03  0.41507064195E+03  0.73936604351E+03  0.46999998093E+01 0.  1.
</event>
<event>
 5   0  0.1681731E-05  0.2366312E+04  0.7818609E-02  0.8452225E-01
        2   -1    0    0  501    0  0.00000000000E+00  0.00000000000E+00  0.15364275840E+04  0.15364275840E+04  0.25500000920E-02 0.  1.
       -2   -1    0    0    0  501  0.00000000000E+00  0.00000000000E+00 -0.91111247643E+03  0.91111247643E+03  0.25500000920E-02 0. -1.
    10030    2    1    2    0    0  0.00000000000E+00  0.00000000000E+00  0.62531510760E+03  0.24475400605E+04  0.23663121865E+04 0.  0.
        2    1    3    3  502    0  0.38525765501E+03 -0.10555038686E+04  0.69598199332E+03  0.13217045103E+04  0.25500000920E-02 0.  1.
       -2    1    3    3    0  502 -0.38525765501E+03  0.10555038686E+04 -0.70666885721E+02  0.11258355502E+04  0.25500000920E-02 0. -1.
</event>
<event>
 5   0  0.6993678E-06  0.2491109E+04  0.7818609E-02  0.8406160E-01
       -1   -1    0    0    0  501  0.00000000000E+00  0.00000000000E+00  0.17733196364E+04  0.17733196364E+04  0.50400001928E-02 0. -1.
        1   -1    0    0  501    0  0.00000000000E+00  0.00000000000E+00 -0.87485979873E+03  0.87485979874E+03  0.50400001928E-02 0.  1.
    10030    2    1    2    0    0  0.00000000000E+00  0.00000000000E+00  0.89845983764E+03  0.26481794351E+04  0.24911090383E+04 0.  0.
        1    1    3    3  502    0 -0.70556239873E+03 -0.26443999999E+03 -0.60510116577E+03  0.96638203260E+03  0.50400001928E-02 0.  1.
       -1    1    3    3    0  502  0.70556239873E+03  0.26443999999E+03  0.15035610034E+04  0.16817974025E+04  0.50400001928E-02 0. -1.
</event>
<event>
 5   0  0.1681731E-05  0.2583846E+04  0.7818609E-02  0.8373709E-01
       -2   -1    0    0    0  501  0.00000000000E+00  0.00000000000E+00  0.11933428814E+04  0.11933428814E+04  0.25500000920E-02 0. -1.
        2   -1    0    0  501    0  0.00000000000E+00  0.00000000000E+00 -0.13986470716E+04  0.13986470716E+04  0.25500000920E-02 0.  1.
    10030    2    1    2    0    0  0.00000000000E+00  0.00000000000E+00 -0.20530419024E+03  0.25919899530E+04  0.25838463782E+04 0.  0.
        2    1    3    3  502    0 -0.10289743457E+04  0.30525344809E+03 -0.82401351021E+03  0.13531319731E+04  0.25500000920E-02 0.  1.
       -2    1    3    3    0  502  0.10289743457E+04 -0.30525344809E+03  0.61870931996E+03  0.12388579799E+04  0.25500000920E-02 0. -1.
</event>
<event>
 5   0  0.6993678E-06  0.2619916E+04  0.7818609E-02  0.8361467E-01
       -1   -1    0    0    0  501  0.00000000000E+00  0.00000000000E+00  0.13570461344E+04  0.13570461344E+04  0.50400001928E-02 0. -1.
        1   -1    0    0  501    0  0.00000000000E+00  0.00000000000E+00 -0.12645039149E+04  0.12645039149E+04  0.50400001928E-02 0.  1.
    10030    2    1    2    0    0  0.00000000000E+00  0.00000000000E+00  0.92542219493E+02  0.26215500493E+04  0.26199161434E+04 0.  0.
        1    1    3    3  502    0 -0.10867988416E+04  0.24161053075E+03  0.73697892015E+03  0.13351574063E+04  0.50400001928E-02 0. -1.
       -1    1    3    3    0  502  0.10867988416E+04 -0.24161053075E+03 -0.64443670066E+03  0.12863926430E+04  0.50400001928E-02 0.  1.
</event>
<event>
 5   0  0.6706225E-06  0.2569329E+04  0.7818609E-02  0.8378695E-01
       -1   -1    0    0    0  501  0.00000000000E+00  0.00000000000E+00  0.18526802264E+04  0.18526802264E+04  0.50400001928E-02 0.  1.
        1   -1    0    0  501    0  0.00000000000E+00  0.00000000000E+00 -0.89079740536E+03  0.89079740537E+03  0.50400001928E-02 0. -1.
    10030    2    1    2    0    0  0.00000000000E+00  0.00000000000E+00  0.96188282104E+03  0.27434776318E+04  0.25693288919E+04 0.  0.
        5    1    3    3  502    0 -0.67759262384E+03  0.10768131358E+04  0.29088152933E+03  0.13051024663E+04  0.46999998093E+01 0.  1.
       -5    1    3    3    0  502  0.67759262384E+03 -0.10768131358E+04  0.67100129171E+03  0.14383751655E+04  0.46999998093E+01 0. -1.
</event>
<event>
 5   0  0.1677971E-05  0.2119848E+04  0.7818609E-02  0.8552550E-01
        2   -1    0    0  501    0  0.00000000000E+00  0.00000000000E+00  0.17186692273E+04  0.17186692273E+04  0.25500000920E-02 0. -1.
       -2   -1    0    0    0  501  0.00000000000E+00  0.00000000000E+00 -0.65366788887E+03  0.65366788887E+03  0.25500000920E-02 0.  1.
    10030    2    1    2    0    0  0.00000000000E+00  0.00000000000E+00  0.10650013384E+04  0.23723371162E+04  0.21198479997E+04 0.  0.
        4    1    3    3  502    0  0.19328792942E+03 -0.17265234064E+03  0.16826620689E+04  0.17025047153E+04  0.12699999809E+01 0. -1.
       -4    1    3    3    0  502 -0.19328792942E+03  0.17265234064E+03 -0.61766073051E+03  0.66983240090E+03  0.12699999809E+01 0.  1.
</event>
<event>
 5   0  0.6984287E-06  0.2596529E+04  0.7818609E-02  0.8369381E-01
       -1   -1    0    0    0  501  0.00000000000E+00  0.00000000000E+00  0.13145269742E+04  0.13145269742E+04  0.50400001928E-02 0.  1.
        1   -1    0    0  501    0  0.00000000000E+00  0.00000000000E+00 -0.12822032328E+04  0.12822032328E+04  0.50400001928E-02 0. -1.
    10030    2    1    2    0    0  0.00000000000E+00  0.00000000000E+00  0.32323741353E+02  0.25967302070E+04  0.25965290185E+04 0.  0.
        3    1    3    3  502    0 -0.59539253134E+02  0.11263981474E+04 -0.62667329271E+03  0.12903631796E+04  0.10100000352E+00 0. -1.
       -3    1    3    3    0  502  0.59539253134E+02 -0.11263981474E+04  0.65899703406E+03  0.13063670274E+04  0.10100000352E+00 0.  1.
</event>
<event>
 5   0  0.5840500E-06  0.2510707E+04  0.7818609E-02  0.8399181E-01
       -3   -1    0    0    0  501  0.00000000000E+00  0.00000000000E+00  0.70868533175E+03  0.70868533895E+03  0.10100000352E+00 0. -1.
        3   -1    0    0  501    0  0.00000000000E+00  0.00000000000E+00 -0.22237120246E+04  0.22237120269E+04  0.10100000352E+00 0.  1.
    10030    2    1    2    0    0  0.00000000000E+00  0.00000000000E+00 -0.15150266928E+04  0.29323973658E+04  0.25107067593E+04 0.  0.
        1    1    3    3  502    0  0.10183367124E+04 -0.31642662645E+03  0.16143863203E+02  0.10664877374E+04  0.50400001928E-02 0. -1.
       -1    1    3    3    0  502 -0.10183367124E+04  0.31642662645E+03 -0.15311705560E+04  0.18659096284E+04  0.50400001928E-02 0.  1.
</event>
<event>
 5   0  0.6993678E-06  0.2648287E+04  0.7818609E-02  0.8351982E-01
       -1   -1    0    0    0  501  0.00000000000E+00  0.00000000000E+00  0.86489850891E+03  0.86489850892E+03  0.50400001928E-02 0.  1.
        1   -1    0    0  501    0  0.00000000000E+00  0.00000000000E+00 -0.20272394720E+04  0.20272394720E+04  0.50400001928E-02 0. -1.
    10030    2    1    2    0    0  0.00000000000E+00  0.00000000000E+00 -0.11623409630E+04  0.28921379809E+04  0.26482872930E+04 0.  0.
        1    1    3    3  502    0  0.12045070084E+04 -0.54997292919E+03 -0.58881818095E+03  0.14491425763E+04  0.50400001928E-02 0.  1.
       -1    1    3    3    0  502 -0.12045070084E+04  0.54997292919E+03 -0.57352278210E+03  0.14429954046E+04  0.50400001928E-02 0. -1.
</event>
<event>
 5   0  0.7138294E-06  0.2602228E+04  0.7818609E-02  0.8367445E-01
       -1   -1    0    0    0  501  0.00000000000E+00  0.00000000000E+00  0.10382958657E+04  0.10382958657E+04  0.50400001928E-02 0. -1.
        1   -1    0    0  501    0  0.00000000000E+00  0.00000000000E+00 -0.16304578905E+04  0.16304578905E+04  0.50400001928E-02 0.  1.
    10030    2    1    2    0    0  0.00000000000E+00  0.00000000000E+00 -0.59216202482E+03  0.26687537562E+04  0.26022280353E+04 0.  0.
        2    1    3    3  502    0  0.68348057653E+03 -0.13666359308E+03 -0.14228380749E+04  0.15843897322E+04  0.25500000920E-02 0.  1.
       -2    1    3    3    0  502 -0.68348057653E+03  0.13666359308E+03  0.83067605011E+03  0.10843640239E+04  0.25500000920E-02 0. -1.
</event>
<event>
 5   0  0.6918420E-06  0.2611084E+04  0.7818609E-02  0.8364446E-01
        1   -1    0    0  501    0  0.00000000000E+00  0.00000000000E+00  0.28561687795E+04  0.28561687795E+04  0.50400001928E-02 0.  1.
       -1   -1    0    0    0  501  0.00000000000E+00  0.00000000000E+00 -0.59675756388E+03  0.59675756390E+03  0.50400001928E-02 0. -1.
    10030    2    1    2    0    0  0.00000000000E+00  0.00000000000E+00  0.22594112156E+04  0.34529263434E+04  0.26110843134E+04 0.  0.
        4    1    3    3  502    0  0.42062520336E+03  0.10570813949E+04  0.28285441066E+03  0.11723288223E+04  0.12699999809E+01 0. -1.
       -4    1    3    3    0  502 -0.42062520336E+03 -0.10570813949E+04  0.19765568050E+04  0.22805975211E+04  0.12699999809E+01 0.  1.
</event>
<event>
 5   0  0.6706225E-06  0.2597907E+04  0.7818609E-02  0.8368913E-01
       -1   -1    0    0    0  501  0.00000000000E+00  0.00000000000E+00  0.70431198189E+03  0.70431198191E+03  0.50400001928E-02 0.  1.
        1   -1    0    0  501    0  0.00000000000E+00  0.00000000000E+00 -0.23956430300E+04  0.23956430300E+04  0.50400001928E-02 0. -1.
    10030    2    1    2    0    0  0.00000000000E+00  0.00000000000E+00 -0.16913310481E+04  0.30999550120E+04  0.25979069194E+04 0.  0.
        5    1    3    3  502    0  0.12506319759E+04  0.11165546741E+03 -0.12426985540E+04  0.17665981628E+04  0.46999998093E+01 0. -1.
       -5    1    3    3    0  502 -0.12506319759E+04 -0.11165546741E+03 -0.44863249413E+03  0.13333568492E+04  0.46999998093E+01 0.  1.
</event>
<event>
 5   0  0.1702345E-05  0.2592758E+04  0.7818609E-02  0.8370665E-01
       -2   -1    0    0    0  501  0.00000000000E+00  0.00000000000E+00  0.86286195301E+03  0.86286195302E+03  0.25500000920E-02 0.  1.
        2   -1    0    0  501    0  0.00000000000E+00  0.00000000000E+00 -0.19477024225E+04  0.19477024225E+04  0.25500000920E-02 0. -1.
    10030    2    1    2    0    0  0.00000000000E+00  0.00000000000E+00 -0.10848404694E+04  0.28105643755E+04  0.25927578492E+04 0.  0.
        1    1    3    3  502    0  0.88834910582E+03 -0.59201677398E+03  0.25485866624E+03  0.10975431355E+04  0.50400001928E-02 0.  1.
       -1    1    3    3    0  502 -0.88834910582E+03  0.59201677398E+03 -0.13396991357E+04  0.17130212400E+04  0.50400001928E-02 0. -1.
</event>
<event>
 5   0  0.7138294E-06  0.2614055E+04  0.7818609E-02  0.8363443E-01
       -1   -1    0    0    0  501  0.00000000000E+00  0.00000000000E+00  0.12182164882E+04  0.12182164882E+04  0.50400001928E-02 0.  1.
        1   -1    0    0  501    0  0.00000000000E+00  0.00000000000E+00 -0.14023128694E+04  0.14023128694E+04  0.50400001928E-02 0. -1.
    10030    2    1    2    0    0  0.00000000000E+00  0.00000000000E+00 -0.18409638118E+03  0.26205293576E+04  0.26140548266E+04 0.  0.
        2    1    3    3  502    0  0.38294333537E+03 -0.12353339455E+04  0.97165435740E+02  0.12969721187E+04  0.25500000920E-02 0.  1.
       -2    1    3    3    0  502 -0.38294333537E+03  0.12353339455E+04 -0.28126181692E+03  0.13235572389E+04  0.25500000920E-02 0. -1.
</event>
<event>
 5   0  0.1720129E-05  0.2576312E+04  0.7818609E-02  0.8376292E-01
        2   -1    0    0  501    0  0.00000000000E+00  0.00000000000E+00  0.14127764335E+04  0.14127764335E+04  0.25500000920E-02 0.  1.
       -2   -1    0    0    0  501  0.00000000000E+00  0.00000000000E+00 -0.11745284802E+04  0.11745284802E+04  0.25500000920E-02 0. -1.
    10030    2    1    2    0    0  0.00000000000E+00  0.00000000000E+00  0.23824795333E+03  0.25873049136E+04  0.25763122149E+04 0.  0.
        3    1    3    3  502    0  0.72890246826E+03  0.51551705740E+03  0.10516815861E+04  0.13795255755E+04  0.10100000352E+00 0.  1.
       -3    1    3    3    0  502 -0.72890246826E+03 -0.51551705740E+03 -0.81343363272E+03  0.12077793382E+04  0.10100000352E+00 0. -1.
</event>
<event>
 5   0  0.6918420E-06  0.2590799E+04  0.7818609E-02  0.8371333E-01
        1   -1    0    0  501    0  0.00000000000E+00  0.00000000000E+00  0.17239393822E+04  0.17239393822E+04  0.50400001928E-02 0.  1.
       -1   -1    0    0    0  501  0.00000000000E+00  0.00000000000E+00 -0.97338708978E+03  0.97338708979E+03  0.50400001928E-02 0. -1.
    10030    2    1    2    0    0  0.00000000000E+00  0.00000000000E+00  0.75055229242E+03  0.26973264720E+04  0.25907993656E+04 0.  0.
        4    1    3    3  502    0  0.71701887651E+03  0.22862802689E+03  0.14729872138E+04  0.16541099688E+04  0.12699999809E+01 0.  1.
       -4    1    3    3    0  502 -0.71701887651E+03 -0.22862802689E+03 -0.72243492141E+03  0.10432165032E+04  0.12699999809E+01 0. -1.
</event>
<event>
 5   0  0.1702345E-05  0.2556578E+04  0.7818609E-02  0.8383102E-01
        2   -1    0    0  501    0  0.00000000000E+00  0.00000000000E+00  0.27494446741E+04  0.27494446741E+04  0.25500000920E-02 0. -1.
       -2   -1    0    0    0  501  0.00000000000E+00  0.00000000000E+00 -0.59431027590E+03  0.59431027590E+03  0.25500000920E-02 0.  1.
    10030    2    1    2    0    0  0.00000000000E+00  0.00000000000E+00  0.21551343982E+04  0.33437549500E+04  0.25565783562E+04 0.  0.
        1    1    3    3  502    0  0.83567114609E+02  0.12408286708E+04  0.14641933448E+04  0.19210677770E+04  0.50400001928E-02 0. -1.
       -1    1    3    3    0  502 -0.83567114609E+02 -0.12408286708E+04  0.69094105347E+03  0.14226871730E+04  0.50400001928E-02 0.  1.
</event>
<event>
 5   0  0.6984287E-06  0.2701793E+04  0.7818609E-02  0.8334423E-01
        1   -1    0    0  501    0  0.00000000000E+00  0.00000000000E+00  0.13596900702E+04  0.13596900702E+04  0.50400001928E-02 0. -1.
       -1   -1    0    0    0  501  0.00000000000E+00  0.00000000000E+00 -0.13421601446E+04  0.13421601446E+04  0.50400001928E-02 0.  1.
    10030    2    1    2    0    0  0.00000000000E+00  0.00000000000E+00  0.17529925565E+02  0.27018502148E+04  0.27017933461E+04 0.  0.
        3    1    3    3  502    0 -0.42116237408E+03  0.38448789654E+03  0.12334184882E+04  0.13588708052E+04  0.10100000352E+00 0. -1.
       -3    1    3    3    0  502  0.42116237408E+03 -0.38448789654E+03 -0.12158885626E+04  0.13429794097E+04  0.10100000352E+00 0.  1.
</event>
<event>
 5   0  0.1677971E-05  0.2555450E+04  0.7818609E-02  0.8383493E-01
       -2   -1    0    0    0  501  0.00000000000E+00  0.00000000000E+00  0.10585955229E+04  0.10585955229E+04  0.25500000920E-02 0.  1.
        2   -1    0    0  501    0  0.00000000000E+00  0.00000000000E+00 -0.15422145844E+04  0.15422145844E+04  0.25500000920E-02 0. -1.
    10030    2    1    2    0    0  0.00000000000E+00  0.00000000000E+00 -0.48361906154E+03  0.26008101073E+04  0.25554502181E+04 0.  0.
        4    1    3    3  502    0 -0.29202221479E+03  0.69184841678E+02 -0.15058358120E+04  0.15354499737E+04  0.12699999809E+01 0. -1.
       -4    1    3    3    0  502  0.29202221479E+03 -0.69184841678E+02  0.10222167505E+04  0.10653601335E+04  0.12699999809E+01 0.  1.
</event>
<event>
 5   0  0.1677971E-05  0.2600088E+04  0.7818609E-02  0.8368171E-01
        2   -1    0    0  501    0  0.00000000000E+00  0.00000000000E+00  0.18880722629E+04  0.18880722629E+04  0.25500000920E-02 0. -1.
       -2   -1    0    0    0  501  0.00000000000E+00  0.00000000000E+00 -0.89515349894E+03  0.89515349895E+03  0.25500000920E-02 0.  1.
    10030    2    1    2    0    0  0.00000000000E+00  0.00000000000E+00  0.99291876393E+03  0.27832257618E+04  0.26000880696E+04 0.  0.
        4    1    3    3  502    0  0.10155852710E+04  0.60926465987E+03  0.10704123271E+04  0.15963712073E+04  0.12699999809E+01 0. -1.
       -4    1    3    3    0  502 -0.10155852710E+04 -0.60926465987E+03 -0.77493563182E+02  0.11868545546E+04  0.12699999809E+01 0.  1.
</event>
<event>
 5   0  0.1869956E-05  0.2623062E+04  0.7818609E-02  0.8360410E-01
       -2   -1    0    0    0  501  0.00000000000E+00  0.00000000000E+00  0.74368501387E+03  0.74368501388E+03  0.25500000920E-02 0. -1.
        2   -1    0    0  501    0  0.00000000000E+00  0.00000000000E+00 -0.23129590853E+04  0.23129590853E+04  0.25500000920E-02 0.  1.
    10030    2    1    2    0    0  0.00000000000E+00  0.00000000000E+00 -0.15692740714E+04  0.30566440992E+04  0.26230615772E+04 0.  0.
        5    1    3    3  502    0 -0.58587760204E+03  0.62685439071E+03  0.37123587953E+03  0.93489954539E+03  0.46999998093E+01 0. -1.
       -5    1    3    3    0  502  0.58587760204E+03 -0.62685439071E+03 -0.19405099510E+04  0.21217445538E+04  0.46999998093E+01 0.  1.
</event>
<event>
 5   0  0.1681731E-05  0.2578165E+04  0.7818609E-02  0.8375656E-01
        2   -1    0    0  501    0  0.00000000000E+00  0.00000000000E+00  0.23195376899E+04  0.23195376899E+04  0.25500000920E-02 0. -1.
       -2   -1    0    0    0  501  0.00000000000E+00  0.00000000000E+00 -0.71640754821E+03  0.71640754821E+03  0.25500000920E-02 0.  1.
    10030    2    1    2    0    0  0.00000000000E+00  0.00000000000E+00  0.16031301417E+04  0.30359452381E+04  0.25781654791E+04 0.  0.
        2    1    3    3  502    0 -0.11262011154E+03 -0.95638632262E+03 -0.20755407903E+03  0.98510749837E+03  0.25500000920E-02 0.  1.
       -2    1    3    3    0  502  0.11262011154E+03  0.95638632262E+03  0.18106842207E+04  0.20508377398E+04  0.25500000920E-02 0. -1.
</event>
<event>
 5   0  0.1720129E-05  0.2608465E+04  0.7818609E-02  0.8365331E-01
        2   -1    0    0  501    0  0.00000000000E+00  0.00000000000E+00  0.16049469138E+04  0.16049469138E+04  0.25500000920E-02 0.  1.
       -2   -1    0    0    0  501  0.00000000000E+00  0.00000000000E+00 -0.10598624535E+04  0.10598624535E+04  0.25500000920E-02 0. -1.
    10030    2    1    2    0    0  0.00000000000E+00  0.00000000000E+00  0.54508446031E+03  0.26648093672E+04  0.26084654291E+04 0.  0.
        3    1    3    3  502    0  0.17899863997E+03  0.12087592072E+04 -0.19324889160E+03  0.12371275109E+04  0.10100000352E+00 0. -1.
       -3    1    3    3    0  502 -0.17899863997E+03 -0.12087592072E+04  0.73833335191E+03  0.14276818563E+04  0.10100000352E+00 0.  1.
</event>
<event>
 5   0  0.1720129E-05  0.2596612E+04  0.7818609E-02  0.8369353E-01
        2   -1    0    0  501    0  0.00000000000E+00  0.00000000000E+00  0.13002270786E+04  0.13002270786E+04  0.25500000920E-02 0.  1.
       -2   -1    0    0    0  501  0.00000000000E+00  0.00000000000E+00 -0.12963873494E+04  0.12963873494E+04  0.25500000920E-02 0. -1.
    10030    2    1    2    0    0  0.00000000000E+00  0.00000000000E+00  0.38397291808E+01  0.25966144280E+04  0.25966115890E+04 0.  0.
        3    1    3    3  502    0  0.27285501835E+03 -0.11807643866E+04 -0.46385261482E+03  0.12976184555E+04  0.10100000352E+00 0. -1.
       -3    1    3    3    0  502 -0.27285501835E+03  0.11807643866E+04  0.46769234400E+03  0.12989959725E+04  0.10100000352E+00 0.  1.
</event>
<event>
 5   0  0.1681731E-05  0.2553605E+04  0.7818609E-02  0.8384133E-01
       -2   -1    0    0    0  501  0.00000000000E+00  0.00000000000E+00  0.18664817782E+04  0.18664817782E+04  0.25500000920E-02 0.  1.
        2   -1    0    0  501    0  0.00000000000E+00  0.00000000000E+00 -0.87342121649E+03  0.87342121649E+03  0.25500000920E-02 0. -1.
    10030    2    1    2    0    0  0.00000000000E+00  0.00000000000E+00  0.99306056173E+03  0.27399029947E+04  0.25536051263E+04 0.  0.
        2    1    3    3  502    0  0.89069818056E+03 -0.46454267672E+03 -0.34905183762E+03  0.10634755910E+04  0.25500000920E-02 0. -1.
       -2    1    3    3    0  502 -0.89069818056E+03  0.46454267672E+03  0.13421123993E+04  0.16764274037E+04  0.25500000920E-02 0.  1.
</event>
<event>
 5   0  0.5840500E-06  0.2565704E+04  0.7818609E-02  0.8379945E-01
        4   -1    0    0  501    0  0.00000000000E+00  0.00000000000E+00  0.11456815305E+04  0.11456822344E+04  0.12699999809E+01 0. -1.
       -4   -1    0    0    0  501  0.00000000000E+00  0.00000000000E+00 -0.14364440227E+04  0.14364445841E+04  0.12699999809E+01 0.  1.
    10030    2    1    2    0    0  0.00000000000E+00  0.00000000000E+00 -0.29076249220E+03  0.25821268184E+04  0.25657038176E+04 0.  0.
        4    1    3    3  502    0 -0.10571801897E+03 -0.49104844590E+03 -0.13333618378E+04  0.14248369307E+04  0.12699999809E+01 0.  1.
       -4    1    3    3    0  502  0.10571801897E+03  0.49104844590E+03  0.10425993456E+04  0.11572898877E+04  0.12699999809E+01 0. -1.
</event>
<event>
 5   0  0.1720129E-05  0.2602960E+04  0.7818609E-02  0.8367197E-01
       -2   -1    0    0    0  501  0.00000000000E+00  0.00000000000E+00  0.12105391704E+04  0.12105391704E+04  0.25500000920E-02 0.  1.
        2   -1    0    0  501    0  0.00000000000E+00  0.00000000000E+00 -0.13992524866E+04  0.13992524866E+04  0.25500000920E-02 0. -1.
    10030    2    1    2    0    0  0.00000000000E+00  0.00000000000E+00 -0.18871331626E+03  0.26097916570E+04  0.26029598109E+04 0.  0.
        3    1    3    3  502    0  0.12275874431E+04  0.16452885380E+03  0.30645407773E+03  0.12759133145E+04  0.10100000352E+00 0. -1.
       -3    1    3    3    0  502 -0.12275874431E+04 -0.16452885380E+03 -0.49516739399E+03  0.13338783425E+04  0.10100000352E+00 0.  1.
</event>
<event>
 5   0  0.6993678E-06  0.2607550E+04  0.7818609E-02  0.8365641E-01
       -1   -1    0    0    0  501  0.00000000000E+00  0.00000000000E+00  0.14164451208E+04  0.14164451208E+04  0.50400001928E-02 0. -1.
        1   -1    0    0  501    0  0.00000000000E+00  0.00000000000E+00 -0.12000668218E+04  0.12000668218E+04  0.50400001928E-02 0.  1.
    10030    2    1    2    0    0  0.00000000000E+00  0.00000000000E+00  0.21637829897E+03  0.26165119426E+04  0.26075496500E+04 0.  0.
        1    1    3    3  502    0 -0.11746288537E+04  0.37221611813E+02 -0.45827786617E+03  0.12614107162E+04  0.50400001928E-02 0.  1.
       -1    1    3    3    0  502  0.11746288537E+04 -0.37221611813E+02  0.67465616514E+03  0.13551012263E+04  0.50400001928E-02 0. -1.
</event>
<event>
 5   0  0.1702345E-05  0.2588657E+04  0.7818609E-02  0.8372064E-01
       -2   -1    0    0    0  501  0.00000000000E+00  0.00000000000E+00  0.11485092844E+04  0.11485092844E+04  0.25500000920E-02 0. -1.
        2   -1    0    0  501    0  0.00000000000E+00  0.00000000000E+00 -0.14586616849E+04  0.14586616849E+04  0.25500000920E-02 0.  1.
    10030    2    1    2    0    0  0.00000000000E+00  0.00000000000E+00 -0.31015240055E+03  0.26071709693E+04  0.25886571715E+04 0.  0.
        1    1    3    3  502    0 -0.62064817810E+03 -0.11184999024E+04  0.43923086494E+02  0.12799122744E+04  0.50400001928E-02 0.  1.
       -1    1    3    3    0  502  0.62064817810E+03  0.11184999024E+04 -0.35407548705E+03  0.13272586949E+04  0.50400001928E-02 0. -1.
</event>
<event>
 5   0  0.1681731E-05  0.2605161E+04  0.7818609E-02  0.8366450E-01
       -2   -1    0    0    0  501  0.00000000000E+00  0.00000000000E+00  0.10745435683E+04  0.10745435683E+04  0.25500000920E-02 0.  1.
        2   -1    0    0  501    0  0.00000000000E+00  0.00000000000E+00 -0.15790107080E+04  0.15790107080E+04  0.25500000920E-02 0. -1.
    10030    2    1    2    0    0  0.00000000000E+00  0.00000000000E+00 -0.50446713970E+03  0.26535542763E+04  0.26051608784E+04 0.  0.
        2    1    3    3  502    0  0.41769483428E+03 -0.39460551471E+03  0.93846968058E+03  0.11004125718E+04  0.25500000920E-02 0.  1.
       -2    1    3    3    0  502 -0.41769483428E+03  0.39460551471E+03 -0.14429368203E+04  0.15531417045E+04  0.25500000920E-02 0. -1.
</event>
<event>
 5   0  0.7138294E-06  0.2591232E+04  0.7818609E-02  0.8371186E-01
       -1   -1    0    0    0  501  0.00000000000E+00  0.00000000000E+00  0.18061784295E+04  0.18061784296E+04  0.50400001928E-02 0.  1.
        1   -1    0    0  501    0  0.00000000000E+00  0.00000000000E+00 -0.92937722779E+03  0.92937722780E+03  0.50400001928E-02 0. -1.
    10030    2    1    2    0    0  0.00000000000E+00  0.00000000000E+00  0.87680120176E+03  0.27355556574E+04  0.25912322179E+04 0.  0.
        2    1    3    3  502    0  0.24819135638E+02 -0.10193523751E+03  0.18016867689E+04  0.18047387610E+04  0.25500000920E-02 0.  1.
       -2    1    3    3    0  502 -0.24819135638E+02  0.10193523751E+03 -0.92488556718E+03  0.93081689634E+03  0.25500000920E-02 0. -1.
</event>
<event>
 5   0  0.1869956E-05  0.2595744E+04  0.7818609E-02  0.8369648E-01
        2   -1    0    0  501    0  0.00000000000E+00  0.00000000000E+00  0.18961500727E+04  0.18961500727E+04  0.25500000920E-02 0.  1.
       -2   -1    0    0    0  501  0.00000000000E+00  0.00000000000E+00 -0.88836390189E+03  0.88836390189E+03  0.25500000920E-02 0. -1.
    10030    2    1    2    0    0  0.00000000000E+00  0.00000000000E+00  0.10077861708E+04  0.27845139746E+04  0.25957436523E+04 0.  0.
        5    1    3    3  502    0 -0.26360014127E+03  0.31646557468E+03 -0.81639046455E+03  0.91441291277E+03  0.46999998093E+01 0. -1.
       -5    1    3    3    0  502  0.26360014127E+03 -0.31646557468E+03  0.18241766353E+04  0.18701010618E+04  0.46999998093E+01 0.  1.
</event>
<event>
 5   0  0.6984287E-06  0.2544479E+04  0.7818609E-02  0.8387309E-01
        1   -1    0    0  501    0  0.00000000000E+00  0.00000000000E+00  0.14515404454E+04  0.14515404454E+04  0.50400001928E-02 0. -1.
       -1   -1    0    0    0  501  0.00000000000E+00  0.00000000000E+00 -0.11150867489E+04  0.11150867489E+04  0.50400001928E-02 0.  1.
    10030    2    1    2    0    0  0.00000000000E+00  0.00000000000E+00  0.33645369650E+03  0.25666271942E+04  0.25444791342E+04 0.  0.
        3    1    3    3  502    0  0.37217934097E+03 -0.91349399037E+03 -0.64226241136E+03  0.11770682850E+04  0.10100000352E+00 0.  1.
       -3    1    3    3    0  502 -0.37217934097E+03  0.91349399037E+03  0.97871610785E+03  0.13895589092E+04  0.10100000352E+00 0. -1.
</event>
<event>
 5   0  0.6984287E-06  0.2581613E+04  0.7818609E-02  0.8374474E-01
       -1   -1    0    0    0  501  0.00000000000E+00  0.00000000000E+00  0.10673164010E+04  0.10673164010E+04  0.50400001928E-02 0.  1.
        1   -1    0    0  501    0  0.00000000000E+00  0.00000000000E+00 -0.15610936725E+04  0.15610936725E+04  0.50400001928E-02 0. -1.
    10030    2    1    2    0    0  0.00000000000E+00  0.00000000000E+00 -0.49377727151E+03  0.26284100735E+04  0.25816125814E+04 0.  0.
        3    1    3    3  502    0  0.45401845315E+03 -0.11742321058E+04 -0.53705860491E+03  0.13687168259E+04  0.10100000352E+00 0. -1.
       -3    1    3    3    0  502 -0.45401845315E+03  0.11742321058E+04  0.43281333408E+02  0.12596932476E+04  0.10100000352E+00 0.  1.
</event>
<event>
 5   0  0.6918420E-06  0.2511905E+04  0.7818609E-02  0.8398757E-01
       -1   -1    0    0    0  501  0.00000000000E+00  0.00000000000E+00  0.23334621233E+04  0.23334621233E+04  0.50400001928E-02 0. -1.
        1   -1    0    0  501    0  0.00000000000E+00  0.00000000000E+00 -0.67599814473E+03  0.67599814475E+03  0.50400001928E-02 0.  1.
    10030    2    1    2    0    0  0.00000000000E+00  0.00000000000E+00  0.16574639785E+04  0.30094602680E+04  0.25119045095E+04 0.  0.
        4    1    3    3  502    0  0.14798727650E+03 -0.12370327442E+04  0.10191632938E+04  0.16096104114E+04  0.12699999809E+01 0. -1.
       -4    1    3    3    0  502 -0.14798727650E+03  0.12370327442E+04  0.63830068474E+03  0.13998498566E+04  0.12699999809E+01 0.  1.
</event>
<event>
 5   0  0.1677971E-05  0.2621027E+04  0.7818609E-02  0.8361094E-01
        2   -1    0    0  501    0  0.00000000000E+00  0.00000000000E+00  0.16790668234E+04  0.16790668234E+04  0.25500000920E-02 0. -1.
       -2   -1    0    0    0  501  0.00000000000E+00  0.00000000000E+00 -0.10228571994E+04  0.10228571994E+04  0.25500000920E-02 0.  1.
    10030    2    1    2    0    0  0.00000000000E+00  0.00000000000E+00  0.65620962407E+03  0.27019240228E+04  0.26210269656E+04 0.  0.
        4    1    3    3  502    0  0.45518347379E+03  0.13723442953E+03 -0.93082475813E+03  0.10452088914E+04  0.12699999809E+01 0.  1.
       -4    1    3    3    0  502 -0.45518347379E+03 -0.13723442953E+03  0.15870343822E+04  0.16567151314E+04  0.12699999809E+01 0. -1.
</event>
<event>
 5   0  0.1681731E-05  0.2623809E+04  0.7818609E-02  0.8360159E-01
        2   -1    0    0  501    0  0.00000000000E+00  0.00000000000E+00  0.11235891179E+04  0.11235891179E+04  0.25500000920E-02 0. -1.
       -2   -1    0    0    0  501  0.00000000000E+00  0.00000000000E+00 -0.15317817730E+04  0.15317817730E+04  0.25500000920E-02 0.  1.
    10030    2    1    2    0    0  0.00000000000E+00  0.00000000000E+00 -0.40819265505E+03  0.26553708909E+04  0.26238089345E+04 0.  0.
        2    1    3    3  502    0 -0.55832123770E+03  0.25776747040E+03 -0.13768832942E+04  0.15079702514E+04  0.25500000920E-02 0.  1.
       -2    1    3    3    0  502  0.55832123770E+03 -0.25776747040E+03  0.96869063914E+03  0.11474006395E+04  0.25500000920E-02 0. -1.
</event>
<event>
 5   0  0.1677971E-05  0.2675798E+04  0.7818609E-02  0.8342901E-01
       -2   -1    0    0    0  501  0.00000000000E+00  0.00000000000E+00  0.93384638922E+03  0.93384638923E+03  0.25500000920E-02 0. -1.
        2   -1    0    0  501    0  0.00000000000E+00  0.00000000000E+00 -0.19167755878E+04  0.19167755878E+04  0.25500000920E-02 0.  1.
    10030    2    1    2    0    0  0.00000000000E+00  0.00000000000E+00 -0.98292919855E+03  0.28506219770E+04  0.26757981700E+04 0.  0.
        4    1    3    3  502    0  0.51118787537E+02 -0.59702467377E+03 -0.17658302838E+04  0.18647278074E+04  0.12699999809E+01 0.  1.
       -4    1    3    3    0  502 -0.51118787537E+02  0.59702467377E+03  0.78290108524E+03  0.98589416963E+03  0.12699999809E+01 0. -1.
</event>
<event>
 5   0  0.1702345E-05  0.2582996E+04  0.7818609E-02  0.8374000E-01
       -2   -1    0    0    0  501  0.00000000000E+00  0.00000000000E+00  0.77310907812E+03  0.77310907813E+03  0.25500000920E-02 0.  1.
        2   -1    0    0  501    0  0.00000000000E+00  0.00000000000E+00 -0.21574794542E+04  0.21574794542E+04  0.25500000920E-02 0. -1.
    10030    2    1    2    0    0  0.00000000000E+00  0.00000000000E+00 -0.13843703761E+04  0.29305885324E+04  0.25829958978E+04 0.  0.
        1    1    3    3  502    0 -0.12084037337E+04 -0.17235898673E+03 -0.21348321199E+03  0.12391619288E+04  0.50400001928E-02 0.  1.
       -1    1    3    3    0  502  0.12084037337E+04  0.17235898673E+03 -0.11708871641E+04  0.16914266035E+04  0.50400001928E-02 0. -1.
</event>
<event>
 5   0  0.1720129E-05  0.2357844E+04  0.7818609E-02  0.8455457E-01
       -2   -1    0    0    0  501  0.00000000000E+00  0.00000000000E+00  0.87402633759E+03  0.87402633759E+03  0.25500000920E-02 0. -1.
        2   -1    0    0  501    0  0.00000000000E+00  0.00000000000E+00 -0.15901776244E+04  0.15901776244E+04  0.25500000920E-02 0.  1.
    10030    2    1    2    0    0  0.00000000000E+00  0.00000000000E+00 -0.71615128682E+03  0.24642039620E+04  0.23578440366E+04 0.  0.
        3    1    3    3  502    0  0.25849903832E+03  0.24208108536E+03 -0.15332690198E+04  0.15736387457E+04  0.10100000352E+00 0.  1.
       -3    1    3    3    0  502 -0.25849903832E+03 -0.24208108536E+03  0.81711773299E+03  0.89056521629E+03  0.10100000352E+00 0. -1.
</event>
<event>
 5   0  0.6993678E-06  0.2566521E+04  0.7818609E-02  0.8379663E-01
       -1   -1    0    0    0  501  0.00000000000E+00  0.00000000000E+00  0.61129831293E+03  0.61129831295E+03  0.50400001928E-02 0. -1.
        1   -1    0    0  501    0  0.00000000000E+00  0.00000000000E+00 -0.26938686134E+04  0.26938686134E+04  0.50400001928E-02 0.  1.
    10030    2    1    2    0    0  0.00000000000E+00  0.00000000000E+00 -0.20825703005E+04  0.33051669264E+04  0.25665208658E+04 0.  0.
        1    1    3    3  502    0  0.95828123480E+02 -0.17590624401E+03  0.59104014606E+03  0.62406288963E+03  0.50400001928E-02 0. -1.
       -1    1    3    3    0  502 -0.95828123480E+02  0.17590624401E+03 -0.26736104465E+04  0.26811040367E+04  0.50400001928E-02 0.  1.
</event>
<event>
 5   0  0.1681731E-05  0.2605276E+04  0.7818609E-02  0.8366411E-01
        2   -1    0    0  501    0  0.00000000000E+00  0.00000000000E+00  0.21859041801E+04  0.21859041801E+04  0.25500000920E-02 0. -1.
       -2   -1    0    0    0  501  0.00000000000E+00  0.00000000000E+00 -0.77627644472E+03  0.77627644472E+03  0.25500000920E-02 0.  1.
    10030    2    1    2    0    0  0.00000000000E+00  0.00000000000E+00  0.14096277354E+04  0.29621806249E+04  0.26052761277E+04 0.  0.
        2    1    3    3  502    0  0.22288218106E+03  0.12748055055E+04  0.87368845083E+03  0.15614535064E+04  0.25500000920E-02 0.  1.
       -2    1    3    3    0  502 -0.22288218106E+03 -0.12748055055E+04  0.53593928458E+03  0.14007271184E+04  0.25500000920E-02 0. -1.
</event>
<event>
 5   0  0.7138294E-06  0.2614367E+04  0.7818609E-02  0.8363337E-01
       -1   -1    0    0    0  501  0.00000000000E+00  0.00000000000E+00  0.10169281350E+04  0.10169281350E+04  0.50400001928E-02 0.  1.
        1   -1    0    0  501    0  0.00000000000E+00  0.00000000000E+00 -0.16802845006E+04  0.16802845006E+04  0.50400001928E-02 0. -1.
    10030    2    1    2    0    0  0.00000000000E+00  0.00000000000E+00 -0.66335636562E+03  0.26972126356E+04  0.26143669088E+04 0.  0.
        2    1    3    3  502    0 -0.66704164497E+02  0.31878018225E+03  0.97439983712E+03  0.10273876059E+04  0.25500000920E-02 0.  1.
       -2    1    3    3    0  502  0.66704164497E+02 -0.31878018225E+03 -0.16377562027E+04  0.16698250297E+04  0.25500000920E-02 0. -1.
</event>
<event>
 5   0  0.1681731E-05  0.2604361E+04  0.7818609E-02  0.8366722E-01
       -2   -1    0    0    0  501  0.00000000000E+00  0.00000000000E+00  0.19087384284E+04  0.19087384284E+04  0.25500000920E-02 0.  1.
        2   -1    0    0  501    0  0.00000000000E+00  0.00000000000E+00 -0.88837397327E+03  0.88837397327E+03  0.25500000920E-02 0. -1.
    10030    2    1    2    0    0  0.00000000000E+00  0.00000000000E+00  0.10203644551E+04  0.27971124017E+04  0.26043606061E+04 0.  0.
        2    1    3    3  502    0 -0.27201158811E+03  0.72213908878E+03  0.16367162196E+04  0.18095068807E+04  0.25500000920E-02 0.  1.
       -2    1    3    3    0  502  0.27201158811E+03 -0.72213908878E+03 -0.61635176447E+03  0.98760552103E+03  0.25500000920E-02 0. -1.
</event>
<event>
 5   0  0.1677971E-05  0.2585154E+04  0.7818609E-02  0.8373262E-01
       -2   -1    0    0    0  501  0.00000000000E+00  0.00000000000E+00  0.20784684542E+04  0.20784684542E+04  0.25500000920E-02 0. -1.
        2   -1    0    0  501    0  0.00000000000E+00  0.00000000000E+00 -0.80383975608E+03  0.80383975608E+03  0.25500000920E-02 0.  1.
    10030    2    1    2    0    0  0.00000000000E+00  0.00000000000E+00  0.12746286981E+04  0.28823082103E+04  0.25851542122E+04 0.  0.
        4    1    3    3  502    0  0.42729921534E+03  0.10359669597E+04 -0.80889217723E+02  0.11235465453E+04  0.12699999809E+01 0.  1.
       -4    1    3    3    0  502 -0.42729921534E+03 -0.10359669597E+04  0.13555179158E+04  0.17587616650E+04  0.12699999809E+01 0. -1.
</event>
<event>
 5   0  0.6993678E-06  0.2593997E+04  0.7818609E-02  0.8370243E-01
       -1   -1    0    0    0  501  0.00000000000E+00  0.00000000000E+00  0.26390596926E+04  0.26390596926E+04  0.50400001928E-02 0. -1.
        1   -1    0    0  501    0  0.00000000000E+00  0.00000000000E+00 -0.63742589248E+03  0.63742589250E+03  0.50400001928E-02 0.  1.
    10030    2    1    2    0    0  0.00000000000E+00  0.00000000000E+00  0.20016338001E+04  0.32764855851E+04  0.25939969005E+04 0.  0.
        1    1    3    3  502    0 -0.24309115752E+03 -0.18858945880E+03 -0.59066580988E+03  0.66599203736E+03  0.50400001928E-02 0.  1.
       -1    1    3    3    0  502  0.24309115752E+03  0.18858945880E+03  0.25922996100E+04  0.26104935477E+04  0.50400001928E-02 0. -1.
</event>
<event>
 5   0  0.6984287E-06  0.2572267E+04  0.7818609E-02  0.8377683E-01
        1   -1    0    0  501    0  0.00000000000E+00  0.00000000000E+00  0.22557494130E+04  0.22557494130E+04  0.50400001928E-02 0.  1.
       -1   -1    0    0    0  501  0.00000000000E+00  0.00000000000E+00 -0.73329925540E+03  0.73329925541E+03  0.50400001928E-02 0. -1.
    10030    2    1    2    0    0  0.00000000000E+00  0.00000000000E+00  0.15224501576E+04  0.29890486684E+04  0.25722669884E+04 0.  0.
        3    1    3    3  502    0 -0.30827779987E+03  0.10279301191E+04  0.15849256012E+04  0.19140701929E+04  0.10100000352E+00 0.  1.
       -3    1    3    3    0  502  0.30827779987E+03 -0.10279301191E+04 -0.62475443667E+02  0.10749784755E+04  0.10100000352E+00 0. -1.
</event>
<event>
 5   0  0.1720129E-05  0.2520243E+04  0.7818609E-02  0.8395809E-01
       -2   -1    0    0    0  501  0.00000000000E+00  0.00000000000E+00  0.10226721603E+04  0.10226721603E+04  0.25500000920E-02 0. -1.
        2   -1    0    0  501    0  0.00000000000E+00  0.00000000000E+00 -0.15527024756E+04  0.15527024756E+04  0.25500000920E-02 0.  1.
    10030    2    1    2    0    0  0.00000000000E+00  0.00000000000E+00 -0.53003031531E+03  0.25753746359E+04  0.25202425241E+04 0.  0.
        3    1    3    3  502    0 -0.11182793023E+04  0.57770181332E+03 -0.32647740883E+03  0.13003366840E+04  0.10100000352E+00 0.  1.
       -3    1    3    3    0  502  0.11182793023E+04 -0.57770181332E+03 -0.20355290648E+03  0.12750379520E+04  0.10100000352E+00 0. -1.
</event>
<event>
 5   0  0.6706225E-06  0.2562811E+04  0.7818609E-02  0.8380944E-01
       -1   -1    0    0    0  501  0.00000000000E+00  0.00000000000E+00  0.12451277794E+04  0.12451277795E+04  0.50400001928E-02 0.  1.
        1   -1    0    0  501    0  0.00000000000E+00  0.00000000000E+00 -0.13187404528E+04  0.13187404528E+04  0.50400001928E-02 0. -1.
    10030    2    1    2    0    0  0.00000000000E+00  0.00000000000E+00 -0.73612673335E+02  0.25638682323E+04  0.25628112468E+04 0.  0.
        5    1    3    3  502    0 -0.40558172387E+03 -0.71134350349E+03  0.94923304627E+03  0.12536233808E+04  0.46999998093E+01 0.  1.
       -5    1    3    3    0  502  0.40558172387E+03  0.71134350349E+03 -0.10228457196E+04  0.13102448515E+04  0.46999998093E+01 0. -1.
</event>
<event>
 5   0  0.6918420E-06  0.2591482E+04  0.7818609E-02  0.8371100E-01
        1   -1    0    0  501    0  0.00000000000E+00  0.00000000000E+00  0.14573672683E+04  0.14573672684E+04  0.50400001928E-02 0. -1.
       -1   -1    0    0    0  501  0.00000000000E+00  0.00000000000E+00 -0.11520393832E+04  0.11520393832E+04  0.50400001928E-02 0.  1.
    10030    2    1    2    0    0  0.00000000000E+00  0.00000000000E+00  0.30532788518E+03  0.26094066515E+04  0.25914818069E+04 0.  0.
        4    1    3    3  502    0 -0.97299345102E+03 -0.25139739070E+03 -0.67093369024E+03  0.12083337839E+04  0.12699999809E+01 0.  1.
       -4    1    3    3    0  502  0.97299345102E+03  0.25139739070E+03  0.97626157542E+03  0.14010728676E+04  0.12699999809E+01 0. -1.
</event>
<event>
 5   0  0.1677971E-05  0.2651675E+04  0.7818609E-02  0.8350857E-01
        2   -1    0    0  501    0  0.00000000000E+00  0.00000000000E+00  0.22232700915E+04  0.22232700915E+04  0.25500000920E-02 0. -1.
       -2   -1    0    0    0  501  0.00000000000E+00  0.00000000000E+00 -0.79065728610E+03  0.79065728611E+03  0.25500000920E-02 0.  1.
    10030    2    1    2    0    0  0.00000000000E+00  0.00000000000E+00  0.14326128054E+04  0.30139273776E+04  0.26516747137E+04 0.  0.
        4    1    3    3  502    0 -0.37578540007E+03  0.84570384512E+02  0.21582717537E+04  0.21923743732E+04  0.12699999809E+01 0. -1.
       -4    1    3    3    0  502  0.37578540007E+03 -0.84570384512E+02 -0.72565894829E+03  0.82155300436E+03  0.12699999809E+01 0.  1.
</event>
<event>
 5   0  0.1702345E-05  0.2553000E+04  0.7818609E-02  0.8384343E-01
       -2   -1    0    0    0  501  0.00000000000E+00  0.00000000000E+00  0.12759412705E+04  0.12759412705E+04  0.25500000920E-02 0. -1.
        2   -1    0    0  501    0  0.00000000000E+00  0.00000000000E+00 -0.12770592858E+04  0.12770592858E+04  0.25500000920E-02 0.  1.
    10030    2    1    2    0    0  0.00000000000E+00  0.00000000000E+00 -0.11180152791E+01  0.25530005563E+04  0.25530003115E+04 0.  0.
        1    1    3    3  502    0  0.53197116188E+02 -0.10218734141E+04 -0.76370876464E+03  0.12768344783E+04  0.50400001928E-02 0.  1.
       -1    1    3    3    0  502 -0.53197116188E+02  0.10218734141E+04  0.76259074937E+03  0.12761660780E+04  0.50400001928E-02 0. -1.
</event>
<event>
 5   0  0.7138294E-06  0.2575780E+04  0.7818609E-02  0.8376475E-01
       -1   -1    0    0    0  501  0.00000000000E+00  0.00000000000E+00  0.11791718473E+04  0.11791718474E+04  0.50400001928E-02 0. -1.
        1   -1    0    0  501    0  0.00000000000E+00  0.00000000000E+00 -0.14066319168E+04  0.14066319168E+04  0.50400001928E-02 0.  1.
    10030    2    1    2    0    0  0.00000000000E+00  0.00000000000E+00 -0.22746006942E+03  0.25858037641E+04  0.25757800806E+04 0.  0.
        2    1    3    3  502    0  0.64618248109E+03 -0.57195916716E+03  0.84600897969E+03  0.12084784986E+04  0.25500000920E-02 0. -1.
       -2    1    3    3    0  502 -0.64618248109E+03  0.57195916716E+03 -0.10734690491E+04  0.13773252656E+04  0.25500000920E-02 0.  1.
</event>
<event>
 5   0  0.1681731E-05  0.2564554E+04  0.7818609E-02  0.8380342E-01
        2   -1    0    0  501    0  0.00000000000E+00  0.00000000000E+00  0.14192325599E+04  0.14192325599E+04  0.25500000920E-02 0. -1.
       -2   -1    0    0    0  501  0.00000000000E+00  0.00000000000E+00 -0.11585376991E+04  0.11585376991E+04  0.25500000920E-02 0.  1.
    10030    2    1    2    0    0  0.00000000000E+00  0.00000000000E+00  0.26069486080E+03  0.25777702589E+04  0.25645540933E+04 0.  0.
        2    1    3    3  502    0  0.20361940989E+03 -0.27309129871E+03 -0.11122249321E+04  0.11632213982E+04  0.25500000920E-02 0.  1.
       -2    1    3    3    0  502 -0.20361940989E+03  0.27309129871E+03  0.13729197929E+04  0.14145488607E+04  0.25500000920E-02 0. -1.
</event>
<event>
 5   0  0.1702345E-05  0.2634429E+04  0.7818609E-02  0.8356600E-01
       -2   -1    0    0    0  501  0.00000000000E+00  0.00000000000E+00  0.10326561532E+04  0.10326561532E+04  0.25500000920E-02 0.  1.
        2   -1    0    0  501    0  0.00000000000E+00  0.00000000000E+00 -0.16801861453E+04  0.16801861453E+04  0.25500000920E-02 0. -1.
    10030    2    1    2    0    0  0.00000000000E+00  0.00000000000E+00 -0.64752999212E+03  0.27128422985E+04  0.26344293966E+04 0.  0.
        1    1    3    3  502    0  0.55950644680E+03 -0.96096117856E+03 -0.10508697930E+04  0.15299742392E+04  0.50400001928E-02 0. -1.
       -1    1    3    3    0  502 -0.55950644680E+03  0.96096117856E+03  0.40333980089E+03  0.11828680593E+04  0.50400001928E-02 0.  1.
</event>
<event>
 5   0  0.1720129E-05  0.2579501E+04  0.7818609E-02  0.8375198E-01
        2   -1    0    0  501    0  0.00000000000E+00  0.00000000000E+00  0.21735028659E+04  0.21735028659E+04  0.25500000920E-02 0.  1.
       -2   -1    0    0    0  501  0.00000000000E+00  0.00000000000E+00 -0.76533404926E+03  0.76533404927E+03  0.25500000920E-02 0. -1.
    10030    2    1    2    0    0  0.00000000000E+00  0.00000000000E+00  0.14081688166E+04  0.29388369152E+04  0.25795005326E+04 0.  0.
        3    1    3    3  502    0 -0.11182708911E+04  0.55517334512E+03  0.33542030321E+03  0.12927699018E+04  0.10100000352E+00 0.  1.
       -3    1    3    3    0  502  0.11182708911E+04 -0.55517334512E+03  0.10727485134E+04  0.16460670133E+04  0.10100000352E+00 0. -1.
</event>
<event>
 5   0  0.1681731E-05  0.2602154E+04  0.7818609E-02  0.8367470E-01
        2   -1    0    0  501    0  0.00000000000E+00  0.00000000000E+00  0.21434289799E+04  0.21434289799E+04  0.25500000920E-02 0. -1.
       -2   -1    0    0    0  501  0.00000000000E+00  0.00000000000E+00 -0.78976343651E+03  0.78976343651E+03  0.25500000920E-02 0.  1.
    10030    2    1    2    0    0  0.00000000000E+00  0.00000000000E+00  0.13536655434E+04  0.29331924165E+04  0.26021543668E+04 0.  0.
        2    1    3    3  502    0  0.61504605461E+01  0.11431250988E+04 -0.23521001294E+02  0.11433836002E+04  0.25500000920E-02 0.  1.
       -2    1    3    3    0  502 -0.61504605461E+01 -0.11431250988E+04  0.13771865447E+04  0.17898088162E+04  0.25500000920E-02 0. -1.
</event>
<event>
 5   0  0.6706225E-06  0.2588821E+04  0.7818609E-02  0.8372008E-01
       -1   -1    0    0    0  501  0.00000000000E+00  0.00000000000E+00  0.19439485582E+04  0.19439485582E+04  0.50400001928E-02 0.  1.
        1   -1    0    0  501    0  0.00000000000E+00  0.00000000000E+00 -0.86190461598E+03  0.86190461599E+03  0.50400001928E-02 0. -1.
    10030    2    1    2    0    0  0.00000000000E+00  0.00000000000E+00  0.10820439422E+04  0.28058531742E+04  0.25888207629E+04 0.  0.
        5    1    3    3  502    0 -0.10972529621E+04 -0.36675213913E+02 -0.20214950994E+03  0.11163313345E+04  0.46999998093E+01 0. -1.
       -5    1    3    3    0  502  0.10972529621E+04  0.36675213913E+02  0.12841934522E+04  0.16895218397E+04  0.46999998093E+01 0.  1.
</event>
<event>
 5   0  0.1677971E-05  0.2592918E+04  0.7818609E-02  0.8370611E-01
        2   -1    0    0  501    0  0.00000000000E+00  0.00000000000E+00  0.17768349910E+04  0.17768349910E+04  0.25500000920E-02 0. -1.
       -2   -1    0    0    0  501  0.00000000000E+00  0.00000000000E+00 -0.94595495766E+03  0.94595495766E+03  0.25500000920E-02 0.  1.
    10030    2    1    2    0    0  0.00000000000E+00  0.00000000000E+00  0.83088003336E+03  0.27227899487E+04  0.25929179460E+04 0.  0.
        4    1    3    3  502    0  0.64333533139E+03 -0.53321384363E+03 -0.62547499263E+03  0.10437518531E+04  0.12699999809E+01 0.  1.
       -4    1    3    3    0  502 -0.64333533139E+03  0.53321384363E+03  0.14563550260E+04  0.16790380955E+04  0.12699999809E+01 0. -1.
</event>
<event>
 5   0  0.6984287E-06  0.2499935E+04  0.7818609E-02  0.8403009E-01
       -1   -1    0    0    0  501  0.00000000000E+00  0.00000000000E+00  0.14742243112E+04  0.14742243112E+04  0.50400001928E-02 0. -1.
        1   -1    0    0  501    0  0.00000000000E+00  0.00000000000E+00 -0.10598242273E+04  0.10598242273E+04  0.50400001928E-02 0.  1.
    10030    2    1    2    0    0  0.00000000000E+00  0.00000000000E+00  0.41440008384E+03  0.25340485385E+04  0.24999349124E+04 0.  0.
        3    1    3    3  502    0 -0.18397907107E+03 -0.49445992807E+03 -0.94143541930E+03  0.10791846821E+04  0.10100000352E+00 0.  1.
       -3    1    3    3    0  502  0.18397907107E+03  0.49445992807E+03  0.13558355031E+04  0.14548638565E+04  0.10100000352E+00 0. -1.
</event>
<event>
 5   0  0.6984287E-06  0.2606920E+04  0.7818609E-02  0.8365854E-01
       -1   -1    0    0    0  501  0.00000000000E+00  0.00000000000E+00  0.12168082383E+04  0.12168082383E+04  0.50400001928E-02 0. -1.
        1   -1    0    0  501    0  0.00000000000E+00  0.00000000000E+00 -0.13962826360E+04  0.13962826361E+04  0.50400001928E-02 0.  1.
    10030    2    1    2    0    0  0.00000000000E+00  0.00000000000E+00 -0.17947439775E+03  0.26130908744E+04  0.26069201864E+04 0.  0.
        3    1    3    3  502    0 -0.70026084685E+03 -0.32064057760E+03 -0.11438120869E+04  0.13789422518E+04  0.10100000352E+00 0.  1.
       -3    1    3    3    0  502  0.70026084685E+03  0.32064057760E+03  0.96433768912E+03  0.12341486225E+04  0.10100000352E+00 0. -1.
</event>
<event>
 5   0  0.1720129E-05  0.2603113E+04  0.7818609E-02  0.8367144E-01
        2   -1    0    0  501    0  0.00000000000E+00  0.00000000000E+00  0.12757115159E+04  0.12757115159E+04  0.25500000920E-02 0. -1.
       -2   -1    0    0    0  501  0.00000000000E+00  0.00000000000E+00 -0.13279254606E+04  0.13279254606E+04  0.25500000920E-02 0.  1.
    10030    2    1    2    0    0  0.00000000000E+00  0.00000000000E+00 -0.52213944686E+02  0.26036369764E+04  0.26031133684E+04 0.  0.
        3    1    3    3  502    0 -0.29587498670E+03 -0.61177727090E+03  0.10841777325E+04  0.12795525791E+04  0.10100000352E+00 0. -1.
       -3    1    3    3    0  502  0.29587498670E+03  0.61177727090E+03 -0.11363916772E+04  0.13240843973E+04  0.10100000352E+00 0.  1.
</event>
<event>
 5   0  0.5840500E-06  0.2576547E+04  0.7818609E-02  0.8376212E-01
       -3   -1    0    0    0  501  0.00000000000E+00  0.00000000000E+00  0.95644344636E+03  0.95644345169E+03  0.10100000352E+00 0.  1.
        3   -1    0    0  501    0  0.00000000000E+00  0.00000000000E+00 -0.17352289691E+04  0.17352289721E+04  0.10100000352E+00 0. -1.
    10030    2    1    2    0    0  0.00000000000E+00  0.00000000000E+00 -0.77878552278E+03  0.26916724238E+04  0.25765468260E+04 0.  0.
        1    1    3    3  502    0 -0.11909701229E+04 -0.23901606639E+03  0.58859722442E+02  0.12161426645E+04  0.50400001928E-02 0. -1.
       -1    1    3    3    0  502  0.11909701229E+04  0.23901606639E+03 -0.83764524523E+03  0.14755297592E+04  0.50400001928E-02 0.  1.
</event>
<event>
 5   0  0.6984287E-06  0.2607101E+04  0.7818609E-02  0.8365793E-01
       -1   -1    0    0    0  501  0.00000000000E+00  0.00000000000E+00  0.66692385636E+03  0.66692385638E+03  0.50400001928E-02 0. -1.
        1   -1    0    0  501    0  0.00000000000E+00  0.00000000000E+00 -0.25478826423E+04  0.25478826423E+04  0.50400001928E-02 0.  1.
    10030    2    1    2    0    0  0.00000000000E+00  0.00000000000E+00 -0.18809587860E+04  0.32148064987E+04  0.26071008553E+04 0.  0.
        3    1    3    3  502    0  0.73895108116E+03 -0.61456260767E+02 -0.22624933127E+04  0.23809035202E+04  0.10100000352E+00 0.  1.
       -3    1    3    3    0  502 -0.73895108116E+03  0.61456260767E+02  0.38153452671E+03  0.83390297853E+03  0.10100000352E+00 0. -1.
</event>
<event>
 5   0  0.6918420E-06  0.2423224E+04  0.7818609E-02  0.8430860E-01
       -1   -1    0    0    0  501  0.00000000000E+00  0.00000000000E+00  0.89979407347E+03  0.89979407349E+03  0.50400001928E-02 0.  1.
        1   -1    0    0  501    0  0.00000000000E+00  0.00000000000E+00 -0.16314883534E+04  0.16314883534E+04  0.50400001928E-02 0. -1.
    10030    2    1    2    0    0  0.00000000000E+00  0.00000000000E+00 -0.73169427991E+03  0.25312824269E+04  0.24232239280E+04 0.  0.
        4    1    3    3  502    0 -0.40201660998E+03  0.10628636812E+04  0.73261457265E+02  0.11387121733E+04  0.12699999809E+01 0.  1.
       -4    1    3    3    0  502  0.40201660998E+03 -0.10628636812E+04 -0.80495573717E+03  0.13925702536E+04  0.12699999809E+01 0. -1.
</event>
<event>
 5   0  0.6706225E-06  0.2580590E+04  0.7818609E-02  0.8374824E-01
       -1   -1    0    0    0  501  0.00000000000E+00  0.00000000000E+00  0.11511272390E+04  0.11511272390E+04  0.50400001928E-02 0.  1.
        1   -1    0    0  501    0  0.00000000000E+00  0.00000000000E+00 -0.14462875258E+04  0.14462875258E+04  0.50400001928E-02 0. -1.
    10030    2    1    2    0    0  0.00000000000E+00  0.00000000000E+00 -0.29516028683E+03  0.25974147648E+04  0.25805898290E+04 0.  0.
        5    1    3    3  502    0  0.10287749923E+03  0.47146693449E+03  0.10568729573E+04  0.11618379353E+04  0.46999998093E+01 0.  1.
       -5    1    3    3    0  502 -0.10287749923E+03 -0.47146693449E+03 -0.13520332441E+04  0.14355768295E+04  0.46999998093E+01 0. -1.
</event>
<event>
 5   0  0.6918420E-06  0.2589569E+04  0.7818609E-02  0.8371753E-01
        1   -1    0    0  501    0  0.00000000000E+00  0.00000000000E+00  0.13089594210E+04  0.13089594210E+04  0.50400001928E-02 0. -1.
       -1   -1    0    0    0  501  0.00000000000E+00  0.00000000000E+00 -0.12807629040E+04  0.12807629040E+04  0.50400001928E-02 0.  1.
    10030    2    1    2    0    0  0.00000000000E+00  0.00000000000E+00  0.28196517020E+02  0.25897223251E+04  0.25895688207E+04 0.  0.
        4    1    3    3  502    0  0.38669376822E+03 -0.11673152283E+04  0.41947169645E+03  0.12992748091E+04  0.12699999809E+01 0.  1.
       -4    1    3    3    0  502 -0.38669376822E+03  0.11673152283E+04 -0.39127517943E+03  0.12904475160E+04  0.12699999809E+01 0. -1.
</event>
<event>
 5   0  0.1702345E-05  0.2379547E+04  0.7818609E-02  0.8447201E-01
       -2   -1    0    0    0  501  0.00000000000E+00  0.00000000000E+00  0.12278826360E+04  0.12278826360E+04  0.25500000920E-02 0. -1.
        2   -1    0    0  501    0  0.00000000000E+00  0.00000000000E+00 -0.11528466908E+04  0.11528466908E+04  0.25500000920E-02 0.  1.
    10030    2    1    2    0    0  0.00000000000E+00  0.00000000000E+00  0.75035945201E+02  0.23807293267E+04  0.23795465396E+04 0.  0.
        1    1    3    3  502    0  0.21880304649E+02  0.13568657768E+01 -0.11526446067E+04  0.11528530601E+04  0.50400001928E-02 0.  1.
       -1    1    3    3    0  502 -0.21880304649E+02 -0.13568657768E+01  0.12276805519E+04  0.12278762667E+04  0.50400001928E-02 0. -1.
</event>
<event>
 5   0  0.6993678E-06  0.2589477E+04  0.7818609E-02  0.8371784E-01
        1   -1    0    0  501    0  0.00000000000E+00  0.00000000000E+00  0.12086849490E+04  0.12086849490E+04  0.50400001928E-02 0.  1.
       -1   -1    0    0    0  501  0.00000000000E+00  0.00000000000E+00 -0.13869184832E+04  0.13869184832E+04  0.50400001928E-02 0. -1.
    10030    2    1    2    0    0  0.00000000000E+00  0.00000000000E+00 -0.17823353424E+03  0.25956034323E+04  0.25894767782E+04 0.  0.
        1    1    3    3  502    0 -0.50369973882E+03 -0.11408727502E+04  0.25961936215E+03  0.12738548866E+04  0.50400001928E-02 0. -1.
       -1    1    3    3    0  502  0.50369973882E+03  0.11408727502E+04 -0.43785289639E+03  0.13217485456E+04  0.50400001928E-02 0.  1.
</event>
<event>
 5   0  0.1720129E-05  0.2615424E+04  0.7818609E-02  0.8362981E-01
        2   -1    0    0  501    0  0.00000000000E+00  0.00000000000E+00  0.13386884044E+04  0.13386884044E+04  0.25500000920E-02 0.  1.
       -2   -1    0    0    0  501  0.00000000000E+00  0.00000000000E+00 -0.12774528336E+04  0.12774528336E+04  0.25500000920E-02 0. -1.
    10030    2    1    2    0    0  0.00000000000E+00  0.00000000000E+00  0.61235570856E+02  0.26161412380E+04  0.26154244745E+04 0.  0.
        3    1    3    3  502    0 -0.34418639034E+03 -0.11679953821E+04  0.50764868177E+03  0.13192363997E+04  0.10100000352E+00 0.  1.
       -3    1    3    3    0  502  0.34418639034E+03  0.11679953821E+04 -0.44641311091E+03  0.12969048383E+04  0.10100000352E+00 0. -1.
</event>
<event>
 5   0  0.1677971E-05  0.2601194E+04  0.7818609E-02  0.8367796E-01
        2   -1    0    0  501    0  0.00000000000E+00  0.00000000000E+00  0.20781301281E+04  0.20781301281E+04  0.25500000920E-02 0.  1.
       -2   -1    0    0    0  501  0.00000000000E+00  0.00000000000E+00 -0.81397847763E+03  0.81397847763E+03  0.25500000920E-02 0. -1.
    10030    2    1    2    0    0  0.00000000000E+00  0.00000000000E+00  0.12641516505E+04  0.28921086058E+04  0.26011944933E+04 0.  0.
        4    1    3    3  502    0 -0.11207020922E+04  0.65410095606E+03  0.72983132665E+03  0.14887836036E+04  0.12699999809E+01 0.  1.
       -4    1    3    3    0  502  0.11207020922E+04 -0.65410095606E+03  0.53432032385E+03  0.14033250021E+04  0.12699999809E+01 0. -1.
</event>
<event>
 5   0  0.6918420E-06  0.2556548E+04  0.7818609E-02  0.8383112E-01
       -1   -1    0    0    0  501  0.00000000000E+00  0.00000000000E+00  0.13411766379E+04  0.13411766379E+04  0.50400001928E-02 0. -1.
        1   -1    0    0  501    0  0.00000000000E+00  0.00000000000E+00 -0.12183215579E+04  0.12183215579E+04  0.50400001928E-02 0.  1.
    10030    2    1    2    0    0  0.00000000000E+00  0.00000000000E+00  0.12285507994E+03  0.25594981958E+04  0.25565479936E+04 0.  0.
        4    1    3    3  502    0 -0.28933848401E+03 -0.73647772488E+02  0.13057785887E+04  0.13394775430E+04  0.12699999809E+01 0. -1.
       -4    1    3    3    0  502  0.28933848401E+03  0.73647772488E+02 -0.11829235088E+04  0.12200206528E+04  0.12699999809E+01 0.  1.
</event>
<event>
 5   0  0.6993678E-06  0.2581821E+04  0.7818609E-02  0.8374403E-01
        1   -1    0    0  501    0  0.00000000000E+00  0.00000000000E+00  0.17462982179E+04  0.17462982179E+04  0.50400001928E-02 0. -1.
       -1   -1    0    0    0  501  0.00000000000E+00  0.00000000000E+00 -0.95427554738E+03  0.95427554740E+03  0.50400001928E-02 0.  1.
    10030    2    1    2    0    0  0.00000000000E+00  0.00000000000E+00  0.79202267053E+03  0.27005737653E+04  0.25818208209E+04 0.  0.
        1    1    3    3  502    0  0.56426081549E+03  0.57671476633E+03 -0.65803875227E+03  0.10411556988E+04  0.50400001928E-02 0.  1.
       -1    1    3    3    0  502 -0.56426081549E+03 -0.57671476633E+03  0.14500614228E+04  0.16594180665E+04  0.50400001928E-02 0. -1.
</event>
<event>
 5   0  0.1681731E-05  0.2608591E+04  0.7818609E-02  0.8365289E-01
       -2   -1    0    0    0  501  0.00000000000E+00  0.00000000000E+00  0.12677574316E+04  0.12677574316E+04  0.25500000920E-02 0.  1.
        2   -1    0    0  501    0  0.00000000000E+00  0.00000000000E+00 -0.13418862158E+04  0.13418862158E+04  0.25500000920E-02 0. -1.
    10030    2    1    2    0    0  0.00000000000E+00  0.00000000000E+00 -0.74128784186E+02  0.26096436475E+04  0.26085905946E+04 0.  0.
        2    1    3    3  502    0  0.10847973894E+04 -0.62161242292E+03 -0.40869630842E+03  0.13153782927E+04  0.25500000920E-02 0. -1.
       -2    1    3    3    0  502 -0.10847973894E+04  0.62161242292E+03  0.33456752423E+03  0.12942653548E+04  0.25500000920E-02 0.  1.
</event>
<event>
 5   0  0.1720129E-05  0.2585886E+04  0.7818609E-02  0.8373011E-01
       -2   -1    0    0    0  501  0.00000000000E+00  0.00000000000E+00  0.13979081910E+04  0.13979081910E+04  0.25500000920E-02 0.  1.
        2   -1    0    0  501    0  0.00000000000E+00  0.00000000000E+00 -0.11958590734E+04  0.11958590734E+04  0.25500000920E-02 0. -1.
    10030    2    1    2    0    0  0.00000000000E+00  0.00000000000E+00  0.20204911758E+03  0.25937672644E+04  0.25858856851E+04 0.  0.
        3    1    3    3  502    0 -0.12290335465E+04 -0.25272631606E+03  0.41391624594E+03  0.13212572490E+04  0.10100000352E+00 0.  1.
       -3    1    3    3    0  502  0.12290335465E+04  0.25272631606E+03 -0.21186712837E+03  0.12725100155E+04  0.10100000352E+00 0. -1.
</event>
<event>
 5   0  0.6918420E-06  0.2590991E+04  0.7818609E-02  0.8371268E-01
        1   -1    0    0  501    0  0.00000000000E+00  0.00000000000E+00  0.15690377476E+04  0.15690377476E+04  0.50400001928E-02 0.  1.
       -1   -1    0    0    0  501  0.00000000000E+00  0.00000000000E+00 -0.10696416492E+04  0.10696416492E+04  0.50400001928E-02 0. -1.
    10030    2    1    2    0    0  0.00000000000E+00  0.00000000000E+00  0.49939609842E+03  0.26386793968E+04  0.25909906399E+04 0.  0.
        4    1    3    3  502    0 -0.11661638281E+04 -0.56419977602E+03  0.24271251293E+03  0.13180176168E+04  0.12699999809E+01 0. -1.
       -4    1    3    3    0  502  0.11661638281E+04  0.56419977602E+03  0.25668358549E+03  0.13206617800E+04  0.12699999809E+01 0.  1.
</event>
<event>
 5   0  0.7138294E-06  0.2612225E+04  0.7818609E-02  0.8364060E-01
        1   -1    0    0  501    0  0.00000000000E+00  0.00000000000E+00  0.19557773435E+04  0.19557773435E+04  0.50400001928E-02 0.  1.
       -1   -1    0    0    0  501  0.00000000000E+00  0.00000000000E+00 -0.87225183225E+03  0.87225183226E+03  0.50400001928E-02 0. -1.
    10030    2    1    2    0    0  0.00000000000E+00  0.00000000000E+00  0.10835255112E+04  0.28280291758E+04  0.26122253895E+04 0.  0.
        2    1    3    3  502    0  0.71435022175E+03 -0.86788834808E+03  0.12618460506E+04  0.16899058789E+04  0.25500000920E-02 0.  1.
       -2    1    3    3    0  502 -0.71435022175E+03  0.86788834808E+03 -0.17832053940E+03  0.11381232968E+04  0.25500000920E-02 0. -1.
</event>
<event>
 5   0  0.6993678E-06  0.2675763E+04  0.7818609E-02  0.8342912E-01
        1   -1    0    0  501    0  0.00000000000E+00  0.00000000000E+00  0.20087387374E+04  0.20087387374E+04  0.50400001928E-02 0. -1.
       -1   -1    0    0    0  501  0.00000000000E+00  0.00000000000E+00 -0.89106988606E+03  0.89106988608E+03  0.50400001928E-02 0.  1.
    10030    2    1    2    0    0  0.00000000000E+00  0.00000000000E+00  0.11176688513E+04  0.28998086235E+04  0.26757627682E+04 0.  0.
        1    1    3    3  502    0  0.74846893622E+03  0.40785982470E+03  0.16763772649E+04  0.18806371578E+04  0.50400001928E-02 0. -1.
       -1    1    3    3    0  502 -0.74846893622E+03 -0.40785982470E+03 -0.55870841353E+03  0.10191714657E+04  0.50400001928E-02 0.  1.
</event>
<event>
 5   0  0.1681731E-05  0.2633123E+04  0.7818609E-02  0.8357036E-01
        2   -1    0    0  501    0  0.00000000000E+00  0.00000000000E+00  0.18337704614E+04  0.18337704614E+04  0.25500000920E-02 0. -1.
       -2   -1    0    0    0  501  0.00000000000E+00  0.00000000000E+00 -0.94522958622E+03  0.94522958623E+03  0.25500000920E-02 0.  1.
    10030    2    1    2    0    0  0.00000000000E+00  0.00000000000E+00  0.88854087518E+03  0.27790000476E+04  0.26331229325E+04 0.  0.
        2    1    3    3  502    0  0.18023630088E+03 -0.11833756222E+04  0.10227909702E+04  0.15744727232E+04  0.25500000920E-02 0. -1.
       -2    1    3    3    0  502 -0.18023630088E+03  0.11833756222E+04 -0.13425009502E+03  0.12045273244E+04  0.25500000920E-02 0.  1.
</event>
<event>
 5   0  0.6706225E-06  0.2587782E+04  0.7818609E-02  0.8372363E-01
       -1   -1    0    0    0  501  0.00000000000E+00  0.00000000000E+00  0.16989564814E+04  0.16989564814E+04  0.50400001928E-02 0.  1.
        1   -1    0    0  501    0  0.00000000000E+00  0.00000000000E+00 -0.98540124687E+03  0.98540124688E+03  0.50400001928E-02 0. -1.
    10030    2    1    2    0    0  0.00000000000E+00  0.00000000000E+00  0.71355523451E+03  0.26843577283E+04  0.25877819345E+04 0.  0.
        5    1    3    3  502    0  0.74999222764E+03 -0.71523348738E+03  0.11603387187E+04  0.15557812556E+04  0.46999998093E+01 0.  1.
       -5    1    3    3    0  502 -0.74999222764E+03  0.71523348738E+03 -0.44678348421E+03  0.11285764727E+04  0.46999998093E+01 0. -1.
</event>
<event>
 5   0  0.6984287E-06  0.2574606E+04  0.7818609E-02  0.8376878E-01
       -1   -1    0    0    0  501  0.00000000000E+00  0.00000000000E+00  0.63259665238E+03  0.63259665240E+03  0.50400001928E-02 0. -1.
        1   -1    0    0  501    0  0.00000000000E+00  0.00000000000E+00 -0.26195986171E+04  0.26195986171E+04  0.50400001928E-02 0.  1.
    10030    2    1    2    0    0  0.00000000000E+00  0.00000000000E+00 -0.19870019647E+04  0.32521952695E+04  0.25746062346E+04 0.  0.
        3    1    3    3  502    0  0.10564082137E+04  0.87269482325E+02 -0.19161728226E+04  0.21898247813E+04  0.10100000352E+00 0.  1.
       -3    1    3    3    0  502 -0.10564082137E+04 -0.87269482325E+02 -0.70829142104E+02  0.10623704882E+04  0.10100000352E+00 0. -1.
</event>
<event>
 5   0  0.1720129E-05  0.2633620E+04  0.7818609E-02  0.8356870E-01
        2   -1    0    0  501    0  0.00000000000E+00  0.00000000000E+00  0.15393060215E+04  0.15393060215E+04  0.25500000920E-02 0.  1.
       -2   -1    0    0    0  501  0.00000000000E+00  0.00000000000E+00 -0.11264739270E+04  0.11264739270E+04  0.25500000920E-02 0. -1.
    10030    2    1    2    0    0  0.00000000000E+00  0.00000000000E+00  0.41283209451E+03  0.26657799485E+04  0.26336196376E+04 0.  0.
        3    1    3    3  502    0 -0.68538010816E+03  0.87449012173E+03  0.92180627083E+03  0.14436778300E+04  0.10100000352E+00 0.  1.
       -3    1    3    3    0  502  0.68538010816E+03 -0.87449012173E+03 -0.50897417632E+03  0.12221021185E+04  0.10100000352E+00 0. -1.
</event>
<event>
 5   0  0.1720129E-05  0.2534821E+04  0.7818609E-02  0.8390684E-01
        2   -1    0    0  501    0  0.00000000000E+00  0.00000000000E+00  0.14678402922E+04  0.14678402922E+04  0.25500000920E-02 0.  1.
       -2   -1    0    0    0  501  0.00000000000E+00  0.00000000000E+00 -0.10943489143E+04  0.10943489143E+04  0.25500000920E-02 0. -1.
    10030    2    1    2    0    0  0.00000000000E+00  0.00000000000E+00  0.37349137791E+03  0.25621892065E+04  0.25348210431E+04 0.  0.
        3    1    3    3  502    0  0.70915545311E+03  0.92815234353E+03 -0.31046075639E+03  0.12086166145E+04  0.10100000352E+00 0. -1.
       -3    1    3    3    0  502 -0.70915545311E+03 -0.92815234353E+03  0.68395213430E+03  0.13535725920E+04  0.10100000352E+00 0.  1.
</event>
<event>
 5   0  0.6993678E-06  0.2614195E+04  0.7818609E-02  0.8363395E-01
        1   -1    0    0  501    0  0.00000000000E+00  0.00000000000E+00  0.11663437586E+04  0.11663437587E+04  0.50400001928E-02 0.  1.
       -1   -1    0    0    0  501  0.00000000000E+00  0.00000000000E+00 -0.14648371002E+04  0.14648371002E+04  0.50400001928E-02 0. -1.
    10030    2    1    2    0    0  0.00000000000E+00  0.00000000000E+00 -0.29849334151E+03  0.26311808588E+04  0.26141947970E+04 0.  0.
        1    1    3    3  502    0  0.10984458594E+04 -0.26885768311E+03  0.51047843483E+03  0.12407481583E+04  0.50400001928E-02 0.  1.
       -1    1    3    3    0  502 -0.10984458594E+04  0.26885768311E+03 -0.80897177634E+03  0.13904327005E+04  0.50400001928E-02 0. -1.
</event>
<event>
 5   0  0.1702345E-05  0.2603365E+04  0.7818609E-02  0.8367059E-01
        2   -1    0    0  501    0  0.00000000000E+00  0.00000000000E+00  0.21595446306E+04  0.21595446306E+04  0.25500000920E-02 0.  1.
       -2   -1    0    0    0  501  0.00000000000E+00  0.00000000000E+00 -0.78459930656E+03  0.78459930656E+03  0.25500000920E-02 0. -1.
    10030    2    1    2    0    0  0.00000000000E+00  0.00000000000E+00  0.13749453240E+04  0.29441439372E+04  0.26033649146E+04 0.  0.
        1    1    3    3  502    0  0.25319467167E+03  0.99769284353E+03 -0.21361980355E+03  0.10512525730E+04  0.50400001928E-02 0. -1.
       -1    1    3    3    0  502 -0.25319467167E+03 -0.99769284353E+03  0.15885651276E+04  0.18928913641E+04  0.50400001928E-02 0.  1.
</event>
<event>
 5   0  0.7138294E-06  0.2581840E+04  0.7818609E-02  0.8374396E-01
       -1   -1    0    0    0  501  0.00000000000E+00  0.00000000000E+00  0.98335148603E+03  0.98335148604E+03  0.50400001928E-02 0. -1.
        1   -1    0    0  501    0  0.00000000000E+00  0.00000000000E+00 -0.16946888723E+04  0.16946888723E+04  0.50400001928E-02 0.  1.
    10030    2    1    2    0    0  0.00000000000E+00  0.00000000000E+00 -0.71133738625E+03  0.26780403583E+04  0.25818402901E+04 0.  0.
        2    1    3    3  502    0  0.11498893480E+04 -0.58023192304E+03 -0.44585800383E+03  0.13629761395E+04  0.25500000920E-02 0.  1.
       -2    1    3    3    0  502 -0.11498893480E+04  0.58023192304E+03 -0.26547938241E+03  0.13150642189E+04  0.25500000920E-02 0. -1.
</event>
<event>
 5   0  0.6993678E-06  0.2619053E+04  0.7818609E-02  0.8361758E-01
        1   -1    0    0  501    0  0.00000000000E+00  0.00000000000E+00  0.19329748122E+04  0.19329748122E+04  0.50400001928E-02 0. -1.
       -1   -1    0    0    0  501  0.00000000000E+00  0.00000000000E+00 -0.88716087353E+03  0.88716087355E+03  0.50400001928E-02 0.  1.
    10030    2    1    2    0    0  0.00000000000E+00  0.00000000000E+00  0.10458139387E+04  0.28201356857E+04  0.26190529761E+04 0.  0.
        1    1    3    3  502    0 -0.88095508011E+03  0.39242209347E+03 -0.43098770303E+03  0.10563272944E+04  0.50400001928E-02 0.  1.
       -1    1    3    3    0  502  0.88095508011E+03 -0.39242209347E+03  0.14768016417E+04  0.17638083914E+04  0.50400001928E-02 0. -1.
</event>
<event>
 5   0  0.5840500E-06  0.2609719E+04  0.7818609E-02  0.8364907E-01
        4   -1    0    0  501    0  0.00000000000E+00  0.00000000000E+00  0.17659413849E+04  0.17659418415E+04  0.12699999809E+01 0.  1.
       -4   -1    0    0    0  501  0.00000000000E+00  0.00000000000E+00 -0.96416349326E+03  0.96416432968E+03  0.12699999809E+01 0. -1.
    10030    2    1    2    0    0  0.00000000000E+00  0.00000000000E+00  0.80177789159E+03  0.27301061712E+04  0.26097187432E+04 0.  0.
        5    1    3    3  502    0  0.98963990544E+03  0.84999018745E+03  0.42983158516E+03  0.13735529632E+04  0.46999998093E+01 0. -1.
       -5    1    3    3    0  502 -0.98963990544E+03 -0.84999018745E+03  0.37194630643E+03  0.13565532080E+04  0.46999998093E+01 0.  1.
</event>
<event>
 5   0  0.1702345E-05  0.2594601E+04  0.7818609E-02  0.8370037E-01
        2   -1    0    0  501    0  0.00000000000E+00  0.00000000000E+00  0.13138915641E+04  0.13138915641E+04  0.25500000920E-02 0. -1.
       -2   -1    0    0    0  501  0.00000000000E+00  0.00000000000E+00 -0.12809193409E+04  0.12809193409E+04  0.25500000920E-02 0.  1.
    10030    2    1    2    0    0  0.00000000000E+00  0.00000000000E+00  0.32972223191E+02  0.25948109051E+04  0.25946014078E+04 0.  0.
        1    1    3    3  502    0  0.29754571644E+03 -0.64212394753E+03  0.11038330690E+04  0.13112223540E+04  0.50400001928E-02 0. -1.
       -1    1    3    3    0  502 -0.29754571644E+03  0.64212394753E+03 -0.10708608458E+04  0.12835885511E+04  0.50400001928E-02 0.  1.
</event>
<event>
 5   0  0.6918420E-06  0.2594259E+04  0.7818609E-02  0.8370154E-01
        1   -1    0    0  501    0  0.00000000000E+00  0.00000000000E+00  0.13022236033E+04  0.13022236033E+04  0.50400001928E-02 0. -1.
       -1   -1    0    0    0  501  0.00000000000E+00  0.00000000000E+00 -0.12920549822E+04  0.12920549822E+04  0.50400001928E-02 0.  1.
    10030    2    1    2    0    0  0.00000000000E+00  0.00000000000E+00  0.10168621035E+02  0.25942785855E+04  0.25942586568E+04 0.  0.
        4    1    3    3  502    0 -0.14820920620E+03 -0.91851286393E+03  0.90892256070E+03  0.13006820074E+04  0.12699999809E+01 0. -1.
       -4    1    3    3    0  502  0.14820920620E+03  0.91851286393E+03 -0.89875393966E+03  0.12935965781E+04  0.12699999809E+01 0.  1.
</event>
<event>
 5   0  0.7138294E-06  0.2643774E+04  0.7818609E-02  0.8353482E-01
       -1   -1    0    0    0  501  0.00000000000E+00  0.00000000000E+00  0.89670913598E+03  0.89670913599E+03  0.50400001928E-02 0.  1.
        1   -1    0    0  501    0  0.00000000000E+00  0.00000000000E+00 -0.19486651090E+04  0.19486651090E+04  0.50400001928E-02 0. -1.
    10030    2    1    2    0    0  0.00000000000E+00  0.00000000000E+00 -0.10519559730E+04  0.28453742450E+04  0.26437744278E+04 0.  0.
        2    1    3    3  502    0  0.56778305843E+03  0.68646754141E+03  0.52510485359E+03  0.10340939968E+04  0.25500000920E-02 0.  1.
       -2    1    3    3    0  502 -0.56778305843E+03 -0.68646754141E+03 -0.15770608266E+04  0.18112802482E+04  0.25500000920E-02 0. -1.
</event>
<event>
 5   0  0.1681731E-05  0.2616931E+04  0.7818609E-02  0.8362473E-01
        2   -1    0    0  501    0  0.00000000000E+00  0.00000000000E+00  0.97576038259E+03  0.97576038259E+03  0.25500000920E-02 0.  1.
       -2   -1    0    0    0  501  0.00000000000E+00  0.00000000000E+00 -0.17546129444E+04  0.17546129444E+04  0.25500000920E-02 0. -1.
    10030    2    1    2    0    0  0.00000000000E+00  0.00000000000E+00 -0.77885256183E+03  0.27303733270E+04  0.26169308726E+04 0.  0.
        2    1    3    3  502    0 -0.52892263308E+03 -0.11864964205E+04 -0.22595340066E+03  0.13185552119E+04  0.25500000920E-02 0.  1.
       -2    1    3    3    0  502  0.52892263308E+03  0.11864964205E+04 -0.55289916117E+03  0.14118181151E+04  0.25500000920E-02 0. -1.
</event>
<event>
 5   0  0.6984287E-06  0.2618336E+04  0.7818609E-02  0.8361999E-01
       -1   -1    0    0    0  501  0.00000000000E+00  0.00000000000E+00  0.12739678826E+04  0.12739678826E+04  0.50400001928E-02 0. -1.
        1   -1    0    0  501    0  0.00000000000E+00  0.00000000000E+00 -0.13453406289E+04  0.13453406289E+04  0.50400001928E-02 0.  1.
    10030    2    1    2    0    0  0.00000000000E+00  0.00000000000E+00 -0.71372746356E+02  0.26193085115E+04  0.26183359237E+04 0.  0.
        3    1    3    3  502    0  0.98731099015E+03 -0.68666617798E+03 -0.55320561881E+03  0.13237559813E+04  0.10100000352E+00 0. -1.
       -3    1    3    3    0  502 -0.98731099015E+03  0.68666617798E+03  0.48183287245E+03  0.12955525302E+04  0.10100000352E+00 0.  1.
</event>
<event>
 5   0  0.1869956E-05  0.2719740E+04  0.7818609E-02  0.8328628E-01
        2   -1    0    0  501    0  0.00000000000E+00  0.00000000000E+00  0.18301311964E+04  0.18301311964E+04  0.25500000920E-02 0. -1.
       -2   -1    0    0    0  501  0.00000000000E+00  0.00000000000E+00 -0.10104445973E+04  0.10104445973E+04  0.25500000920E-02 0.  1.
    10030    2    1    2    0    0  0.00000000000E+00  0.00000000000E+00  0.81968659906E+03  0.28405757937E+04  0.27197398257E+04 0.  0.
        5    1    3    3  502    0 -0.42656272627E+03 -0.79937806144E+03 -0.64924247588E+03  0.11146743592E+04  0.46999998093E+01 0.  1.
       -5    1    3    3    0  502  0.42656272627E+03  0.79937806144E+03  0.14689290749E+04  0.17259014345E+04  0.46999998093E+01 0. -1.
</event>
<event>
 5   0  0.6984287E-06  0.2586346E+04  0.7818609E-02  0.8372854E-01
        1   -1    0    0  501    0  0.00000000000E+00  0.00000000000E+00  0.73330030053E+03  0.73330030055E+03  0.50400001928E-02 0. -1.
       -1   -1    0    0    0  501  0.00000000000E+00  0.00000000000E+00 -0.22805071329E+04  0.22805071329E+04  0.50400001928E-02 0.  1.
    10030    2    1    2    0    0  0.00000000000E+00  0.00000000000E+00 -0.15472068324E+04  0.30138074334E+04  0.25863461222E+04 0.  0.
        3    1    3    3  502    0  0.84511699298E+03 -0.92568498565E+03 -0.40294094192E+03  0.13166156756E+04  0.10100000352E+00 0.  1.
       -3    1    3    3    0  502 -0.84511699298E+03  0.92568498565E+03 -0.11442658904E+04  0.16971917578E+04  0.10100000352E+00 0. -1.
</event>
<event>
 5   0  0.1681731E-05  0.2586827E+04  0.7818609E-02  0.8372690E-01
        2   -1    0    0  501    0  0.00000000000E+00  0.00000000000E+00  0.23340250220E+04  0.23340250220E+04  0.25500000920E-02 0.  1.
       -2   -1    0    0    0  501  0.00000000000E+00  0.00000000000E+00 -0.71675247087E+03  0.71675247088E+03  0.25500000920E-02 0. -1.
    10030    2    1    2    0    0  0.00000000000E+00  0.00000000000E+00  0.16172725511E+04  0.30507774929E+04  0.25868267832E+04 0.  0.
        2    1    3    3  502    0  0.10592386240E+03 -0.33751086300E+03 -0.65859463268E+03  0.74758299705E+03  0.25500000920E-02 0. -1.
       -2    1    3    3    0  502 -0.10592386240E+03  0.33751086300E+03  0.22758671838E+04  0.23031944958E+04  0.25500000920E-02 0.  1.
</event>
<event>
 5   0  0.1681731E-05  0.2605240E+04  0.7818609E-02  0.8366423E-01
        2   -1    0    0  501    0  0.00000000000E+00  0.00000000000E+00  0.12787098288E+04  0.12787098288E+04  0.25500000920E-02 0. -1.
       -2   -1    0    0    0  501  0.00000000000E+00  0.00000000000E+00 -0.13269772850E+04  0.13269772850E+04  0.25500000920E-02 0.  1.
    10030    2    1    2    0    0  0.00000000000E+00  0.00000000000E+00 -0.48267456176E+02  0.26056871139E+04  0.26052400250E+04 0.  0.
        2    1    3    3  502    0  0.10810810718E+04  0.48661942832E+03  0.51566635437E+03  0.12928443607E+04  0.25500000920E-02 0. -1.
       -2    1    3    3    0  502 -0.10810810718E+04 -0.48661942832E+03 -0.56393381055E+03  0.13128427532E+04  0.25500000920E-02 0.  1.
</event>
<event>
 5   0  0.6993678E-06  0.2582666E+04  0.7818609E-02  0.8374113E-01
        1   -1    0    0  501    0  0.00000000000E+00  0.00000000000E+00  0.11522775463E+04  0.11522775463E+04  0.50400001928E-02 0.  1.
       -1   -1    0    0    0  501  0.00000000000E+00  0.00000000000E+00 -0.14471696580E+04  0.14471696580E+04  0.50400001928E-02 0. -1.
    10030    2    1    2    0    0  0.00000000000E+00  0.00000000000E+00 -0.29489211170E+03  0.25994472043E+04  0.25826661438E+04 0.  0.
        1    1    3    3  502    0 -0.10377702595E+04 -0.50579433745E+03  0.43488571005E+03  0.12336614625E+04  0.50400001928E-02 0.  1.
       -1    1    3    3    0  502  0.10377702595E+04  0.50579433745E+03 -0.72977782175E+03  0.13657857418E+04  0.50400001928E-02 0. -1.
</event>
<event>
 5   0  0.1720129E-05  0.2592579E+04  0.7818609E-02  0.8370726E-01
        2   -1    0    0  501    0  0.00000000000E+00  0.00000000000E+00  0.12576726854E+04  0.12576726854E+04  0.25500000920E-02 0.  1.
       -2   -1    0    0    0  501  0.00000000000E+00  0.00000000000E+00 -0.13360923887E+04  0.13360923887E+04  0.25500000920E-02 0. -1.
    10030    2    1    2    0    0  0.00000000000E+00  0.00000000000E+00 -0.78419703386E+02  0.25937650741E+04  0.25925793353E+04 0.  0.
        3    1    3    3  502    0  0.12564751738E+04 -0.15442307649E+03  0.23982727128E+03  0.12884461491E+04  0.10100000352E+00 0.  1.
       -3    1    3    3    0  502 -0.12564751738E+04  0.15442307649E+03 -0.31824697467E+03  0.13053189250E+04  0.10100000352E+00 0. -1.
</event>
<event>
 5   0  0.1681731E-05  0.2650245E+04  0.7818609E-02  0.8351332E-01
       -2   -1    0    0    0  501  0.00000000000E+00  0.00000000000E+00  0.96993555192E+03  0.96993555193E+03  0.25500000920E-02 0.  1.
        2   -1    0    0  501    0  0.00000000000E+00  0.00000000000E+00 -0.18103775421E+04  0.18103775421E+04  0.25500000920E-02 0. -1.
    10030    2    1    2    0    0  0.00000000000E+00  0.00000000000E+00 -0.84044199020E+03  0.27803130940E+04  0.26502449249E+04 0.  0.
        2    1    3    3  502    0 -0.11204273437E+04 -0.69453826071E+03 -0.27865879220E+03  0.13473646687E+04  0.25500000920E-02 0. -1.
       -2    1    3    3    0  502  0.11204273437E+04  0.69453826071E+03 -0.56178319800E+03  0.14329484253E+04  0.25500000920E-02 0.  1.
</event>
<event>
 5   0  0.6984287E-06  0.2632564E+04  0.7818609E-02  0.8357223E-01
       -1   -1    0    0    0  501  0.00000000000E+00  0.00000000000E+00  0.11678533153E+04  0.11678533153E+04  0.50400001928E-02 0. -1.
        1   -1    0    0  501    0  0.00000000000E+00  0.00000000000E+00 -0.14835754729E+04  0.14835754729E+04  0.50400001928E-02 0.  1.
    10030    2    1    2    0    0  0.00000000000E+00  0.00000000000E+00 -0.31572215763E+03  0.26514287882E+04  0.26325641755E+04 0.  0.
        3    1    3    3  502    0 -0.65242830824E+03  0.75966494508E+03 -0.10182926126E+04  0.14281713417E+04  0.10100000352E+00 0.  1.
       -3    1    3    3    0  502  0.65242830824E+03 -0.75966494508E+03  0.70257045494E+03  0.12232574465E+04  0.10100000352E+00 0. -1.
</event>
<event>
 5   0  0.6984287E-06  0.2580505E+04  0.7818609E-02  0.8374854E-01
        1   -1    0    0  501    0  0.00000000000E+00  0.00000000000E+00  0.15315593781E+04  0.15315593781E+04  0.50400001928E-02 0. -1.
       -1   -1    0    0    0  501  0.00000000000E+00  0.00000000000E+00 -0.10869649745E+04  0.10869649745E+04  0.50400001928E-02 0.  1.
    10030    2    1    2    0    0  0.00000000000E+00  0.00000000000E+00  0.44459440360E+03  0.26185243526E+04  0.25805049121E+04 0.  0.
        3    1    3    3  502    0  0.34351151982E+03  0.30317322068E+03 -0.10016399831E+04  0.11014521469E+04  0.10100000352E+00 0.  1.
       -3    1    3    3    0  502 -0.34351151982E+03 -0.30317322068E+03  0.14462343867E+04  0.15170722057E+04  0.10100000352E+00 0. -1.
</event>
<event>
 5   0  0.6918420E-06  0.2644777E+04  0.7818609E-02  0.8353149E-01
       -1   -1    0    0    0  501  0.00000000000E+00  0.00000000000E+00  0.16122432042E+04  0.16122432042E+04  0.50400001928E-02 0.  1.
        1   -1    0    0  501    0  0.00000000000E+00  0.00000000000E+00 -0.10846446995E+04  0.10846446995E+04  0.50400001928E-02 0. -1.
    10030    2    1    2    0    0  0.00000000000E+00  0.00000000000E+00  0.52759850472E+03  0.26968879038E+04  0.26447767738E+04 0.  0.
        4    1    3    3  502    0 -0.12378989781E+04 -0.19440815024E+03  0.69464177278E+03  0.14327306845E+04  0.12699999809E+01 0.  1.
       -4    1    3    3    0  502  0.12378989781E+04  0.19440815024E+03 -0.16704326806E+03  0.12641572193E+04  0.12699999809E+01 0. -1.
</event>
<event>
 5   0  0.1720129E-05  0.2589286E+04  0.7818609E-02  0.8371850E-01
       -2   -1    0    0    0  501  0.00000000000E+00  0.00000000000E+00  0.12109052001E+04  0.12109052001E+04  0.25500000920E-02 0.  1.
        2   -1    0    0  501    0  0.00000000000E+00  0.00000000000E+00 -0.13841710748E+04  0.13841710748E+04  0.25500000920E-02 0. -1.
    10030    2    1    2    0    0  0.00000000000E+00  0.00000000000E+00 -0.17326587465E+03  0.25950762749E+04  0.25892855790E+04 0.  0.
        3    1    3    3  502    0 -0.74893977980E+03  0.36234761614E+03  0.90749937080E+03  0.12311627459E+04  0.10100000352E+00 0.  1.
       -3    1    3    3    0  502  0.74893977980E+03 -0.36234761614E+03 -0.10807652454E+04  0.13639135290E+04  0.10100000352E+00 0. -1.
</event>
<event>
 5   0  0.1681731E-05  0.2616252E+04  0.7818609E-02  0.8362702E-01
       -2   -1    0    0    0  501  0.00000000000E+00  0.00000000000E+00  0.18076413776E+04  0.18076413776E+04  0.25500000920E-02 0.  1.
        2   -1    0    0  501    0  0.00000000000E+00  0.00000000000E+00 -0.94664438159E+03  0.94664438159E+03  0.25500000920E-02 0. -1.
    10030    2    1    2    0    0  0.00000000000E+00  0.00000000000E+00  0.86099699604E+03  0.27542857592E+04  0.26162519405E+04 0.  0.
        2    1    3    3  502    0 -0.12579810194E+04 -0.34476308750E+03  0.32619699545E+03  0.13445379547E+04  0.25500000920E-02 0.  1.
       -2    1    3    3    0  502  0.12579810194E+04  0.34476308750E+03  0.53480000060E+03  0.14097478045E+04  0.25500000920E-02 0. -1.
</event>
<event>
 5   0  0.1677971E-05  0.2588417E+04  0.7818609E-02  0.8372146E-01
       -2   -1    0    0    0  501  0.00000000000E+00  0.00000000000E+00  0.76394285520E+03  0.76394285520E+03  0.25500000920E-02 0. -1.
        2   -1    0    0  501    0  0.00000000000E+00  0.00000000000E+00 -0.21925411340E+04  0.21925411340E+04  0.25500000920E-02 0.  1.
    10030    2    1    2    0    0  0.00000000000E+00  0.00000000000E+00 -0.14285982788E+04  0.29564839892E+04  0.25884173806E+04 0.  0.
        4    1    3    3  502    0 -0.51223201208E+03 -0.33833873733E+02  0.64268161862E+03  0.82253731893E+03  0.12699999809E+01 0. -1.
       -4    1    3    3    0  502  0.51223201208E+03  0.33833873733E+02 -0.20712798975E+04  0.21339466703E+04  0.12699999809E+01 0.  1.
</event>
<event>
 5   0  0.7138294E-06  0.2592868E+04  0.7818609E-02  0.8370628E-01
        1   -1    0    0  501    0  0.00000000000E+00  0.00000000000E+00  0.18509230787E+04  0.18509230787E+04  0.50400001928E-02 0.  1.
       -1   -1    0    0    0  501  0.00000000000E+00  0.00000000000E+00 -0.90805537416E+03  0.90805537417E+03  0.50400001928E-02 0. -1.
    10030    2    1    2    0    0  0.00000000000E+00  0.00000000000E+00  0.94286770457E+03  0.27589784529E+04  0.25928676394E+04 0.  0.
        2    1    3    3  502    0 -0.10400576137E+04  0.76688589263E+03  0.36030742186E+03  0.13415122998E+04  0.25500000920E-02 0.  1.
       -2    1    3    3    0  502  0.10400576137E+04 -0.76688589263E+03  0.58256028271E+03  0.14174661531E+04  0.25500000920E-02 0. -1.
</event>
<event>
 5   0  0.5840500E-06  0.2603643E+04  0.7818609E-02  0.8366965E-01
       -3   -1    0    0    0  501  0.00000000000E+00  0.00000000000E+00  0.14523919227E+04  0.14523919262E+04  0.10100000352E+00 0.  1.
        3   -1    0    0  501    0  0.00000000000E+00  0.00000000000E+00 -0.11668605754E+04  0.11668605798E+04  0.10100000352E+00 0. -1.
    10030    2    1    2    0    0  0.00000000000E+00  0.00000000000E+00  0.28553134730E+03  0.26192525060E+04  0.26036427443E+04 0.  0.
        5    1    3    3  502    0  0.39443397773E+03  0.12249454544E+04 -0.55002026603E+02  0.12880670953E+04  0.46999998093E+01 0.  1.
       -5    1    3    3    0  502 -0.39443397773E+03 -0.12249454544E+04  0.34053337391E+03  0.13311854107E+04  0.46999998093E+01 0. -1.
</event>
<event>
 5   0  0.1702345E-05  0.2609743E+04  0.7818609E-02  0.8364899E-01
       -2   -1    0    0    0  501  0.00000000000E+00  0.00000000000E+00  0.11473232065E+04  0.11473232065E+04  0.25500000920E-02 0. -1.
        2   -1    0    0  501    0  0.00000000000E+00  0.00000000000E+00 -0.14840542084E+04  0.14840542084E+04  0.25500000920E-02 0.  1.
    10030    2    1    2    0    0  0.00000000000E+00  0.00000000000E+00 -0.33673100190E+03  0.26313774149E+04  0.26097431544E+04 0.  0.
        1    1    3    3  502    0 -0.83079852676E+03 -0.78394820258E+03 -0.80437889823E+03  0.13970778033E+04  0.50400001928E-02 0.  1.
       -1    1    3    3    0  502  0.83079852676E+03  0.78394820258E+03  0.46764789632E+03  0.12342996117E+04  0.50400001928E-02 0. -1.
</event>
<event>
 5   0  0.1681731E-05  0.2596762E+04  0.7818609E-02  0.8369302E-01
        2   -1    0    0  501    0  0.00000000000E+00  0.00000000000E+00  0.13935823011E+04  0.13935823011E+04  0.25500000920E-02 0. -1.
       -2   -1    0    0    0  501  0.00000000000E+00  0.00000000000E+00 -0.12096834926E+04  0.12096834926E+04  0.25500000920E-02 0.  1.
    10030    2    1    2    0    0  0.00000000000E+00  0.00000000000E+00  0.18389880853E+03  0.26032657937E+04  0.25967622188E+04 0.  0.
        2    1    3    3  502    0  0.46891832089E+02  0.95832247243E+03 -0.78500580606E+03  0.12396833953E+04  0.25500000920E-02 0.  1.
       -2    1    3    3    0  502 -0.46891832089E+02 -0.95832247243E+03  0.96890461459E+03  0.13635823984E+04  0.25500000920E-02 0. -1.
</event>
<event>
 5   0  0.6993678E-06  0.2691170E+04  0.7818609E-02  0.8337876E-01
        1   -1    0    0  501    0  0.00000000000E+00  0.00000000000E+00  0.12515904277E+04  0.12515904277E+04  0.50400001928E-02 0. -1.
       -1   -1    0    0    0  501  0.00000000000E+00  0.00000000000E+00 -0.14466386311E+04  0.14466386311E+04  0.50400001928E-02 0.  1.
    10030    2    1    2    0    0  0.00000000000E+00  0.00000000000E+00 -0.19504820343E+03  0.26982290588E+04  0.26911700526E+04 0.  0.
        1    1    3    3  502    0 -0.12304324428E+04  0.27945270001E+02  0.44782737180E+03  0.13096924407E+04  0.50400001928E-02 0. -1.
       -1    1    3    3    0  502  0.12304324428E+04 -0.27945270001E+02 -0.64287557523E+03  0.13885366180E+04  0.50400001928E-02 0.  1.
</event>
<event>
 5   0  0.6984287E-06  0.2589011E+04  0.7818609E-02  0.8371944E-01
        1   -1    0    0  501    0  0.00000000000E+00  0.00000000000E+00  0.22669202579E+04  0.22669202579E+04  0.50400001928E-02 0.  1.
       -1   -1    0    0    0  501  0.00000000000E+00  0.00000000000E+00 -0.73921629438E+03  0.73921629440E+03  0.50400001928E-02 0. -1.
    10030    2    1    2    0    0  0.00000000000E+00  0.00000000000E+00  0.15277039636E+04  0.30061365523E+04  0.25890109253E+04 0.  0.
        3    1    3    3  502    0 -0.81291060940E+03 -0.99468085965E+03  0.57832534269E+03  0.14087845412E+04  0.10100000352E+00 0.  1.
       -3    1    3    3    0  502  0.81291060940E+03  0.99468085965E+03  0.94937862087E+03  0.15973520111E+04  0.10100000352E+00 0. -1.
</event>
<event>
 5   0  0.6918420E-06  0.2602242E+04  0.7818609E-02  0.8367440E-01
       -1   -1    0    0    0  501  0.00000000000E+00  0.00000000000E+00  0.16931888225E+04  0.16931888225E+04  0.50400001928E-02 0.  1.
        1   -1    0    0  501    0  0.00000000000E+00  0.00000000000E+00 -0.99983884158E+03  0.99983884160E+03  0.50400001928E-02 0. -1.
    10030    2    1    2    0    0  0.00000000000E+00  0.00000000000E+00  0.69334998089E+03  0.26930276641E+04  0.26022420724E+04 0.  0.
        4    1    3    3  502    0  0.65231359344E+03 -0.46795894366E+03 -0.71296877429E+03  0.10736967371E+04  0.12699999809E+01 0. -1.
       -4    1    3    3    0  502 -0.65231359344E+03  0.46795894366E+03  0.14063187552E+04  0.16193309270E+04  0.12699999809E+01 0.  1.
</event>
<event>
 5   0  0.6984287E-06  0.2610978E+04  0.7818609E-02  0.8364482E-01
       -1   -1    0    0    0  501  0.00000000000E+00  0.00000000000E+00  0.85632658015E+03  0.85632658016E+03  0.50400001928E-02 0.  1.
        1   -1    0    0  501    0  0.00000000000E+00  0.00000000000E+00 -0.19902472980E+04  0.19902472980E+04  0.50400001928E-02 0. -1.
    10030    2    1    2    0    0  0.00000000000E+00  0.00000000000E+00 -0.11339207179E+04  0.28465738782E+04  0.26109781021E+04 0.  0.
        3    1    3    3  502    0  0.30656094597E+03  0.25403933718E+03  0.78852216483E+03  0.88333618349E+03  0.10100000352E+00 0.  1.
       -3    1    3    3    0  502 -0.30656094597E+03 -0.25403933718E+03 -0.19224428827E+04  0.19632376947E+04  0.10100000352E+00 0. -1.
</event>
<event>
 5   0  0.1720129E-05  0.2619922E+04  0.7818609E-02  0.8361465E-01
       -2   -1    0    0    0  501  0.00000000000E+00  0.00000000000E+00  0.20631005041E+04  0.20631005041E+04  0.25500000920E-02 0. -1.
        2   -1    0    0  501    0  0.00000000000E+00  0.00000000000E+00 -0.83175684459E+03  0.83175684460E+03  0.25500000920E-02 0.  1.
    10030    2    1    2    0    0  0.00000000000E+00  0.00000000000E+00  0.12313436595E+04  0.28948573487E+04  0.26199221098E+04 0.  0.
        3    1    3    3  502    0  0.10124752477E+04  0.81604431074E+03  0.44109298332E+03  0.13731705919E+04  0.10100000352E+00 0.  1.
       -3    1    3    3    0  502 -0.10124752477E+04 -0.81604431074E+03  0.79025067618E+03  0.15216867568E+04  0.10100000352E+00 0. -1.
</event>
<event>
 5   0  0.7138294E-06  0.2569389E+04  0.7818609E-02  0.8378674E-01
        1   -1    0    0  501    0  0.00000000000E+00  0.00000000000E+00  0.20279426978E+04  0.20279426978E+04  0.50400001928E-02 0. -1.
       -1   -1    0    0    0  501  0.00000000000E+00  0.00000000000E+00 -0.81384949799E+03  0.81384949800E+03  0.50400001928E-02 0.  1.
    10030    2    1    2    0    0  0.00000000000E+00  0.00000000000E+00  0.12140931998E+04  0.28417921958E+04  0.25693891465E+04 0.  0.
        2    1    3    3  502    0 -0.31003156693E+03  0.12049732994E+04  0.96090328508E+03  0.15720735822E+04  0.25500000920E-02 0. -1.
       -2    1    3    3    0  502  0.31003156693E+03 -0.12049732994E+04  0.25318991469E+03  0.12697186135E+04  0.25500000920E-02 0.  1.
</event>
<event>
 5   0  0.1702345E-05  0.2544624E+04  0.7818609E-02  0.8387258E-01
       -2   -1    0    0    0  501  0.00000000000E+00  0.00000000000E+00  0.13021331505E+04  0.13021331505E+04  0.25500000920E-02 0.  1.
        2   -1    0    0  501    0  0.00000000000E+00  0.00000000000E+00 -0.12431737392E+04  0.12431737392E+04  0.25500000920E-02 0. -1.
    10030    2    1    2    0    0  0.00000000000E+00  0.00000000000E+00  0.58959411283E+02  0.25453068897E+04  0.25446239311E+04 0.  0.
        1    1    3    3  502    0 -0.93929788881E+03  0.37434962913E+03  0.80193017590E+03  0.12905464640E+04  0.50400001928E-02 0.  1.
       -1    1    3    3    0  502  0.93929788881E+03 -0.37434962913E+03 -0.74297076462E+03  0.12547604257E+04  0.50400001928E-02 0. -1.
</event>
<event>
 5   0  0.7138294E-06  0.2560191E+04  0.7818609E-02  0.8381850E-01
       -1   -1    0    0    0  501  0.00000000000E+00  0.00000000000E+00  0.10108601355E+04  0.10108601355E+04  0.50400001928E-02 0.  1.
        1   -1    0    0  501    0  0.00000000000E+00  0.00000000000E+00 -0.16210398853E+04  0.16210398853E+04  0.50400001928E-02 0. -1.
    10030    2    1    2    0    0  0.00000000000E+00  0.00000000000E+00 -0.61017974979E+03  0.26319000208E+04  0.25601910851E+04 0.  0.
        2    1    3    3  502    0 -0.24443812407E+03  0.74975466805E+02 -0.15945237932E+04  0.16148923940E+04  0.25500000920E-02 0. -1.
       -2    1    3    3    0  502  0.24443812407E+03 -0.74975466805E+02  0.98434404341E+03  0.10170076268E+04  0.25500000920E-02 0.  1.
</event>
<event>
 5   0  0.6984287E-06  0.2599031E+04  0.7818609E-02  0.8368530E-01
       -1   -1    0    0    0  501  0.00000000000E+00  0.00000000000E+00  0.12452426460E+04  0.12452426460E+04  0.50400001928E-02 0.  1.
        1   -1    0    0  501    0  0.00000000000E+00  0.00000000000E+00 -0.13561536167E+04  0.13561536167E+04  0.50400001928E-02 0. -1.
    10030    2    1    2    0    0  0.00000000000E+00  0.00000000000E+00 -0.11091097068E+03  0.26013962627E+04  0.25990308332E+04 0.  0.
        3    1    3    3  502    0  0.10260990097E+04 -0.42807467557E+03 -0.72883312213E+03  0.13294077010E+04  0.10100000352E+00 0. -1.
       -3    1    3    3    0  502 -0.10260990097E+04  0.42807467557E+03  0.61792215146E+03  0.12719885616E+04  0.10100000352E+00 0.  1.
</event>
<event>
 5   0  0.1677971E-05  0.2698035E+04  0.7818609E-02  0.8335643E-01
       -2   -1    0    0    0  501  0.00000000000E+00  0.00000000000E+00  0.10960745285E+04  0.10960745285E+04  0.25500000920E-02 0.  1.
        2   -1    0    0  501    0  0.00000000000E+00  0.00000000000E+00 -0.16603324590E+04  0.16603324590E+04  0.25500000920E-02 0. -1.
    10030    2    1    2    0    0  0.00000000000E+00  0.00000000000E+00 -0.56425793047E+03  0.27564069875E+04  0.26980349273E+04 0.  0.
        4    1    3    3  502    0 -0.30448075351E+03  0.58087210942E+03  0.92224205929E+03  0.11316593858E+04  0.12699999809E+01 0.  1.
       -4    1    3    3    0  502  0.30448075351E+03 -0.58087210942E+03 -0.14864999898E+04  0.16247476017E+04  0.12699999809E+01 0. -1.
</event>
<event>
 5   0  0.6918420E-06  0.2681395E+04  0.7818609E-02  0.8341067E-01
        1   -1    0    0  501    0  0.00000000000E+00  0.00000000000E+00  0.15109515769E+04  0.15109515769E+04  0.50400001928E-02 0.  1.
       -1   -1    0    0    0  501  0.00000000000E+00  0.00000000000E+00 -0.11896275167E+04  0.11896275168E+04  0.50400001928E-02 0. -1.
    10030    2    1    2    0    0  0.00000000000E+00  0.00000000000E+00  0.32132406016E+03  0.27005790937E+04  0.26813948403E+04 0.  0.
        4    1    3    3  502    0  0.31242130463E+02 -0.29688096495E+03 -0.11557292995E+04  0.11936608416E+04  0.12699999809E+01 0. -1.
       -4    1    3    3    0  502 -0.31242130463E+02  0.29688096495E+03  0.14770533597E+04  0.15069182520E+04  0.12699999809E+01 0.  1.
</event>
<event>
 5   0  0.1681731E-05  0.2607469E+04  0.7818609E-02  0.8365669E-01
        2   -1    0    0  501    0  0.00000000000E+00  0.00000000000E+00  0.14580954632E+04  0.14580954632E+04  0.25500000920E-02 0. -1.
       -2   -1    0    0    0  501  0.00000000000E+00  0.00000000000E+00 -0.11657147467E+04  0.11657147467E+04  0.25500000920E-02 0.  1.
    10030    2    1    2    0    0  0.00000000000E+00  0.00000000000E+00  0.29238071654E+03  0.26238102099E+04  0.26074687983E+04 0.  0.
        2    1    3    3  502    0  0.34942202396E+03 -0.12035557276E+04  0.50772079629E+03  0.13521917568E+04  0.25500000920E-02 0. -1.
       -2    1    3    3    0  502 -0.34942202396E+03  0.12035557276E+04 -0.21534007975E+03  0.12716184531E+04  0.25500000920E-02 0.  1.
</event>
<event>
 5   0  0.6706225E-06  0.2599623E+04  0.7818609E-02  0.8368329E-01
       -1   -1    0    0    0  501  0.00000000000E+00  0.00000000000E+00  0.11694434164E+04  0.11694434164E+04  0.50400001928E-02 0.  1.
        1   -1    0    0  501    0  0.00000000000E+00  0.00000000000E+00 -0.14447129599E+04  0.14447129599E+04  0.50400001928E-02 0. -1.
    10030    2    1    2    0    0  0.00000000000E+00  0.00000000000E+00 -0.27526954347E+03  0.26141563763E+04  0.25996230955E+04 0.  0.
        5    1    3    3  502    0  0.10377350889E+04 -0.38227708774E+03  0.54916080278E+03  0.12347589092E+04  0.46999998093E+01 0. -1.
       -5    1    3    3    0  502 -0.10377350889E+04  0.38227708774E+03 -0.82443034625E+03  0.13793974671E+04  0.46999998093E+01 0.  1.
</event>
<event>
 5   0  0.1720129E-05  0.2579561E+04  0.7818609E-02  0.8375177E-01
        2   -1    0    0  501    0  0.00000000000E+00  0.00000000000E+00  0.19551933951E+04  0.19551933951E+04  0.25500000920E-02 0. -1.
       -2   -1    0    0    0  501  0.00000000000E+00  0.00000000000E+00 -0.85082821302E+03  0.85082821303E+03  0.25500000920E-02 0.  1.
    10030    2    1    2    0    0  0.00000000000E+00  0.00000000000E+00  0.11043651820E+04  0.28060216081E+04  0.25795609723E+04 0.  0.
        3    1    3    3  502    0  0.12724836722E+04 -0.19380898248E+03  0.64160051262E+03  0.14382029918E+04  0.10100000352E+00 0.  1.
       -3    1    3    3    0  502 -0.12724836722E+04  0.19380898248E+03  0.46276466942E+03  0.13678186163E+04  0.10100000352E+00 0. -1.
</event>
<event>
 5   0  0.7138294E-06  0.2556512E+04  0.7818609E-02  0.8383125E-01
       -1   -1    0    0    0  501  0.00000000000E+00  0.00000000000E+00  0.60781966762E+03  0.60781966764E+03  0.50400001928E-02 0.  1.
        1   -1    0    0  501    0  0.00000000000E+00  0.00000000000E+00 -0.26881969765E+04  0.26881969765E+04  0.50400001928E-02 0. -1.
    10030    2    1    2    0    0  0.00000000000E+00  0.00000000000E+00 -0.20803773089E+04  0.32960166441E+04  0.25565124626E+04 0.  0.
        2    1    3    3  502    0  0.61108356850E+02  0.11760305684E+04 -0.16811440677E+04  0.20525660782E+04  0.25500000920E-02 0. -1.
       -2    1    3    3    0  502 -0.61108356850E+02 -0.11760305684E+04 -0.39923324117E+03  0.12434505659E+04  0.25500000920E-02 0.  1.
</event>
<event>
 5   0  0.1681731E-05  0.2601680E+04  0.7818609E-02  0.8367631E-01
       -2   -1    0    0    0  501  0.00000000000E+00  0.00000000000E+00  0.11102386302E+04  0.11102386302E+04  0.25500000920E-02 0. -1.
        2   -1    0    0  501    0  0.00000000000E+00  0.00000000000E+00 -0.15241633420E+04  0.15241633420E+04  0.25500000920E-02 0.  1.
    10030    2    1    2    0    0  0.00000000000E+00  0.00000000000E+00 -0.41392471180E+03  0.26344019722E+04  0.26016802425E+04 0.  0.
        2    1    3    3  502    0  0.11485850033E+03  0.24650871398E+03  0.10811321009E+04  0.11148119307E+04  0.25500000920E-02 0. -1.
       -2    1    3    3    0  502 -0.11485850033E+03 -0.24650871398E+03 -0.14950568127E+04  0.15195900416E+04  0.25500000920E-02 0.  1.
</event>
<event>
 5   0  0.1702345E-05  0.2609618E+04  0.7818609E-02  0.8364942E-01
        2   -1    0    0  501    0  0.00000000000E+00  0.00000000000E+00  0.17124674126E+04  0.17124674126E+04  0.25500000920E-02 0.  1.
       -2   -1    0    0    0  501  0.00000000000E+00  0.00000000000E+00 -0.99419474231E+03  0.99419474231E+03  0.25500000920E-02 0. -1.
    10030    2    1    2    0    0  0.00000000000E+00  0.00000000000E+00  0.71827267029E+03  0.27066621549E+04  0.26096176716E+04 0.  0.
        1    1    3    3  502    0 -0.19965715025E+03 -0.10111758082E+04  0.11890070851E+04  0.15735556365E+04  0.50400001928E-02 0.  1.
       -1    1    3    3    0  502  0.19965715025E+03  0.10111758082E+04 -0.47073441484E+03  0.11331065184E+04  0.50400001928E-02 0. -1.
</event>
<event>
 5   0  0.6984287E-06  0.2596723E+04  0.7818609E-02  0.8369315E-01
       -1   -1    0    0    0  501  0.00000000000E+00  0.00000000000E+00  0.11888116945E+04  0.11888116945E+04  0.50400001928E-02 0. -1.
        1   -1    0    0  501    0  0.00000000000E+00  0.00000000000E+00 -0.14180061929E+04  0.14180061929E+04  0.50400001928E-02 0.  1.
    10030    2    1    2    0    0  0.00000000000E+00  0.00000000000E+00 -0.22919449836E+03  0.26068178874E+04  0.25967228154E+04 0.  0.
        3    1    3    3  502    0 -0.12695283441E+04 -0.20801812363E+03 -0.29068892077E+03  0.13188911308E+04  0.10100000352E+00 0.  1.
       -3    1    3    3    0  502  0.12695283441E+04  0.20801812363E+03  0.61494422408E+02  0.12879267566E+04  0.10100000352E+00 0. -1.
</event>
<event>
 5   0  0.6918420E-06  0.2616557E+04  0.7818609E-02  0.8362599E-01
       -1   -1    0    0    0  501  0.00000000000E+00  0.00000000000E+00  0.16243271476E+04  0.16243271476E+04  0.50400001928E-02 0. -1.
        1   -1    0    0  501    0  0.00000000000E+00  0.00000000000E+00 -0.10537239873E+04  0.10537239873E+04  0.50400001928E-02 0.  1.
    10030    2    1    2    0    0  0.00000000000E+00  0.00000000000E+00  0.57060316034E+03  0.26780511349E+04  0.26165568816E+04 0.  0.
        4    1    3    3  502    0  0.48318365162E+03 -0.65594334817E+03  0.13330110892E+04  0.15622574353E+04  0.12699999809E+01 0. -1.
       -4    1    3    3    0  502 -0.48318365162E+03  0.65594334817E+03 -0.76240792890E+03  0.11157936996E+04  0.12699999809E+01 0.  1.
</event>
<event>
 5   0  0.1681731E-05  0.2426039E+04  0.7818609E-02  0.8429819E-01
       -2   -1    0    0    0  501  0.00000000000E+00  0.00000000000E+00  0.58290563681E+03  0.58290563682E+03  0.25500000920E-02 0.  1.
        2   -1    0    0  501    0  0.00000000000E+00  0.00000000000E+00 -0.25242787813E+04  0.25242787813E+04  0.25500000920E-02 0. -1.
    10030    2    1    2    0    0  0.00000000000E+00  0.00000000000E+00 -0.19413731445E+04  0.31071844181E+04  0.24260390191E+04 0.  0.
        2    1    3    3  502    0 -0.38292441724E+03 -0.25127223893E+03  0.46790748402E+03  0.65475664257E+03  0.25500000920E-02 0.  1.
       -2    1    3    3    0  502  0.38292441724E+03  0.25127223893E+03 -0.24092806285E+04  0.24524277756E+04  0.25500000920E-02 0. -1.
</event>
<event>
 5   0  0.1677971E-05  0.2590635E+04  0.7818609E-02  0.8371389E-01
       -2   -1    0    0    0  501  0.00000000000E+00  0.00000000000E+00  0.82705504377E+03  0.82705504377E+03  0.25500000920E-02 0. -1.
        2   -1    0    0  501    0  0.00000000000E+00  0.00000000000E+00 -0.20287014022E+04  0.20287014022E+04  0.25500000920E-02 0.  1.
    10030    2    1    2    0    0  0.00000000000E+00  0.00000000000E+00 -0.12016463585E+04  0.28557564460E+04  0.25906352325E+04 0.  0.
        4    1    3    3  502    0  0.10135112782E+04  0.15975345594E+03 -0.14723816702E+04  0.17946129592E+04  0.12699999809E+01 0.  1.
       -4    1    3    3    0  502 -0.10135112782E+04 -0.15975345594E+03  0.27073531175E+03  0.10611434868E+04  0.12699999809E+01 0. -1.
</event>
<event>
 5   0  0.1720129E-05  0.2394613E+04  0.7818609E-02  0.8441523E-01
       -2   -1    0    0    0  501  0.00000000000E+00  0.00000000000E+00  0.12573169782E+04  0.12573169782E+04  0.25500000920E-02 0. -1.
        2   -1    0    0  501    0  0.00000000000E+00  0.00000000000E+00 -0.11401602097E+04  0.11401602097E+04  0.25500000920E-02 0.  1.
    10030    2    1    2    0    0  0.00000000000E+00  0.00000000000E+00  0.11715676858E+03  0.23974771879E+04  0.23946129454E+04 0.  0.
        3    1    3    3  502    0 -0.50475973201E+03  0.10829191438E+04 -0.19273999709E+02  0.11949342058E+04  0.10100000352E+00 0. -1.
       -3    1    3    3    0  502  0.50475973201E+03 -0.10829191438E+04  0.13643076828E+03  0.12025429821E+04  0.10100000352E+00 0.  1.
</event>
<event>
 5   0  0.1869956E-05  0.2616288E+04  0.7818609E-02  0.8362690E-01
        2   -1    0    0  501    0  0.00000000000E+00  0.00000000000E+00  0.13366933583E+04  0.13366933583E+04  0.25500000920E-02 0. -1.
       -2   -1    0    0    0  501  0.00000000000E+00  0.00000000000E+00 -0.12802043986E+04  0.12802043986E+04  0.25500000920E-02 0.  1.
    10030    2    1    2    0    0  0.00000000000E+00  0.00000000000E+00  0.56488959694E+02  0.26168977569E+04  0.26162879940E+04 0.  0.
        5    1    3    3  502    0  0.93697258977E+03 -0.85105460168E+03  0.35848359778E+03  0.13155774964E+04  0.46999998093E+01 0. -1.
       -5    1    3    3    0  502 -0.93697258977E+03  0.85105460168E+03 -0.30199463809E+03  0.13013202605E+04  0.46999998093E+01 0.  1.
</event>
<event>
 5   0  0.6918420E-06  0.2594265E+04  0.7818609E-02  0.8370152E-01
       -1   -1    0    0    0  501  0.00000000000E+00  0.00000000000E+00  0.11665315596E+04  0.11665315596E+04  0.50400001928E-02 0. -1.
        1   -1    0    0  501    0  0.00000000000E+00  0.00000000000E+00 -0.14423548147E+04  0.14423548147E+04  0.50400001928E-02 0.  1.
    10030    2    1    2    0    0  0.00000000000E+00  0.00000000000E+00 -0.27582325506E+03  0.26088863743E+04  0.25942647602E+04 0.  0.
        4    1    3    3  502    0 -0.40299149257E+03 -0.12163389290E+04 -0.34071197371E+03  0.13258841561E+04  0.12699999809E+01 0.  1.
       -4    1    3    3    0  502  0.40299149257E+03  0.12163389290E+04  0.64888718646E+02  0.12830022183E+04  0.12699999809E+01 0. -1.
</event>
<event>
 5   0  0.6706225E-06  0.2594806E+04  0.7818609E-02  0.8369967E-01
       -1   -1    0    0    0  501  0.00000000000E+00  0.00000000000E+00  0.95058276183E+03  0.95058276184E+03  0.50400001928E-02 0.  1.
        1   -1    0    0  501    0  0.00000000000E+00  0.00000000000E+00 -0.17707611769E+04  0.17707611769E+04  0.50400001928E-02 0. -1.
    10030    2    1    2    0    0  0.00000000000E+00  0.00000000000E+00 -0.82017841506E+03  0.27213439387E+04  0.25948063898E+04 0.  0.
        5    1    3    3  502    0  0.96080345218E+03 -0.56055130477E+03  0.29020984183E+03  0.11496107521E+04  0.46999998093E+01 0.  1.
       -5    1    3    3    0  502 -0.96080345218E+03  0.56055130477E+03 -0.11103882569E+04  0.15717331867E+04  0.46999998093E+01 0. -1.
</event>
<event>
 5   0  0.6993678E-06  0.2230482E+04  0.7818609E-02  0.8505847E-01
       -1   -1    0    0    0  501  0.00000000000E+00  0.00000000000E+00  0.11965997774E+04  0.11965997774E+04  0.50400001928E-02 0.  1.
        1   -1    0    0  501    0  0.00000000000E+00  0.00000000000E+00 -0.10394142873E+04  0.10394142873E+04  0.50400001928E-02 0. -1.
    10030    2    1    2    0    0  0.00000000000E+00  0.00000000000E+00  0.15718549009E+03  0.22360140647E+04  0.22304823737E+04 0.  0.
        1    1    3    3  502    0 -0.64895143500E+03  0.44573487607E+03  0.87045385642E+03  0.11736726379E+04  0.50400001928E-02 0.  1.
       -1    1    3    3    0  502  0.64895143500E+03 -0.44573487607E+03 -0.71326836633E+03  0.10623414268E+04  0.50400001928E-02 0. -1.
</event>
<event>
 5   0  0.1677971E-05  0.2596997E+04  0.7818609E-02  0.8369222E-01
       -2   -1    0    0    0  501  0.00000000000E+00  0.00000000000E+00  0.12093387424E+04  0.12093387424E+04  0.25500000920E-02 0. -1.
        2   -1    0    0  501    0  0.00000000000E+00  0.00000000000E+00 -0.13942314293E+04  0.13942314293E+04  0.25500000920E-02 0.  1.
    10030    2    1    2    0    0  0.00000000000E+00  0.00000000000E+00 -0.18489268692E+03  0.26035701717E+04  0.25969967912E+04 0.  0.
        4    1    3    3  502    0 -0.66341054578E+03 -0.74809646312E+03 -0.92299641699E+03  0.13607666475E+04  0.12699999809E+01 0.  1.
       -4    1    3    3    0  502  0.66341054578E+03  0.74809646312E+03  0.73810373008E+03  0.12428035242E+04  0.12699999809E+01 0. -1.
</event>
<event>
 5   0  0.1677971E-05  0.2599806E+04  0.7818609E-02  0.8368267E-01
       -2   -1    0    0    0  501  0.00000000000E+00  0.00000000000E+00  0.67454606147E+03  0.67454606147E+03  0.25500000920E-02 0. -1.
        2   -1    0    0  501    0  0.00000000000E+00  0.00000000000E+00 -0.25050151750E+04  0.25050151750E+04  0.25500000920E-02 0.  1.
    10030    2    1    2    0    0  0.00000000000E+00  0.00000000000E+00 -0.18304691135E+04  0.31795612365E+04  0.25998062391E+04 0.  0.
        4    1    3    3  502    0 -0.40322914790E+03  0.57467597095E+03  0.42276262325E+03  0.81949744711E+03  0.12699999809E+01 0. -1.
       -4    1    3    3    0  502  0.40322914790E+03 -0.57467597095E+03 -0.22532317368E+04  0.23600637893E+04  0.12699999809E+01 0.  1.
</event>
<event>
 5   0  0.5840500E-06  0.2581808E+04  0.7818609E-02  0.8374407E-01
       -3   -1    0    0    0  501  0.00000000000E+00  0.00000000000E+00  0.12541295949E+04  0.12541295990E+04  0.10100000352E+00 0.  1.
        3   -1    0    0  501    0  0.00000000000E+00  0.00000000000E+00 -0.13287566123E+04  0.13287566161E+04  0.10100000352E+00 0. -1.
    10030    2    1    2    0    0  0.00000000000E+00  0.00000000000E+00 -0.74627017337E+02  0.25828862151E+04  0.25818078953E+04 0.  0.
        4    1    3    3  502    0  0.21728091293E+03 -0.12377070436E+04 -0.33290547134E+03  0.12999836102E+04  0.12699999809E+01 0. -1.
       -4    1    3    3    0  502 -0.21728091293E+03  0.12377070436E+04  0.25827845400E+03  0.12829026049E+04  0.12699999809E+01 0.  1.
</event>
<event>
 5   0  0.1681731E-05  0.2567475E+04  0.7818609E-02  0.8379334E-01
        2   -1    0    0  501    0  0.00000000000E+00  0.00000000000E+00  0.14041205742E+04  0.14041205742E+04  0.25500000920E-02 0.  1.
       -2   -1    0    0    0  501  0.00000000000E+00  0.00000000000E+00 -0.11736751396E+04  0.11736751396E+04  0.25500000920E-02 0. -1.
    10030    2    1    2    0    0  0.00000000000E+00  0.00000000000E+00  0.23044543458E+03  0.25777957138E+04  0.25674745654E+04 0.  0.
        2    1    3    3  502    0  0.53005979317E+03  0.96534082211E+03 -0.54707676811E+03  0.12296907243E+04  0.25500000920E-02 0. -1.
       -2    1    3    3    0  502 -0.53005979317E+03 -0.96534082211E+03  0.77752220269E+03  0.13481049895E+04  0.25500000920E-02 0.  1.
</event>
<event>
 5   0  0.7138294E-06  0.2520336E+04  0.7818609E-02  0.8395776E-01
        1   -1    0    0  501    0  0.00000000000E+00  0.00000000000E+00  0.21343204861E+04  0.21343204861E+04  0.50400001928E-02 0.  1.
       -1   -1    0    0    0  501  0.00000000000E+00  0.00000000000E+00 -0.74404188640E+03  0.74404188642E+03  0.50400001928E-02 0. -1.
    10030    2    1    2    0    0  0.00000000000E+00  0.00000000000E+00  0.13902785997E+04  0.28783623725E+04  0.25203363590E+04 0.  0.
        2    1    3    3  502    0  0.56580250547E+03  0.41264612916E+03  0.18916370580E+04  0.20171018969E+04  0.25500000920E-02 0.  1.
       -2    1    3    3    0  502 -0.56580250547E+03 -0.41264612916E+03 -0.50135845835E+03  0.86126047562E+03  0.25500000920E-02 0. -1.
</event>
<event>
 5   0  0.6984287E-06  0.2567949E+04  0.7818609E-02  0.8379170E-01
       -1   -1    0    0    0  501  0.00000000000E+00  0.00000000000E+00  0.76561740893E+03  0.76561740895E+03  0.50400001928E-02 0.  1.
        1   -1    0    0  501    0  0.00000000000E+00  0.00000000000E+00 -0.21532831468E+04  0.21532831468E+04  0.50400001928E-02 0. -1.
    10030    2    1    2    0    0  0.00000000000E+00  0.00000000000E+00 -0.13876657379E+04  0.29189005558E+04  0.25679494260E+04 0.  0.
        3    1    3    3  502    0  0.50317964435E+03  0.10161672659E+04 -0.13784845772E+04  0.17849384882E+04  0.10100000352E+00 0. -1.
       -3    1    3    3    0  502 -0.50317964435E+03 -0.10161672659E+04 -0.91811606972E+01  0.11339620676E+04  0.10100000352E+00 0.  1.
</event>
<event>
 5   0  0.1869956E-05  0.2595992E+04  0.7818609E-02  0.8369564E-01
        2   -1    0    0  501    0  0.00000000000E+00  0.00000000000E+00  0.18534258199E+04  0.18534258199E+04  0.25500000920E-02 0. -1.
       -2   -1    0    0    0  501  0.00000000000E+00  0.00000000000E+00 -0.90901559352E+03  0.90901559352E+03  0.25500000920E-02 0.  1.
    10030    2    1    2    0    0  0.00000000000E+00  0.00000000000E+00  0.94441022638E+03  0.27624414134E+04  0.25959915036E+04 0.  0.
        5    1    3    3  502    0 -0.10521367437E+04  0.13633907184E+03 -0.32353238256E+03  0.11091777867E+04  0.46999998093E+01 0.  1.
       -5    1    3    3    0  502  0.10521367437E+04 -0.13633907184E+03  0.12679426089E+04  0.16532636267E+04  0.46999998093E+01 0. -1.
</event>
<event>
 5   0  0.1702345E-05  0.2591426E+04  0.7818609E-02  0.8371120E-01
       -2   -1    0    0    0  501  0.00000000000E+00  0.00000000000E+00  0.87347286397E+03  0.87347286398E+03  0.25500000920E-02 0. -1.
        2   -1    0    0  501    0  0.00000000000E+00  0.00000000000E+00 -0.19220649048E+04  0.19220649048E+04  0.25500000920E-02 0.  1.
    10030    2    1    2    0    0  0.00000000000E+00  0.00000000000E+00 -0.10485920408E+04  0.27955377688E+04  0.25914255051E+04 0.  0.
        1    1    3    3  502    0  0.91302695811E+03  0.16222650283E+03 -0.15005247467E+04  0.17639473291E+04  0.50400001928E-02 0.  1.
       -1    1    3    3    0  502 -0.91302695811E+03 -0.16222650283E+03  0.45193270589E+03  0.10315904396E+04  0.50400001928E-02 0. -1.
</event>
<event>
 5   0  0.6918420E-06  0.2659055E+04  0.7818609E-02  0.8348414E-01
        1   -1    0    0  501    0  0.00000000000E+00  0.00000000000E+00  0.14652582517E+04  0.14652582518E+04  0.50400001928E-02 0.  1.
       -1   -1    0    0    0  501  0.00000000000E+00  0.00000000000E+00 -0.12063701350E+04  0.12063701350E+04  0.50400001928E-02 0. -1.
    10030    2    1    2    0    0  0.00000000000E+00  0.00000000000E+00  0.25888811677E+03  0.26716283867E+04  0.26590553172E+04 0.  0.
        4    1    3    3  502    0  0.10531193268E+03 -0.13064630763E+04  0.35344624138E+03  0.13575206192E+04  0.12699999809E+01 0.  1.
       -4    1    3    3    0  502 -0.10531193268E+03  0.13064630763E+04 -0.94558124604E+02  0.13141077676E+04  0.12699999809E+01 0. -1.
</event>
<event>
 5   0  0.6918420E-06  0.2590125E+04  0.7818609E-02  0.8371563E-01
        1   -1    0    0  501    0  0.00000000000E+00  0.00000000000E+00  0.11181777521E+04  0.11181777521E+04  0.50400001928E-02 0.  1.
       -1   -1    0    0    0  501  0.00000000000E+00  0.00000000000E+00 -0.14999291213E+04  0.14999291213E+04  0.50400001928E-02 0. -1.
    10030    2    1    2    0    0  0.00000000000E+00  0.00000000000E+00 -0.38175136916E+03  0.26181068734E+04  0.25901253817E+04 0.  0.
        4    1    3    3  502    0  0.44041066209E+03 -0.46244001013E+03  0.94796057871E+03  0.11429974567E+04  0.12699999809E+01 0.  1.
       -4    1    3    3    0  502 -0.44041066209E+03  0.46244001013E+03 -0.13297119479E+04  0.14751094168E+04  0.12699999809E+01 0. -1.
</event>
<event>
 5   0  0.6706225E-06  0.2624194E+04  0.7818609E-02  0.8360029E-01
       -1   -1    0    0    0  501  0.00000000000E+00  0.00000000000E+00  0.13798575591E+04  0.13798575591E+04  0.50400001928E-02 0. -1.
        1   -1    0    0  501    0  0.00000000000E+00  0.00000000000E+00 -0.12476634874E+04  0.12476634874E+04  0.50400001928E-02 0.  1.
    10030    2    1    2    0    0  0.00000000000E+00  0.00000000000E+00  0.13219407169E+03  0.26275210465E+04  0.26241935099E+04 0.  0.
        5    1    3    3  502    0  0.82931159755E+03  0.19823919980E+03 -0.93242339113E+03  0.12635236351E+04  0.46999998093E+01 0.  1.
       -5    1    3    3    0  502 -0.82931159755E+03 -0.19823919980E+03  0.10646174628E+04  0.13639974114E+04  0.46999998093E+01 0. -1.
</event>
<event>
 5   0  0.1677971E-05  0.2545775E+04  0.7818609E-02  0.8386857E-01
        2   -1    0    0  501    0  0.00000000000E+00  0.00000000000E+00  0.14101053399E+04  0.14101053399E+04  0.25500000920E-02 0.  1.
       -2   -1    0    0    0  501  0.00000000000E+00  0.00000000000E+00 -0.11490226924E+04  0.11490226924E+04  0.25500000920E-02 0. -1.
    10030    2    1    2    0    0  0.00000000000E+00  0.00000000000E+00  0.26108264749E+03  0.25591280323E+04  0.25457753508E+04 0.  0.
        4    1    3    3  502    0  0.28076856660E+03  0.11243965929E+04 -0.39866336848E+03  0.12255744695E+04  0.12699999809E+01 0. -1.
       -4    1    3    3    0  502 -0.28076856660E+03 -0.11243965929E+04  0.65974601598E+03  0.13335535627E+04  0.12699999809E+01 0.  1.
</event>
<event>
 5   0  0.6706225E-06  0.2605659E+04  0.7818609E-02  0.8366281E-01
        1   -1    0    0  501    0  0.00000000000E+00  0.00000000000E+00  0.12134161753E+04  0.12134161753E+04  0.50400001928E-02 0.  1.
       -1   -1    0    0    0  501  0.00000000000E+00  0.00000000000E+00 -0.13988315028E+04  0.13988315028E+04  0.50400001928E-02 0. -1.
    10030    2    1    2    0    0  0.00000000000E+00  0.00000000000E+00 -0.18541532747E+03  0.26122476781E+04  0.26056590506E+04 0.  0.
        5    1    3    3  502    0 -0.11192230040E+04  0.45602212454E+03  0.39506795043E+03  0.12715019018E+04  0.46999998093E+01 0.  1.
       -5    1    3    3    0  502  0.11192230040E+04 -0.45602212454E+03 -0.58048327790E+03  0.13407457763E+04  0.46999998093E+01 0. -1.
</event>
<event>
 5   0  0.1720129E-05  0.2297802E+04  0.7818609E-02  0.8478788E-01
       -2   -1    0    0    0  501  0.00000000000E+00  0.00000000000E+00  0.70765802030E+03  0.70765802031E+03  0.25500000920E-02 0.  1.
        2   -1    0    0  501    0  0.00000000000E+00  0.00000000000E+00 -0.18652706534E+04  0.18652706534E+04  0.25500000920E-02 0. -1.
    10030    2    1    2    0    0  0.00000000000E+00  0.00000000000E+00 -0.11576126331E+04  0.25729286737E+04  0.22978022003E+04 0.  0.
        3    1    3    3  502    0 -0.17998474374E+03 -0.24271287135E+03 -0.18199803379E+04  0.18448936247E+04  0.10100000352E+00 0. -1.
       -3    1    3    3    0  502  0.17998474374E+03  0.24271287135E+03  0.66236770485E+03  0.72803504897E+03  0.10100000352E+00 0.  1.
</event>
<event>
 5   0  0.1720129E-05  0.2604394E+04  0.7818609E-02  0.8366710E-01
        2   -1    0    0  501    0  0.00000000000E+00  0.00000000000E+00  0.18192621009E+04  0.18192621009E+04  0.25500000920E-02 0. -1.
       -2   -1    0    0    0  501  0.00000000000E+00  0.00000000000E+00 -0.93209079364E+03  0.93209079364E+03  0.25500000920E-02 0.  1.
    10030    2    1    2    0    0  0.00000000000E+00  0.00000000000E+00  0.88717130727E+03  0.27513528946E+04  0.26043943292E+04 0.  0.
        3    1    3    3  502    0 -0.90176371201E+03 -0.89610341482E+03  0.74152493872E+03  0.14717467062E+04  0.10100000352E+00 0. -1.
       -3    1    3    3    0  502  0.90176371201E+03  0.89610341482E+03  0.14564636855E+03  0.12796061883E+04  0.10100000352E+00 0.  1.
</event>
<event>
 5   0  0.5840500E-06  0.2659592E+04  0.7818609E-02  0.8348236E-01
        3   -1    0    0  501    0  0.00000000000E+00  0.00000000000E+00  0.23223091811E+04  0.23223091833E+04  0.10100000352E+00 0. -1.
       -3   -1    0    0    0  501  0.00000000000E+00  0.00000000000E+00 -0.76146510657E+03  0.76146511327E+03  0.10100000352E+00 0.  1.
    10030    2    1    2    0    0  0.00000000000E+00  0.00000000000E+00  0.15608440745E+04  0.30837742966E+04  0.26595920152E+04 0.  0.
        3    1    3    3  502    0 -0.56374357172E+03  0.99824217957E+03 -0.89211629243E+00  0.11464270887E+04  0.10100000352E+00 0.  1.
       -3    1    3    3    0  502  0.56374357172E+03 -0.99824217957E+03  0.15617361908E+04  0.19373472078E+04  0.10100000352E+00 0. -1.
</event>
<event>
 5   0  0.6706225E-06  0.2542544E+04  0.7818609E-02  0.8387984E-01
        1   -1    0    0  501    0  0.00000000000E+00  0.00000000000E+00  0.14222030761E+04  0.14222030761E+04  0.50400001928E-02 0.  1.
       -1   -1    0    0    0  501  0.00000000000E+00  0.00000000000E+00 -0.11363581829E+04  0.11363581829E+04  0.50400001928E-02 0. -1.
    10030    2    1    2    0    0  0.00000000000E+00  0.00000000000E+00  0.28584489320E+03  0.25585612590E+04  0.25425436895E+04 0.  0.
        5    1    3    3  502    0  0.29500700595E+03  0.75240780701E+03  0.11304114758E+04  0.13896038415E+04  0.46999998093E+01 0.  1.
       -5    1    3    3    0  502 -0.29500700595E+03 -0.75240780701E+03 -0.84456658260E+03  0.11689574176E+04  0.46999998093E+01 0. -1.
</event>
<event>
 5   0  0.1720129E-05  0.2671386E+04  0.7818609E-02  0.8344349E-01
       -2   -1    0    0    0  501  0.00000000000E+00  0.00000000000E+00  0.84665789305E+03  0.84665789305E+03  0.25500000920E-02 0. -1.
        2   -1    0    0  501    0  0.00000000000E+00  0.00000000000E+00 -0.21071971785E+04  0.21071971785E+04  0.25500000920E-02 0.  1.
    10030    2    1    2    0    0  0.00000000000E+00  0.00000000000E+00 -0.12605392855E+04  0.29538550716E+04  0.26713855008E+04 0.  0.
        3    1    3    3  502    0 -0.98985934440E+03  0.52749368558E+03  0.17168008344E+03  0.11347004765E+04  0.10100000352E+00 0. -1.
       -3    1    3    3    0  502  0.98985934440E+03 -0.52749368558E+03 -0.14322193689E+04  0.18191545951E+04  0.10100000352E+00 0.  1.
</event>
<event>
 5   0  0.1681731E-05  0.2593881E+04  0.7818609E-02  0.8370283E-01
        2   -1    0    0  501    0  0.00000000000E+00  0.00000000000E+00  0.19168297910E+04  0.19168297910E+04  0.25500000920E-02 0.  1.
       -2   -1    0    0    0  501  0.00000000000E+00  0.00000000000E+00 -0.87751916674E+03  0.87751916674E+03  0.25500000920E-02 0. -1.
    10030    2    1    2    0    0  0.00000000000E+00  0.00000000000E+00  0.10393106242E+04  0.27943489577E+04  0.25938811699E+04 0.  0.
        2    1    3    3  502    0  0.54407846345E+03 -0.20346798094E+03  0.17688572635E+04  0.18617939231E+04  0.25500000920E-02 0.  1.
       -2    1    3    3    0  502 -0.54407846345E+03  0.20346798094E+03 -0.72954663925E+03  0.93255503458E+03  0.25500000920E-02 0. -1.
</event>
<event>
 5   0  0.1702345E-05  0.2636655E+04  0.7818609E-02  0.8355856E-01
       -2   -1    0    0    0  501  0.00000000000E+00  0.00000000000E+00  0.10082614756E+04  0.10082614756E+04  0.25500000920E-02 0. -1.
        2   -1    0    0  501    0  0.00000000000E+00  0.00000000000E+00 -0.17237465287E+04  0.17237465287E+04  0.25500000920E-02 0.  1.
    10030    2    1    2    0    0  0.00000000000E+00  0.00000000000E+00 -0.71548505318E+03  0.27320080043E+04  0.26366548645E+04 0.  0.
        1    1    3    3  502    0 -0.12391734200E+04  0.32900839028E+03 -0.39739739696E+02  0.12827223132E+04  0.50400001928E-02 0. -1.
       -1    1    3    3    0  502  0.12391734200E+04 -0.32900839028E+03 -0.67574531348E+03  0.14492856911E+04  0.50400001928E-02 0.  1.
</event>
<event>
 5   0  0.6993678E-06  0.2564171E+04  0.7818609E-02  0.8380474E-01
        1   -1    0    0  501    0  0.00000000000E+00  0.00000000000E+00  0.16825792184E+04  0.16825792184E+04  0.50400001928E-02 0. -1.
       -1   -1    0    0    0  501  0.00000000000E+00  0.00000000000E+00 -0.97691870889E+03  0.97691870890E+03  0.50400001928E-02 0.  1.
    10030    2    1    2    0    0  0.00000000000E+00  0.00000000000E+00  0.70566050947E+03  0.26594979273E+04  0.25641709129E+04 0.  0.
        1    1    3    3  502    0  0.92970296961E+03  0.15660839144E+03 -0.54830208009E+03  0.10906461255E+04  0.50400001928E-02 0.  1.
       -1    1    3    3    0  502 -0.92970296961E+03 -0.15660839144E+03  0.12539625896E+04  0.15688518018E+04  0.50400001928E-02 0. -1.
</event>
<event>
 5   0  0.1677971E-05  0.2646625E+04  0.7818609E-02  0.8352534E-01
        2   -1    0    0  501    0  0.00000000000E+00  0.00000000000E+00  0.15708241143E+04  0.15708241143E+04  0.25500000920E-02 0.  1.
       -2   -1    0    0    0  501  0.00000000000E+00  0.00000000000E+00 -0.11148009303E+04  0.11148009303E+04  0.25500000920E-02 0. -1.
    10030    2    1    2    0    0  0.00000000000E+00  0.00000000000E+00  0.45602318398E+03  0.26856250446E+04  0.26466251597E+04 0.  0.
        4    1    3    3  502    0  0.98328279775E+03  0.41752576251E+03 -0.56451047165E+03  0.12082410803E+04  0.12699999809E+01 0. -1.
       -4    1    3    3    0  502 -0.98328279775E+03 -0.41752576251E+03  0.10205336556E+04  0.14773839643E+04  0.12699999809E+01 0.  1.
</event>
<event>
 5   0  0.1677971E-05  0.2599065E+04  0.7818609E-02  0.8368519E-01
        2   -1    0    0  501    0  0.00000000000E+00  0.00000000000E+00  0.24232051507E+04  0.24232051507E+04  0.25500000920E-02 0.  1.
       -2   -1    0    0    0  501  0.00000000000E+00  0.00000000000E+00 -0.69692201913E+03  0.69692201913E+03  0.25500000920E-02 0. -1.
    10030    2    1    2    0    0  0.00000000000E+00  0.00000000000E+00  0.17262831316E+04  0.31201271698E+04  0.25990652369E+04 0.  0.
        4    1    3    3  502    0 -0.91884260378E+03 -0.59491995197E+03  0.22306354428E+02  0.10948518923E+04  0.12699999809E+01 0. -1.
       -4    1    3    3    0  502  0.91884260378E+03  0.59491995197E+03  0.17039767771E+04  0.20252752775E+04  0.12699999809E+01 0.  1.
</event>
<event>
 5   0  0.1720129E-05  0.2570347E+04  0.7818609E-02  0.8378344E-01
       -2   -1    0    0    0  501  0.00000000000E+00  0.00000000000E+00  0.10481173097E+04  0.10481173097E+04  0.25500000920E-02 0. -1.
        2   -1    0    0  501    0  0.00000000000E+00  0.00000000000E+00 -0.15758453647E+04  0.15758453647E+04  0.25500000920E-02 0.  1.
    10030    2    1    2    0    0  0.00000000000E+00  0.00000000000E+00 -0.52772805500E+03  0.26239626745E+04  0.25703469060E+04 0.  0.
        3    1    3    3  502    0 -0.73187393041E+03  0.69721171630E+03 -0.10740991784E+04  0.14749348062E+04  0.10100000352E+00 0. -1.
       -3    1    3    3    0  502  0.73187393041E+03 -0.69721171630E+03  0.54637112339E+03  0.11490278683E+04  0.10100000352E+00 0.  1.
</event>
<event>
 5   0  0.6918420E-06  0.2693335E+04  0.7818609E-02  0.8337171E-01
        1   -1    0    0  501    0  0.00000000000E+00  0.00000000000E+00  0.27007223659E+04  0.27007223659E+04  0.50400001928E-02 0. -1.
       -1   -1    0    0    0  501  0.00000000000E+00  0.00000000000E+00 -0.67149216249E+03  0.67149216251E+03  0.50400001928E-02 0.  1.
    10030    2    1    2    0    0  0.00000000000E+00  0.00000000000E+00  0.20292302034E+04  0.33722145284E+04  0.26933354056E+04 0.  0.
        4    1    3    3  502    0  0.61788384915E+03  0.28469354605E+03  0.24697431707E+04  0.25617306276E+04  0.12699999809E+01 0. -1.
       -4    1    3    3    0  502 -0.61788384915E+03 -0.28469354605E+03 -0.44051296730E+03  0.81048390081E+03  0.12699999809E+01 0.  1.
</event>
<event>
 5   0  0.7138294E-06  0.2591937E+04  0.7818609E-02  0.8370945E-01
        1   -1    0    0  501    0  0.00000000000E+00  0.00000000000E+00  0.18594313696E+04  0.18594313696E+04  0.50400001928E-02 0.  1.
       -1   -1    0    0    0  501  0.00000000000E+00  0.00000000000E+00 -0.90325151671E+03  0.90325151673E+03  0.50400001928E-02 0. -1.
    10030    2    1    2    0    0  0.00000000000E+00  0.00000000000E+00  0.95617985289E+03  0.27626828863E+04  0.25919368857E+04 0.  0.
        2    1    3    3  502    0 -0.76355275693E+03  0.58678783225E+03 -0.44633935475E+03  0.10613913474E+04  0.25500000920E-02 0. -1.
       -2    1    3    3    0  502  0.76355275693E+03 -0.58678783225E+03  0.14025192076E+04  0.17012915390E+04  0.25500000920E-02 0.  1.
</event>
<event>
 5   0  0.1720129E-05  0.2577163E+04  0.7818609E-02  0.8376000E-01
       -2   -1    0    0    0  501  0.00000000000E+00  0.00000000000E+00  0.63933648416E+03  0.63933648416E+03  0.25500000920E-02 0.  1.
        2   -1    0    0  501    0  0.00000000000E+00  0.00000000000E+00 -0.25971333591E+04  0.25971333591E+04  0.25500000920E-02 0. -1.
    10030    2    1    2    0    0  0.00000000000E+00  0.00000000000E+00 -0.19577968750E+04  0.32364698433E+04  0.25771628670E+04 0.  0.
        3    1    3    3  502    0  0.60603951172E+03  0.54110643042E+03 -0.22349524107E+04  0.23780438069E+04  0.10100000352E+00 0. -1.
       -3    1    3    3    0  502 -0.60603951172E+03 -0.54110643042E+03  0.27715553578E+03  0.85842603643E+03  0.10100000352E+00 0.  1.
</event>
<event>
 5   0  0.1677971E-05  0.2567304E+04  0.7818609E-02  0.8379393E-01
       -2   -1    0    0    0  501  0.00000000000E+00  0.00000000000E+00  0.60449314220E+03  0.60449314221E+03  0.25500000920E-02 0.  1.
        2   -1    0    0  501    0  0.00000000000E+00  0.00000000000E+00 -0.27258577420E+04  0.27258577420E+04  0.25500000920E-02 0. -1.
    10030    2    1    2    0    0  0.00000000000E+00  0.00000000000E+00 -0.21213645998E+04  0.33303508842E+04  0.25673038867E+04 0.  0.
        4    1    3    3  502    0  0.76494931236E+03  0.36374230118E+03  0.19051368607E+03  0.86818948947E+03  0.12699999809E+01 0.  1.
       -4    1    3    3    0  502 -0.76494931236E+03 -0.36374230118E+03 -0.23118782859E+04  0.24621613948E+04  0.12699999809E+01 0. -1.
</event>
<event>
 5   0  0.1677971E-05  0.2669251E+04  0.7818609E-02  0.8345051E-01
       -2   -1    0    0    0  501  0.00000000000E+00  0.00000000000E+00  0.89467441515E+03  0.89467441515E+03  0.25500000920E-02 0.  1.
        2   -1    0    0  501    0  0.00000000000E+00  0.00000000000E+00 -0.19909198441E+04  0.19909198441E+04  0.25500000920E-02 0. -1.
    10030    2    1    2    0    0  0.00000000000E+00  0.00000000000E+00 -0.10962454289E+04  0.28855942592E+04  0.26692508665E+04 0.  0.
        4    1    3    3  502    0 -0.10008136320E+04  0.41031578277E+03 -0.13933052243E+04  0.17638843580E+04  0.12699999809E+01 0. -1.
       -4    1    3    3    0  502  0.10008136320E+04 -0.41031578277E+03  0.29705979533E+03  0.11217099012E+04  0.12699999809E+01 0.  1.
</event>
<event>
 5   0  0.6984287E-06  0.2572883E+04  0.7818609E-02  0.8377471E-01
       -1   -1    0    0    0  501  0.00000000000E+00  0.00000000000E+00  0.11812614683E+04  0.11812614683E+04  0.50400001928E-02 0.  1.
        1   -1    0    0  501    0  0.00000000000E+00  0.00000000000E+00 -0.14009865966E+04  0.14009865966E+04  0.50400001928E-02 0. -1.
    10030    2    1    2    0    0  0.00000000000E+00  0.00000000000E+00 -0.21972512836E+03  0.25822480649E+04  0.25728828066E+04 0.  0.
        3    1    3    3  502    0 -0.11744075583E+04 -0.40225329834E+03  0.22884272756E+03  0.12623033840E+04  0.10100000352E+00 0.  1.
       -3    1    3    3    0  502  0.11744075583E+04  0.40225329834E+03 -0.44856785592E+03  0.13199446809E+04  0.10100000352E+00 0. -1.
</event>
<event>
 5   0  0.6993678E-06  0.2613254E+04  0.7818609E-02  0.8363713E-01
        1   -1    0    0  501    0  0.00000000000E+00  0.00000000000E+00  0.27048348638E+04  0.27048348638E+04  0.50400001928E-02 0. -1.
       -1   -1    0    0    0  501  0.00000000000E+00  0.00000000000E+00 -0.63119342532E+03  0.63119342534E+03  0.50400001928E-02 0.  1.
    10030    2    1    2    0    0  0.00000000000E+00  0.00000000000E+00  0.20736414385E+04  0.33360282892E+04  0.26132538971E+04 0.  0.
        1    1    3    3  502    0 -0.92140747263E+03  0.27944624699E+03 -0.90763210020E+02  0.96711938037E+03  0.50400001928E-02 0.  1.
       -1    1    3    3    0  502  0.92140747263E+03 -0.27944624699E+03  0.21644046485E+04  0.23689089088E+04  0.50400001928E-02 0. -1.
</event>
<event>
 5   0  0.6918420E-06  0.2655465E+04  0.7818609E-02  0.8349601E-01
        1   -1    0    0  501    0  0.00000000000E+00  0.00000000000E+00  0.17278535219E+04  0.17278535219E+04  0.50400001928E-02 0. -1.
       -1   -1    0    0    0  501  0.00000000000E+00  0.00000000000E+00 -0.10202683242E+04  0.10202683242E+04  0.50400001928E-02 0.  1.
    10030    2    1    2    0    0  0.00000000000E+00  0.00000000000E+00  0.70758519764E+03  0.27481218461E+04  0.26554654713E+04 0.  0.
        4    1    3    3  502    0 -0.33972419325E+03 -0.11171116273E+04  0.10079247662E+04  0.15424865842E+04  0.12699999809E+01 0. -1.
       -4    1    3    3    0  502  0.33972419325E+03  0.11171116273E+04 -0.30033956851E+03  0.12056352619E+04  0.12699999809E+01 0.  1.
</event>
<event>
 5   0  0.1702345E-05  0.2626061E+04  0.7818609E-02  0.8359402E-01
       -2   -1    0    0    0  501  0.00000000000E+00  0.00000000000E+00  0.60274309298E+03  0.60274309299E+03  0.25500000920E-02 0. -1.
        2   -1    0    0  501    0  0.00000000000E+00  0.00000000000E+00 -0.28603380255E+04  0.28603380255E+04  0.25500000920E-02 0.  1.
    10030    2    1    2    0    0  0.00000000000E+00  0.00000000000E+00 -0.22575949325E+04  0.34630811184E+04  0.26260609197E+04 0.  0.
        1    1    3    3  502    0 -0.10092527374E+04 -0.15554811740E+03 -0.40330712885E+02  0.10219652006E+04  0.50400001928E-02 0. -1.
       -1    1    3    3    0  502  0.10092527374E+04  0.15554811740E+03 -0.22172642196E+04  0.24411159178E+04  0.50400001928E-02 0.  1.
</event>
<event>
 5   0  0.1677971E-05  0.2534509E+04  0.7818609E-02  0.8390794E-01
        2   -1    0    0  501    0  0.00000000000E+00  0.00000000000E+00  0.26828141949E+04  0.26828141949E+04  0.25500000920E-02 0.  1.
       -2   -1    0    0    0  501  0.00000000000E+00  0.00000000000E+00 -0.59860030336E+03  0.59860030337E+03  0.25500000920E-02 0. -1.
    10030    2    1    2    0    0  0.00000000000E+00  0.00000000000E+00  0.20842138915E+04  0.32814144983E+04  0.25345085448E+04 0.  0.
        4    1    3    3  502    0 -0.13941426589E+03 -0.12380364948E+03  0.26649579884E+04  0.26714726976E+04  0.12699999809E+01 0.  1.
       -4    1    3    3    0  502  0.13941426589E+03  0.12380364948E+03 -0.58074409691E+03  0.60994180063E+03  0.12699999809E+01 0. -1.
</event>
<event>
 5   0  0.6706225E-06  0.2622660E+04  0.7818609E-02  0.8360545E-01
        1   -1    0    0  501    0  0.00000000000E+00  0.00000000000E+00  0.18698537376E+04  0.18698537376E+04  0.50400001928E-02 0.  1.
       -1   -1    0    0    0  501  0.00000000000E+00  0.00000000000E+00 -0.91963659024E+03  0.91963659026E+03  0.50400001928E-02 0. -1.
    10030    2    1    2    0    0  0.00000000000E+00  0.00000000000E+00  0.95021714738E+03  0.27894903279E+04  0.26226596543E+04 0.  0.
        5    1    3    3  502    0 -0.12710736028E+04  0.29149191500E+03  0.62159447147E+03  0.14446443912E+04  0.46999998093E+01 0.  1.
       -5    1    3    3    0  502  0.12710736028E+04 -0.29149191500E+03  0.32862267590E+03  0.13448459366E+04  0.46999998093E+01 0. -1.
</event>
<event>
 5   0  0.1702345E-05  0.2606666E+04  0.7818609E-02  0.8365940E-01
        2   -1    0    0  501    0  0.00000000000E+00  0.00000000000E+00  0.16003955063E+04  0.16003955063E+04  0.25500000920E-02 0.  1.
       -2   -1    0    0    0  501  0.00000000000E+00  0.00000000000E+00 -0.10614110985E+04  0.10614110985E+04  0.25500000920E-02 0. -1.
    10030    2    1    2    0    0  0.00000000000E+00  0.00000000000E+00  0.53898440773E+03  0.26618066048E+04  0.26066664937E+04 0.  0.
        1    1    3    3  502    0 -0.30157980412E+02  0.20233536083E+03  0.15838990139E+04  0.15970551613E+04  0.50400001928E-02 0.  1.
       -1    1    3    3    0  502  0.30157980412E+02 -0.20233536083E+03 -0.10449146062E+04  0.10647514434E+04  0.50400001928E-02 0. -1.
</event>
<event>
 5   0  0.6984287E-06  0.2581803E+04  0.7818609E-02  0.8374409E-01
       -1   -1    0    0    0  501  0.00000000000E+00  0.00000000000E+00  0.96433653838E+03  0.96433653839E+03  0.50400001928E-02 0. -1.
        1   -1    0    0  501    0  0.00000000000E+00  0.00000000000E+00 -0.17280556560E+04  0.17280556560E+04  0.50400001928E-02 0.  1.
    10030    2    1    2    0    0  0.00000000000E+00  0.00000000000E+00 -0.76371911766E+03  0.26923921944E+04  0.25818034081E+04 0.  0.
        3    1    3    3  502    0 -0.81479571476E+03  0.63565318977E+03 -0.11886115273E+04  0.15750379067E+04  0.10100000352E+00 0.  1.
       -3    1    3    3    0  502  0.81479571476E+03 -0.63565318977E+03  0.42489240962E+03  0.11173542878E+04  0.10100000352E+00 0. -1.
</event>
<event>
 5   0  0.5840500E-06  0.2608823E+04  0.7818609E-02  0.8365211E-01
        3   -1    0    0  501    0  0.00000000000E+00  0.00000000000E+00  0.13527617347E+04  0.13527617385E+04  0.10100000352E+00 0. -1.
       -3   -1    0    0    0  501  0.00000000000E+00  0.00000000000E+00 -0.12577890240E+04  0.12577890281E+04  0.10100000352E+00 0.  1.
    10030    2    1    2    0    0  0.00000000000E+00  0.00000000000E+00  0.94972710712E+02  0.26105507665E+04  0.26088226250E+04 0.  0.
        2    1    3    3  502    0 -0.12406430109E+04 -0.37670907989E+03  0.19035369089E+03  0.13104729448E+04  0.25500000920E-02 0. -1.
       -2    1    3    3    0  502  0.12406430109E+04  0.37670907989E+03 -0.95380980181E+02  0.13000778218E+04  0.25500000920E-02 0.  1.
</event>
<event>
 5   0  0.6706225E-06  0.2602640E+04  0.7818609E-02  0.8367305E-01
       -1   -1    0    0    0  501  0.00000000000E+00  0.00000000000E+00  0.20462607658E+04  0.20462607658E+04  0.50400001928E-02 0.  1.
        1   -1    0    0  501    0  0.00000000000E+00  0.00000000000E+00 -0.82757451865E+03  0.82757451866E+03  0.50400001928E-02 0. -1.
    10030    2    1    2    0    0  0.00000000000E+00  0.00000000000E+00  0.12186862472E+04  0.28738352845E+04  0.26026396357E+04 0.  0.
        5    1    3    3  502    0 -0.77642804499E+03 -0.51908022070E+03  0.16099254771E+04  0.18612272608E+04  0.46999998093E+01 0.  1.
       -5    1    3    3    0  502  0.77642804499E+03  0.51908022070E+03 -0.39123922993E+03  0.10126080237E+04  0.46999998093E+01 0. -1.
</event>
<event>
 5   0  0.5840500E-06  0.2656788E+04  0.7818609E-02  0.8349163E-01
       -4   -1    0    0    0  501  0.00000000000E+00  0.00000000000E+00  0.18233906170E+04  0.18233910593E+04  0.12699999809E+01 0.  1.
        4   -1    0    0  501    0  0.00000000000E+00  0.00000000000E+00 -0.96777352916E+03  0.96777436247E+03  0.12699999809E+01 0. -1.
    10030    2    1    2    0    0  0.00000000000E+00  0.00000000000E+00  0.85561708784E+03  0.27911654217E+04  0.26567882510E+04 0.  0.
        4    1    3    3  502    0  0.76182363246E+03  0.24434571382E+03  0.15418923902E+04  0.17370992576E+04  0.12699999809E+01 0.  1.
       -4    1    3    3    0  502 -0.76182363246E+03 -0.24434571382E+03 -0.68627530238E+03  0.10540661641E+04  0.12699999809E+01 0. -1.
</event>
<event>
 5   0  0.1869956E-05  0.2669725E+04  0.7818609E-02  0.8344896E-01
        2   -1    0    0  501    0  0.00000000000E+00  0.00000000000E+00  0.17686704177E+04  0.17686704177E+04  0.25500000920E-02 0. -1.
       -2   -1    0    0    0  501  0.00000000000E+00  0.00000000000E+00 -0.10074559685E+04  0.10074559685E+04  0.25500000920E-02 0.  1.
    10030    2    1    2    0    0  0.00000000000E+00  0.00000000000E+00  0.76121444918E+03  0.27761263862E+04  0.26697247564E+04 0.  0.
        5    1    3    3  502    0 -0.22970853104E+03 -0.12981740688E+04  0.16294803903E+03  0.13283809979E+04  0.46999998093E+01 0.  1.
       -5    1    3    3    0  502  0.22970853104E+03  0.12981740688E+04  0.59826641015E+03  0.14477453884E+04  0.46999998093E+01 0. -1.
</event>
<event>
 5   0  0.1677971E-05  0.2610954E+04  0.7818609E-02  0.8364490E-01
       -2   -1    0    0    0  501  0.00000000000E+00  0.00000000000E+00  0.99132126882E+03  0.99132126883E+03  0.25500000920E-02 0.  1.
        2   -1    0    0  501    0  0.00000000000E+00  0.00000000000E+00 -0.17191907870E+04  0.17191907870E+04  0.25500000920E-02 0. -1.
    10030    2    1    2    0    0  0.00000000000E+00  0.00000000000E+00 -0.72786951816E+03  0.27105120558E+04  0.26109541492E+04 0.  0.
        4    1    3    3  502    0  0.11743594414E+04  0.13936254753E+03  0.21007440564E+03  0.12011140187E+04  0.12699999809E+01 0.  1.
       -4    1    3    3    0  502 -0.11743594414E+04 -0.13936254753E+03 -0.93794392380E+03  0.15093980371E+04  0.12699999809E+01 0. -1.
</event>
<event>
 5   0  0.6993678E-06  0.2596212E+04  0.7818609E-02  0.8369489E-01
        1   -1    0    0  501    0  0.00000000000E+00  0.00000000000E+00  0.24681777759E+04  0.24681777759E+04  0.50400001928E-02 0. -1.
       -1   -1    0    0    0  501  0.00000000000E+00  0.00000000000E+00 -0.68272182587E+03  0.68272182589E+03  0.50400001928E-02 0.  1.
    10030    2    1    2    0    0  0.00000000000E+00  0.00000000000E+00  0.17854559500E+04  0.31508996018E+04  0.25962117308E+04 0.  0.
        1    1    3    3  502    0  0.24667999017E+03 -0.10897930676E+04  0.16946383339E+04  0.20298519725E+04  0.50400001928E-02 0.  1.
       -1    1    3    3    0  502 -0.24667999017E+03  0.10897930676E+04  0.90817616163E+02  0.11210476293E+04  0.50400001928E-02 0. -1.
</event>
<event>
 5   0  0.1869956E-05  0.2614054E+04  0.7818609E-02  0.8363443E-01
       -2   -1    0    0    0  501  0.00000000000E+00  0.00000000000E+00  0.84781622069E+03  0.84781622070E+03  0.25500000920E-02 0.  1.
        2   -1    0    0  501    0  0.00000000000E+00  0.00000000000E+00 -0.20149643268E+04  0.20149643268E+04  0.25500000920E-02 0. -1.
    10030    2    1    2    0    0  0.00000000000E+00  0.00000000000E+00 -0.11671481061E+04  0.28627805475E+04  0.26140538942E+04 0.  0.
        5    1    3    3  502    0 -0.77092428136E+03 -0.41841095224E+03 -0.16447427579E+04  0.18640259661E+04  0.46999998093E+01 0. -1.
       -5    1    3    3    0  502  0.77092428136E+03  0.41841095224E+03  0.47759465178E+03  0.99875458144E+03  0.46999998093E+01 0.  1.
</event>
<event>
 5   0  0.6706225E-06  0.2598345E+04  0.7818609E-02  0.8368764E-01
        1   -1    0    0  501    0  0.00000000000E+00  0.00000000000E+00  0.16029630713E+04  0.16029630713E+04  0.50400001928E-02 0.  1.
       -1   -1    0    0    0  501  0.00000000000E+00  0.00000000000E+00 -0.10529556587E+04  0.10529556587E+04  0.50400001928E-02 0. -1.
    10030    2    1    2    0    0  0.00000000000E+00  0.00000000000E+00  0.55000741257E+03  0.26559187300E+04  0.25983448859E+04 0.  0.
        5    1    3    3  502    0  0.28225270034E+03 -0.11991481387E+04  0.69670311891E+03  0.14152880171E+04  0.46999998093E+01 0.  1.
       -5    1    3    3    0  502 -0.28225270034E+03  0.11991481387E+04 -0.14669570634E+03  0.12406307129E+04  0.46999998093E+01 0. -1.
</event>
<event>
 5   0  0.1720129E-05  0.2603774E+04  0.7818609E-02  0.8366921E-01
        2   -1    0    0  501    0  0.00000000000E+00  0.00000000000E+00  0.10992408813E+04  0.10992408813E+04  0.25500000920E-02 0. -1.
       -2   -1    0    0    0  501  0.00000000000E+00  0.00000000000E+00 -0.15418906300E+04  0.15418906300E+04  0.25500000920E-02 0.  1.
    10030    2    1    2    0    0  0.00000000000E+00  0.00000000000E+00 -0.44264974872E+03  0.26411315113E+04  0.26037735807E+04 0.  0.
        3    1    3    3  502    0 -0.38358732528E+03  0.32213394183E+03  0.99758153590E+03  0.11162788377E+04  0.10100000352E+00 0. -1.
       -3    1    3    3    0  502  0.38358732528E+03 -0.32213394183E+03 -0.14402312846E+04  0.15248526735E+04  0.10100000352E+00 0.  1.
</event>
<event>
 5   0  0.1869956E-05  0.2581296E+04  0.7818609E-02  0.8374583E-01
        2   -1    0    0  501    0  0.00000000000E+00  0.00000000000E+00  0.21558843632E+04  0.21558843632E+04  0.25500000920E-02 0. -1.
       -2   -1    0    0    0  501  0.00000000000E+00  0.00000000000E+00 -0.77266285932E+03  0.77266285933E+03  0.25500000920E-02 0.  1.
    10030    2    1    2    0    0  0.00000000000E+00  0.00000000000E+00  0.13832215038E+04  0.29285472225E+04  0.25812956254E+04 0.  0.
        5    1    3    3  502    0  0.69071333564E+03 -0.22728351329E+03 -0.51814041913E+03  0.89287977432E+03  0.46999998093E+01 0.  1.
       -5    1    3    3    0  502 -0.69071333564E+03  0.22728351329E+03  0.19013619230E+04  0.20356674482E+04  0.46999998093E+01 0. -1.
</event>
<event>
 5   0  0.6918420E-06  0.2564418E+04  0.7818609E-02  0.8380389E-01
       -1   -1    0    0    0  501  0.00000000000E+00  0.00000000000E+00  0.10250749193E+04  0.10250749194E+04  0.50400001928E-02 0.  1.
        1   -1    0    0  501    0  0.00000000000E+00  0.00000000000E+00 -0.16038434870E+04  0.16038434870E+04  0.50400001928E-02 0. -1.
    10030    2    1    2    0    0  0.00000000000E+00  0.00000000000E+00 -0.57876856761E+03  0.26289184063E+04  0.25644178544E+04 0.  0.
        4    1    3    3  502    0 -0.78793118364E+03  0.16974866858E+01 -0.13263699641E+04  0.15427564053E+04  0.12699999809E+01 0. -1.
       -4    1    3    3    0  502  0.78793118364E+03 -0.16974866858E+01  0.74760139644E+03  0.10861620010E+04  0.12699999809E+01 0.  1.
</event>
<event>
 5   0  0.1720129E-05  0.2604310E+04  0.7818609E-02  0.8366739E-01
        2   -1    0    0  501    0  0.00000000000E+00  0.00000000000E+00  0.17950697602E+04  0.17950697602E+04  0.25500000920E-02 0.  1.
       -2   -1    0    0    0  501  0.00000000000E+00  0.00000000000E+00 -0.94459124570E+03  0.94459124571E+03  0.25500000920E-02 0. -1.
    10030    2    1    2    0    0  0.00000000000E+00  0.00000000000E+00  0.85047851454E+03  0.27396610059E+04  0.26043096444E+04 0.  0.
        3    1    3    3  502    0  0.55120047126E+03  0.70422394951E+03  0.14209261475E+04  0.16789236008E+04  0.10100000352E+00 0.  1.
       -3    1    3    3    0  502 -0.55120047126E+03 -0.70422394951E+03 -0.57044763292E+03  0.10607374052E+04  0.10100000352E+00 0. -1.
</event>
<event>
 5   0  0.1681731E-05  0.2588402E+04  0.7818609E-02  0.8372151E-01
        2   -1    0    0  501    0  0.00000000000E+00  0.00000000000E+00  0.89417375133E+03  0.89417375134E+03  0.25500000920E-02 0. -1.
       -2   -1    0    0    0  501  0.00000000000E+00  0.00000000000E+00 -0.18731893765E+04  0.18731893765E+04  0.25500000920E-02 0.  1.
    10030    2    1    2    0    0  0.00000000000E+00  0.00000000000E+00 -0.97901562515E+03  0.27673631278E+04  0.25884024198E+04 0.  0.
        2    1    3    3  502    0  0.44551113180E+03 -0.11482183962E+04 -0.64437655753E+02  0.12333036388E+04  0.25500000920E-02 0. -1.
       -2    1    3    3    0  502 -0.44551113180E+03  0.11482183962E+04 -0.91457796940E+03  0.15340594891E+04  0.25500000920E-02 0.  1.
</event>
<event>
 5   0  0.1677971E-05  0.2586348E+04  0.7818609E-02  0.8372853E-01
       -2   -1    0    0    0  501  0.00000000000E+00  0.00000000000E+00  0.15180113837E+04  0.15180113837E+04  0.25500000920E-02 0. -1.
        2   -1    0    0  501    0  0.00000000000E+00  0.00000000000E+00 -0.11016376317E+04  0.11016376317E+04  0.25500000920E-02 0.  1.
    10030    2    1    2    0    0  0.00000000000E+00  0.00000000000E+00  0.41637375193E+03  0.26196490154E+04  0.25863475912E+04 0.  0.
        4    1    3    3  502    0 -0.65902558527E+02 -0.38658609183E+03  0.14563297891E+04  0.15082075524E+04  0.12699999809E+01 0. -1.
       -4    1    3    3    0  502  0.65902558527E+02  0.38658609183E+03 -0.10399560371E+04  0.11114414630E+04  0.12699999809E+01 0.  1.
</event>
<event>
 5   0  0.1720129E-05  0.2569104E+04  0.7818609E-02  0.8378772E-01
        2   -1    0    0  501    0  0.00000000000E+00  0.00000000000E+00  0.15604966152E+04  0.15604966152E+04  0.25500000920E-02 0.  1.
       -2   -1    0    0    0  501  0.00000000000E+00  0.00000000000E+00 -0.10574033615E+04  0.10574033615E+04  0.25500000920E-02 0. -1.
    10030    2    1    2    0    0  0.00000000000E+00  0.00000000000E+00  0.50309325367E+03  0.26178999768E+04  0.25691044094E+04 0.  0.
        3    1    3    3  502    0  0.46422796149E+03 -0.15467771879E+02  0.14719276841E+04  0.15434759375E+04  0.10100000352E+00 0.  1.
       -3    1    3    3    0  502 -0.46422796149E+03  0.15467771879E+02 -0.96883443047E+03  0.10744240392E+04  0.10100000352E+00 0. -1.
</event>
<event>
 5   0  0.1702345E-05  0.2538658E+04  0.7818609E-02  0.8389341E-01
       -2   -1    0    0    0  501  0.00000000000E+00  0.00000000000E+00  0.11526463237E+04  0.11526463237E+04  0.25500000920E-02 0.  1.
        2   -1    0    0  501    0  0.00000000000E+00  0.00000000000E+00 -0.13978233457E+04  0.13978233457E+04  0.25500000920E-02 0. -1.
    10030    2    1    2    0    0  0.00000000000E+00  0.00000000000E+00 -0.24517702193E+03  0.25504696694E+04  0.25386578664E+04 0.  0.
        1    1    3    3  502    0 -0.12120459784E+03 -0.11148967571E+04  0.47474545788E+03  0.12178130330E+04  0.50400001928E-02 0.  1.
       -1    1    3    3    0  502  0.12120459784E+03  0.11148967571E+04 -0.71992247981E+03  0.13326566364E+04  0.50400001928E-02 0. -1.
</event>
<event>
 5   0  0.1702345E-05  0.2588965E+04  0.7818609E-02  0.8371959E-01
       -2   -1    0    0    0  501  0.00000000000E+00  0.00000000000E+00  0.11802597061E+04  0.11802597061E+04  0.25500000920E-02 0. -1.
        2   -1    0    0  501    0  0.00000000000E+00  0.00000000000E+00 -0.14197597402E+04  0.14197597402E+04  0.25500000920E-02 0.  1.
    10030    2    1    2    0    0  0.00000000000E+00  0.00000000000E+00 -0.23950003412E+03  0.26000194463E+04  0.25889652093E+04 0.  0.
        1    1    3    3  502    0  0.42539703992E+03 -0.81943684974E+03  0.79145300056E+03  0.12160745226E+04  0.50400001928E-02 0. -1.
       -1    1    3    3    0  502 -0.42539703992E+03  0.81943684974E+03 -0.10309530347E+04  0.13839449238E+04  0.50400001928E-02 0.  1.
</event>
<event>
 5   0  0.6993678E-06  0.2605427E+04  0.7818609E-02  0.8366360E-01
       -1   -1    0    0    0  501  0.00000000000E+00  0.00000000000E+00  0.78107029746E+03  0.78107029748E+03  0.50400001928E-02 0.  1.
        1   -1    0    0  501    0  0.00000000000E+00  0.00000000000E+00 -0.21727401959E+04  0.21727401959E+04  0.50400001928E-02 0. -1.
    10030    2    1    2    0    0  0.00000000000E+00  0.00000000000E+00 -0.13916698985E+04  0.29538104934E+04  0.26054272826E+04 0.  0.
        1    1    3    3  502    0  0.11266714288E+04  0.63399380956E+03 -0.51399418121E+03  0.13912320718E+04  0.50400001928E-02 0. -1.
       -1    1    3    3    0  502 -0.11266714288E+04 -0.63399380956E+03 -0.87767571724E+03  0.15625784216E+04  0.50400001928E-02 0.  1.
</event>
<event>
 5   0  0.7138294E-06  0.2622405E+04  0.7818609E-02  0.8360631E-01
        1   -1    0    0  501    0  0.00000000000E+00  0.00000000000E+00  0.19506706227E+04  0.19506706227E+04  0.50400001928E-02 0.  1.
       -1   -1    0    0    0  501  0.00000000000E+00  0.00000000000E+00 -0.88136424636E+03  0.88136424637E+03  0.50400001928E-02 0. -1.
    10030    2    1    2    0    0  0.00000000000E+00  0.00000000000E+00  0.10693063764E+04  0.28320348691E+04  0.26224045022E+04 0.  0.
        2    1    3    3  502    0 -0.42636871800E+03  0.89638290504E+03  0.14598513042E+04  0.17653493781E+04  0.25500000920E-02 0.  1.
       -2    1    3    3    0  502  0.42636871800E+03 -0.89638290504E+03 -0.39054492786E+03  0.10666854911E+04  0.25500000920E-02 0. -1.
</event>
<event>
 5   0  0.1702345E-05  0.2606005E+04  0.7818609E-02  0.8366164E-01
        2   -1    0    0  501    0  0.00000000000E+00  0.00000000000E+00  0.14616127401E+04  0.14616127401E+04  0.25500000920E-02 0. -1.
       -2   -1    0    0    0  501  0.00000000000E+00  0.00000000000E+00 -0.11616043116E+04  0.11616043117E+04  0.25500000920E-02 0.  1.
    10030    2    1    2    0    0  0.00000000000E+00  0.00000000000E+00  0.30000842845E+03  0.26232170518E+04  0.26060051119E+04 0.  0.
        1    1    3    3  502    0  0.77374371268E+03 -0.10460314619E+04  0.22085738019E+03  0.13197117619E+04  0.50400001928E-02 0.  1.
       -1    1    3    3    0  502 -0.77374371268E+03  0.10460314619E+04  0.79151048270E+02  0.13035052898E+04  0.50400001928E-02 0. -1.
</event>
<event>
 5   0  0.6706225E-06  0.2604365E+04  0.7818609E-02  0.8366720E-01
       -1   -1    0    0    0  501  0.00000000000E+00  0.00000000000E+00  0.71267533501E+03  0.71267533503E+03  0.50400001928E-02 0.  1.
        1   -1    0    0  501    0  0.00000000000E+00  0.00000000000E+00 -0.23793153913E+04  0.23793153913E+04  0.50400001928E-02 0. -1.
    10030    2    1    2    0    0  0.00000000000E+00  0.00000000000E+00 -0.16666400563E+04  0.30919907264E+04  0.26043651001E+04 0.  0.
        5    1    3    3  502    0  0.12542597391E+04  0.34974042284E+03 -0.81777464676E+03  0.15376161158E+04  0.46999998093E+01 0.  1.
       -5    1    3    3    0  502 -0.12542597391E+04 -0.34974042284E+03 -0.84886540957E+03  0.15543746106E+04  0.46999998093E+01 0. -1.
</event>
<event>
 5   0  0.1869956E-05  0.2550168E+04  0.7818609E-02  0.8385328E-01
       -2   -1    0    0    0  501  0.00000000000E+00  0.00000000000E+00  0.16459060362E+04  0.16459060362E+04  0.25500000920E-02 0. -1.
        2   -1    0    0  501    0  0.00000000000E+00  0.00000000000E+00 -0.98780809928E+03  0.98780809928E+03  0.25500000920E-02 0.  1.
    10030    2    1    2    0    0  0.00000000000E+00  0.00000000000E+00  0.65809793690E+03  0.26337141355E+04  0.25501680832E+04 0.  0.
        5    1    3    3  502    0  0.56030802398E+03  0.88501050259E+02 -0.85030788779E+03  0.10221658924E+04  0.46999998093E+01 0.  1.
       -5    1    3    3    0  502 -0.56030802398E+03 -0.88501050259E+02  0.15084058247E+04  0.16115482430E+04  0.46999998093E+01 0. -1.
</event>
<event>
 5   0  0.6984287E-06  0.2610367E+04  0.7818609E-02  0.8364688E-01
       -1   -1    0    0    0  501  0.00000000000E+00  0.00000000000E+00  0.86051613889E+03  0.86051613890E+03  0.50400001928E-02 0. -1.
        1   -1    0    0  501    0  0.00000000000E+00  0.00000000000E+00 -0.19796303895E+04  0.19796303895E+04  0.50400001928E-02 0.  1.
    10030    2    1    2    0    0  0.00000000000E+00  0.00000000000E+00 -0.11191142506E+04  0.28401465284E+04  0.26103669468E+04 0.  0.
        3    1    3    3  502    0 -0.11781544800E+04  0.28703186167E+03 -0.10848252996E+04  0.16270467754E+04  0.10100000352E+00 0.  1.
       -3    1    3    3    0  502  0.11781544800E+04 -0.28703186167E+03 -0.34288951036E+02  0.12130997530E+04  0.10100000352E+00 0. -1.
</event>
<event>
 5   0  0.1681731E-05  0.2661976E+04  0.7818609E-02  0.8347449E-01
       -2   -1    0    0    0  501  0.00000000000E+00  0.00000000000E+00  0.15287403835E+04  0.15287403835E+04  0.25500000920E-02 0.  1.
        2   -1    0    0  501    0  0.00000000000E+00  0.00000000000E+00 -0.11588163732E+04  0.11588163732E+04  0.25500000920E-02 0. -1.
    10030    2    1    2    0    0  0.00000000000E+00  0.00000000000E+00  0.36992401031E+03  0.26875567567E+04  0.26619762484E+04 0.  0.
        2    1    3    3  502    0 -0.13004117891E+03  0.13234617719E+04  0.24088031487E+03  0.13514751555E+04  0.25500000920E-02 0. -1.
       -2    1    3    3    0  502  0.13004117891E+03 -0.13234617719E+04  0.12904369543E+03  0.13360816012E+04  0.25500000920E-02 0.  1.
</event>
<event>
 5   0  0.6918420E-06  0.2595830E+04  0.7818609E-02  0.8369619E-01
       -1   -1    0    0    0  501  0.00000000000E+00  0.00000000000E+00  0.91307633475E+03  0.91307633476E+03  0.50400001928E-02 0.  1.
        1   -1    0    0  501    0  0.00000000000E+00  0.00000000000E+00 -0.18449533757E+04  0.18449533757E+04  0.50400001928E-02 0. -1.
    10030    2    1    2    0    0  0.00000000000E+00  0.00000000000E+00 -0.93187704094E+03  0.27580297105E+04  0.25958299375E+04 0.  0.
        4    1    3    3  502    0  0.23874124722E+03  0.12647692304E+04 -0.28833166874E+03  0.13190054410E+04  0.12699999809E+01 0.  1.
       -4    1    3    3    0  502 -0.23874124722E+03 -0.12647692304E+04 -0.64354537220E+03  0.14390242695E+04  0.12699999809E+01 0. -1.
</event>
<event>
 5   0  0.6706225E-06  0.2591255E+04  0.7818609E-02  0.8371178E-01
        1   -1    0    0  501    0  0.00000000000E+00  0.00000000000E+00  0.11501936787E+04  0.11501936787E+04  0.50400001928E-02 0.  1.
       -1   -1    0    0    0  501  0.00000000000E+00  0.00000000000E+00 -0.14594504252E+04  0.14594504252E+04  0.50400001928E-02 0. -1.
    10030    2    1    2    0    0  0.00000000000E+00  0.00000000000E+00 -0.30925674652E+03  0.26096441038E+04  0.25912550267E+04 0.  0.
        5    1    3    3  502    0 -0.43336164553E+03 -0.15393740287E+03 -0.13744753501E+04  0.14493804255E+04  0.46999998093E+01 0. -1.
       -5    1    3    3    0  502  0.43336164553E+03  0.15393740287E+03  0.10652186036E+04  0.11602636783E+04  0.46999998093E+01 0.  1.
</event>
<event>
 5   0  0.6993678E-06  0.2230103E+04  0.7818609E-02  0.8506002E-01
        1   -1    0    0  501    0  0.00000000000E+00  0.00000000000E+00  0.18006307719E+04  0.18006307719E+04  0.50400001928E-02 0. -1.
       -1   -1    0    0    0  501  0.00000000000E+00  0.00000000000E+00 -0.69050224723E+03  0.69050224725E+03  0.50400001928E-02 0.  1.
    10030    2    1    2    0    0  0.00000000000E+00  0.00000000000E+00  0.11101285247E+04  0.24911330192E+04  0.22301027730E+04 0.  0.
        1    1    3    3  502    0  0.15579277315E+03  0.67242030735E+03 -0.42317891539E+03  0.80963007130E+03  0.50400001928E-02 0.  1.
       -1    1    3    3    0  502 -0.15579277315E+03 -0.67242030735E+03  0.15333074401E+04  0.16815029479E+04  0.50400001928E-02 0. -1.
</event>
<event>
 5   0  0.7138294E-06  0.2599022E+04  0.7818609E-02  0.8368534E-01
        1   -1    0    0  501    0  0.00000000000E+00  0.00000000000E+00  0.11882905315E+04  0.11882905315E+04  0.50400001928E-02 0. -1.
       -1   -1    0    0    0  501  0.00000000000E+00  0.00000000000E+00 -0.14211411617E+04  0.14211411617E+04  0.50400001928E-02 0.  1.
    10030    2    1    2    0    0  0.00000000000E+00  0.00000000000E+00 -0.23285063020E+03  0.26094316932E+04  0.25990218055E+04 0.  0.
        2    1    3    3  502    0  0.79098536439E+03  0.99529172986E+03  0.15384633543E+03  0.12805983637E+04  0.25500000920E-02 0. -1.
       -2    1    3    3    0  502 -0.79098536439E+03 -0.99529172986E+03 -0.38669696563E+03  0.13288333294E+04  0.25500000920E-02 0.  1.
</event>
<event>
 5   0  0.1720129E-05  0.2594786E+04  0.7818609E-02  0.8369974E-01
        2   -1    0    0  501    0  0.00000000000E+00  0.00000000000E+00  0.15509015912E+04  0.15509015912E+04  0.25500000920E-02 0.  1.
       -2   -1    0    0    0  501  0.00000000000E+00  0.00000000000E+00 -0.10853225154E+04  0.10853225154E+04  0.25500000920E-02 0. -1.
    10030    2    1    2    0    0  0.00000000000E+00  0.00000000000E+00  0.46557907582E+03  0.26362241066E+04  0.25947858610E+04 0.  0.
        3    1    3    3  502    0 -0.93580803450E+03 -0.53993044605E+02  0.11440960434E+04  0.14790563522E+04  0.10100000352E+00 0.  1.
       -3    1    3    3    0  502  0.93580803450E+03  0.53993044605E+02 -0.67851696759E+03  0.11571677544E+04  0.10100000352E+00 0. -1.
</event>
<event>
 5   0  0.1702345E-05  0.2542229E+04  0.7818609E-02  0.8388094E-01
        2   -1    0    0  501    0  0.00000000000E+00  0.00000000000E+00  0.21543029778E+04  0.21543029778E+04  0.25500000920E-02 0. -1.
       -2   -1    0    0    0  501  0.00000000000E+00  0.00000000000E+00 -0.75000211924E+03  0.75000211924E+03  0.25500000920E-02 0.  1.
    10030    2    1    2    0    0  0.00000000000E+00  0.00000000000E+00  0.14043008586E+04  0.29043050971E+04  0.25422287850E+04 0.  0.
        1    1    3    3  502    0  0.12580450081E+04 -0.17496174034E+03  0.75861610372E+03  0.14794550503E+04  0.50400001928E-02 0. -1.
       -1    1    3    3    0  502 -0.12580450081E+04  0.17496174034E+03  0.64568475487E+03  0.14248500468E+04  0.50400001928E-02 0.  1.
</event>
<event>
 5   0  0.7138294E-06  0.2611371E+04  0.7818609E-02  0.8364349E-01
        1   -1    0    0  501    0  0.00000000000E+00  0.00000000000E+00  0.19195997400E+04  0.19195997400E+04  0.50400001928E-02 0. -1.
       -1   -1    0    0    0  501  0.00000000000E+00  0.00000000000E+00 -0.88810926856E+03  0.88810926858E+03  0.50400001928E-02 0.  1.
    10030    2    1    2    0    0  0.00000000000E+00  0.00000000000E+00  0.10314904715E+04  0.28077090086E+04  0.26113707673E+04 0.  0.
        2    1    3    3  502    0  0.15245472568E+03 -0.22835418445E+02  0.19097810366E+04  0.19159925646E+04  0.25500000920E-02 0. -1.
       -2    1    3    3    0  502 -0.15245472568E+03  0.22835418445E+02 -0.87829056515E+03  0.89171644403E+03  0.25500000920E-02 0.  1.
</event>
<event>
 5   0  0.6918420E-06  0.2675989E+04  0.7818609E-02  0.8342838E-01
        1   -1    0    0  501    0  0.00000000000E+00  0.00000000000E+00  0.21779733061E+04  0.21779733062E+04  0.50400001928E-02 0.  1.
       -1   -1    0    0    0  501  0.00000000000E+00  0.00000000000E+00 -0.82197035091E+03  0.82197035092E+03  0.50400001928E-02 0. -1.
    10030    2    1    2    0    0  0.00000000000E+00  0.00000000000E+00  0.13560029552E+04  0.29999436571E+04  0.26759891500E+04 0.  0.
        4    1    3    3  502    0  0.32900943932E+03  0.64937192639E+02 -0.77409062122E+03  0.84361244236E+03  0.12699999809E+01 0. -1.
       -4    1    3    3    0  502 -0.32900943932E+03 -0.64937192639E+02  0.21300935765E+04  0.21563312147E+04  0.12699999809E+01 0.  1.
</event>
<event>
 5   0  0.6984287E-06  0.2620537E+04  0.7818609E-02  0.8361258E-01
        1   -1    0    0  501    0  0.00000000000E+00  0.00000000000E+00  0.13319080936E+04  0.13319080936E+04  0.50400001928E-02 0.  1.
       -1   -1    0    0    0  501  0.00000000000E+00  0.00000000000E+00 -0.12889809070E+04  0.12889809071E+04  0.50400001928E-02 0. -1.
    10030    2    1    2    0    0  0.00000000000E+00  0.00000000000E+00  0.42927186540E+02  0.26208890006E+04  0.26205374278E+04 0.  0.
        3    1    3    3  502    0 -0.85365400618E+03  0.45832688372E+03 -0.86070655461E+03  0.12959955548E+04  0.10100000352E+00 0. -1.
       -3    1    3    3    0  502  0.85365400618E+03 -0.45832688372E+03  0.90363374115E+03  0.13248934459E+04  0.10100000352E+00 0.  1.
</event>
<event>
 5   0  0.6918420E-06  0.2582104E+04  0.7818609E-02  0.8374306E-01
       -1   -1    0    0    0  501  0.00000000000E+00  0.00000000000E+00  0.68034692895E+03  0.68034692897E+03  0.50400001928E-02 0.  1.
        1   -1    0    0  501    0  0.00000000000E+00  0.00000000000E+00 -0.24499489393E+04  0.24499489393E+04  0.50400001928E-02 0. -1.
    10030    2    1    2    0    0  0.00000000000E+00  0.00000000000E+00 -0.17696020103E+04  0.31302958682E+04  0.25821039770E+04 0.  0.
        4    1    3    3  502    0 -0.77456741164E+02  0.77002591552E+02 -0.24443374524E+04  0.24467766837E+04  0.12699999809E+01 0. -1.
       -4    1    3    3    0  502  0.77456741164E+02 -0.77002591552E+02  0.67473544211E+03  0.68351918451E+03  0.12699999809E+01 0.  1.
</event>
<event>
 5   0  0.1681731E-05  0.2486256E+04  0.7818609E-02  0.8407898E-01
        2   -1    0    0  501    0  0.00000000000E+00  0.00000000000E+00  0.15144189502E+04  0.15144189502E+04  0.25500000920E-02 0.  1.
       -2   -1    0    0    0  501  0.00000000000E+00  0.00000000000E+00 -0.10204361445E+04  0.10204361446E+04  0.25500000920E-02 0. -1.
    10030    2    1    2    0    0  0.00000000000E+00  0.00000000000E+00  0.49398280565E+03  0.25348550948E+04  0.24862564910E+04 0.  0.
        2    1    3    3  502    0 -0.46272797574E+03 -0.38679346472E+03 -0.86129006240E+03  0.10514499206E+04  0.25500000920E-02 0. -1.
       -2    1    3    3    0  502  0.46272797574E+03  0.38679346472E+03  0.13552728681E+04  0.14834051742E+04  0.25500000920E-02 0.  1.
</event>
<event>
 5   0  0.1702345E-05  0.2593534E+04  0.7818609E-02  0.8370401E-01
       -2   -1    0    0    0  501  0.00000000000E+00  0.00000000000E+00  0.69054329217E+03  0.69054329217E+03  0.25500000920E-02 0. -1.
        2   -1    0    0  501    0  0.00000000000E+00  0.00000000000E+00 -0.24351905638E+04  0.24351905638E+04  0.25500000920E-02 0.  1.
    10030    2    1    2    0    0  0.00000000000E+00  0.00000000000E+00 -0.17446472716E+04  0.31257338560E+04  0.25935338895E+04 0.  0.
        1    1    3    3  502    0  0.11725041271E+04 -0.15331967581E+03 -0.23080744608E+03  0.12048007836E+04  0.50400001928E-02 0.  1.
       -1    1    3    3    0  502 -0.11725041271E+04  0.15331967581E+03 -0.15138398256E+04  0.19209330724E+04  0.50400001928E-02 0. -1.
</event>
<event>
 5   0  0.6993678E-06  0.2630338E+04  0.7818609E-02  0.8357969E-01
        1   -1    0    0  501    0  0.00000000000E+00  0.00000000000E+00  0.16898994685E+04  0.16898994685E+04  0.50400001928E-02 0.  1.
       -1   -1    0    0    0  501  0.00000000000E+00  0.00000000000E+00 -0.10235339318E+04  0.10235339319E+04  0.50400001928E-02 0. -1.
    10030    2    1    2    0    0  0.00000000000E+00  0.00000000000E+00  0.66636553670E+03  0.27134334004E+04  0.26303379612E+04 0.  0.
        1    1    3    3  502    0 -0.10735163710E+04  0.43579756083E+02 -0.44928634044E+03  0.11645577743E+04  0.50400001928E-02 0. -1.
       -1    1    3    3    0  502  0.10735163710E+04 -0.43579756083E+02  0.11156518771E+04  0.15488756261E+04  0.50400001928E-02 0.  1.
</event>
<event>
 5   0  0.1681731E-05  0.2594054E+04  0.7818609E-02  0.8370224E-01
       -2   -1    0    0    0  501  0.00000000000E+00  0.00000000000E+00  0.11764767686E+04  0.11764767686E+04  0.25500000920E-02 0. -1.
        2   -1    0    0  501    0  0.00000000000E+00  0.00000000000E+00 -0.14299302206E+04  0.14299302206E+04  0.25500000920E-02 0.  1.
    10030    2    1    2    0    0  0.00000000000E+00  0.00000000000E+00 -0.25345345195E+03  0.26064069892E+04  0.25940544985E+04 0.  0.
        2    1    3    3  502    0  0.12334747537E+04 -0.11195484962E+03  0.26018595183E+03  0.12655791504E+04  0.25500000920E-02 0. -1.
       -2    1    3    3    0  502 -0.12334747537E+04  0.11195484962E+03 -0.51363940378E+03  0.13408278389E+04  0.25500000920E-02 0.  1.
</event>
<event>
 5   0  0.6984287E-06  0.2603308E+04  0.7818609E-02  0.8367079E-01
       -1   -1    0    0    0  501  0.00000000000E+00  0.00000000000E+00  0.94266031861E+03  0.94266031863E+03  0.50400001928E-02 0. -1.
        1   -1    0    0  501    0  0.00000000000E+00  0.00000000000E+00 -0.17973628460E+04  0.17973628460E+04  0.50400001928E-02 0.  1.
    10030    2    1    2    0    0  0.00000000000E+00  0.00000000000E+00 -0.85470252736E+03  0.27400231646E+04  0.26033076138E+04 0.  0.
        3    1    3    3  502    0  0.43209354145E+03  0.59078719954E+03  0.70554348236E+03  0.10166247879E+04  0.10100000352E+00 0. -1.
       -3    1    3    3    0  502 -0.43209354145E+03 -0.59078719954E+03 -0.15602460097E+04  0.17233983767E+04  0.10100000352E+00 0.  1.
</event>
<event>
 5   0  0.1702345E-05  0.2577601E+04  0.7818609E-02  0.8375850E-01
       -2   -1    0    0    0  501  0.00000000000E+00  0.00000000000E+00  0.11313283066E+04  0.11313283066E+04  0.25500000920E-02 0.  1.
        2   -1    0    0  501    0  0.00000000000E+00  0.00000000000E+00 -0.14681912695E+04  0.14681912695E+04  0.25500000920E-02 0. -1.
    10030    2    1    2    0    0  0.00000000000E+00  0.00000000000E+00 -0.33686296289E+03  0.25995195761E+04  0.25776007004E+04 0.  0.
        1    1    3    3  502    0  0.71328373798E+03  0.10406712998E+04  0.96933196661E+02  0.12653720756E+04  0.50400001928E-02 0.  1.
       -1    1    3    3    0  502 -0.71328373798E+03 -0.10406712998E+04 -0.43379615955E+03  0.13341475005E+04  0.50400001928E-02 0. -1.
</event>
<event>
 5   0  0.6984287E-06  0.2591072E+04  0.7818609E-02  0.8371240E-01
       -1   -1    0    0    0  501  0.00000000000E+00  0.00000000000E+00  0.91194661424E+03  0.91194661425E+03  0.50400001928E-02 0. -1.
        1   -1    0    0  501    0  0.00000000000E+00  0.00000000000E+00 -0.18404729248E+04  0.18404729248E+04  0.50400001928E-02 0.  1.
    10030    2    1    2    0    0  0.00000000000E+00  0.00000000000E+00 -0.92852631052E+03  0.27524195390E+04  0.25910716334E+04 0.  0.
        3    1    3    3  502    0  0.63347153093E+03  0.94875095113E+03 -0.11164995373E+04  0.15962411393E+04  0.10100000352E+00 0.  1.
       -3    1    3    3    0  502 -0.63347153093E+03 -0.94875095113E+03  0.18797322679E+03  0.11561783997E+04  0.10100000352E+00 0. -1.
</event>
<event>
 5   0  0.1869956E-05  0.2620286E+04  0.7818609E-02  0.8361343E-01
        2   -1    0    0  501    0  0.00000000000E+00  0.00000000000E+00  0.17066356080E+04  0.17066356080E+04  0.25500000920E-02 0.  1.
       -2   -1    0    0    0  501  0.00000000000E+00  0.00000000000E+00 -0.10057649326E+04  0.10057649326E+04  0.25500000920E-02 0. -1.
    10030    2    1    2    0    0  0.00000000000E+00  0.00000000000E+00  0.70087067537E+03  0.27124005406E+04  0.26202856694E+04 0.  0.
        5    1    3    3  502    0  0.79568055946E+03 -0.80344781274E+02 -0.72377843367E+03  0.10786288275E+04  0.46999998093E+01 0. -1.
       -5    1    3    3    0  502 -0.79568055946E+03  0.80344781274E+02  0.14246491090E+04  0.16337717131E+04  0.46999998093E+01 0.  1.
</event>
<event>
 5   0  0.1702345E-05  0.2449932E+04  0.7818609E-02  0.8421043E-01
        2   -1    0    0  501    0  0.00000000000E+00  0.00000000000E+00  0.12984169393E+04  0.12984169393E+04  0.25500000920E-02 0.  1.
       -2   -1    0    0    0  501  0.00000000000E+00  0.00000000000E+00 -0.11556699248E+04  0.11556699248E+04  0.25500000920E-02 0. -1.
    10030    2    1    2    0    0  0.00000000000E+00  0.00000000000E+00  0.14274701455E+03  0.24540868641E+04  0.24499317595E+04 0.  0.
        1    1    3    3  502    0 -0.17738078219E+03 -0.12065988031E+04  0.18644563597E+03  0.12337368393E+04  0.50400001928E-02 0.  1.
       -1    1    3    3    0  502  0.17738078219E+03  0.12065988031E+04 -0.43698621419E+02  0.12203500248E+04  0.50400001928E-02 0. -1.
</event>
<event>
 5   0  0.7138294E-06  0.2596448E+04  0.7818609E-02  0.8369409E-01
        1   -1    0    0  501    0  0.00000000000E+00  0.00000000000E+00  0.11160432614E+04  0.11160432614E+04  0.50400001928E-02 0.  1.
       -1   -1    0    0    0  501  0.00000000000E+00  0.00000000000E+00 -0.15101437189E+04  0.15101437189E+04  0.50400001928E-02 0. -1.
    10030    2    1    2    0    0  0.00000000000E+00  0.00000000000E+00 -0.39410045750E+03  0.26261869803E+04  0.25964481286E+04 0.  0.
        2    1    3    3  502    0  0.33499409719E+03 -0.12412151082E+04 -0.37953208780E+03  0.13404777490E+04  0.25500000920E-02 0. -1.
       -2    1    3    3    0  502 -0.33499409719E+03  0.12412151082E+04 -0.14568369700E+02  0.12857092313E+04  0.25500000920E-02 0.  1.
</event>
<event>
 5   0  0.1681731E-05  0.2487544E+04  0.7818609E-02  0.8407437E-01
       -2   -1    0    0    0  501  0.00000000000E+00  0.00000000000E+00  0.68957033986E+03  0.68957033986E+03  0.25500000920E-02 0.  1.
        2   -1    0    0  501    0  0.00000000000E+00  0.00000000000E+00 -0.22433805382E+04  0.22433805382E+04  0.25500000920E-02 0. -1.
    10030    2    1    2    0    0  0.00000000000E+00  0.00000000000E+00 -0.15538101983E+04  0.29329508781E+04  0.24875439133E+04 0.  0.
        2    1    3    3  502    0  0.91152782309E+02 -0.88722742442E+03 -0.17990085856E+04  0.20079624557E+04  0.25500000920E-02 0.  1.
       -2    1    3    3    0  502 -0.91152782309E+02  0.88722742442E+03  0.24519838728E+03  0.92498842236E+03  0.25500000920E-02 0. -1.
</event>
<event>
 5   0  0.1702345E-05  0.2589534E+04  0.7818609E-02  0.8371765E-01
        2   -1    0    0  501    0  0.00000000000E+00  0.00000000000E+00  0.16460935681E+04  0.16460935682E+04  0.25500000920E-02 0.  1.
       -2   -1    0    0    0  501  0.00000000000E+00  0.00000000000E+00 -0.10184245566E+04  0.10184245566E+04  0.25500000920E-02 0. -1.
    10030    2    1    2    0    0  0.00000000000E+00  0.00000000000E+00  0.62766901155E+03  0.26645181248E+04  0.25895344078E+04 0.  0.
        1    1    3    3  502    0 -0.19782144506E+03  0.89945701993E+03  0.12502786375E+04  0.15528531567E+04  0.50400001928E-02 0.  1.
       -1    1    3    3    0  502  0.19782144506E+03 -0.89945701993E+03 -0.62260962596E+03  0.11116649681E+04  0.50400001928E-02 0. -1.
</event>
<event>
 5   0  0.7138294E-06  0.2591688E+04  0.7818609E-02  0.8371030E-01
       -1   -1    0    0    0  501  0.00000000000E+00  0.00000000000E+00  0.13080714051E+04  0.13080714051E+04  0.50400001928E-02 0.  1.
        1   -1    0    0  501    0  0.00000000000E+00  0.00000000000E+00 -0.12837305350E+04  0.12837305350E+04  0.50400001928E-02 0. -1.
    10030    2    1    2    0    0  0.00000000000E+00  0.00000000000E+00  0.24340870116E+02  0.25918019401E+04  0.25916876391E+04 0.  0.
        2    1    3    3  502    0  0.83421390267E+03 -0.61651153610E+03 -0.76453098960E+03  0.12886065899E+04  0.25500000920E-02 0. -1.
       -2    1    3    3    0  502 -0.83421390267E+03  0.61651153610E+03  0.78887185972E+03  0.13031953501E+04  0.25500000920E-02 0.  1.
</event>
<event>
 5   0  0.6918420E-06  0.2614144E+04  0.7818609E-02  0.8363413E-01
       -1   -1    0    0    0  501  0.00000000000E+00  0.00000000000E+00  0.62323745549E+03  0.62323745551E+03  0.50400001928E-02 0.  1.
        1   -1    0    0  501    0  0.00000000000E+00  0.00000000000E+00 -0.27412303187E+04  0.27412303187E+04  0.50400001928E-02 0. -1.
    10030    2    1    2    0    0  0.00000000000E+00  0.00000000000E+00 -0.21179928632E+04  0.33644677742E+04  0.26141441496E+04 0.  0.
        4    1    3    3  502    0  0.18140917319E+03  0.12916372036E+04 -0.94978997187E+03  0.16134864602E+04  0.12699999809E+01 0.  1.
       -4    1    3    3    0  502 -0.18140917319E+03 -0.12916372036E+04 -0.11682028913E+04  0.17509813140E+04  0.12699999809E+01 0. -1.
</event>
<event>
 5   0  0.1869956E-05  0.2603996E+04  0.7818609E-02  0.8366845E-01
       -2   -1    0    0    0  501  0.00000000000E+00  0.00000000000E+00  0.82022965653E+03  0.82022965654E+03  0.25500000920E-02 0. -1.
        2   -1    0    0  501    0  0.00000000000E+00  0.00000000000E+00 -0.20667374831E+04  0.20667374831E+04  0.25500000920E-02 0.  1.
    10030    2    1    2    0    0  0.00000000000E+00  0.00000000000E+00 -0.12465078266E+04  0.28869671396E+04  0.26039964485E+04 0.  0.
        5    1    3    3  502    0 -0.24111939132E+03 -0.35229730802E+03 -0.19869267832E+04  0.20322775612E+04  0.46999998093E+01 0.  1.
       -5    1    3    3    0  502  0.24111939132E+03  0.35229730802E+03  0.74041895663E+03  0.85468957841E+03  0.46999998093E+01 0. -1.
</event>
<event>
 5   0  0.6706225E-06  0.2592457E+04  0.7818609E-02  0.8370768E-01
        1   -1    0    0  501    0  0.00000000000E+00  0.00000000000E+00  0.14619209945E+04  0.14619209945E+04  0.50400001928E-02 0. -1.
       -1   -1    0    0    0  501  0.00000000000E+00  0.00000000000E+00 -0.11493151889E+04  0.11493151889E+04  0.50400001928E-02 0.  1.
    10030    2    1    2    0    0  0.00000000000E+00  0.00000000000E+00  0.31260580562E+03  0.26112361834E+04  0.25924567529E+04 0.  0.
        5    1    3    3  502    0 -0.10877311015E+04  0.70463249615E+03  0.13333398432E+03  0.13028683530E+04  0.46999998093E+01 0. -1.
       -5    1    3    3    0  502  0.10877311015E+04 -0.70463249615E+03  0.17927182130E+03  0.13083678304E+04  0.46999998093E+01 0.  1.
</event>
<event>
 5   0  0.6984287E-06  0.2587740E+04  0.7818609E-02  0.8372378E-01
       -1   -1    0    0    0  501  0.00000000000E+00  0.00000000000E+00  0.89964911636E+03  0.89964911638E+03  0.50400001928E-02 0. -1.
        1   -1    0    0  501    0  0.00000000000E+00  0.00000000000E+00 -0.18608358028E+04  0.18608358028E+04  0.50400001928E-02 0.  1.
    10030    2    1    2    0    0  0.00000000000E+00  0.00000000000E+00 -0.96118668643E+03  0.27604849192E+04  0.25877397749E+04 0.  0.
        3    1    3    3  502    0 -0.11299184624E+04 -0.51405536610E+03 -0.91365623167E+02  0.12447153644E+04  0.10100000352E+00 0.  1.
       -3    1    3    3    0  502  0.11299184624E+04  0.51405536610E+03 -0.86982106326E+03  0.15157695548E+04  0.10100000352E+00 0. -1.
</event>
<event>
 5   0  0.1720129E-05  0.2544306E+04  0.7818609E-02  0.8387369E-01
        2   -1    0    0  501    0  0.00000000000E+00  0.00000000000E+00  0.81036585409E+03  0.81036585409E+03  0.25500000920E-02 0. -1.
       -2   -1    0    0    0  501  0.00000000000E+00  0.00000000000E+00 -0.19970902775E+04  0.19970902775E+04  0.25500000920E-02 0.  1.
    10030    2    1    2    0    0  0.00000000000E+00  0.00000000000E+00 -0.11867244234E+04  0.28074561316E+04  0.25443064033E+04 0.  0.
        3    1    3    3  502    0 -0.72168506953E+03  0.96180066516E+03 -0.10516284350E+04  0.15974392741E+04  0.10100000352E+00 0.  1.
       -3    1    3    3    0  502  0.72168506953E+03 -0.96180066516E+03 -0.13509598846E+03  0.12100168575E+04  0.10100000352E+00 0. -1.
</event>
<event>
 5   0  0.1869956E-05  0.2594812E+04  0.7818609E-02  0.8369966E-01
        2   -1    0    0  501    0  0.00000000000E+00  0.00000000000E+00  0.12174347763E+04  0.12174347763E+04  0.25500000920E-02 0.  1.
       -2   -1    0    0    0  501  0.00000000000E+00  0.00000000000E+00 -0.13826305544E+04  0.13826305544E+04  0.25500000920E-02 0. -1.
    10030    2    1    2    0    0  0.00000000000E+00  0.00000000000E+00 -0.16519577816E+03  0.26000653307E+04  0.25948121471E+04 0.  0.
        5    1    3    3  502    0 -0.68928647695E+03 -0.96781387580E+03 -0.60467177189E+03  0.13332027555E+04  0.46999998093E+01 0. -1.
       -5    1    3    3    0  502  0.68928647695E+03  0.96781387580E+03  0.43947599374E+03  0.12668625753E+04  0.46999998093E+01 0.  1.
</event>
<event>
 5   0  0.6706225E-06  0.2638435E+04  0.7818609E-02  0.8355262E-01
        1   -1    0    0  501    0  0.00000000000E+00  0.00000000000E+00  0.26275616035E+04  0.26275616035E+04  0.50400001928E-02 0.  1.
       -1   -1    0    0    0  501  0.00000000000E+00  0.00000000000E+00 -0.66233839717E+03  0.66233839719E+03  0.50400001928E-02 0. -1.
    10030    2    1    2    0    0  0.00000000000E+00  0.00000000000E+00  0.19652232064E+04  0.32899000007E+04  0.26384350975E+04 0.  0.
        5    1    3    3  502    0 -0.44568772493E+03 -0.27000654470E+03 -0.52855880309E+03  0.74225169630E+03  0.46999998093E+01 0. -1.
       -5    1    3    3    0  502  0.44568772493E+03  0.27000654470E+03  0.24937820095E+04  0.25476483044E+04  0.46999998093E+01 0.  1.
</event>
<event>
 5   0  0.7138294E-06  0.2566047E+04  0.7818609E-02  0.8379826E-01
       -1   -1    0    0    0  501  0.00000000000E+00  0.00000000000E+00  0.85945443943E+03  0.85945443945E+03  0.50400001928E-02 0. -1.
        1   -1    0    0  501    0  0.00000000000E+00  0.00000000000E+00 -0.19153424487E+04  0.19153424487E+04  0.50400001928E-02 0.  1.
    10030    2    1    2    0    0  0.00000000000E+00  0.00000000000E+00 -0.10558880092E+04  0.27747968881E+04  0.25660472097E+04 0.  0.
        2    1    3    3  502    0 -0.42921006776E+03  0.30783567868E+03 -0.17923224956E+04  0.18685299076E+04  0.25500000920E-02 0.  1.
       -2    1    3    3    0  502  0.42921006776E+03 -0.30783567868E+03  0.73643448635E+03  0.90626698055E+03  0.25500000920E-02 0. -1.
</event>
<event>
 5   0  0.1677971E-05  0.2624631E+04  0.7818609E-02  0.8359882E-01
       -2   -1    0    0    0  501  0.00000000000E+00  0.00000000000E+00  0.92092704891E+03  0.92092704892E+03  0.25500000920E-02 0.  1.
        2   -1    0    0  501    0  0.00000000000E+00  0.00000000000E+00 -0.18700421487E+04  0.18700421487E+04  0.25500000920E-02 0. -1.
    10030    2    1    2    0    0  0.00000000000E+00  0.00000000000E+00 -0.94911509975E+03  0.27909691976E+04  0.26246313244E+04 0.  0.
        4    1    3    3  502    0  0.37722811207E+03 -0.13690301989E+03  0.85407808032E+03  0.94366014305E+03  0.12699999809E+01 0.  1.
       -4    1    3    3    0  502 -0.37722811207E+03  0.13690301989E+03 -0.18031931801E+04  0.18473090545E+04  0.12699999809E+01 0. -1.
</event>
<event>
 5   0  0.1869956E-05  0.2606005E+04  0.7818609E-02  0.8366164E-01
       -2   -1    0    0    0  501  0.00000000000E+00  0.00000000000E+00  0.65854397907E+03  0.65854397908E+03  0.25500000920E-02 0.  1.
        2   -1    0    0  501    0  0.00000000000E+00  0.00000000000E+00 -0.25781361474E+04  0.25781361474E+04  0.25500000920E-02 0. -1.
    10030    2    1    2    0    0  0.00000000000E+00  0.00000000000E+00 -0.19195921683E+04  0.32366801265E+04  0.26060054007E+04 0.  0.
        5    1    3    3  502    0 -0.34640100753E+03  0.16153101588E+03  0.58734340858E+03  0.70077121567E+03  0.46999998093E+01 0.  1.
       -5    1    3    3    0  502  0.34640100753E+03 -0.16153101588E+03 -0.25069355769E+04  0.25359089108E+04  0.46999998093E+01 0. -1.
</event>
<event>
 5   0  0.6993678E-06  0.2616712E+04  0.7818609E-02  0.8362547E-01
       -1   -1    0    0    0  501  0.00000000000E+00  0.00000000000E+00  0.10749789890E+04  0.10749789890E+04  0.50400001928E-02 0. -1.
        1   -1    0    0  501    0  0.00000000000E+00  0.00000000000E+00 -0.15923988672E+04  0.15923988672E+04  0.50400001928E-02 0.  1.
    10030    2    1    2    0    0  0.00000000000E+00  0.00000000000E+00 -0.51741987821E+03  0.26673778562E+04  0.26167119248E+04 0.  0.
        1    1    3    3  502    0  0.14208765264E+03 -0.11515367982E+04 -0.87504029896E+03  0.14532451353E+04  0.50400001928E-02 0.  1.
       -1    1    3    3    0  502 -0.14208765264E+03  0.11515367982E+04  0.35762042075E+03  0.12141327209E+04  0.50400001928E-02 0. -1.
</event>
<event>
 5   0  0.1681731E-05  0.2588124E+04  0.7818609E-02  0.8372246E-01
       -2   -1    0    0    0  501  0.00000000000E+00  0.00000000000E+00  0.11327266168E+04  0.11327266168E+04  0.25500000920E-02 0.  1.
        2   -1    0    0  501    0  0.00000000000E+00  0.00000000000E+00 -0.14783764400E+04  0.14783764400E+04  0.25500000920E-02 0. -1.
    10030    2    1    2    0    0  0.00000000000E+00  0.00000000000E+00 -0.34564982314E+03  0.26111030568E+04  0.25881239099E+04 0.  0.
        2    1    3    3  502    0  0.27771261260E+03  0.70729463097E+03 -0.12296013093E+04  0.14454443503E+04  0.25500000920E-02 0. -1.
       -2    1    3    3    0  502 -0.27771261260E+03 -0.70729463097E+03  0.88395148612E+03  0.11656587065E+04  0.25500000920E-02 0.  1.
</event>
<event>
 5   0  0.7138294E-06  0.2597549E+04  0.7818609E-02  0.8369034E-01
       -1   -1    0    0    0  501  0.00000000000E+00  0.00000000000E+00  0.83049311478E+03  0.83049311479E+03  0.50400001928E-02 0.  1.
        1   -1    0    0  501    0  0.00000000000E+00  0.00000000000E+00 -0.20311014253E+04  0.20311014253E+04  0.50400001928E-02 0. -1.
    10030    2    1    2    0    0  0.00000000000E+00  0.00000000000E+00 -0.12006083105E+04  0.28615945401E+04  0.25975494214E+04 0.  0.
        2    1    3    3  502    0  0.43567883462E+03 -0.89506045946E+02  0.74397644753E+03  0.86679197833E+03  0.25500000920E-02 0.  1.
       -2    1    3    3    0  502 -0.43567883462E+03  0.89506045946E+02 -0.19445847581E+04  0.19948025618E+04  0.25500000920E-02 0. -1.
</event>
<event>
 5   0  0.1702345E-05  0.2581264E+04  0.7818609E-02  0.8374594E-01
        2   -1    0    0  501    0  0.00000000000E+00  0.00000000000E+00  0.13228583059E+04  0.13228583060E+04  0.25500000920E-02 0. -1.
       -2   -1    0    0    0  501  0.00000000000E+00  0.00000000000E+00 -0.12591903419E+04  0.12591903419E+04  0.25500000920E-02 0.  1.
    10030    2    1    2    0    0  0.00000000000E+00  0.00000000000E+00  0.63667964025E+02  0.25820486479E+04  0.25812635686E+04 0.  0.
        1    1    3    3  502    0  0.83803845296E+03 -0.25518738047E+03 -0.91624189377E+03  0.12676467393E+04  0.50400001928E-02 0.  1.
       -1    1    3    3    0  502 -0.83803845296E+03  0.25518738047E+03  0.97990985779E+03  0.13144019086E+04  0.50400001928E-02 0. -1.
</event>
<event>
 5   0  0.6984287E-06  0.2661681E+04  0.7818609E-02  0.8347546E-01
       -1   -1    0    0    0  501  0.00000000000E+00  0.00000000000E+00  0.13187709189E+04  0.13187709189E+04  0.50400001928E-02 0. -1.
        1   -1    0    0  501    0  0.00000000000E+00  0.00000000000E+00 -0.13430207551E+04  0.13430207551E+04  0.50400001928E-02 0.  1.
    10030    2    1    2    0    0  0.00000000000E+00  0.00000000000E+00 -0.24249836200E+02  0.26617916741E+04  0.26616812096E+04 0.  0.
        3    1    3    3  502    0 -0.33296021493E+03 -0.12878092737E+04  0.30555594248E+02  0.13305070029E+04  0.10100000352E+00 0.  1.
       -3    1    3    3    0  502  0.33296021493E+03  0.12878092737E+04 -0.54805430448E+02  0.13312846712E+04  0.10100000352E+00 0. -1.
</event>
<event>
 5   0  0.6984287E-06  0.2621419E+04  0.7818609E-02  0.8360962E-01
       -1   -1    0    0    0  501  0.00000000000E+00  0.00000000000E+00  0.79003888023E+03  0.79003888024E+03  0.50400001928E-02 0.  1.
        1   -1    0    0  501    0  0.00000000000E+00  0.00000000000E+00 -0.21745259429E+04  0.21745259429E+04  0.50400001928E-02 0. -1.
    10030    2    1    2    0    0  0.00000000000E+00  0.00000000000E+00 -0.13844870626E+04  0.29645648231E+04  0.26214194941E+04 0.  0.
        3    1    3    3  502    0 -0.72445387153E+03  0.10472302371E+04 -0.34105301426E+03  0.13182722595E+04  0.10100000352E+00 0.  1.
       -3    1    3    3    0  502  0.72445387153E+03 -0.10472302371E+04 -0.10434340484E+04  0.16462925636E+04  0.10100000352E+00 0. -1.
</event>
<event>
 5   0  0.1677971E-05  0.2557117E+04  0.7818609E-02  0.8382915E-01
        2   -1    0    0  501    0  0.00000000000E+00  0.00000000000E+00  0.23885143299E+04  0.23885143299E+04  0.25500000920E-02 0.  1.
       -2   -1    0    0    0  501  0.00000000000E+00  0.00000000000E+00 -0.68440548864E+03  0.68440548864E+03  0.25500000920E-02 0. -1.
    10030    2    1    2    0    0  0.00000000000E+00  0.00000000000E+00  0.17041088413E+04  0.30729198186E+04  0.25571173748E+04 0.  0.
        4    1    3    3  502    0 -0.22380147066E+03 -0.10106288640E+04 -0.49832908530E+02  0.10363120817E+04  0.12699999809E+01 0. -1.
       -4    1    3    3    0  502  0.22380147066E+03  0.10106288640E+04  0.17539417498E+04  0.20366077368E+04  0.12699999809E+01 0.  1.
</event>
<event>
 5   0  0.1702345E-05  0.2579800E+04  0.7818609E-02  0.8375095E-01
        2   -1    0    0  501    0  0.00000000000E+00  0.00000000000E+00  0.10049266743E+04  0.10049266743E+04  0.25500000920E-02 0.  1.
       -2   -1    0    0    0  501  0.00000000000E+00  0.00000000000E+00 -0.16556849991E+04  0.16556849991E+04  0.25500000920E-02 0. -1.
    10030    2    1    2    0    0  0.00000000000E+00  0.00000000000E+00 -0.65075832475E+03  0.26606116734E+04  0.25798000077E+04 0.  0.
        1    1    3    3  502    0  0.37993741472E+03 -0.10356594298E+04 -0.10148250815E+04  0.14989372367E+04  0.50400001928E-02 0. -1.
       -1    1    3    3    0  502 -0.37993741472E+03  0.10356594298E+04  0.36406675671E+03  0.11616744367E+04  0.50400001928E-02 0.  1.
</event>
<event>
 5   0  0.5840500E-06  0.2586559E+04  0.7818609E-02  0.8372781E-01
        4   -1    0    0  501    0  0.00000000000E+00  0.00000000000E+00  0.14938615709E+04  0.14938621108E+04  0.12699999809E+01 0. -1.
       -4   -1    0    0    0  501  0.00000000000E+00  0.00000000000E+00 -0.11196290487E+04  0.11196297690E+04  0.12699999809E+01 0.  1.
    10030    2    1    2    0    0  0.00000000000E+00  0.00000000000E+00  0.37423252220E+03  0.26134918798E+04  0.25865594571E+04 0.  0.
        5    1    3    3  502    0 -0.64900171137E+03 -0.11171097269E+04  0.24614547899E+03  0.13151984831E+04  0.46999998093E+01 0. -1.
       -5    1    3    3    0  502  0.64900171137E+03  0.11171097269E+04  0.12808704321E+03  0.12982933967E+04  0.46999998093E+01 0.  1.
</event>
<event>
 5   0  0.6918420E-06  0.2649647E+04  0.7818609E-02  0.8351530E-01
        1   -1    0    0  501    0  0.00000000000E+00  0.00000000000E+00  0.17035756996E+04  0.17035756996E+04  0.50400001928E-02 0. -1.
       -1   -1    0    0    0  501  0.00000000000E+00  0.00000000000E+00 -0.10302785988E+04  0.10302785988E+04  0.50400001928E-02 0.  1.
    10030    2    1    2    0    0  0.00000000000E+00  0.00000000000E+00  0.67329710079E+03  0.27338542983E+04  0.26496472102E+04 0.  0.
        4    1    3    3  502    0 -0.86666506559E+03  0.94380575186E+03  0.68391333701E+03  0.14524519609E+04  0.12699999809E+01 0.  1.
       -4    1    3    3    0  502  0.86666506559E+03 -0.94380575186E+03 -0.10616236218E+02  0.12814023375E+04  0.12699999809E+01 0. -1.
</event>
<event>
 5   0  0.6706225E-06  0.2590254E+04  0.7818609E-02  0.8371519E-01
       -1   -1    0    0    0  501  0.00000000000E+00  0.00000000000E+00  0.11694317440E+04  0.11694317440E+04  0.50400001928E-02 0. -1.
        1   -1    0    0  501    0  0.00000000000E+00  0.00000000000E+00 -0.14343328365E+04  0.14343328365E+04  0.50400001928E-02 0.  1.
    10030    2    1    2    0    0  0.00000000000E+00  0.00000000000E+00 -0.26490109241E+03  0.26037645805E+04  0.25902543122E+04 0.  0.
        5    1    3    3  502    0  0.62483198598E+03 -0.10550653149E+04 -0.55146331131E+03  0.13445116969E+04  0.46999998093E+01 0. -1.
       -5    1    3    3    0  502 -0.62483198598E+03  0.10550653149E+04  0.28656221890E+03  0.12592528836E+04  0.46999998093E+01 0.  1.
</event>
<event>
 5   0  0.1681731E-05  0.2598996E+04  0.7818609E-02  0.8368542E-01
        2   -1    0    0  501    0  0.00000000000E+00  0.00000000000E+00  0.26057669895E+04  0.26057669895E+04  0.25500000920E-02 0. -1.
       -2   -1    0    0    0  501  0.00000000000E+00  0.00000000000E+00 -0.64806049627E+03  0.64806049627E+03  0.25500000920E-02 0.  1.
    10030    2    1    2    0    0  0.00000000000E+00  0.00000000000E+00  0.19577064933E+04  0.32538274858E+04  0.25989956894E+04 0.  0.
        2    1    3    3  502    0 -0.73314133666E+03 -0.88828453833E+03  0.17322653870E+04  0.20802136937E+04  0.25500000920E-02 0. -1.
       -2    1    3    3    0  502  0.73314133666E+03  0.88828453833E+03  0.22544110624E+03  0.11736137921E+04  0.25500000920E-02 0.  1.
</event>
<event>
 5   0  0.6918420E-06  0.2480682E+04  0.7818609E-02  0.8409900E-01
       -1   -1    0    0    0  501  0.00000000000E+00  0.00000000000E+00  0.13746812958E+04  0.13746812958E+04  0.50400001928E-02 0. -1.
        1   -1    0    0  501    0  0.00000000000E+00  0.00000000000E+00 -0.11191288231E+04  0.11191288231E+04  0.50400001928E-02 0.  1.
    10030    2    1    2    0    0  0.00000000000E+00  0.00000000000E+00  0.25555247267E+03  0.24938101189E+04  0.24806817295E+04 0.  0.
        4    1    3    3  502    0  0.70264597114E+03 -0.29548718233E+03 -0.85588043077E+03  0.11461051262E+04  0.12699999809E+01 0.  1.
       -4    1    3    3    0  502 -0.70264597114E+03  0.29548718233E+03  0.11114329034E+04  0.13477049927E+04  0.12699999809E+01 0. -1.
</event>
<event>
 5   0  0.1869956E-05  0.2644367E+04  0.7818609E-02  0.8353285E-01
       -2   -1    0    0    0  501  0.00000000000E+00  0.00000000000E+00  0.83086765932E+03  0.83086765932E+03  0.25500000920E-02 0. -1.
        2   -1    0    0  501    0  0.00000000000E+00  0.00000000000E+00 -0.21040280800E+04  0.21040280800E+04  0.25500000920E-02 0.  1.
    10030    2    1    2    0    0  0.00000000000E+00  0.00000000000E+00 -0.12731604206E+04  0.29348957393E+04  0.26443667567E+04 0.  0.
        5    1    3    3  502    0 -0.26203395712E+03 -0.10218376953E+04 -0.15212304552E+04  0.18512099443E+04  0.46999998093E+01 0.  1.
       -5    1    3    3    0  502  0.26203395712E+03  0.10218376953E+04  0.24807003452E+03  0.10836857950E+04  0.46999998093E+01 0. -1.
</event>
<event>
 5   0  0.6706225E-06  0.2626374E+04  0.7818609E-02  0.8359297E-01
        1   -1    0    0  501    0  0.00000000000E+00  0.00000000000E+00  0.18190456764E+04  0.18190456764E+04  0.50400001928E-02 0. -1.
       -1   -1    0    0    0  501  0.00000000000E+00  0.00000000000E+00 -0.94800247970E+03  0.94800247972E+03  0.50400001928E-02 0.  1.
    10030    2    1    2    0    0  0.00000000000E+00  0.00000000000E+00  0.87104319667E+03  0.27670481561E+04  0.26263737829E+04 0.  0.
        5    1    3    3  502    0 -0.19436370487E+03  0.66359279818E+03 -0.74065453844E+03  0.10132738459E+04  0.46999998093E+01 0.  1.
       -5    1    3    3    0  502  0.19436370487E+03 -0.66359279818E+03  0.16116977351E+04  0.17537743101E+04  0.46999998093E+01 0. -1.
</event>
<event>
 5   0  0.6993678E-06  0.2610404E+04  0.7818609E-02  0.8364676E-01
        1   -1    0    0  501    0  0.00000000000E+00  0.00000000000E+00  0.18529228849E+04  0.18529228849E+04  0.50400001928E-02 0.  1.
       -1   -1    0    0    0  501  0.00000000000E+00  0.00000000000E+00 -0.91938650295E+03  0.91938650297E+03  0.50400001928E-02 0. -1.
    10030    2    1    2    0    0  0.00000000000E+00  0.00000000000E+00  0.93353638190E+03  0.27723093878E+04  0.26104040234E+04 0.  0.
        1    1    3    3  502    0 -0.10192204848E+04  0.76996045381E+03  0.75154646221E+03  0.14820497907E+04  0.50400001928E-02 0.  1.
       -1    1    3    3    0  502  0.10192204848E+04 -0.76996045381E+03  0.18198991969E+03  0.12902595972E+04  0.50400001928E-02 0. -1.
</event>
<event>
 5   0  0.1681731E-05  0.2585140E+04  0.7818609E-02  0.8373266E-01
       -2   -1    0    0    0  501  0.00000000000E+00  0.00000000000E+00  0.10549862130E+04  0.10549862130E+04  0.25500000920E-02 0.  1.
        2   -1    0    0  501    0  0.00000000000E+00  0.00000000000E+00 -0.15836578307E+04  0.15836578308E+04  0.25500000920E-02 0. -1.
    10030    2    1    2    0    0  0.00000000000E+00  0.00000000000E+00 -0.52867161775E+03  0.26386440438E+04  0.25851399788E+04 0.  0.
        2    1    3    3  502    0 -0.78000483018E+02  0.10404948178E+04  0.51435859615E+03  0.11633049070E+04  0.25500000920E-02 0.  1.
       -2    1    3    3    0  502  0.78000483018E+02 -0.10404948178E+04 -0.10430302139E+04  0.14753391367E+04  0.25500000920E-02 0. -1.
</event>
<event>
 5   0  0.6706225E-06  0.2602437E+04  0.7818609E-02  0.8367374E-01
       -1   -1    0    0    0  501  0.00000000000E+00  0.00000000000E+00  0.81522734015E+03  0.81522734017E+03  0.50400001928E-02 0. -1.
        1   -1    0    0  501    0  0.00000000000E+00  0.00000000000E+00 -0.20769297405E+04  0.20769297405E+04  0.50400001928E-02 0.  1.
    10030    2    1    2    0    0  0.00000000000E+00  0.00000000000E+00 -0.12617024004E+04  0.28921570807E+04  0.26024372485E+04 0.  0.
        5    1    3    3  502    0 -0.53241414823E+02 -0.39910494349E+03  0.74424548754E+03  0.84619314573E+03  0.46999998093E+01 0. -1.
       -5    1    3    3    0  502  0.53241414823E+02  0.39910494349E+03 -0.20059478879E+04  0.20459639350E+04  0.46999998093E+01 0.  1.
</event>
<event>
 5   0  0.1702345E-05  0.2655237E+04  0.7818609E-02  0.8349677E-01
        2   -1    0    0  501    0  0.00000000000E+00  0.00000000000E+00  0.23880010679E+04  0.23880010679E+04  0.25500000920E-02 0.  1.
       -2   -1    0    0    0  501  0.00000000000E+00  0.00000000000E+00 -0.73809464692E+03  0.73809464692E+03  0.25500000920E-02 0. -1.
    10030    2    1    2    0    0  0.00000000000E+00  0.00000000000E+00  0.16499064209E+04  0.31260957148E+04  0.26552369424E+04 0.  0.
        1    1    3    3  502    0 -0.97310524539E+03  0.79139759890E+03  0.31267596297E+03  0.12926756113E+04  0.50400001928E-02 0. -1.
       -1    1    3    3    0  502  0.97310524539E+03 -0.79139759890E+03  0.13372304580E+04  0.18334201035E+04  0.50400001928E-02 0.  1.
</event>
<event>
 5   0  0.6993678E-06  0.2553295E+04  0.7818609E-02  0.8384241E-01
       -1   -1    0    0    0  501  0.00000000000E+00  0.00000000000E+00  0.91432875397E+03  0.91432875399E+03  0.50400001928E-02 0. -1.
        1   -1    0    0  501    0  0.00000000000E+00  0.00000000000E+00 -0.17825415345E+04  0.17825415345E+04  0.50400001928E-02 0.  1.
    10030    2    1    2    0    0  0.00000000000E+00  0.00000000000E+00 -0.86821278051E+03  0.26968702885E+04  0.25532951104E+04 0.  0.
        1    1    3    3  502    0 -0.66608312260E+03  0.43790220899E+03  0.61916540960E+03  0.10093517104E+04  0.50400001928E-02 0. -1.
       -1    1    3    3    0  502  0.66608312260E+03 -0.43790220899E+03 -0.14873781901E+04  0.16875185781E+04  0.50400001928E-02 0.  1.
</event>
<event>
 5   0  0.7138294E-06  0.2584868E+04  0.7818609E-02  0.8373359E-01
        1   -1    0    0  501    0  0.00000000000E+00  0.00000000000E+00  0.12666021471E+04  0.12666021472E+04  0.50400001928E-02 0. -1.
       -1   -1    0    0    0  501  0.00000000000E+00  0.00000000000E+00 -0.13187931670E+04  0.13187931670E+04  0.50400001928E-02 0.  1.
    10030    2    1    2    0    0  0.00000000000E+00  0.00000000000E+00 -0.52191019845E+02  0.25853953141E+04  0.25848684740E+04 0.  0.
        2    1    3    3  502    0  0.39928721957E+03  0.23632547418E+03 -0.12326192166E+04  0.13170535853E+04  0.25500000920E-02 0.  1.
       -2    1    3    3    0  502 -0.39928721957E+03 -0.23632547418E+03  0.11804281967E+04  0.12683417288E+04  0.25500000920E-02 0. -1.
</event>
<event>
 5   0  0.1677971E-05  0.2580257E+04  0.7818609E-02  0.8374938E-01
        2   -1    0    0  501    0  0.00000000000E+00  0.00000000000E+00  0.26313343863E+04  0.26313343863E+04  0.25500000920E-02 0. -1.
       -2   -1    0    0    0  501  0.00000000000E+00  0.00000000000E+00 -0.63254279415E+03  0.63254279415E+03  0.25500000920E-02 0.  1.
    10030    2    1    2    0    0  0.00000000000E+00  0.00000000000E+00  0.19987915921E+04  0.32638771804E+04  0.25802570454E+04 0.  0.
        4    1    3    3  502    0 -0.35243230749E+02 -0.10183608917E+04  0.20003235815E+04  0.22449046827E+04  0.12699999809E+01 0. -1.
       -4    1    3    3    0  502  0.35243230749E+02  0.10183608917E+04 -0.15319893576E+01  0.10189724977E+04  0.12699999809E+01 0.  1.
</event>
<event>
 5   0  0.1681731E-05  0.2576251E+04  0.7818609E-02  0.8376313E-01
        2   -1    0    0  501    0  0.00000000000E+00  0.00000000000E+00  0.18627857263E+04  0.18627857263E+04  0.25500000920E-02 0.  1.
       -2   -1    0    0    0  501  0.00000000000E+00  0.00000000000E+00 -0.89074493023E+03  0.89074493023E+03  0.25500000920E-02 0. -1.
    10030    2    1    2    0    0  0.00000000000E+00  0.00000000000E+00  0.97204079612E+03  0.27535306566E+04  0.25762507190E+04 0.  0.
        2    1    3    3  502    0  0.60667372128E+03  0.15225947471E+03 -0.71753677039E+03  0.95189020827E+03  0.25500000920E-02 0. -1.
       -2    1    3    3    0  502 -0.60667372128E+03 -0.15225947471E+03  0.16895775665E+04  0.18016404483E+04  0.25500000920E-02 0.  1.
</event>
<event>
 5   0  0.1677971E-05  0.2587029E+04  0.7818609E-02  0.8372620E-01
       -2   -1    0    0    0  501  0.00000000000E+00  0.00000000000E+00  0.13453360108E+04  0.13453360108E+04  0.25500000920E-02 0.  1.
        2   -1    0    0  501    0  0.00000000000E+00  0.00000000000E+00 -0.12436895328E+04  0.12436895328E+04  0.25500000920E-02 0. -1.
    10030    2    1    2    0    0  0.00000000000E+00  0.00000000000E+00  0.10164647802E+03  0.25890255436E+04  0.25870294276E+04 0.  0.
        4    1    3    3  502    0 -0.58884554073E+03  0.97457787909E+03 -0.56335835430E+03  0.12703996857E+04  0.12699999809E+01 0. -1.
       -4    1    3    3    0  502  0.58884554073E+03 -0.97457787909E+03  0.66500483231E+03  0.13186258579E+04  0.12699999809E+01 0.  1.
</event>
<event>
 5   0  0.7138294E-06  0.2578807E+04  0.7818609E-02  0.8375436E-01
       -1   -1    0    0    0  501  0.00000000000E+00  0.00000000000E+00  0.15104428982E+04  0.15104428983E+04  0.50400001928E-02 0.  1.
        1   -1    0    0  501    0  0.00000000000E+00  0.00000000000E+00 -0.11007114487E+04  0.11007114487E+04  0.50400001928E-02 0. -1.
    10030    2    1    2    0    0  0.00000000000E+00  0.00000000000E+00  0.40973144954E+03  0.26111543470E+04  0.25788073140E+04 0.  0.
        2    1    3    3  502    0  0.10171829129E+04  0.68973957598E+02 -0.59443023475E+03  0.11801549852E+04  0.25500000920E-02 0. -1.
       -2    1    3    3    0  502 -0.10171829129E+04 -0.68973957598E+02  0.10041616843E+04  0.14309993618E+04  0.25500000920E-02 0.  1.
</event>
<event>
 5   0  0.1702345E-05  0.2145822E+04  0.7818609E-02  0.8541323E-01
        2   -1    0    0  501    0  0.00000000000E+00  0.00000000000E+00  0.17434063958E+04  0.17434063958E+04  0.25500000920E-02 0. -1.
       -2   -1    0    0    0  501  0.00000000000E+00  0.00000000000E+00 -0.66028076791E+03  0.66028076792E+03  0.25500000920E-02 0.  1.
    10030    2    1    2    0    0  0.00000000000E+00  0.00000000000E+00  0.10831256279E+04  0.24036871638E+04  0.21458217203E+04 0.  0.
        1    1    3    3  502    0  0.23909328046E+03 -0.17734202605E+03  0.16962205166E+04  0.17221439638E+04  0.50400001928E-02 0. -1.
       -1    1    3    3    0  502 -0.23909328046E+03  0.17734202605E+03 -0.61309488865E+03  0.68154320001E+03  0.50400001928E-02 0.  1.
</event>
<event>
 5   0  0.6918420E-06  0.2621609E+04  0.7818609E-02  0.8360898E-01
        1   -1    0    0  501    0  0.00000000000E+00  0.00000000000E+00  0.14604023959E+04  0.14604023959E+04  0.50400001928E-02 0.  1.
       -1   -1    0    0    0  501  0.00000000000E+00  0.00000000000E+00 -0.11765306616E+04  0.11765306616E+04  0.50400001928E-02 0. -1.
    10030    2    1    2    0    0  0.00000000000E+00  0.00000000000E+00  0.28387173431E+03  0.26369330575E+04  0.26216088167E+04 0.  0.
        4    1    3    3  502    0  0.12048207981E+04  0.42024491404E+03 -0.15983054909E+03  0.12859806999E+04  0.12699999809E+01 0. -1.
       -4    1    3    3    0  502 -0.12048207981E+04 -0.42024491404E+03  0.44370228340E+03  0.13509523576E+04  0.12699999809E+01 0.  1.
</event>
<event>
 5   0  0.7138294E-06  0.2604463E+04  0.7818609E-02  0.8366687E-01
       -1   -1    0    0    0  501  0.00000000000E+00  0.00000000000E+00  0.93741201390E+03  0.93741201391E+03  0.50400001928E-02 0.  1.
        1   -1    0    0  501    0  0.00000000000E+00  0.00000000000E+00 -0.18090307837E+04  0.18090307837E+04  0.50400001928E-02 0. -1.
    10030    2    1    2    0    0  0.00000000000E+00  0.00000000000E+00 -0.87161876983E+03  0.27464427976E+04  0.26044632385E+04 0.  0.
        2    1    3    3  502    0 -0.71616424996E+03 -0.31408148170E+03 -0.15338560639E+04  0.17217005648E+04  0.25500000920E-02 0. -1.
       -2    1    3    3    0  502  0.71616424996E+03  0.31408148170E+03  0.66223729409E+03  0.10247422328E+04  0.25500000920E-02 0.  1.
</event>
<event>
 5   0  0.6993678E-06  0.2607789E+04  0.7818609E-02  0.8365560E-01
        1   -1    0    0  501    0  0.00000000000E+00  0.00000000000E+00  0.25547273744E+04  0.25547273744E+04  0.50400001928E-02 0. -1.
       -1   -1    0    0    0  501  0.00000000000E+00  0.00000000000E+00 -0.66548827840E+03  0.66548827842E+03  0.50400001928E-02 0.  1.
    10030    2    1    2    0    0  0.00000000000E+00  0.00000000000E+00  0.18892390960E+04  0.32202156528E+04  0.26077891956E+04 0.  0.
        1    1    3    3  502    0 -0.10249240437E+04  0.30902502201E+03  0.25364375889E+02  0.10707983523E+04  0.50400001928E-02 0.  1.
       -1    1    3    3    0  502  0.10249240437E+04 -0.30902502201E+03  0.18638747201E+04  0.21494173005E+04  0.50400001928E-02 0. -1.
</event>
<event>
 5   0  0.1702345E-05  0.2618212E+04  0.7818609E-02  0.8362041E-01
       -2   -1    0    0    0  501  0.00000000000E+00  0.00000000000E+00  0.93369668050E+03  0.93369668050E+03  0.25500000920E-02 0.  1.
        2   -1    0    0  501    0  0.00000000000E+00  0.00000000000E+00 -0.18354553416E+04  0.18354553416E+04  0.25500000920E-02 0. -1.
    10030    2    1    2    0    0  0.00000000000E+00  0.00000000000E+00 -0.90175866115E+03  0.27691520222E+04  0.26182120309E+04 0.  0.
        1    1    3    3  502    0 -0.70635253277E+03  0.91920018146E+03  0.19237336855E+03  0.11751044154E+04  0.50400001928E-02 0.  1.
       -1    1    3    3    0  502  0.70635253277E+03 -0.91920018146E+03 -0.10941320297E+04  0.15940476068E+04  0.50400001928E-02 0. -1.
</event>
<event>
 5   0  0.6984287E-06  0.2511919E+04  0.7818609E-02  0.8398752E-01
       -1   -1    0    0    0  501  0.00000000000E+00  0.00000000000E+00  0.82208264385E+03  0.82208264387E+03  0.50400001928E-02 0.  1.
        1   -1    0    0  501    0  0.00000000000E+00  0.00000000000E+00 -0.19188272926E+04  0.19188272926E+04  0.50400001928E-02 0. -1.
    10030    2    1    2    0    0  0.00000000000E+00  0.00000000000E+00 -0.10967446488E+04  0.27409099365E+04  0.25119192772E+04 0.  0.
        3    1    3    3  502    0  0.10482157712E+04  0.53136666214E+03 -0.10318539287E+04  0.15639147588E+04  0.10100000352E+00 0. -1.
       -3    1    3    3    0  502 -0.10482157712E+04 -0.53136666214E+03 -0.64890720106E+02  0.11769951777E+04  0.10100000352E+00 0.  1.
</event>
<event>
 5   0  0.6706225E-06  0.2604327E+04  0.7818609E-02  0.8366733E-01
        1   -1    0    0  501    0  0.00000000000E+00  0.00000000000E+00  0.56372745762E+03  0.56372745764E+03  0.50400001928E-02 0.  1.
       -1   -1    0    0    0  501  0.00000000000E+00  0.00000000000E+00 -0.30078897224E+04  0.30078897224E+04  0.50400001928E-02 0. -1.
    10030    2    1    2    0    0  0.00000000000E+00  0.00000000000E+00 -0.24441622648E+04  0.35716171801E+04  0.26043271884E+04 0.  0.
        5    1    3    3  502    0 -0.89967473123E+03  0.36655949399E+03 -0.32953563503E+02  0.97205375983E+03  0.46999998093E+01 0. -1.
       -5    1    3    3    0  502  0.89967473123E+03 -0.36655949399E+03 -0.24112087013E+04  0.25995634202E+04  0.46999998093E+01 0.  1.
</event>
<event>
 5   0  0.6984287E-06  0.2609538E+04  0.7818609E-02  0.8364968E-01
       -1   -1    0    0    0  501  0.00000000000E+00  0.00000000000E+00  0.13368582054E+04  0.13368582054E+04  0.50400001928E-02 0. -1.
        1   -1    0    0  501    0  0.00000000000E+00  0.00000000000E+00 -0.12734504817E+04  0.12734504817E+04  0.50400001928E-02 0.  1.
    10030    2    1    2    0    0  0.00000000000E+00  0.00000000000E+00  0.63407723717E+02  0.26103086871E+04  0.26095384462E+04 0.  0.
        3    1    3    3  502    0 -0.40679625095E+03  0.34082855721E+03  0.12240185294E+04  0.13341171859E+04  0.10100000352E+00 0. -1.
       -3    1    3    3    0  502  0.40679625095E+03 -0.34082855721E+03 -0.11606108057E+04  0.12761915012E+04  0.10100000352E+00 0.  1.
</event>
<event>
 5   0  0.1681731E-05  0.2580623E+04  0.7818609E-02  0.8374813E-01
        2   -1    0    0  501    0  0.00000000000E+00  0.00000000000E+00  0.15956094414E+04  0.15956094414E+04  0.25500000920E-02 0. -1.
       -2   -1    0    0    0  501  0.00000000000E+00  0.00000000000E+00 -0.10434282574E+04  0.10434282574E+04  0.25500000920E-02 0.  1.
    10030    2    1    2    0    0  0.00000000000E+00  0.00000000000E+00  0.55218118400E+03  0.26390376988E+04  0.25806231642E+04 0.  0.
        2    1    3    3  502    0  0.22721555524E+02 -0.12033649144E+04 -0.19951818173E+03  0.12200044636E+04  0.25500000920E-02 0. -1.
       -2    1    3    3    0  502 -0.22721555524E+02  0.12033649144E+04  0.75169936573E+03  0.14190332352E+04  0.25500000920E-02 0.  1.
</event>
<event>
 5   0  0.1681731E-05  0.2638636E+04  0.7818609E-02  0.8355195E-01
        2   -1    0    0  501    0  0.00000000000E+00  0.00000000000E+00  0.16902825907E+04  0.16902825907E+04  0.25500000920E-02 0. -1.
       -2   -1    0    0    0  501  0.00000000000E+00  0.00000000000E+00 -0.10297686390E+04  0.10297686390E+04  0.25500000920E-02 0.  1.
    10030    2    1    2    0    0  0.00000000000E+00  0.00000000000E+00  0.66051395165E+03  0.27200512297E+04  0.26386360135E+04 0.  0.
        2    1    3    3  502    0  0.17569194010E+02 -0.11537440707E+04 -0.32914058823E+03  0.11999031561E+04  0.25500000920E-02 0.  1.
       -2    1    3    3    0  502 -0.17569194010E+02  0.11537440707E+04  0.98965453988E+03  0.15201480736E+04  0.25500000920E-02 0. -1.
</event>
<event>
 5   0  0.1677971E-05  0.2608075E+04  0.7818609E-02  0.8365464E-01
        2   -1    0    0  501    0  0.00000000000E+00  0.00000000000E+00  0.13873485563E+04  0.13873485563E+04  0.25500000920E-02 0. -1.
       -2   -1    0    0    0  501  0.00000000000E+00  0.00000000000E+00 -0.12257291577E+04  0.12257291577E+04  0.25500000920E-02 0.  1.
    10030    2    1    2    0    0  0.00000000000E+00  0.00000000000E+00  0.16161939852E+03  0.26130777140E+04  0.26080748282E+04 0.  0.
        4    1    3    3  502    0  0.11015888659E+04 -0.29566448442E+03  0.71415869727E+03  0.13457116239E+04  0.12699999809E+01 0.  1.
       -4    1    3    3    0  502 -0.11015888659E+04  0.29566448442E+03 -0.55253929874E+03  0.12673660901E+04  0.12699999809E+01 0. -1.
</event>
<event>
 5   0  0.5840500E-06  0.2529425E+04  0.7818609E-02  0.8392577E-01
       -3   -1    0    0    0  501  0.00000000000E+00  0.00000000000E+00  0.28634157496E+04  0.28634157514E+04  0.10100000352E+00 0. -1.
        3   -1    0    0  501    0  0.00000000000E+00  0.00000000000E+00 -0.55859792442E+03  0.55859793356E+03  0.10100000352E+00 0.  1.
    10030    2    1    2    0    0  0.00000000000E+00  0.00000000000E+00  0.23048178252E+04  0.34220136849E+04  0.25294253206E+04 0.  0.
        1    1    3    3  502    0 -0.60284206804E+03  0.10273429677E+04  0.57740072041E+03  0.13237234319E+04  0.50400001928E-02 0.  1.
       -1    1    3    3    0  502  0.60284206804E+03 -0.10273429677E+04  0.17274171048E+04  0.20982902531E+04  0.50400001928E-02 0. -1.
</event>
<event>
 5   0  0.6984287E-06  0.2413304E+04  0.7818609E-02  0.8434540E-01
       -1   -1    0    0    0  501  0.00000000000E+00  0.00000000000E+00  0.17086329718E+04  0.17086329718E+04  0.50400001928E-02 0. -1.
        1   -1    0    0  501    0  0.00000000000E+00  0.00000000000E+00 -0.85214823955E+03  0.85214823957E+03  0.50400001928E-02 0.  1.
    10030    2    1    2    0    0  0.00000000000E+00  0.00000000000E+00  0.85648473220E+03  0.25607812113E+04  0.24133036104E+04 0.  0.
        3    1    3    3  502    0  0.60771456121E+03 -0.91606196966E+03 -0.99676834177E+02  0.11038215443E+04  0.10100000352E+00 0.  1.
       -3    1    3    3    0  502 -0.60771456121E+03  0.91606196966E+03  0.95616156638E+03  0.14569596670E+04  0.10100000352E+00 0. -1.
</event>
<event>
 5   0  0.6918420E-06  0.2451062E+04  0.7818609E-02  0.8420630E-01
        1   -1    0    0  501    0  0.00000000000E+00  0.00000000000E+00  0.20555242895E+04  0.20555242895E+04  0.50400001928E-02 0.  1.
       -1   -1    0    0    0  501  0.00000000000E+00  0.00000000000E+00 -0.73067782898E+03  0.73067782899E+03  0.50400001928E-02 0. -1.
    10030    2    1    2    0    0  0.00000000000E+00  0.00000000000E+00  0.13248464605E+04  0.27862021185E+04  0.24510618314E+04 0.  0.
        4    1    3    3  502    0  0.24722674553E+03 -0.32053877279E+03  0.19773327212E+04  0.20183439924E+04  0.12699999809E+01 0.  1.
       -4    1    3    3    0  502 -0.24722674553E+03  0.32053877279E+03 -0.65248626065E+03  0.76785812609E+03  0.12699999809E+01 0. -1.
</event>
<event>
 5   0  0.1869956E-05  0.2599910E+04  0.7818609E-02  0.8368232E-01
        2   -1    0    0  501    0  0.00000000000E+00  0.00000000000E+00  0.11261164343E+04  0.11261164343E+04  0.25500000920E-02 0. -1.
       -2   -1    0    0    0  501  0.00000000000E+00  0.00000000000E+00 -0.15006284871E+04  0.15006284871E+04  0.25500000920E-02 0.  1.
    10030    2    1    2    0    0  0.00000000000E+00  0.00000000000E+00 -0.37451205284E+03  0.26267449214E+04  0.25999095377E+04 0.  0.
        5    1    3    3  502    0 -0.95474692306E+03  0.25462470546E+03 -0.10406548741E+04  0.14350470670E+04  0.46999998093E+01 0.  1.
       -5    1    3    3    0  502  0.95474692306E+03 -0.25462470546E+03  0.66614282123E+03  0.11916978543E+04  0.46999998093E+01 0. -1.
</event>
<event>
 5   0  0.6706225E-06  0.2589059E+04  0.7818609E-02  0.8371927E-01
        1   -1    0    0  501    0  0.00000000000E+00  0.00000000000E+00  0.19110005175E+04  0.19110005176E+04  0.50400001928E-02 0.  1.
       -1   -1    0    0    0  501  0.00000000000E+00  0.00000000000E+00 -0.87692620491E+03  0.87692620492E+03  0.50400001928E-02 0. -1.
    10030    2    1    2    0    0  0.00000000000E+00  0.00000000000E+00  0.10340743126E+04  0.27879267225E+04  0.25890588494E+04 0.  0.
        5    1    3    3  502    0  0.54992322980E+03 -0.10411190205E+04  0.10963573714E+04  0.16088399390E+04  0.46999998093E+01 0.  1.
       -5    1    3    3    0  502 -0.54992322980E+03  0.10411190205E+04 -0.62283058771E+02  0.11790867835E+04  0.46999998093E+01 0. -1.
</event>
<event>
 5   0  0.7138294E-06  0.2591725E+04  0.7818609E-02  0.8371017E-01
        1   -1    0    0  501    0  0.00000000000E+00  0.00000000000E+00  0.14857251102E+04  0.14857251102E+04  0.50400001928E-02 0. -1.
       -1   -1    0    0    0  501  0.00000000000E+00  0.00000000000E+00 -0.11302629416E+04  0.11302629416E+04  0.50400001928E-02 0.  1.
    10030    2    1    2    0    0  0.00000000000E+00  0.00000000000E+00  0.35546216865E+03  0.26159880518E+04  0.25917253199E+04 0.  0.
        2    1    3    3  502    0 -0.43214111489E+03  0.64157599943E+03 -0.87166249650E+03  0.11654017393E+04  0.25500000920E-02 0.  1.
       -2    1    3    3    0  502  0.43214111489E+03 -0.64157599943E+03  0.12271246651E+04  0.14505863125E+04  0.25500000920E-02 0. -1.
</event>
<event>
 5   0  0.1720129E-05  0.2563264E+04  0.7818609E-02  0.8380788E-01
        2   -1    0    0  501    0  0.00000000000E+00  0.00000000000E+00  0.10956272882E+04  0.10956272883E+04  0.25500000920E-02 0. -1.
       -2   -1    0    0    0  501  0.00000000000E+00  0.00000000000E+00 -0.14992146823E+04  0.14992146823E+04  0.25500000920E-02 0.  1.
    10030    2    1    2    0    0  0.00000000000E+00  0.00000000000E+00 -0.40358739405E+03  0.25948419705E+04  0.25632639481E+04 0.  0.
        3    1    3    3  502    0  0.19534355311E+03 -0.19341773698E+03 -0.14690183249E+04  0.14945181076E+04  0.10100000352E+00 0.  1.
       -3    1    3    3    0  502 -0.19534355311E+03  0.19341773698E+03  0.10654309309E+04  0.11003238630E+04  0.10100000352E+00 0. -1.
</event>
<event>
 5   0  0.6984287E-06  0.2548105E+04  0.7818609E-02  0.8386046E-01
        1   -1    0    0  501    0  0.00000000000E+00  0.00000000000E+00  0.19555915989E+04  0.19555915990E+04  0.50400001928E-02 0. -1.
       -1   -1    0    0    0  501  0.00000000000E+00  0.00000000000E+00 -0.83003488244E+03  0.83003488246E+03  0.50400001928E-02 0.  1.
    10030    2    1    2    0    0  0.00000000000E+00  0.00000000000E+00  0.11255567165E+04  0.27856264814E+04  0.25481045842E+04 0.  0.
        3    1    3    3  502    0 -0.61444680760E+03 -0.73255242463E+03  0.14833091845E+04  0.17647617633E+04  0.10100000352E+00 0. -1.
       -3    1    3    3    0  502  0.61444680760E+03  0.73255242463E+03 -0.35775246796E+03  0.10208647181E+04  0.10100000352E+00 0.  1.
</event>
<event>
 5   0  0.6984287E-06  0.2622824E+04  0.7818609E-02  0.8360489E-01
       -1   -1    0    0    0  501  0.00000000000E+00  0.00000000000E+00  0.97449043427E+03  0.97449043428E+03  0.50400001928E-02 0.  1.
        1   -1    0    0  501    0  0.00000000000E+00  0.00000000000E+00 -0.17648214113E+04  0.17648214114E+04  0.50400001928E-02 0. -1.
    10030    2    1    2    0    0  0.00000000000E+00  0.00000000000E+00 -0.79033097708E+03  0.27393118456E+04  0.26228241143E+04 0.  0.
        3    1    3    3  502    0  0.47344847798E+03 -0.10762555187E+04  0.21142381916E+03  0.11946461586E+04  0.10100000352E+00 0.  1.
       -3    1    3    3    0  502 -0.47344847798E+03  0.10762555187E+04 -0.10017547962E+04  0.15446656870E+04  0.10100000352E+00 0. -1.
</event>
<event>
 5   0  0.6984287E-06  0.2615110E+04  0.7818609E-02  0.8363087E-01
       -1   -1    0    0    0  501  0.00000000000E+00  0.00000000000E+00  0.15717311581E+04  0.15717311581E+04  0.50400001928E-02 0. -1.
        1   -1    0    0  501    0  0.00000000000E+00  0.00000000000E+00 -0.10877814805E+04  0.10877814805E+04  0.50400001928E-02 0.  1.
    10030    2    1    2    0    0  0.00000000000E+00  0.00000000000E+00  0.48394967763E+03  0.26595126386E+04  0.26151099756E+04 0.  0.
        3    1    3    3  502    0  0.68878690234E+03  0.13840291264E+02  0.13721866370E+04  0.15354201795E+04  0.10100000352E+00 0. -1.
       -3    1    3    3    0  502 -0.68878690234E+03 -0.13840291264E+02 -0.88823695938E+03  0.11240924591E+04  0.10100000352E+00 0.  1.
</event>
<event>
 5   0  0.7138294E-06  0.2414010E+04  0.7818609E-02  0.8434277E-01
       -1   -1    0    0    0  501  0.00000000000E+00  0.00000000000E+00  0.11896968835E+04  0.11896968835E+04  0.50400001928E-02 0.  1.
        1   -1    0    0  501    0  0.00000000000E+00  0.00000000000E+00 -0.12245648077E+04  0.12245648077E+04  0.50400001928E-02 0. -1.
    10030    2    1    2    0    0  0.00000000000E+00  0.00000000000E+00 -0.34867924167E+02  0.24142616912E+04  0.24140098884E+04 0.  0.
        2    1    3    3  502    0  0.28372425807E+03 -0.40929811888E+02 -0.11900264020E+04  0.12240659875E+04  0.25500000920E-02 0. -1.
       -2    1    3    3    0  502 -0.28372425807E+03  0.40929811888E+02  0.11551584779E+04  0.11901957037E+04  0.25500000920E-02 0.  1.
</event>
<event>
 5   0  0.6918420E-06  0.2632766E+04  0.7818609E-02  0.8357156E-01
       -1   -1    0    0    0  501  0.00000000000E+00  0.00000000000E+00  0.10587617774E+04  0.10587617774E+04  0.50400001928E-02 0.  1.
        1   -1    0    0  501    0  0.00000000000E+00  0.00000000000E+00 -0.16366899673E+04  0.16366899673E+04  0.50400001928E-02 0. -1.
    10030    2    1    2    0    0  0.00000000000E+00  0.00000000000E+00 -0.57792818988E+03  0.26954517447E+04  0.26327664376E+04 0.  0.
        4    1    3    3  502    0 -0.85460310522E+03  0.99094692188E+03 -0.43569747599E+03  0.13791867796E+04  0.12699999809E+01 0. -1.
       -4    1    3    3    0  502  0.85460310522E+03 -0.99094692188E+03 -0.14223071388E+03  0.13162649651E+04  0.12699999809E+01 0.  1.
</event>
<event>
 5   0  0.6918420E-06  0.2582445E+04  0.7818609E-02  0.8374189E-01
        1   -1    0    0  501    0  0.00000000000E+00  0.00000000000E+00  0.15265139951E+04  0.15265139951E+04  0.50400001928E-02 0. -1.
       -1   -1    0    0    0  501  0.00000000000E+00  0.00000000000E+00 -0.10921983084E+04  0.10921983084E+04  0.50400001928E-02 0.  1.
    10030    2    1    2    0    0  0.00000000000E+00  0.00000000000E+00  0.43431568674E+03  0.26187123035E+04  0.25824453552E+04 0.  0.
        4    1    3    3  502    0  0.37585002778E+03 -0.45083186332E+03  0.13834146285E+04  0.15027808421E+04  0.12699999809E+01 0. -1.
       -4    1    3    3    0  502 -0.37585002778E+03  0.45083186332E+03 -0.94909894173E+03  0.11159314614E+04  0.12699999809E+01 0.  1.
</event>
<event>
 5   0  0.1720129E-05  0.2591449E+04  0.7818609E-02  0.8371112E-01
       -2   -1    0    0    0  501  0.00000000000E+00  0.00000000000E+00  0.68096466181E+03  0.68096466182E+03  0.25500000920E-02 0.  1.
        2   -1    0    0  501    0  0.00000000000E+00  0.00000000000E+00 -0.24654755121E+04  0.24654755121E+04  0.25500000920E-02 0. -1.
    10030    2    1    2    0    0  0.00000000000E+00  0.00000000000E+00 -0.17845108503E+04  0.31464401740E+04  0.25914487827E+04 0.  0.
        3    1    3    3  502    0 -0.31579868576E+03  0.74225411422E+03  0.33892682252E+03  0.87495221654E+03  0.10100000352E+00 0.  1.
       -3    1    3    3    0  502  0.31579868576E+03 -0.74225411422E+03 -0.21234376729E+04  0.22714879574E+04  0.10100000352E+00 0. -1.
</event>
<event>
 5   0  0.1677971E-05  0.2658550E+04  0.7818609E-02  0.8348581E-01
        2   -1    0    0  501    0  0.00000000000E+00  0.00000000000E+00  0.29000629024E+04  0.29000629024E+04  0.25500000920E-02 0.  1.
       -2   -1    0    0    0  501  0.00000000000E+00  0.00000000000E+00 -0.60928760671E+03  0.60928760671E+03  0.25500000920E-02 0. -1.
    10030    2    1    2    0    0  0.00000000000E+00  0.00000000000E+00  0.22907752957E+04  0.35093505091E+04  0.26585502704E+04 0.  0.
        4    1    3    3  502    0 -0.11806340261E+04 -0.26169125824E+03  0.18739067459E+04  0.22302258010E+04  0.12699999809E+01 0.  1.
       -4    1    3    3    0  502  0.11806340261E+04  0.26169125824E+03  0.41686854973E+03  0.12791247081E+04  0.12699999809E+01 0. -1.
</event>
<event>
 5   0  0.1677971E-05  0.2585211E+04  0.7818609E-02  0.8373242E-01
        2   -1    0    0  501    0  0.00000000000E+00  0.00000000000E+00  0.80965683716E+03  0.80965683716E+03  0.25500000920E-02 0. -1.
       -2   -1    0    0    0  501  0.00000000000E+00  0.00000000000E+00 -0.20636257699E+04  0.20636257699E+04  0.25500000920E-02 0.  1.
    10030    2    1    2    0    0  0.00000000000E+00  0.00000000000E+00 -0.12539689327E+04  0.28732826071E+04  0.25852107952E+04 0.  0.
        4    1    3    3  502    0 -0.12761909661E+04 -0.11330162991E+02 -0.39911313008E+03  0.13371928275E+04  0.12699999809E+01 0.  1.
       -4    1    3    3    0  502  0.12761909661E+04  0.11330162991E+02 -0.85485580266E+03  0.15360897795E+04  0.12699999809E+01 0. -1.
</event>
<event>
 5   0  0.6706225E-06  0.2610099E+04  0.7818609E-02  0.8364779E-01
        1   -1    0    0  501    0  0.00000000000E+00  0.00000000000E+00  0.22989561759E+04  0.22989561759E+04  0.50400001928E-02 0. -1.
       -1   -1    0    0    0  501  0.00000000000E+00  0.00000000000E+00 -0.74083809408E+03  0.74083809410E+03  0.50400001928E-02 0.  1.
    10030    2    1    2    0    0  0.00000000000E+00  0.00000000000E+00  0.15581180818E+04  0.30397942700E+04  0.26100990876E+04 0.  0.
        5    1    3    3  502    0 -0.12760695880E+03 -0.70067983984E+03 -0.49454370031E+03  0.86708208113E+03  0.46999998093E+01 0.  1.
       -5    1    3    3    0  502  0.12760695880E+03  0.70067983984E+03  0.20526617821E+04  0.21727121888E+04  0.46999998093E+01 0. -1.
</event>
<event>
 5   0  0.6984287E-06  0.2618927E+04  0.7818609E-02  0.8361800E-01
       -1   -1    0    0    0  501  0.00000000000E+00  0.00000000000E+00  0.13387620023E+04  0.13387620024E+04  0.50400001928E-02 0.  1.
        1   -1    0    0  501    0  0.00000000000E+00  0.00000000000E+00 -0.12808066295E+04  0.12808066295E+04  0.50400001928E-02 0. -1.
    10030    2    1    2    0    0  0.00000000000E+00  0.00000000000E+00  0.57955372863E+02  0.26195686318E+04  0.26189274506E+04 0.  0.
        3    1    3    3  502    0 -0.94681499688E+03 -0.69774907029E+02 -0.87311231884E+03  0.12898264641E+04  0.10100000352E+00 0. -1.
       -3    1    3    3    0  502  0.94681499688E+03  0.69774907029E+02  0.93106769170E+03  0.13297421677E+04  0.10100000352E+00 0.  1.
</event>
<event>
 5   0  0.1677971E-05  0.2640142E+04  0.7818609E-02  0.8354692E-01
        2   -1    0    0  501    0  0.00000000000E+00  0.00000000000E+00  0.15432517399E+04  0.15432517399E+04  0.25500000920E-02 0. -1.
       -2   -1    0    0    0  501  0.00000000000E+00  0.00000000000E+00 -0.11291660561E+04  0.11291660562E+04  0.25500000920E-02 0.  1.
    10030    2    1    2    0    0  0.00000000000E+00  0.00000000000E+00  0.41408568379E+03  0.26724177961E+04  0.26401420271E+04 0.  0.
        4    1    3    3  502    0 -0.86371862217E+03  0.86100733699E+03  0.71843428093E+03  0.14154479579E+04  0.12699999809E+01 0. -1.
       -4    1    3    3    0  502  0.86371862217E+03 -0.86100733699E+03 -0.30434859713E+03  0.12569698382E+04  0.12699999809E+01 0.  1.
</event>
<event>
 5   0  0.1869956E-05  0.2586669E+04  0.7818609E-02  0.8372744E-01
        2   -1    0    0  501    0  0.00000000000E+00  0.00000000000E+00  0.16871601789E+04  0.16871601789E+04  0.25500000920E-02 0. -1.
       -2   -1    0    0    0  501  0.00000000000E+00  0.00000000000E+00 -0.99143772994E+03  0.99143772994E+03  0.25500000920E-02 0.  1.
    10030    2    1    2    0    0  0.00000000000E+00  0.00000000000E+00  0.69572244897E+03  0.26785979089E+04  0.25866690997E+04 0.  0.
        5    1    3    3  502    0 -0.71523782620E+03 -0.66923260265E+03  0.12224199652E+04  0.15664514310E+04  0.46999998093E+01 0. -1.
       -5    1    3    3    0  502  0.71523782620E+03  0.66923260265E+03 -0.52669751624E+03  0.11121464778E+04  0.46999998093E+01 0.  1.
</event>
<event>
 5   0  0.6706225E-06  0.2495512E+04  0.7818609E-02  0.8404586E-01
        1   -1    0    0  501    0  0.00000000000E+00  0.00000000000E+00  0.14625054814E+04  0.14625054814E+04  0.50400001928E-02 0. -1.
       -1   -1    0    0    0  501  0.00000000000E+00  0.00000000000E+00 -0.10645394936E+04  0.10645394936E+04  0.50400001928E-02 0.  1.
    10030    2    1    2    0    0  0.00000000000E+00  0.00000000000E+00  0.39796598777E+03  0.25270449751E+04  0.24955118470E+04 0.  0.
        5    1    3    3  502    0  0.21925411425E+01 -0.10531175995E+04  0.87662581931E+03  0.13702395420E+04  0.46999998093E+01 0. -1.
       -5    1    3    3    0  502 -0.21925411425E+01  0.10531175995E+04 -0.47865983154E+03  0.11568054330E+04  0.46999998093E+01 0.  1.
</event>
<event>
 5   0  0.6984287E-06  0.2582607E+04  0.7818609E-02  0.8374133E-01
        1   -1    0    0  501    0  0.00000000000E+00  0.00000000000E+00  0.11027990002E+04  0.11027990002E+04  0.50400001928E-02 0. -1.
       -1   -1    0    0    0  501  0.00000000000E+00  0.00000000000E+00 -0.15120296526E+04  0.15120296526E+04  0.50400001928E-02 0.  1.
    10030    2    1    2    0    0  0.00000000000E+00  0.00000000000E+00 -0.40923065248E+03  0.26148286528E+04  0.25826070465E+04 0.  0.
        3    1    3    3  502    0 -0.58152372948E+02 -0.25528204844E+03 -0.14848732646E+04  0.15077795744E+04  0.10100000352E+00 0.  1.
       -3    1    3    3    0  502  0.58152372948E+02  0.25528204844E+03  0.10756426122E+04  0.11070490784E+04  0.10100000352E+00 0. -1.
</event>
<event>
 5   0  0.1681731E-05  0.2599776E+04  0.7818609E-02  0.8368277E-01
       -2   -1    0    0    0  501  0.00000000000E+00  0.00000000000E+00  0.10706289575E+04  0.10706289575E+04  0.25500000920E-02 0.  1.
        2   -1    0    0  501    0  0.00000000000E+00  0.00000000000E+00 -0.15782397155E+04  0.15782397155E+04  0.25500000920E-02 0. -1.
    10030    2    1    2    0    0  0.00000000000E+00  0.00000000000E+00 -0.50761075793E+03  0.26488686730E+04  0.25997762529E+04 0.  0.
        2    1    3    3  502    0 -0.51072945643E+03  0.45307850337E+03 -0.13808508192E+04  0.15404134811E+04  0.25500000920E-02 0. -1.
       -2    1    3    3    0  502  0.51072945643E+03 -0.45307850337E+03  0.87324006126E+03  0.11084551919E+04  0.25500000920E-02 0.  1.
</event>
<event>
 5   0  0.1869956E-05  0.2594796E+04  0.7818609E-02  0.8369971E-01
       -2   -1    0    0    0  501  0.00000000000E+00  0.00000000000E+00  0.63729287559E+03  0.63729287560E+03  0.25500000920E-02 0.  1.
        2   -1    0    0  501    0  0.00000000000E+00  0.00000000000E+00 -0.26412360628E+04  0.26412360628E+04  0.25500000920E-02 0. -1.
    10030    2    1    2    0    0  0.00000000000E+00  0.00000000000E+00 -0.20039431872E+04  0.32785289384E+04  0.25947955030E+04 0.  0.
        5    1    3    3  502    0  0.52420939461E+03 -0.39025106919E+03 -0.24180677297E+04  0.25048283418E+04  0.46999998093E+01 0. -1.
       -5    1    3    3    0  502 -0.52420939461E+03  0.39025106919E+03  0.41412454254E+03  0.77370059657E+03  0.46999998093E+01 0.  1.
</event>
<event>
 5   0  0.1702345E-05  0.2588074E+04  0.7818609E-02  0.8372263E-01
       -2   -1    0    0    0  501  0.00000000000E+00  0.00000000000E+00  0.17255969213E+04  0.17255969213E+04  0.25500000920E-02 0. -1.
        2   -1    0    0  501    0  0.00000000000E+00  0.00000000000E+00 -0.97040744905E+03  0.97040744905E+03  0.25500000920E-02 0.  1.
    10030    2    1    2    0    0  0.00000000000E+00  0.00000000000E+00  0.75518947228E+03  0.26960043704E+04  0.25880742698E+04 0.  0.
        1    1    3    3  502    0 -0.12570661118E+04 -0.15958850326E+03  0.65092694047E+03  0.14245664539E+04  0.50400001928E-02 0.  1.
       -1    1    3    3    0  502  0.12570661118E+04  0.15958850326E+03  0.10426253181E+03  0.12714379165E+04  0.50400001928E-02 0. -1.
</event>
<event>
 5   0  0.1677971E-05  0.2585377E+04  0.7818609E-02  0.8373185E-01
       -2   -1    0    0    0  501  0.00000000000E+00  0.00000000000E+00  0.11132005961E+04  0.11132005961E+04  0.25500000920E-02 0. -1.
        2   -1    0    0  501    0  0.00000000000E+00  0.00000000000E+00 -0.15011165577E+04  0.15011165577E+04  0.25500000920E-02 0.  1.
    10030    2    1    2    0    0  0.00000000000E+00  0.00000000000E+00 -0.38791596161E+03  0.26143171538E+04  0.25853772234E+04 0.  0.
        4    1    3    3  502    0 -0.42175272826E+03  0.11656201609E+04  0.17688482893E+03  0.12521324126E+04  0.12699999809E+01 0. -1.
       -4    1    3    3    0  502  0.42175272826E+03 -0.11656201609E+04 -0.56480079054E+03  0.13621847412E+04  0.12699999809E+01 0.  1.
</event>
<event>
 5   0  0.1869956E-05  0.2577240E+04  0.7818609E-02  0.8375973E-01
       -2   -1    0    0    0  501  0.00000000000E+00  0.00000000000E+00  0.62097190880E+03  0.62097190881E+03  0.25500000920E-02 0. -1.
        2   -1    0    0  501    0  0.00000000000E+00  0.00000000000E+00 -0.26741018483E+04  0.26741018483E+04  0.25500000920E-02 0.  1.
    10030    2    1    2    0    0  0.00000000000E+00  0.00000000000E+00 -0.20531299395E+04  0.32950737571E+04  0.25772404848E+04 0.  0.
        5    1    3    3  502    0  0.14528465143E+02 -0.57034531496E+03 -0.25038125870E+04  0.25679961868E+04  0.46999998093E+01 0.  1.
       -5    1    3    3    0  502 -0.14528465143E+02  0.57034531496E+03  0.45068264746E+03  0.72707757036E+03  0.46999998093E+01 0. -1.
</event>
<event>
 5   0  0.1720129E-05  0.2614458E+04  0.7818609E-02  0.8363307E-01
        2   -1    0    0  501    0  0.00000000000E+00  0.00000000000E+00  0.18113530460E+04  0.18113530460E+04  0.25500000920E-02 0.  1.
       -2   -1    0    0    0  501  0.00000000000E+00  0.00000000000E+00 -0.94340950368E+03  0.94340950369E+03  0.25500000920E-02 0. -1.
    10030    2    1    2    0    0  0.00000000000E+00  0.00000000000E+00  0.86794354230E+03  0.27547625497E+04  0.26144580150E+04 0.  0.
        3    1    3    3  502    0  0.33535334813E+02  0.10491802762E+02  0.18108553511E+04  0.18111962372E+04  0.10100000352E+00 0.  1.
       -3    1    3    3    0  502 -0.33535334813E+02 -0.10491802762E+02 -0.94291180884E+03  0.94356631249E+03  0.10100000352E+00 0. -1.
</event>
<event>
 5   0  0.6918420E-06  0.2587111E+04  0.7818609E-02  0.8372593E-01
       -1   -1    0    0    0  501  0.00000000000E+00  0.00000000000E+00  0.77965875857E+03  0.77965875858E+03  0.50400001928E-02 0.  1.
        1   -1    0    0  501    0  0.00000000000E+00  0.00000000000E+00 -0.21461769282E+04  0.21461769282E+04  0.50400001928E-02 0. -1.
    10030    2    1    2    0    0  0.00000000000E+00  0.00000000000E+00 -0.13665181697E+04  0.29258356868E+04  0.25871108516E+04 0.  0.
        4    1    3    3  502    0 -0.74230585143E+03  0.23114244978E+03 -0.18524652195E+04  0.20089982109E+04  0.12699999809E+01 0. -1.
       -4    1    3    3    0  502  0.74230585143E+03 -0.23114244978E+03  0.48594704979E+03  0.91683747593E+03  0.12699999809E+01 0.  1.
</event>
<event>
 5   0  0.1869956E-05  0.2325276E+04  0.7818609E-02  0.8468021E-01
        2   -1    0    0  501    0  0.00000000000E+00  0.00000000000E+00  0.11244230176E+04  0.11244230176E+04  0.25500000920E-02 0.  1.
       -2   -1    0    0    0  501  0.00000000000E+00  0.00000000000E+00 -0.12021517052E+04  0.12021517052E+04  0.25500000920E-02 0. -1.
    10030    2    1    2    0    0  0.00000000000E+00  0.00000000000E+00 -0.77728687538E+02  0.23265747228E+04  0.23252759388E+04 0.  0.
        5    1    3    3  502    0 -0.84782621870E+03  0.47838661954E+03 -0.67486228770E+03  0.11845354584E+04  0.46999998093E+01 0. -1.
       -5    1    3    3    0  502  0.84782621870E+03 -0.47838661954E+03  0.59713360017E+03  0.11420392644E+04  0.46999998093E+01 0.  1.
</event>
<event>
 5   0  0.6706225E-06  0.2517637E+04  0.7818609E-02  0.8396729E-01
        1   -1    0    0  501    0  0.00000000000E+00  0.00000000000E+00  0.13509612511E+04  0.13509612511E+04  0.50400001928E-02 0.  1.
       -1   -1    0    0    0  501  0.00000000000E+00  0.00000000000E+00 -0.11729604565E+04  0.11729604565E+04  0.50400001928E-02 0. -1.
    10030    2    1    2    0    0  0.00000000000E+00  0.00000000000E+00  0.17800079463E+03  0.25239217077E+04  0.25176370873E+04 0.  0.
        5    1    3    3  502    0 -0.43790673754E+03  0.92406494742E+03  0.82496080342E+03  0.13138648161E+04  0.46999998093E+01 0.  1.
       -5    1    3    3    0  502  0.43790673754E+03 -0.92406494742E+03 -0.64696000879E+03  0.12100568916E+04  0.46999998093E+01 0. -1.
</event>
<event>
 5   0  0.6706225E-06  0.2620675E+04  0.7818609E-02  0.8361212E-01
        1   -1    0    0  501    0  0.00000000000E+00  0.00000000000E+00  0.17615767614E+04  0.17615767614E+04  0.50400001928E-02 0.  1.
       -1   -1    0    0    0  501  0.00000000000E+00  0.00000000000E+00 -0.97468588012E+03  0.97468588013E+03  0.50400001928E-02 0. -1.
    10030    2    1    2    0    0  0.00000000000E+00  0.00000000000E+00  0.78689088129E+03  0.27362626415E+04  0.26206747193E+04 0.  0.
        5    1    3    3  502    0  0.23729373997E+03  0.12127999371E+04  0.84828510021E+03  0.14989335234E+04  0.46999998093E+01 0.  1.
       -5    1    3    3    0  502 -0.23729373997E+03 -0.12127999371E+04 -0.61394218922E+02  0.12373291181E+04  0.46999998093E+01 0. -1.
</event>
<event>
 5   0  0.6706225E-06  0.2496280E+04  0.7818609E-02  0.8404312E-01
        1   -1    0    0  501    0  0.00000000000E+00  0.00000000000E+00  0.18140101702E+04  0.18140101702E+04  0.50400001928E-02 0.  1.
       -1   -1    0    0    0  501  0.00000000000E+00  0.00000000000E+00 -0.85878954703E+03  0.85878954705E+03  0.50400001928E-02 0. -1.
    10030    2    1    2    0    0  0.00000000000E+00  0.00000000000E+00  0.95522062319E+03  0.26727997173E+04  0.24962796097E+04 0.  0.
        5    1    3    3  502    0  0.47321643704E+03 -0.16357623289E+03  0.17017591464E+04  0.17738932500E+04  0.46999998093E+01 0.  1.
       -5    1    3    3    0  502 -0.47321643704E+03  0.16357623289E+03 -0.74653852319E+03  0.89890646724E+03  0.46999998093E+01 0. -1.
</event>
<event>
 5   0  0.6993678E-06  0.2609755E+04  0.7818609E-02  0.8364895E-01
       -1   -1    0    0    0  501  0.00000000000E+00  0.00000000000E+00  0.12185016814E+04  0.12185016814E+04  0.50400001928E-02 0.  1.
        1   -1    0    0  501    0  0.00000000000E+00  0.00000000000E+00 -0.13973762352E+04  0.13973762352E+04  0.50400001928E-02 0. -1.
    10030    2    1    2    0    0  0.00000000000E+00  0.00000000000E+00 -0.17887455376E+03  0.26158779166E+04  0.26097550016E+04 0.  0.
        1    1    3    3  502    0  0.41352109271E+03 -0.91558254104E+03 -0.92410592564E+03  0.13650138627E+04  0.50400001928E-02 0. -1.
       -1    1    3    3    0  502 -0.41352109271E+03  0.91558254104E+03  0.74523137188E+03  0.12508640539E+04  0.50400001928E-02 0.  1.
</event>
<event>
 5   0  0.1720129E-05  0.2616450E+04  0.7818609E-02  0.8362635E-01
       -2   -1    0    0    0  501  0.00000000000E+00  0.00000000000E+00  0.17426303835E+04  0.17426303835E+04  0.25500000920E-02 0. -1.
        2   -1    0    0  501    0  0.00000000000E+00  0.00000000000E+00 -0.98210906948E+03  0.98210906948E+03  0.25500000920E-02 0.  1.
    10030    2    1    2    0    0  0.00000000000E+00  0.00000000000E+00  0.76052131398E+03  0.27247394529E+04  0.26164503468E+04 0.  0.
        3    1    3    3  502    0 -0.31631667579E+03 -0.10877851775E+04 -0.30112874461E+03  0.11721823078E+04  0.10100000352E+00 0.  1.
       -3    1    3    3    0  502  0.31631667579E+03  0.10877851775E+04  0.10616500586E+04  0.15525571451E+04  0.10100000352E+00 0. -1.
</event>
<event>
 5   0  0.5840500E-06  0.2589912E+04  0.7818609E-02  0.8371636E-01
        4   -1    0    0  501    0  0.00000000000E+00  0.00000000000E+00  0.98765448302E+03  0.98765529955E+03  0.12699999809E+01 0. -1.
       -4   -1    0    0    0  501  0.00000000000E+00  0.00000000000E+00 -0.16978702350E+04  0.16978707099E+04  0.12699999809E+01 0.  1.
    10030    2    1    2    0    0  0.00000000000E+00  0.00000000000E+00 -0.71021575194E+03  0.26855260095E+04  0.25899118775E+04 0.  0.
        3    1    3    3  502    0  0.96588487949E+03  0.70359510578E+03  0.16224163364E+03  0.12059444561E+04  0.10100000352E+00 0. -1.
       -3    1    3    3    0  502 -0.96588487949E+03 -0.70359510578E+03 -0.87245738558E+03  0.14795815534E+04  0.10100000352E+00 0.  1.
</event>
<event>
 5   0  0.6918420E-06  0.2271313E+04  0.7818609E-02  0.8489319E-01
       -1   -1    0    0    0  501  0.00000000000E+00  0.00000000000E+00  0.99644890758E+03  0.99644890759E+03  0.50400001928E-02 0.  1.
        1   -1    0    0  501    0  0.00000000000E+00  0.00000000000E+00 -0.12943121919E+04  0.12943121919E+04  0.50400001928E-02 0. -1.
    10030    2    1    2    0    0  0.00000000000E+00  0.00000000000E+00 -0.29786328435E+03  0.22907610995E+04  0.22713132499E+04 0.  0.
        4    1    3    3  502    0 -0.96871918083E+03  0.10795000448E+03 -0.73671181434E+03  0.12218084813E+04  0.12699999809E+01 0. -1.
       -4    1    3    3    0  502  0.96871918083E+03 -0.10795000448E+03  0.43884852999E+03  0.10689526182E+04  0.12699999809E+01 0.  1.
</event>
<event>
 5   0  0.1681731E-05  0.2624213E+04  0.7818609E-02  0.8360023E-01
        2   -1    0    0  501    0  0.00000000000E+00  0.00000000000E+00  0.22957716833E+04  0.22957716833E+04  0.25500000920E-02 0. -1.
       -2   -1    0    0    0  501  0.00000000000E+00  0.00000000000E+00 -0.74991030975E+03  0.74991030976E+03  0.25500000920E-02 0.  1.
    10030    2    1    2    0    0  0.00000000000E+00  0.00000000000E+00  0.15458613735E+04  0.30456819930E+04  0.26242125327E+04 0.  0.
        2    1    3    3  502    0 -0.62574067811E+02 -0.16646874959E+03 -0.73585766979E+03  0.75704284472E+03  0.25500000920E-02 0.  1.
       -2    1    3    3    0  502  0.62574067811E+02  0.16646874959E+03  0.22817190433E+04  0.22886391483E+04  0.25500000920E-02 0. -1.
</event>
<event>
 5   0  0.1681731E-05  0.2608272E+04  0.7818609E-02  0.8365397E-01
        2   -1    0    0  501    0  0.00000000000E+00  0.00000000000E+00  0.11315684647E+04  0.11315684647E+04  0.25500000920E-02 0.  1.
       -2   -1    0    0    0  501  0.00000000000E+00  0.00000000000E+00 -0.15030207520E+04  0.15030207520E+04  0.25500000920E-02 0. -1.
    10030    2    1    2    0    0  0.00000000000E+00  0.00000000000E+00 -0.37145228738E+03  0.26345892167E+04  0.26082721367E+04 0.  0.
        2    1    3    3  502    0  0.42855748743E+03 -0.95268682933E+03  0.60285403132E+03  0.12061122244E+04  0.25500000920E-02 0.  1.
       -2    1    3    3    0  502 -0.42855748743E+03  0.95268682933E+03 -0.97430631869E+03  0.14284769923E+04  0.25500000920E-02 0. -1.
</event>
<event>
 5   0  0.6993678E-06  0.2570790E+04  0.7818609E-02  0.8378191E-01
        1   -1    0    0  501    0  0.00000000000E+00  0.00000000000E+00  0.19815161566E+04  0.19815161566E+04  0.50400001928E-02 0.  1.
       -1   -1    0    0    0  501  0.00000000000E+00  0.00000000000E+00 -0.83382620970E+03  0.83382620971E+03  0.50400001928E-02 0. -1.
    10030    2    1    2    0    0  0.00000000000E+00  0.00000000000E+00  0.11476899469E+04  0.28153423663E+04  0.25707898447E+04 0.  0.
        1    1    3    3  502    0  0.79518161593E+03  0.57920119533E+03 -0.33217177741E+03  0.10383284243E+04  0.50400001928E-02 0.  1.
       -1    1    3    3    0  502 -0.79518161593E+03 -0.57920119533E+03  0.14798617243E+04  0.17770139420E+04  0.50400001928E-02 0. -1.
</event>
<event>
 5   0  0.1869956E-05  0.2600385E+04  0.7818609E-02  0.8368070E-01
        2   -1    0    0  501    0  0.00000000000E+00  0.00000000000E+00  0.18420795905E+04  0.18420795905E+04  0.25500000920E-02 0. -1.
       -2   -1    0    0    0  501  0.00000000000E+00  0.00000000000E+00 -0.91771313012E+03  0.91771313013E+03  0.25500000920E-02 0.  1.
    10030    2    1    2    0    0  0.00000000000E+00  0.00000000000E+00  0.92436646041E+03  0.27597927207E+04  0.26003850692E+04 0.  0.
        5    1    3    3  502    0  0.84101184663E+03 -0.33745373199E+03  0.14517025722E+04  0.17113265017E+04  0.46999998093E+01 0. -1.
       -5    1    3    3    0  502 -0.84101184663E+03  0.33745373199E+03 -0.52733611180E+03  0.10484662189E+04  0.46999998093E+01 0.  1.
</event>
<event>
 5   0  0.6984287E-06  0.2588614E+04  0.7818609E-02  0.8372079E-01
        1   -1    0    0  501    0  0.00000000000E+00  0.00000000000E+00  0.20693020454E+04  0.20693020454E+04  0.50400001928E-02 0.  1.
       -1   -1    0    0    0  501  0.00000000000E+00  0.00000000000E+00 -0.80956299867E+03  0.80956299869E+03  0.50400001928E-02 0. -1.
    10030    2    1    2    0    0  0.00000000000E+00  0.00000000000E+00  0.12597390468E+04  0.28788650441E+04  0.25886138137E+04 0.  0.
        3    1    3    3  502    0  0.11915092405E+04 -0.49375358354E+03  0.50935133782E+03  0.13866959534E+04  0.10100000352E+00 0.  1.
       -3    1    3    3    0  502 -0.11915092405E+04  0.49375358354E+03  0.75038770894E+03  0.14921690908E+04  0.10100000352E+00 0. -1.
</event>
<event>
 5   0  0.1677971E-05  0.2613626E+04  0.7818609E-02  0.8363588E-01
       -2   -1    0    0    0  501  0.00000000000E+00  0.00000000000E+00  0.12845532712E+04  0.12845532712E+04  0.25500000920E-02 0. -1.
        2   -1    0    0  501    0  0.00000000000E+00  0.00000000000E+00 -0.13294582257E+04  0.13294582257E+04  0.25500000920E-02 0.  1.
    10030    2    1    2    0    0  0.00000000000E+00  0.00000000000E+00 -0.44904954459E+02  0.26140114970E+04  0.26136257673E+04 0.  0.
        4    1    3    3  502    0  0.90762884346E+03  0.21582032381E+03  0.89277260952E+03  0.12912834990E+04  0.12699999809E+01 0. -1.
       -4    1    3    3    0  502 -0.90762884346E+03 -0.21582032381E+03 -0.93767756398E+03  0.13227279979E+04  0.12699999809E+01 0.  1.
</event>
<event>
 5   0  0.5840500E-06  0.2707988E+04  0.7818609E-02  0.8332418E-01
        4   -1    0    0  501    0  0.00000000000E+00  0.00000000000E+00  0.11169667645E+04  0.11169674865E+04  0.12699999809E+01 0.  1.
       -4   -1    0    0    0  501  0.00000000000E+00  0.00000000000E+00 -0.16413179678E+04  0.16413184591E+04  0.12699999809E+01 0. -1.
    10030    2    1    2    0    0  0.00000000000E+00  0.00000000000E+00 -0.52435120328E+03  0.27582859457E+04  0.27079876613E+04 0.  0.
        3    1    3    3  502    0 -0.93525371249E+03  0.93411609875E+03 -0.56092684272E+03  0.14359356969E+04  0.10100000352E+00 0. -1.
       -3    1    3    3    0  502  0.93525371249E+03 -0.93411609875E+03  0.36575639443E+02  0.13223502487E+04  0.10100000352E+00 0.  1.
</event>
<event>
 5   0  0.6993678E-06  0.2595924E+04  0.7818609E-02  0.8369587E-01
       -1   -1    0    0    0  501  0.00000000000E+00  0.00000000000E+00  0.82954216150E+03  0.82954216151E+03  0.50400001928E-02 0.  1.
        1   -1    0    0  501    0  0.00000000000E+00  0.00000000000E+00 -0.20308861069E+04  0.20308861069E+04  0.50400001928E-02 0. -1.
    10030    2    1    2    0    0  0.00000000000E+00  0.00000000000E+00 -0.12013439454E+04  0.28604282684E+04  0.25959242292E+04 0.  0.
        1    1    3    3  502    0 -0.47517166870E+03  0.57117207488E+03  0.57204352604E+03  0.93768835419E+03  0.50400001928E-02 0.  1.
       -1    1    3    3    0  502  0.47517166870E+03 -0.57117207488E+03 -0.17733874714E+04  0.19227399142E+04  0.50400001928E-02 0. -1.
</event>
<event>
 5   0  0.6993678E-06  0.2587366E+04  0.7818609E-02  0.8372505E-01
        1   -1    0    0  501    0  0.00000000000E+00  0.00000000000E+00  0.12263024558E+04  0.12263024558E+04  0.50400001928E-02 0.  1.
       -1   -1    0    0    0  501  0.00000000000E+00  0.00000000000E+00 -0.13647658160E+04  0.13647658160E+04  0.50400001928E-02 0. -1.
    10030    2    1    2    0    0  0.00000000000E+00  0.00000000000E+00 -0.13846336023E+03  0.25910682717E+04  0.25873659746E+04 0.  0.
        1    1    3    3  502    0 -0.36579101422E+03 -0.92502868051E+03 -0.89753948607E+03  0.13397978411E+04  0.50400001928E-02 0. -1.
       -1    1    3    3    0  502  0.36579101422E+03  0.92502868051E+03  0.75907612584E+03  0.12512704307E+04  0.50400001928E-02 0.  1.
</event>
<event>
 5   0  0.6984287E-06  0.2689658E+04  0.7818609E-02  0.8338368E-01
        1   -1    0    0  501    0  0.00000000000E+00  0.00000000000E+00  0.19455901767E+04  0.19455901767E+04  0.50400001928E-02 0.  1.
       -1   -1    0    0    0  501  0.00000000000E+00  0.00000000000E+00 -0.92957164905E+03  0.92957164907E+03  0.50400001928E-02 0. -1.
    10030    2    1    2    0    0  0.00000000000E+00  0.00000000000E+00  0.10160185277E+04  0.28751618258E+04  0.26896583196E+04 0.  0.
        3    1    3    3  502    0  0.49423111933E+03 -0.12365437915E+04  0.30728055892E+03  0.13666478331E+04  0.10100000352E+00 0. -1.
       -3    1    3    3    0  502 -0.49423111933E+03  0.12365437915E+04  0.70873796877E+03  0.15085139927E+04  0.10100000352E+00 0.  1.
</event>
<event>
 5   0  0.1677971E-05  0.2566010E+04  0.7818609E-02  0.8379839E-01
        2   -1    0    0  501    0  0.00000000000E+00  0.00000000000E+00  0.12433075600E+04  0.12433075600E+04  0.25500000920E-02 0. -1.
       -2   -1    0    0    0  501  0.00000000000E+00  0.00000000000E+00 -0.13239697549E+04  0.13239697549E+04  0.25500000920E-02 0.  1.
    10030    2    1    2    0    0  0.00000000000E+00  0.00000000000E+00 -0.80662194903E+02  0.25672773149E+04  0.25660098250E+04 0.  0.
        4    1    3    3  502    0 -0.12030186321E+04 -0.41344834032E+03 -0.20746639964E+03  0.12888899407E+04  0.12699999809E+01 0.  1.
       -4    1    3    3    0  502  0.12030186321E+04  0.41344834032E+03  0.12680420474E+03  0.12783873742E+04  0.12699999809E+01 0. -1.
</event>
<event>
 5   0  0.1702345E-05  0.2576927E+04  0.7818609E-02  0.8376081E-01
        2   -1    0    0  501    0  0.00000000000E+00  0.00000000000E+00  0.11018692080E+04  0.11018692080E+04  0.25500000920E-02 0. -1.
       -2   -1    0    0    0  501  0.00000000000E+00  0.00000000000E+00 -0.15066558794E+04  0.15066558794E+04  0.25500000920E-02 0.  1.
    10030    2    1    2    0    0  0.00000000000E+00  0.00000000000E+00 -0.40478667146E+03  0.26085250874E+04  0.25769266350E+04 0.  0.
        1    1    3    3  502    0 -0.26454721071E+03  0.31562518325E+03  0.10334510698E+04  0.11124862231E+04  0.50400001928E-02 0. -1.
       -1    1    3    3    0  502  0.26454721071E+03 -0.31562518325E+03 -0.14382377413E+04  0.14960388643E+04  0.50400001928E-02 0.  1.
</event>
<event>
 5   0  0.5840500E-06  0.2651283E+04  0.7818609E-02  0.8350987E-01
        4   -1    0    0  501    0  0.00000000000E+00  0.00000000000E+00  0.11578645210E+04  0.11578652175E+04  0.12699999809E+01 0. -1.
       -4   -1    0    0    0  501  0.00000000000E+00  0.00000000000E+00 -0.15177278809E+04  0.15177284123E+04  0.12699999809E+01 0.  1.
    10030    2    1    2    0    0  0.00000000000E+00  0.00000000000E+00 -0.35986335994E+03  0.26755936298E+04  0.26512826394E+04 0.  0.
        5    1    3    3  502    0 -0.30475890433E+03  0.78999436401E+02  0.11195808597E+04  0.11630143129E+04  0.46999998093E+01 0. -1.
       -5    1    3    3    0  502  0.30475890433E+03 -0.78999436401E+02 -0.14794442196E+04  0.15125793168E+04  0.46999998093E+01 0.  1.
</event>
<event>
 5   0  0.7138294E-06  0.2271590E+04  0.7818609E-02  0.8489208E-01
       -1   -1    0    0    0  501  0.00000000000E+00  0.00000000000E+00  0.17139265740E+04  0.17139265741E+04  0.50400001928E-02 0. -1.
        1   -1    0    0  501    0  0.00000000000E+00  0.00000000000E+00 -0.75267566253E+03  0.75267566255E+03  0.50400001928E-02 0.  1.
    10030    2    1    2    0    0  0.00000000000E+00  0.00000000000E+00  0.96125091152E+03  0.24666022366E+04  0.22715904734E+04 0.  0.
        2    1    3    3  502    0  0.90080691188E+03  0.50058548494E+03  0.99910161430E+03  0.14353546446E+04  0.25500000920E-02 0. -1.
       -2    1    3    3    0  502 -0.90080691188E+03 -0.50058548494E+03 -0.37850702780E+02  0.10312475920E+04  0.25500000920E-02 0.  1.
</event>
<event>
 5   0  0.5840500E-06  0.2612883E+04  0.7818609E-02  0.8363838E-01
        3   -1    0    0  501    0  0.00000000000E+00  0.00000000000E+00  0.15999702012E+04  0.15999702043E+04  0.10100000352E+00 0. -1.
       -3   -1    0    0    0  501  0.00000000000E+00  0.00000000000E+00 -0.10667633354E+04  0.10667633402E+04  0.10100000352E+00 0.  1.
    10030    2    1    2    0    0  0.00000000000E+00  0.00000000000E+00  0.53320686571E+03  0.26667335446E+04  0.26128831271E+04 0.  0.
        2    1    3    3  502    0  0.62685714547E+03  0.91808406971E+03  0.96701330558E+03  0.14734120174E+04  0.25500000920E-02 0. -1.
       -2    1    3    3    0  502 -0.62685714547E+03 -0.91808406971E+03 -0.43380643987E+03  0.11933215272E+04  0.25500000920E-02 0.  1.
</event>
<event>
 5   0  0.1677971E-05  0.2636884E+04  0.7818609E-02  0.8355779E-01
       -2   -1    0    0    0  501  0.00000000000E+00  0.00000000000E+00  0.16197374505E+04  0.16197374505E+04  0.25500000920E-02 0. -1.
        2   -1    0    0  501    0  0.00000000000E+00  0.00000000000E+00 -0.10731921924E+04  0.10731921924E+04  0.25500000920E-02 0.  1.
    10030    2    1    2    0    0  0.00000000000E+00  0.00000000000E+00  0.54654525805E+03  0.26929296429E+04  0.26368842111E+04 0.  0.
        4    1    3    3  502    0 -0.46042059146E+03 -0.97354411298E+03 -0.50349371534E+03  0.11888157112E+04  0.12699999809E+01 0. -1.
       -4    1    3    3    0  502  0.46042059146E+03  0.97354411298E+03  0.10500389734E+04  0.15041139317E+04  0.12699999809E+01 0.  1.
</event>
<event>
 5   0  0.6984287E-06  0.2607012E+04  0.7818609E-02  0.8365823E-01
       -1   -1    0    0    0  501  0.00000000000E+00  0.00000000000E+00  0.79650214226E+03  0.79650214227E+03  0.50400001928E-02 0. -1.
        1   -1    0    0  501    0  0.00000000000E+00  0.00000000000E+00 -0.21332365625E+04  0.21332365625E+04  0.50400001928E-02 0.  1.
    10030    2    1    2    0    0  0.00000000000E+00  0.00000000000E+00 -0.13367344202E+04  0.29297387048E+04  0.26070116931E+04 0.  0.
        3    1    3    3  502    0  0.47421569734E+03 -0.66674377437E+02  0.69406608977E+03  0.84324002952E+03  0.10100000352E+00 0. -1.
       -3    1    3    3    0  502 -0.47421569734E+03  0.66674377437E+02 -0.20308005100E+04  0.20864986752E+04  0.10100000352E+00 0.  1.
</event>
<event>
 5   0  0.1677971E-05  0.2615242E+04  0.7818609E-02  0.8363042E-01
        2   -1    0    0  501    0  0.00000000000E+00  0.00000000000E+00  0.17773357032E+04  0.17773357032E+04  0.25500000920E-02 0. -1.
       -2   -1    0    0    0  501  0.00000000000E+00  0.00000000000E+00 -0.96204232998E+03  0.96204232998E+03  0.25500000920E-02 0.  1.
    10030    2    1    2    0    0  0.00000000000E+00  0.00000000000E+00  0.81529337319E+03  0.27393780332E+04  0.26152416187E+04 0.  0.
        4    1    3    3  502    0 -0.66694427347E+03  0.47033007346E+03  0.14778302267E+04  0.16881969179E+04  0.12699999809E+01 0. -1.
       -4    1    3    3    0  502  0.66694427347E+03 -0.47033007346E+03 -0.66253685348E+03  0.10511811152E+04  0.12699999809E+01 0.  1.
</event>
<event>
 5   0  0.6984287E-06  0.2529950E+04  0.7818609E-02  0.8392393E-01
       -1   -1    0    0    0  501  0.00000000000E+00  0.00000000000E+00  0.13870433141E+04  0.13870433141E+04  0.50400001928E-02 0.  1.
        1   -1    0    0  501    0  0.00000000000E+00  0.00000000000E+00 -0.11536496190E+04  0.11536496190E+04  0.50400001928E-02 0. -1.
    10030    2    1    2    0    0  0.00000000000E+00  0.00000000000E+00  0.23339369517E+03  0.25406929331E+04  0.25299501899E+04 0.  0.
        3    1    3    3  502    0  0.71131525953E+03 -0.36662731144E+03  0.11005388899E+04  0.13607243815E+04  0.10100000352E+00 0.  1.
       -3    1    3    3    0  502 -0.71131525953E+03  0.36662731144E+03 -0.86714519473E+03  0.11799685517E+04  0.10100000352E+00 0. -1.
</event>
<event>
 5   0  0.6984287E-06  0.2602777E+04  0.7818609E-02  0.8367259E-01
        1   -1    0    0  501    0  0.00000000000E+00  0.00000000000E+00  0.14625752315E+04  0.14625752315E+04  0.50400001928E-02 0. -1.
       -1   -1    0    0    0  501  0.00000000000E+00  0.00000000000E+00 -0.11579655583E+04  0.11579655583E+04  0.50400001928E-02 0.  1.
    10030    2    1    2    0    0  0.00000000000E+00  0.00000000000E+00  0.30460967320E+03  0.26205407898E+04  0.26027767823E+04 0.  0.
        3    1    3    3  502    0  0.82034142110E+02 -0.12851046945E+04  0.34170587956E+03  0.13322862285E+04  0.10100000352E+00 0. -1.
       -3    1    3    3    0  502 -0.82034142110E+02  0.12851046945E+04 -0.37096206356E+02  0.12882545614E+04  0.10100000352E+00 0.  1.
</event>
<event>
 5   0  0.1677971E-05  0.2599234E+04  0.7818609E-02  0.8368461E-01
        2   -1    0    0  501    0  0.00000000000E+00  0.00000000000E+00  0.16853236358E+04  0.16853236359E+04  0.25500000920E-02 0. -1.
       -2   -1    0    0    0  501  0.00000000000E+00  0.00000000000E+00 -0.10021839940E+04  0.10021839940E+04  0.25500000920E-02 0.  1.
    10030    2    1    2    0    0  0.00000000000E+00  0.00000000000E+00  0.68313964186E+03  0.26875076298E+04  0.25992340199E+04 0.  0.
        4    1    3    3  502    0  0.49392261855E+03 -0.74551732133E+03  0.13165943901E+04  0.15915960638E+04  0.12699999809E+01 0. -1.
       -4    1    3    3    0  502 -0.49392261855E+03  0.74551732133E+03 -0.63345474824E+03  0.10959115660E+04  0.12699999809E+01 0.  1.
</event>
<event>
 5   0  0.1702345E-05  0.2582999E+04  0.7818609E-02  0.8373999E-01
       -2   -1    0    0    0  501  0.00000000000E+00  0.00000000000E+00  0.89056215673E+03  0.89056215674E+03  0.25500000920E-02 0. -1.
        2   -1    0    0  501    0  0.00000000000E+00  0.00000000000E+00 -0.18729410037E+04  0.18729410037E+04  0.25500000920E-02 0.  1.
    10030    2    1    2    0    0  0.00000000000E+00  0.00000000000E+00 -0.98237884697E+03  0.27635031604E+04  0.25829985518E+04 0.  0.
        1    1    3    3  502    0 -0.24543286196E+03 -0.86808874144E+03 -0.14799796236E+04  0.17332498490E+04  0.50400001928E-02 0.  1.
       -1    1    3    3    0  502  0.24543286196E+03  0.86808874144E+03  0.49760077665E+03  0.10302533114E+04  0.50400001928E-02 0. -1.
</event>
<event>
 5   0  0.1681731E-05  0.2587437E+04  0.7818609E-02  0.8372481E-01
        2   -1    0    0  501    0  0.00000000000E+00  0.00000000000E+00  0.88013342820E+03  0.88013342820E+03  0.25500000920E-02 0. -1.
       -2   -1    0    0    0  501  0.00000000000E+00  0.00000000000E+00 -0.19016522591E+04  0.19016522591E+04  0.25500000920E-02 0.  1.
    10030    2    1    2    0    0  0.00000000000E+00  0.00000000000E+00 -0.10215188309E+04  0.27817856873E+04  0.25874371274E+04 0.  0.
        2    1    3    3  502    0 -0.11240989248E+03  0.12344005222E+03 -0.18900218757E+04  0.18973813853E+04  0.25500000920E-02 0.  1.
       -2    1    3    3    0  502  0.11240989248E+03 -0.12344005222E+03  0.86850304487E+03  0.88440430199E+03  0.25500000920E-02 0. -1.
</event>
<event>
 5   0  0.1677971E-05  0.2576212E+04  0.7818609E-02  0.8376327E-01
        2   -1    0    0  501    0  0.00000000000E+00  0.00000000000E+00  0.14114991957E+04  0.14114991957E+04  0.25500000920E-02 0. -1.
       -2   -1    0    0    0  501  0.00000000000E+00  0.00000000000E+00 -0.11754996507E+04  0.11754996507E+04  0.25500000920E-02 0.  1.
    10030    2    1    2    0    0  0.00000000000E+00  0.00000000000E+00  0.23599954497E+03  0.25869988464E+04  0.25762118015E+04 0.  0.
        4    1    3    3  502    0 -0.62240631569E+02 -0.28558536897E+03 -0.11417578588E+04  0.11785777532E+04  0.12699999809E+01 0.  1.
       -4    1    3    3    0  502  0.62240631569E+02  0.28558536897E+03  0.13777574038E+04  0.14084210932E+04  0.12699999809E+01 0. -1.
</event>
<event>
 5   0  0.6993678E-06  0.2596528E+04  0.7818609E-02  0.8369382E-01
       -1   -1    0    0    0  501  0.00000000000E+00  0.00000000000E+00  0.13291689525E+04  0.13291689525E+04  0.50400001928E-02 0.  1.
        1   -1    0    0  501    0  0.00000000000E+00  0.00000000000E+00 -0.12680775415E+04  0.12680775415E+04  0.50400001928E-02 0. -1.
    10030    2    1    2    0    0  0.00000000000E+00  0.00000000000E+00  0.61091410992E+02  0.25972464941E+04  0.25965279106E+04 0.  0.
        1    1    3    3  502    0  0.87980533995E+03 -0.82279175143E+03 -0.45378411778E+03  0.12872310313E+04  0.50400001928E-02 0.  1.
       -1    1    3    3    0  502 -0.87980533995E+03  0.82279175143E+03  0.51487552877E+03  0.13100154627E+04  0.50400001928E-02 0. -1.
</event>
<event>
 5   0  0.6984287E-06  0.2612859E+04  0.7818609E-02  0.8363846E-01
        1   -1    0    0  501    0  0.00000000000E+00  0.00000000000E+00  0.20163482606E+04  0.20163482606E+04  0.50400001928E-02 0. -1.
       -1   -1    0    0    0  501  0.00000000000E+00  0.00000000000E+00 -0.84645998157E+03  0.84645998159E+03  0.50400001928E-02 0.  1.
    10030    2    1    2    0    0  0.00000000000E+00  0.00000000000E+00  0.11698882790E+04  0.28628082422E+04  0.26128590559E+04 0.  0.
        3    1    3    3  502    0  0.42516889869E+03 -0.12230847380E+04  0.77488651744E+03  0.15090241860E+04  0.10100000352E+00 0. -1.
       -3    1    3    3    0  502 -0.42516889869E+03  0.12230847380E+04  0.39500176156E+03  0.13537840562E+04  0.10100000352E+00 0.  1.
</event>
<event>
 5   0  0.1681731E-05  0.2607666E+04  0.7818609E-02  0.8365602E-01
       -2   -1    0    0    0  501  0.00000000000E+00  0.00000000000E+00  0.12501200845E+04  0.12501200845E+04  0.25500000920E-02 0.  1.
        2   -1    0    0  501    0  0.00000000000E+00  0.00000000000E+00 -0.13598542694E+04  0.13598542694E+04  0.25500000920E-02 0. -1.
    10030    2    1    2    0    0  0.00000000000E+00  0.00000000000E+00 -0.10973418492E+03  0.26099743539E+04  0.26076664926E+04 0.  0.
        2    1    3    3  502    0 -0.29433847479E+03 -0.69631757894E+03  0.10083761531E+04  0.12602840056E+04  0.25500000920E-02 0.  1.
       -2    1    3    3    0  502  0.29433847479E+03  0.69631757894E+03 -0.11181103380E+04  0.13496903484E+04  0.25500000920E-02 0. -1.
</event>
<event>
 5   0  0.7138294E-06  0.2351135E+04  0.7818609E-02  0.8458028E-01
       -1   -1    0    0    0  501  0.00000000000E+00  0.00000000000E+00  0.11932613735E+04  0.11932613735E+04  0.50400001928E-02 0. -1.
        1   -1    0    0  501    0  0.00000000000E+00  0.00000000000E+00 -0.11581361879E+04  0.11581361879E+04  0.50400001928E-02 0.  1.
    10030    2    1    2    0    0  0.00000000000E+00  0.00000000000E+00  0.35125185580E+02  0.23513975615E+04  0.23511351967E+04 0.  0.
        2    1    3    3  502    0 -0.50129635744E+02 -0.59880952016E+03 -0.99293293371E+03  0.11606039948E+04  0.25500000920E-02 0.  1.
       -2    1    3    3    0  502  0.50129635744E+02  0.59880952016E+03  0.10280581193E+04  0.11907935667E+04  0.25500000920E-02 0. -1.
</event>
<event>
 5   0  0.6918420E-06  0.2595028E+04  0.7818609E-02  0.8369892E-01
        1   -1    0    0  501    0  0.00000000000E+00  0.00000000000E+00  0.90750295520E+03  0.90750295522E+03  0.50400001928E-02 0. -1.
       -1   -1    0    0    0  501  0.00000000000E+00  0.00000000000E+00 -0.18551370325E+04  0.18551370325E+04  0.50400001928E-02 0.  1.
    10030    2    1    2    0    0  0.00000000000E+00  0.00000000000E+00 -0.94763407730E+03  0.27626399877E+04  0.25950278144E+04 0.  0.
        4    1    3    3  502    0 -0.25725040960E+03  0.78021154395E+03  0.59535807527E+03  0.10145741359E+04  0.12699999809E+01 0. -1.
       -4    1    3    3    0  502  0.25725040960E+03 -0.78021154395E+03 -0.15429921526E+04  0.17480658518E+04  0.12699999809E+01 0.  1.
</event>
<event>
 5   0  0.6918420E-06  0.2594275E+04  0.7818609E-02  0.8370148E-01
        1   -1    0    0  501    0  0.00000000000E+00  0.00000000000E+00  0.12233379859E+04  0.12233379859E+04  0.50400001928E-02 0. -1.
       -1   -1    0    0    0  501  0.00000000000E+00  0.00000000000E+00 -0.13753892708E+04  0.13753892708E+04  0.50400001928E-02 0.  1.
    10030    2    1    2    0    0  0.00000000000E+00  0.00000000000E+00 -0.15205128486E+03  0.25987272567E+04  0.25942751900E+04 0.  0.
        4    1    3    3  502    0  0.21582653944E+03 -0.12509575442E+04  0.19105609772E+03  0.12837367011E+04  0.12699999809E+01 0. -1.
       -4    1    3    3    0  502 -0.21582653944E+03  0.12509575442E+04 -0.34310738258E+03  0.13149905556E+04  0.12699999809E+01 0.  1.
</event>
<event>
 5   0  0.1681731E-05  0.2579753E+04  0.7818609E-02  0.8375111E-01
        2   -1    0    0  501    0  0.00000000000E+00  0.00000000000E+00  0.12112448267E+04  0.12112448267E+04  0.25500000920E-02 0.  1.
       -2   -1    0    0    0  501  0.00000000000E+00  0.00000000000E+00 -0.13736129644E+04  0.13736129644E+04  0.25500000920E-02 0. -1.
    10030    2    1    2    0    0  0.00000000000E+00  0.00000000000E+00 -0.16236813764E+03  0.25848577911E+04  0.25797531642E+04 0.  0.
        2    1    3    3  502    0  0.10376768002E+04  0.47090071688E+03  0.52438005140E+03  0.12543903161E+04  0.25500000920E-02 0.  1.
       -2    1    3    3    0  502 -0.10376768002E+04 -0.47090071688E+03 -0.68674818904E+03  0.13304674750E+04  0.25500000920E-02 0. -1.
</event>
<event>
 5   0  0.6993678E-06  0.2600121E+04  0.7818609E-02  0.8368160E-01
        1   -1    0    0  501    0  0.00000000000E+00  0.00000000000E+00  0.15680902683E+04  0.15680902683E+04  0.50400001928E-02 0.  1.
       -1   -1    0    0    0  501  0.00000000000E+00  0.00000000000E+00 -0.10778446876E+04  0.10778446876E+04  0.50400001928E-02 0. -1.
    10030    2    1    2    0    0  0.00000000000E+00  0.00000000000E+00  0.49024558071E+03  0.26459349559E+04  0.26001213551E+04 0.  0.
        1    1    3    3  502    0  0.77716328013E+03  0.74508415540E+03 -0.49643135499E+03  0.11855704335E+04  0.50400001928E-02 0. -1.
       -1    1    3    3    0  502 -0.77716328013E+03 -0.74508415540E+03  0.98667693569E+03  0.14603645223E+04  0.50400001928E-02 0.  1.
</event>
<event>
 5   0  0.1681731E-05  0.2570979E+04  0.7818609E-02  0.8378126E-01
        2   -1    0    0  501    0  0.00000000000E+00  0.00000000000E+00  0.17925768704E+04  0.17925768704E+04  0.25500000920E-02 0. -1.
       -2   -1    0    0    0  501  0.00000000000E+00  0.00000000000E+00 -0.92184767602E+03  0.92184767603E+03  0.25500000920E-02 0.  1.
    10030    2    1    2    0    0  0.00000000000E+00  0.00000000000E+00  0.87072919439E+03  0.27144245464E+04  0.25709786635E+04 0.  0.
        2    1    3    3  502    0  0.71018807844E+03 -0.75853074952E+03 -0.36366091061E+03  0.11009020223E+04  0.25500000920E-02 0.  1.
       -2    1    3    3    0  502 -0.71018807844E+03  0.75853074952E+03  0.12343901050E+04  0.16135225242E+04  0.25500000920E-02 0. -1.
</event>
<event>
 5   0  0.1681731E-05  0.2598496E+04  0.7818609E-02  0.8368712E-01
        2   -1    0    0  501    0  0.00000000000E+00  0.00000000000E+00  0.15707815798E+04  0.15707815798E+04  0.25500000920E-02 0.  1.
       -2   -1    0    0    0  501  0.00000000000E+00  0.00000000000E+00 -0.10746531994E+04  0.10746531994E+04  0.25500000920E-02 0. -1.
    10030    2    1    2    0    0  0.00000000000E+00  0.00000000000E+00  0.49612838046E+03  0.26454347792E+04  0.25984960653E+04 0.  0.
        2    1    3    3  502    0 -0.41406892941E+03 -0.98925171267E+03  0.99478010075E+03  0.14627574912E+04  0.25500000920E-02 0.  1.
       -2    1    3    3    0  502  0.41406892941E+03  0.98925171267E+03 -0.49865172030E+03  0.11826772880E+04  0.25500000920E-02 0. -1.
</event>
<event>
 5   0  0.1681731E-05  0.2596819E+04  0.7818609E-02  0.8369282E-01
        2   -1    0    0  501    0  0.00000000000E+00  0.00000000000E+00  0.11457432547E+04  0.11457432547E+04  0.25500000920E-02 0. -1.
       -2   -1    0    0    0  501  0.00000000000E+00  0.00000000000E+00 -0.14714185370E+04  0.14714185370E+04  0.25500000920E-02 0.  1.
    10030    2    1    2    0    0  0.00000000000E+00  0.00000000000E+00 -0.32567528233E+03  0.26171617917E+04  0.25968194882E+04 0.  0.
        2    1    3    3  502    0  0.11101565551E+04 -0.64392034313E+03 -0.36132425560E+03  0.13332802417E+04  0.25500000920E-02 0.  1.
       -2    1    3    3    0  502 -0.11101565551E+04  0.64392034313E+03  0.35648973273E+02  0.12838815500E+04  0.25500000920E-02 0. -1.
</event>
<event>
 5   0  0.1702345E-05  0.2603677E+04  0.7818609E-02  0.8366953E-01
        2   -1    0    0  501    0  0.00000000000E+00  0.00000000000E+00  0.18699744642E+04  0.18699744642E+04  0.25500000920E-02 0. -1.
       -2   -1    0    0    0  501  0.00000000000E+00  0.00000000000E+00 -0.90631341938E+03  0.90631341938E+03  0.25500000920E-02 0.  1.
    10030    2    1    2    0    0  0.00000000000E+00  0.00000000000E+00  0.96366104485E+03  0.27762878836E+04  0.26036765935E+04 0.  0.
        1    1    3    3  502    0  0.55186147621E+03 -0.29725210517E+03 -0.73480859801E+03  0.96584345455E+03  0.50400001928E-02 0.  1.
       -1    1    3    3    0  502 -0.55186147621E+03  0.29725210517E+03  0.16984696429E+04  0.18104444291E+04  0.50400001928E-02 0. -1.
</event>
<event>
 5   0  0.7138294E-06  0.2604078E+04  0.7818609E-02  0.8366817E-01
       -1   -1    0    0    0  501  0.00000000000E+00  0.00000000000E+00  0.91150838534E+03  0.91150838536E+03  0.50400001928E-02 0. -1.
        1   -1    0    0  501    0  0.00000000000E+00  0.00000000000E+00 -0.18598908432E+04  0.18598908432E+04  0.50400001928E-02 0.  1.
    10030    2    1    2    0    0  0.00000000000E+00  0.00000000000E+00 -0.94838245789E+03  0.27713992286E+04  0.26040784162E+04 0.  0.
        2    1    3    3  502    0  0.49528424731E+03  0.37967198894E+03 -0.16903533708E+04  0.18018745304E+04  0.25500000920E-02 0.  1.
       -2    1    3    3    0  502 -0.49528424731E+03 -0.37967198894E+03  0.74197091296E+03  0.96952469824E+03  0.25500000920E-02 0. -1.
</event>
<event>
 5   0  0.1677971E-05  0.2596485E+04  0.7818609E-02  0.8369396E-01
        2   -1    0    0  501    0  0.00000000000E+00  0.00000000000E+00  0.13417512825E+04  0.13417512825E+04  0.25500000920E-02 0. -1.
       -2   -1    0    0    0  501  0.00000000000E+00  0.00000000000E+00 -0.12561441968E+04  0.12561441968E+04  0.25500000920E-02 0.  1.
    10030    2    1    2    0    0  0.00000000000E+00  0.00000000000E+00  0.85607085668E+02  0.25978954793E+04  0.25964846135E+04 0.  0.
        4    1    3    3  502    0  0.10249879920E+04  0.79619389479E+03  0.72925921371E+02  0.12999403466E+04  0.12699999809E+01 0. -1.
       -4    1    3    3    0  502 -0.10249879920E+04 -0.79619389479E+03  0.12681164297E+02  0.12979551327E+04  0.12699999809E+01 0.  1.
</event>
<event>
 5   0  0.1869956E-05  0.2334790E+04  0.7818609E-02  0.8464329E-01
       -2   -1    0    0    0  501  0.00000000000E+00  0.00000000000E+00  0.63377480017E+03  0.63377480018E+03  0.25500000920E-02 0. -1.
        2   -1    0    0  501    0  0.00000000000E+00  0.00000000000E+00 -0.21503088469E+04  0.21503088469E+04  0.25500000920E-02 0.  1.
    10030    2    1    2    0    0  0.00000000000E+00  0.00000000000E+00 -0.15165340467E+04  0.27840836471E+04  0.23347904058E+04 0.  0.
        5    1    3    3  502    0 -0.31533792040E+03  0.10928796655E+04 -0.10714155203E+04  0.15626187233E+04  0.46999998093E+01 0.  1.
       -5    1    3    3    0  502  0.31533792040E+03 -0.10928796655E+04 -0.44511852645E+03  0.12214649238E+04  0.46999998093E+01 0. -1.
</event>
<event>
 5   0  0.6984287E-06  0.2597624E+04  0.7818609E-02  0.8369009E-01
       -1   -1    0    0    0  501  0.00000000000E+00  0.00000000000E+00  0.97825894198E+03  0.97825894199E+03  0.50400001928E-02 0.  1.
        1   -1    0    0  501    0  0.00000000000E+00  0.00000000000E+00 -0.17244032482E+04  0.17244032482E+04  0.50400001928E-02 0. -1.
    10030    2    1    2    0    0  0.00000000000E+00  0.00000000000E+00 -0.74614430625E+03  0.27026621902E+04  0.25976242201E+04 0.  0.
        3    1    3    3  502    0  0.89359986755E+03  0.51965260404E+03  0.44507946688E+03  0.11254578154E+04  0.10100000352E+00 0.  1.
       -3    1    3    3    0  502 -0.89359986755E+03 -0.51965260404E+03 -0.11912237731E+04  0.15772043748E+04  0.10100000352E+00 0. -1.
</event>
<event>
 5   0  0.1869956E-05  0.2587537E+04  0.7818609E-02  0.8372447E-01
        2   -1    0    0  501    0  0.00000000000E+00  0.00000000000E+00  0.12996182554E+04  0.12996182554E+04  0.25500000920E-02 0. -1.
       -2   -1    0    0    0  501  0.00000000000E+00  0.00000000000E+00 -0.12879453741E+04  0.12879453741E+04  0.25500000920E-02 0.  1.
    10030    2    1    2    0    0  0.00000000000E+00  0.00000000000E+00  0.11672881323E+02  0.25875636295E+04  0.25875373003E+04 0.  0.
        5    1    3    3  502    0  0.12731496078E+04 -0.14727864796E+03 -0.17084106600E+03  0.12929847965E+04  0.46999998093E+01 0.  1.
       -5    1    3    3    0  502 -0.12731496078E+04  0.14727864796E+03  0.18251394733E+03  0.12945788331E+04  0.46999998093E+01 0. -1.
</event>
<event>
 5   0  0.6706225E-06  0.2622483E+04  0.7818609E-02  0.8360604E-01
       -1   -1    0    0    0  501  0.00000000000E+00  0.00000000000E+00  0.16237832423E+04  0.16237832424E+04  0.50400001928E-02 0.  1.
        1   -1    0    0  501    0  0.00000000000E+00  0.00000000000E+00 -0.10588569066E+04  0.10588569066E+04  0.50400001928E-02 0. -1.
    10030    2    1    2    0    0  0.00000000000E+00  0.00000000000E+00  0.56492633574E+03  0.26826401490E+04  0.26224828701E+04 0.  0.
        5    1    3    3  502    0  0.78007589861E+03 -0.85747179018E+03 -0.34442050333E+03  0.12093071784E+04  0.46999998093E+01 0. -1.
       -5    1    3    3    0  502 -0.78007589861E+03  0.85747179018E+03  0.90934683907E+03  0.14733329706E+04  0.46999998093E+01 0.  1.
</event>
<event>
 5   0  0.1869956E-05  0.2602782E+04  0.7818609E-02  0.8367257E-01
       -2   -1    0    0    0  501  0.00000000000E+00  0.00000000000E+00  0.77880075396E+03  0.77880075397E+03  0.25500000920E-02 0.  1.
        2   -1    0    0  501    0  0.00000000000E+00  0.00000000000E+00 -0.21746492626E+04  0.21746492626E+04  0.25500000920E-02 0. -1.
    10030    2    1    2    0    0  0.00000000000E+00  0.00000000000E+00 -0.13958485086E+04  0.29534500165E+04  0.26027819619E+04 0.  0.
        5    1    3    3  502    0  0.97689458701E+03 -0.40263926882E+03 -0.15599853794E+04  0.18841491154E+04  0.46999998093E+01 0. -1.
       -5    1    3    3    0  502 -0.97689458701E+03  0.40263926882E+03  0.16413687080E+03  0.10693009012E+04  0.46999998093E+01 0.  1.
</event>
<event>
 5   0  0.1681731E-05  0.2625370E+04  0.7818609E-02  0.8359634E-01
        2   -1    0    0  501    0  0.00000000000E+00  0.00000000000E+00  0.12298121225E+04  0.12298121225E+04  0.25500000920E-02 0.  1.
       -2   -1    0    0    0  501  0.00000000000E+00  0.00000000000E+00 -0.14011425363E+04  0.14011425363E+04  0.25500000920E-02 0. -1.
    10030    2    1    2    0    0  0.00000000000E+00  0.00000000000E+00 -0.17133041376E+03  0.26309546588E+04  0.26253701275E+04 0.  0.
        2    1    3    3  502    0  0.11176267955E+04 -0.54414855796E+03  0.33707897617E+03  0.12879478030E+04  0.25500000920E-02 0.  1.
       -2    1    3    3    0  502 -0.11176267955E+04  0.54414855796E+03 -0.50840938993E+03  0.13430068558E+04  0.25500000920E-02 0. -1.
</event>
<event>
 5   0  0.6993678E-06  0.2289302E+04  0.7818609E-02  0.8482151E-01
       -1   -1    0    0    0  501  0.00000000000E+00  0.00000000000E+00  0.66250319109E+03  0.66250319111E+03  0.50400001928E-02 0. -1.
        1   -1    0    0  501    0  0.00000000000E+00  0.00000000000E+00 -0.19776900887E+04  0.19776900887E+04  0.50400001928E-02 0.  1.
    10030    2    1    2    0    0  0.00000000000E+00  0.00000000000E+00 -0.13151868976E+04  0.26401932798E+04  0.22893020725E+04 0.  0.
        1    1    3    3  502    0  0.14482252158E+03  0.87221393336E+03 -0.14959971348E+04  0.17377393751E+04  0.50400001928E-02 0.  1.
       -1    1    3    3    0  502 -0.14482252158E+03 -0.87221393336E+03  0.18081023718E+03  0.90245390475E+03  0.50400001928E-02 0. -1.
</event>
<event>
 5   0  0.6984287E-06  0.2589011E+04  0.7818609E-02  0.8371943E-01
        1   -1    0    0  501    0  0.00000000000E+00  0.00000000000E+00  0.26691888254E+04  0.26691888254E+04  0.50400001928E-02 0.  1.
       -1   -1    0    0    0  501  0.00000000000E+00  0.00000000000E+00 -0.62781053765E+03  0.62781053767E+03  0.50400001928E-02 0. -1.
    10030    2    1    2    0    0  0.00000000000E+00  0.00000000000E+00  0.20413782877E+04  0.32969993630E+04  0.25890112951E+04 0.  0.
        3    1    3    3  502    0  0.61116811751E+03 -0.27046585032E+03 -0.39110907477E+03  0.77436720141E+03  0.10100000352E+00 0. -1.
       -3    1    3    3    0  502 -0.61116811751E+03  0.27046585032E+03  0.24324873625E+04  0.25226321616E+04  0.10100000352E+00 0.  1.
</event>
<event>
 5   0  0.1677971E-05  0.2590399E+04  0.7818609E-02  0.8371470E-01
       -2   -1    0    0    0  501  0.00000000000E+00  0.00000000000E+00  0.83571821622E+03  0.83571821623E+03  0.25500000920E-02 0.  1.
        2   -1    0    0  501    0  0.00000000000E+00  0.00000000000E+00 -0.20073053936E+04  0.20073053936E+04  0.25500000920E-02 0. -1.
    10030    2    1    2    0    0  0.00000000000E+00  0.00000000000E+00 -0.11715871774E+04  0.28430236098E+04  0.25903989523E+04 0.  0.
        4    1    3    3  502    0  0.10047848749E+04 -0.76778522139E+02  0.30722401524E+03  0.10535064284E+04  0.12699999809E+01 0.  1.
       -4    1    3    3    0  502 -0.10047848749E+04  0.76778522139E+02 -0.14788111926E+04  0.17895171814E+04  0.12699999809E+01 0. -1.
</event>
<event>
 5   0  0.1677971E-05  0.2632855E+04  0.7818609E-02  0.8357126E-01
        2   -1    0    0  501    0  0.00000000000E+00  0.00000000000E+00  0.14994759635E+04  0.14994759635E+04  0.25500000920E-02 0.  1.
       -2   -1    0    0    0  501  0.00000000000E+00  0.00000000000E+00 -0.11557246814E+04  0.11557246814E+04  0.25500000920E-02 0. -1.
    10030    2    1    2    0    0  0.00000000000E+00  0.00000000000E+00  0.34375128205E+03  0.26552006449E+04  0.26328550132E+04 0.  0.
        4    1    3    3  502    0 -0.11749377411E+03 -0.26121656305E+03 -0.11239189498E+04  0.11598423593E+04  0.12699999809E+01 0. -1.
       -4    1    3    3    0  502  0.11749377411E+03  0.26121656305E+03  0.14676702319E+04  0.14953582856E+04  0.12699999809E+01 0.  1.
</event>
<event>
 5   0  0.1702345E-05  0.2723499E+04  0.7818609E-02  0.8327420E-01
        2   -1    0    0  501    0  0.00000000000E+00  0.00000000000E+00  0.18667128895E+04  0.18667128895E+04  0.25500000920E-02 0. -1.
       -2   -1    0    0    0  501  0.00000000000E+00  0.00000000000E+00 -0.99338378989E+03  0.99338378989E+03  0.25500000920E-02 0.  1.
    10030    2    1    2    0    0  0.00000000000E+00  0.00000000000E+00  0.87332909959E+03  0.28600966794E+04  0.27234994583E+04 0.  0.
        1    1    3    3  502    0  0.99436151178E+02 -0.13527484744E+04  0.56332187536E+03  0.14687230911E+04  0.50400001928E-02 0. -1.
       -1    1    3    3    0  502 -0.99436151178E+02  0.13527484744E+04  0.31000722423E+03  0.13913735883E+04  0.50400001928E-02 0.  1.
</event>
<event>
 5   0  0.1869956E-05  0.2513772E+04  0.7818609E-02  0.8398095E-01
        2   -1    0    0  501    0  0.00000000000E+00  0.00000000000E+00  0.10299329278E+04  0.10299329278E+04  0.25500000920E-02 0. -1.
       -2   -1    0    0    0  501  0.00000000000E+00  0.00000000000E+00 -0.15338500390E+04  0.15338500390E+04  0.25500000920E-02 0.  1.
    10030    2    1    2    0    0  0.00000000000E+00  0.00000000000E+00 -0.50391711123E+03  0.25637829667E+04  0.25137721944E+04 0.  0.
        5    1    3    3  502    0 -0.77058116476E+03  0.92180304046E+03  0.12447019206E+03  0.12079035953E+04  0.46999998093E+01 0. -1.
       -5    1    3    3    0  502  0.77058116476E+03 -0.92180304046E+03 -0.62838730329E+03  0.13558793714E+04  0.46999998093E+01 0.  1.
</event>
<event>
 5   0  0.6984287E-06  0.2596197E+04  0.7818609E-02  0.8369494E-01
       -1   -1    0    0    0  501  0.00000000000E+00  0.00000000000E+00  0.63701992325E+03  0.63701992327E+03  0.50400001928E-02 0.  1.
        1   -1    0    0  501    0  0.00000000000E+00  0.00000000000E+00 -0.26452224770E+04  0.26452224771E+04  0.50400001928E-02 0. -1.
    10030    2    1    2    0    0  0.00000000000E+00  0.00000000000E+00 -0.20082025538E+04  0.32822424003E+04  0.25961967717E+04 0.  0.
        3    1    3    3  502    0 -0.11663906025E+04  0.45634780654E+03 -0.14353182078E+04  0.19049563580E+04  0.10100000352E+00 0. -1.
       -3    1    3    3    0  502  0.11663906025E+04 -0.45634780654E+03 -0.57288434602E+03  0.13772860423E+04  0.10100000352E+00 0.  1.
</event>
<event>
 5   0  0.6993678E-06  0.2614624E+04  0.7818609E-02  0.8363251E-01
        1   -1    0    0  501    0  0.00000000000E+00  0.00000000000E+00  0.12194961443E+04  0.12194961443E+04  0.50400001928E-02 0.  1.
       -1   -1    0    0    0  501  0.00000000000E+00  0.00000000000E+00 -0.14014511988E+04  0.14014511988E+04  0.50400001928E-02 0. -1.
    10030    2    1    2    0    0  0.00000000000E+00  0.00000000000E+00 -0.18195505449E+03  0.26209473431E+04  0.26146237461E+04 0.  0.
        1    1    3    3  502    0 -0.19924075955E+03 -0.28104237216E+03 -0.13551313072E+04  0.13982355148E+04  0.50400001928E-02 0. -1.
       -1    1    3    3    0  502  0.19924075955E+03  0.28104237216E+03  0.11731762527E+04  0.12227118283E+04  0.50400001928E-02 0.  1.
</event>
<event>
 5   0  0.1681731E-05  0.2585650E+04  0.7818609E-02  0.8373092E-01
        2   -1    0    0  501    0  0.00000000000E+00  0.00000000000E+00  0.19399482671E+04  0.19399482671E+04  0.25500000920E-02 0.  1.
       -2   -1    0    0    0  501  0.00000000000E+00  0.00000000000E+00 -0.86156773943E+03  0.86156773943E+03  0.25500000920E-02 0. -1.
    10030    2    1    2    0    0  0.00000000000E+00  0.00000000000E+00  0.10783805277E+04  0.28015160066E+04  0.25856502804E+04 0.  0.
        2    1    3    3  502    0  0.10957593181E+04  0.11284631481E+03  0.12724262444E+04  0.16830006897E+04  0.25500000920E-02 0.  1.
       -2    1    3    3    0  502 -0.10957593181E+04 -0.11284631481E+03 -0.19404571673E+03  0.11185153169E+04  0.25500000920E-02 0. -1.
</event>
<event>
 5   0  0.6706225E-06  0.2601067E+04  0.7818609E-02  0.8367839E-01
        1   -1    0    0  501    0  0.00000000000E+00  0.00000000000E+00  0.10953355836E+04  0.10953355836E+04  0.50400001928E-02 0.  1.
       -1   -1    0    0    0  501  0.00000000000E+00  0.00000000000E+00 -0.15441722268E+04  0.15441722268E+04  0.50400001928E-02 0. -1.
    10030    2    1    2    0    0  0.00000000000E+00  0.00000000000E+00 -0.44883664322E+03  0.26395078104E+04  0.26010665406E+04 0.  0.
        5    1    3    3  502    0 -0.25721849251E+03 -0.10594473739E+03  0.10647820928E+04  0.11005310697E+04  0.46999998093E+01 0.  1.
       -5    1    3    3    0  502  0.25721849251E+03  0.10594473739E+03 -0.15136187360E+04  0.15389767407E+04  0.46999998093E+01 0. -1.
</event>
<event>
 5   0  0.6984287E-06  0.2555394E+04  0.7818609E-02  0.8383513E-01
        1   -1    0    0  501    0  0.00000000000E+00  0.00000000000E+00  0.18258449183E+04  0.18258449183E+04  0.50400001928E-02 0. -1.
       -1   -1    0    0    0  501  0.00000000000E+00  0.00000000000E+00 -0.89411163568E+03  0.89411163570E+03  0.50400001928E-02 0.  1.
    10030    2    1    2    0    0  0.00000000000E+00  0.00000000000E+00  0.93173328265E+03  0.27199565540E+04  0.25553936577E+04 0.  0.
        3    1    3    3  502    0 -0.96087660054E+03  0.46674116379E+03  0.12119923732E+04  0.16155669835E+04  0.10100000352E+00 0. -1.
       -3    1    3    3    0  502  0.96087660054E+03 -0.46674116379E+03 -0.28025909050E+03  0.11043895705E+04  0.10100000352E+00 0.  1.
</event>
<event>
 5   0  0.7138294E-06  0.2566798E+04  0.7818609E-02  0.8379568E-01
        1   -1    0    0  501    0  0.00000000000E+00  0.00000000000E+00  0.13029516751E+04  0.13029516751E+04  0.50400001928E-02 0. -1.
       -1   -1    0    0    0  501  0.00000000000E+00  0.00000000000E+00 -0.12641392953E+04  0.12641392953E+04  0.50400001928E-02 0.  1.
    10030    2    1    2    0    0  0.00000000000E+00  0.00000000000E+00  0.38812379808E+02  0.25670909705E+04  0.25667975475E+04 0.  0.
        2    1    3    3  502    0  0.13609353756E+03 -0.80303003489E+03  0.10113530877E+04  0.12985429357E+04  0.25500000920E-02 0. -1.
       -2    1    3    3    0  502 -0.13609353756E+03  0.80303003489E+03 -0.97254070791E+03  0.12685480347E+04  0.25500000920E-02 0.  1.
</event>
<event>
 5   0  0.1681731E-05  0.2626632E+04  0.7818609E-02  0.8359211E-01
       -2   -1    0    0    0  501  0.00000000000E+00  0.00000000000E+00  0.21053845782E+04  0.21053845782E+04  0.25500000920E-02 0. -1.
        2   -1    0    0  501    0  0.00000000000E+00  0.00000000000E+00 -0.81923205105E+03  0.81923205106E+03  0.25500000920E-02 0.  1.
    10030    2    1    2    0    0  0.00000000000E+00  0.00000000000E+00  0.12861525271E+04  0.29246166292E+04  0.26266317033E+04 0.  0.
        2    1    3    3  502    0  0.96285339137E+03 -0.33954850272E+03  0.15628801042E+04  0.18668085224E+04  0.25500000920E-02 0. -1.
       -2    1    3    3    0  502 -0.96285339137E+03  0.33954850272E+03 -0.27672757712E+03  0.10578081069E+04  0.25500000920E-02 0.  1.
</event>
<event>
 5   0  0.1720129E-05  0.2625776E+04  0.7818609E-02  0.8359498E-01
        2   -1    0    0  501    0  0.00000000000E+00  0.00000000000E+00  0.15962356381E+04  0.15962356381E+04  0.25500000920E-02 0.  1.
       -2   -1    0    0    0  501  0.00000000000E+00  0.00000000000E+00 -0.10798369759E+04  0.10798369759E+04  0.25500000920E-02 0. -1.
    10030    2    1    2    0    0  0.00000000000E+00  0.00000000000E+00  0.51639866224E+03  0.26760726140E+04  0.26257755154E+04 0.  0.
        3    1    3    3  502    0 -0.81970483189E+03 -0.99861719615E+02  0.12984297098E+04  0.15387683698E+04  0.10100000352E+00 0.  1.
       -3    1    3    3    0  502  0.81970483189E+03  0.99861719615E+02 -0.78203104753E+03  0.11373042442E+04  0.10100000352E+00 0. -1.
</event>
<event>
 5   0  0.6706225E-06  0.2614988E+04  0.7818609E-02  0.8363128E-01
       -1   -1    0    0    0  501  0.00000000000E+00  0.00000000000E+00  0.14485795449E+04  0.14485795450E+04  0.50400001928E-02 0. -1.
        1   -1    0    0  501    0  0.00000000000E+00  0.00000000000E+00 -0.11801497364E+04  0.11801497364E+04  0.50400001928E-02 0.  1.
    10030    2    1    2    0    0  0.00000000000E+00  0.00000000000E+00  0.26842980851E+03  0.26287292814E+04  0.26149881592E+04 0.  0.
        5    1    3    3  502    0 -0.59270835338E+03 -0.11654243462E+04  0.13547821810E+03  0.13144936426E+04  0.46999998093E+01 0. -1.
       -5    1    3    3    0  502  0.59270835338E+03  0.11654243462E+04  0.13295159041E+03  0.13142356388E+04  0.46999998093E+01 0.  1.
</event>
<event>
 5   0  0.6993678E-06  0.2581365E+04  0.7818609E-02  0.8374559E-01
        1   -1    0    0  501    0  0.00000000000E+00  0.00000000000E+00  0.14320513437E+04  0.14320513437E+04  0.50400001928E-02 0.  1.
       -1   -1    0    0    0  501  0.00000000000E+00  0.00000000000E+00 -0.11632693220E+04  0.11632693220E+04  0.50400001928E-02 0. -1.
    10030    2    1    2    0    0  0.00000000000E+00  0.00000000000E+00  0.26878202170E+03  0.25953206658E+04  0.25813650619E+04 0.  0.
        1    1    3    3  502    0 -0.19543748652E+03  0.12561589667E+04  0.35859939709E+03  0.13208802703E+04  0.50400001928E-02 0.  1.
       -1    1    3    3    0  502  0.19543748652E+03 -0.12561589667E+04 -0.89817375383E+02  0.12744403955E+04  0.50400001928E-02 0. -1.
</event>
<event>
 5   0  0.6706225E-06  0.2589060E+04  0.7818609E-02  0.8371927E-01
        1   -1    0    0  501    0  0.00000000000E+00  0.00000000000E+00  0.17205777851E+04  0.17205777851E+04  0.50400001928E-02 0. -1.
       -1   -1    0    0    0  501  0.00000000000E+00  0.00000000000E+00 -0.97397999423E+03  0.97397999425E+03  0.50400001928E-02 0.  1.
    10030    2    1    2    0    0  0.00000000000E+00  0.00000000000E+00  0.74659779089E+03  0.26945577794E+04  0.25890603247E+04 0.  0.
        5    1    3    3  502    0 -0.21897388423E+03 -0.16087974313E+02 -0.95445082501E+03  0.97939106196E+03  0.46999998093E+01 0.  1.
       -5    1    3    3    0  502  0.21897388423E+03  0.16087974313E+02  0.17010486159E+04  0.17151667174E+04  0.46999998093E+01 0. -1.
</event>
<event>
 5   0  0.1869956E-05  0.2602151E+04  0.7818609E-02  0.8367471E-01
       -2   -1    0    0    0  501  0.00000000000E+00  0.00000000000E+00  0.67120050346E+03  0.67120050346E+03  0.25500000920E-02 0.  1.
        2   -1    0    0  501    0  0.00000000000E+00  0.00000000000E+00 -0.25220439161E+04  0.25220439161E+04  0.25500000920E-02 0. -1.
    10030    2    1    2    0    0  0.00000000000E+00  0.00000000000E+00 -0.18508434127E+04  0.31932444196E+04  0.26021507614E+04 0.  0.
        5    1    3    3  502    0 -0.55230518771E+03  0.50195393795E+03 -0.22332360744E+04  0.23546473686E+04  0.46999998093E+01 0. -1.
       -5    1    3    3    0  502  0.55230518771E+03 -0.50195393795E+03  0.38239266177E+03  0.83859705101E+03  0.46999998093E+01 0.  1.
</event>
<event>
 5   0  0.5840500E-06  0.2640489E+04  0.7818609E-02  0.8354577E-01
        3   -1    0    0  501    0  0.00000000000E+00  0.00000000000E+00  0.65817981648E+03  0.65817982423E+03  0.10100000352E+00 0. -1.
       -3   -1    0    0    0  501  0.00000000000E+00  0.00000000000E+00 -0.26482818452E+04  0.26482818472E+04  0.10100000352E+00 0.  1.
    10030    2    1    2    0    0  0.00000000000E+00  0.00000000000E+00 -0.19901020288E+04  0.33064616714E+04  0.26404891023E+04 0.  0.
        3    1    3    3  502    0  0.29432310319E+03 -0.25313905191E+03 -0.25751963824E+04  0.26042929726E+04  0.10100000352E+00 0.  1.
       -3    1    3    3    0  502 -0.29432310319E+03  0.25313905191E+03  0.58509435369E+03  0.70216869882E+03  0.10100000352E+00 0. -1.
</event>
<event>
 5   0  0.1681731E-05  0.2597742E+04  0.7818609E-02  0.8368969E-01
        2   -1    0    0  501    0  0.00000000000E+00  0.00000000000E+00  0.17399612699E+04  0.17399612699E+04  0.25500000920E-02 0.  1.
       -2   -1    0    0    0  501  0.00000000000E+00  0.00000000000E+00 -0.96959983122E+03  0.96959983122E+03  0.25500000920E-02 0. -1.
    10030    2    1    2    0    0  0.00000000000E+00  0.00000000000E+00  0.77036143865E+03  0.27095611011E+04  0.25977422148E+04 0.  0.
        2    1    3    3  502    0  0.12779636745E+04 -0.28393558933E+02  0.14489799056E+03  0.12864652250E+04  0.25500000920E-02 0.  1.
       -2    1    3    3    0  502 -0.12779636745E+04  0.28393558933E+02  0.62546344810E+03  0.14230958761E+04  0.25500000920E-02 0. -1.
</event>
<event>
 5   0  0.1681731E-05  0.2502830E+04  0.7818609E-02  0.8401978E-01
        2   -1    0    0  501    0  0.00000000000E+00  0.00000000000E+00  0.13513086124E+04  0.13513086124E+04  0.25500000920E-02 0. -1.
       -2   -1    0    0    0  501  0.00000000000E+00  0.00000000000E+00 -0.11589059670E+04  0.11589059670E+04  0.25500000920E-02 0.  1.
    10030    2    1    2    0    0  0.00000000000E+00  0.00000000000E+00  0.19240264547E+03  0.25102145794E+04  0.25028300894E+04 0.  0.
        2    1    3    3  502    0 -0.43364801123E+03 -0.11630485216E+04  0.25575290846E+03  0.12673365817E+04  0.25500000920E-02 0. -1.
       -2    1    3    3    0  502  0.43364801123E+03  0.11630485216E+04 -0.63350262995E+02  0.12428779977E+04  0.25500000920E-02 0.  1.
</event>
<event>
 5   0  0.1869956E-05  0.2590482E+04  0.7818609E-02  0.8371441E-01
        2   -1    0    0  501    0  0.00000000000E+00  0.00000000000E+00  0.15376342508E+04  0.15376342508E+04  0.25500000920E-02 0.  1.
       -2   -1    0    0    0  501  0.00000000000E+00  0.00000000000E+00 -0.10910590208E+04  0.10910590208E+04  0.25500000920E-02 0. -1.
    10030    2    1    2    0    0  0.00000000000E+00  0.00000000000E+00  0.44657522998E+03  0.26286932716E+04  0.25904823644E+04 0.  0.
        5    1    3    3  502    0  0.77166529341E+03 -0.19954089271E+03  0.12592995395E+04  0.14903493929E+04  0.46999998093E+01 0.  1.
       -5    1    3    3    0  502 -0.77166529341E+03  0.19954089271E+03 -0.81272430949E+03  0.11383438787E+04  0.46999998093E+01 0. -1.
</event>
<event>
 5   0  0.1702345E-05  0.2559150E+04  0.7818609E-02  0.8382211E-01
       -2   -1    0    0    0  501  0.00000000000E+00  0.00000000000E+00  0.15357049271E+04  0.15357049271E+04  0.25500000920E-02 0. -1.
        2   -1    0    0  501    0  0.00000000000E+00  0.00000000000E+00 -0.10661635246E+04  0.10661635246E+04  0.25500000920E-02 0.  1.
    10030    2    1    2    0    0  0.00000000000E+00  0.00000000000E+00  0.46954140247E+03  0.26018684517E+04  0.25591503104E+04 0.  0.
        1    1    3    3  502    0 -0.38053137563E+03  0.98010970691E+03  0.97625480738E+03  0.14347447907E+04  0.50400001928E-02 0. -1.
       -1    1    3    3    0  502  0.38053137563E+03 -0.98010970691E+03 -0.50671340491E+03  0.11671236610E+04  0.50400001928E-02 0.  1.
</event>
<event>
 5   0  0.1681731E-05  0.2613336E+04  0.7818609E-02  0.8363685E-01
       -2   -1    0    0    0  501  0.00000000000E+00  0.00000000000E+00  0.10752359828E+04  0.10752359828E+04  0.25500000920E-02 0.  1.
        2   -1    0    0  501    0  0.00000000000E+00  0.00000000000E+00 -0.15879134603E+04  0.15879134603E+04  0.25500000920E-02 0. -1.
    10030    2    1    2    0    0  0.00000000000E+00  0.00000000000E+00 -0.51267747752E+03  0.26631494431E+04  0.26133363275E+04 0.  0.
        2    1    3    3  502    0 -0.92085190524E+03  0.13443276051E+03 -0.11910690670E+04  0.15115177541E+04  0.25500000920E-02 0. -1.
       -2    1    3    3    0  502  0.92085190524E+03 -0.13443276051E+03  0.67839158952E+03  0.11516316890E+04  0.25500000920E-02 0.  1.
</event>
<event>
 5   0  0.1702345E-05  0.2582341E+04  0.7818609E-02  0.8374224E-01
        2   -1    0    0  501    0  0.00000000000E+00  0.00000000000E+00  0.15437998570E+04  0.15437998570E+04  0.25500000920E-02 0. -1.
       -2   -1    0    0    0  501  0.00000000000E+00  0.00000000000E+00 -0.10798817673E+04  0.10798817673E+04  0.25500000920E-02 0.  1.
    10030    2    1    2    0    0  0.00000000000E+00  0.00000000000E+00  0.46391808973E+03  0.26236816243E+04  0.25823410449E+04 0.  0.
        1    1    3    3  502    0 -0.22806503123E+02 -0.10332997675E+04 -0.55431161718E+03  0.11728128218E+04  0.50400001928E-02 0.  1.
       -1    1    3    3    0  502  0.22806503123E+02  0.10332997675E+04  0.10182297069E+04  0.14508688025E+04  0.50400001928E-02 0. -1.
</event>
<event>
 5   0  0.6918420E-06  0.2388129E+04  0.7818609E-02  0.8443961E-01
        1   -1    0    0  501    0  0.00000000000E+00  0.00000000000E+00  0.98860309852E+03  0.98860309853E+03  0.50400001928E-02 0. -1.
       -1   -1    0    0    0  501  0.00000000000E+00  0.00000000000E+00 -0.14422270623E+04  0.14422270623E+04  0.50400001928E-02 0.  1.
    10030    2    1    2    0    0  0.00000000000E+00  0.00000000000E+00 -0.45362396379E+03  0.24308301608E+04  0.23881290942E+04 0.  0.
        4    1    3    3  502    0  0.11129320408E+04  0.34145045161E+03  0.43611874016E+02  0.11649505340E+04  0.12699999809E+01 0.  1.
       -4    1    3    3    0  502 -0.11129320408E+04 -0.34145045161E+03 -0.49723583781E+03  0.12658796268E+04  0.12699999809E+01 0. -1.
</event>
<event>
 5   0  0.6918420E-06  0.2334640E+04  0.7818609E-02  0.8464387E-01
        1   -1    0    0  501    0  0.00000000000E+00  0.00000000000E+00  0.12394248004E+04  0.12394248004E+04  0.50400001928E-02 0. -1.
       -1   -1    0    0    0  501  0.00000000000E+00  0.00000000000E+00 -0.10994098782E+04  0.10994098782E+04  0.50400001928E-02 0.  1.
    10030    2    1    2    0    0  0.00000000000E+00  0.00000000000E+00  0.14001492220E+03  0.23388346785E+04  0.23346399027E+04 0.  0.
        4    1    3    3  502    0  0.65482191378E+03 -0.30315923637E+03  0.98922735947E+03  0.12244466681E+04  0.12699999809E+01 0. -1.
       -4    1    3    3    0  502 -0.65482191378E+03  0.30315923637E+03 -0.84921243726E+03  0.11143880105E+04  0.12699999809E+01 0.  1.
</event>
<event>
 5   0  0.6918420E-06  0.2592137E+04  0.7818609E-02  0.8370877E-01
       -1   -1    0    0    0  501  0.00000000000E+00  0.00000000000E+00  0.12859968059E+04  0.12859968059E+04  0.50400001928E-02 0. -1.
        1   -1    0    0  501    0  0.00000000000E+00  0.00000000000E+00 -0.13062193065E+04  0.13062193065E+04  0.50400001928E-02 0.  1.
    10030    2    1    2    0    0  0.00000000000E+00  0.00000000000E+00 -0.20222500659E+02  0.25922161124E+04  0.25921372309E+04 0.  0.
        4    1    3    3  502    0 -0.10988415128E+04  0.46776485045E+03  0.49342727696E+03  0.12921798312E+04  0.12699999809E+01 0. -1.
       -4    1    3    3    0  502  0.10988415128E+04 -0.46776485045E+03 -0.51364977762E+03  0.13000362812E+04  0.12699999809E+01 0.  1.
</event>
<event>
 5   0  0.1677971E-05  0.2626820E+04  0.7818609E-02  0.8359148E-01
        2   -1    0    0  501    0  0.00000000000E+00  0.00000000000E+00  0.15845678774E+04  0.15845678774E+04  0.25500000920E-02 0. -1.
       -2   -1    0    0    0  501  0.00000000000E+00  0.00000000000E+00 -0.10886535645E+04  0.10886535645E+04  0.25500000920E-02 0.  1.
    10030    2    1    2    0    0  0.00000000000E+00  0.00000000000E+00  0.49591431289E+03  0.26732214419E+04  0.26268197258E+04 0.  0.
        4    1    3    3  502    0  0.27098303059E+03  0.65376734396E+03  0.13739377618E+04  0.15454934904E+04  0.12699999809E+01 0. -1.
       -4    1    3    3    0  502 -0.27098303059E+03 -0.65376734396E+03 -0.87802344887E+03  0.11277279515E+04  0.12699999809E+01 0.  1.
</event>
<event>
 5   0  0.6706225E-06  0.2399743E+04  0.7818609E-02  0.8439600E-01
       -1   -1    0    0    0  501  0.00000000000E+00  0.00000000000E+00  0.15626091532E+04  0.15626091532E+04  0.50400001928E-02 0.  1.
        1   -1    0    0  501    0  0.00000000000E+00  0.00000000000E+00 -0.92133845540E+03  0.92133845541E+03  0.50400001928E-02 0. -1.
    10030    2    1    2    0    0  0.00000000000E+00  0.00000000000E+00  0.64127069779E+03  0.24839476086E+04  0.23997432393E+04 0.  0.
        5    1    3    3  502    0 -0.37420721468E+03  0.95577438194E+03 -0.32256568764E+03  0.10759211967E+04  0.46999998093E+01 0. -1.
       -5    1    3    3    0  502  0.37420721468E+03 -0.95577438194E+03  0.96383638544E+03  0.14080264119E+04  0.46999998093E+01 0.  1.
</event>
<event>
 5   0  0.7138294E-06  0.2530790E+04  0.7818609E-02  0.8392098E-01
       -1   -1    0    0    0  501  0.00000000000E+00  0.00000000000E+00  0.12492271761E+04  0.12492271761E+04  0.50400001928E-02 0. -1.
        1   -1    0    0  501    0  0.00000000000E+00  0.00000000000E+00 -0.12817722001E+04  0.12817722001E+04  0.50400001928E-02 0.  1.
    10030    2    1    2    0    0  0.00000000000E+00  0.00000000000E+00 -0.32545024043E+02  0.25309993763E+04  0.25307901264E+04 0.  0.
        2    1    3    3  502    0  0.53253090955E+03  0.67960347030E+03 -0.94142987109E+03  0.12773958856E+04  0.25500000920E-02 0.  1.
       -2    1    3    3    0  502 -0.53253090955E+03 -0.67960347030E+03  0.90888484704E+03  0.12536034906E+04  0.25500000920E-02 0. -1.
</event>
<event>
 5   0  0.6918420E-06  0.2592080E+04  0.7818609E-02  0.8370896E-01
       -1   -1    0    0    0  501  0.00000000000E+00  0.00000000000E+00  0.78810591788E+03  0.78810591789E+03  0.50400001928E-02 0.  1.
        1   -1    0    0  501    0  0.00000000000E+00  0.00000000000E+00 -0.21313378412E+04  0.21313378412E+04  0.50400001928E-02 0. -1.
    10030    2    1    2    0    0  0.00000000000E+00  0.00000000000E+00 -0.13432319233E+04  0.29194437591E+04  0.25920802192E+04 0.  0.
        4    1    3    3  502    0 -0.63794486966E+03 -0.55516008187E+01 -0.19422399932E+04  0.20443341901E+04  0.12699999809E+01 0. -1.
       -4    1    3    3    0  502  0.63794486966E+03  0.55516008187E+01  0.59900806986E+03  0.87510956894E+03  0.12699999809E+01 0.  1.
</event>
<event>
 5   0  0.6918420E-06  0.2606150E+04  0.7818609E-02  0.8366115E-01
        1   -1    0    0  501    0  0.00000000000E+00  0.00000000000E+00  0.23316166066E+04  0.23316166066E+04  0.50400001928E-02 0. -1.
       -1   -1    0    0    0  501  0.00000000000E+00  0.00000000000E+00 -0.72825202167E+03  0.72825202169E+03  0.50400001928E-02 0.  1.
    10030    2    1    2    0    0  0.00000000000E+00  0.00000000000E+00  0.16033645849E+04  0.30598686283E+04  0.26061500398E+04 0.  0.
        4    1    3    3  502    0  0.28081501008E+03 -0.79482755230E+03 -0.36498984161E+03  0.91860062331E+03  0.12699999809E+01 0.  1.
       -4    1    3    3    0  502 -0.28081501008E+03  0.79482755230E+03  0.19683544265E+04  0.21412680050E+04  0.12699999809E+01 0. -1.
</event>
<event>
 5   0  0.1720129E-05  0.2607888E+04  0.7818609E-02  0.8365527E-01
        2   -1    0    0  501    0  0.00000000000E+00  0.00000000000E+00  0.11188587877E+04  0.11188587877E+04  0.25500000920E-02 0. -1.
       -2   -1    0    0    0  501  0.00000000000E+00  0.00000000000E+00 -0.15196463984E+04  0.15196463984E+04  0.25500000920E-02 0.  1.
    10030    2    1    2    0    0  0.00000000000E+00  0.00000000000E+00 -0.40078761069E+03  0.26385051860E+04  0.26078878250E+04 0.  0.
        3    1    3    3  502    0 -0.67313097440E+03 -0.96032692238E+03 -0.77711826136E+03  0.14068567478E+04  0.10100000352E+00 0.  1.
       -3    1    3    3    0  502  0.67313097440E+03  0.96032692238E+03  0.37633065067E+03  0.12316484382E+04  0.10100000352E+00 0. -1.
</event>
<event>
 5   0  0.7138294E-06  0.2643729E+04  0.7818609E-02  0.8353497E-01
       -1   -1    0    0    0  501  0.00000000000E+00  0.00000000000E+00  0.14431353593E+04  0.14431353593E+04  0.50400001928E-02 0. -1.
        1   -1    0    0  501    0  0.00000000000E+00  0.00000000000E+00 -0.12107842883E+04  0.12107842883E+04  0.50400001928E-02 0.  1.
    10030    2    1    2    0    0  0.00000000000E+00  0.00000000000E+00  0.23235107101E+03  0.26539196477E+04  0.26437288961E+04 0.  0.
        2    1    3    3  502    0 -0.15859749659E+03  0.36657541208E+03  0.13811100882E+04  0.14377050374E+04  0.25500000920E-02 0. -1.
       -2    1    3    3    0  502  0.15859749659E+03 -0.36657541208E+03 -0.11487590172E+04  0.12162146103E+04  0.25500000920E-02 0.  1.
</event>
<event>
 5   0  0.1720129E-05  0.2699260E+04  0.7818609E-02  0.8335245E-01
        2   -1    0    0  501    0  0.00000000000E+00  0.00000000000E+00  0.20365706477E+04  0.20365706477E+04  0.25500000920E-02 0.  1.
       -2   -1    0    0    0  501  0.00000000000E+00  0.00000000000E+00 -0.89439638275E+03  0.89439638275E+03  0.25500000920E-02 0. -1.
    10030    2    1    2    0    0  0.00000000000E+00  0.00000000000E+00  0.11421742650E+04  0.29309670305E+04  0.26992602102E+04 0.  0.
        3    1    3    3  502    0 -0.48085090033E+03  0.33246180806E+03 -0.74978503863E+03  0.95075025980E+03  0.10100000352E+00 0. -1.
       -3    1    3    3    0  502  0.48085090033E+03 -0.33246180806E+03  0.18919593036E+04  0.19802167707E+04  0.10100000352E+00 0.  1.
</event>
<event>
 5   0  0.6706225E-06  0.2607153E+04  0.7818609E-02  0.8365776E-01
        1   -1    0    0  501    0  0.00000000000E+00  0.00000000000E+00  0.21854522276E+04  0.21854522276E+04  0.50400001928E-02 0. -1.
       -1   -1    0    0    0  501  0.00000000000E+00  0.00000000000E+00 -0.77755613951E+03  0.77755613953E+03  0.50400001928E-02 0.  1.
    10030    2    1    2    0    0  0.00000000000E+00  0.00000000000E+00  0.14078960881E+04  0.29630083671E+04  0.26071530812E+04 0.  0.
        5    1    3    3  502    0  0.11989270499E+04 -0.50851261378E+03  0.76902208491E+03  0.15124246118E+04  0.46999998093E+01 0. -1.
       -5    1    3    3    0  502 -0.11989270499E+04  0.50851261378E+03  0.63887400317E+03  0.14505837553E+04  0.46999998093E+01 0.  1.
</event>
<event>
 5   0  0.1720129E-05  0.2588431E+04  0.7818609E-02  0.8372142E-01
       -2   -1    0    0    0  501  0.00000000000E+00  0.00000000000E+00  0.93128637162E+03  0.93128637163E+03  0.25500000920E-02 0.  1.
        2   -1    0    0  501    0  0.00000000000E+00  0.00000000000E+00 -0.17985805721E+04  0.17985805721E+04  0.25500000920E-02 0. -1.
    10030    2    1    2    0    0  0.00000000000E+00  0.00000000000E+00 -0.86729420045E+03  0.27298669437E+04  0.25884308567E+04 0.  0.
        3    1    3    3  502    0 -0.50873099054E+03  0.11630603528E+04 -0.69936020277E+03  0.14493520305E+04  0.10100000352E+00 0. -1.
       -3    1    3    3    0  502  0.50873099054E+03 -0.11630603528E+04 -0.16793399767E+03  0.12805149132E+04  0.10100000352E+00 0.  1.
</event>
<event>
 5   0  0.6984287E-06  0.2577460E+04  0.7818609E-02  0.8375898E-01
        1   -1    0    0  501    0  0.00000000000E+00  0.00000000000E+00  0.10073893005E+04  0.10073893005E+04  0.50400001928E-02 0. -1.
       -1   -1    0    0    0  501  0.00000000000E+00  0.00000000000E+00 -0.16486423047E+04  0.16486423047E+04  0.50400001928E-02 0.  1.
    10030    2    1    2    0    0  0.00000000000E+00  0.00000000000E+00 -0.64125300417E+03  0.26560316052E+04  0.25774596937E+04 0.  0.
        3    1    3    3  502    0  0.65002239895E+03  0.72010024604E+03  0.55361723960E+03  0.11169447353E+04  0.10100000352E+00 0. -1.
       -3    1    3    3    0  502 -0.65002239895E+03 -0.72010024604E+03 -0.11948702438E+04  0.15390868699E+04  0.10100000352E+00 0.  1.
</event>
<event>
 5   0  0.6706225E-06  0.2571663E+04  0.7818609E-02  0.8377891E-01
        1   -1    0    0  501    0  0.00000000000E+00  0.00000000000E+00  0.24997116122E+04  0.24997116122E+04  0.50400001928E-02 0. -1.
       -1   -1    0    0    0  501  0.00000000000E+00  0.00000000000E+00 -0.66142119975E+03  0.66142119977E+03  0.50400001928E-02 0.  1.
    10030    2    1    2    0    0  0.00000000000E+00  0.00000000000E+00  0.18382904125E+04  0.31611328120E+04  0.25716626945E+04 0.  0.
        5    1    3    3  502    0  0.44979715353E+03 -0.12383705456E+03 -0.55370517700E+03  0.72406119109E+03  0.46999998093E+01 0.  1.
       -5    1    3    3    0  502 -0.44979715353E+03  0.12383705456E+03  0.23919955895E+04  0.24370716209E+04  0.46999998093E+01 0. -1.
</event>
<event>
 5   0  0.1720129E-05  0.2601134E+04  0.7818609E-02  0.8367816E-01
        2   -1    0    0  501    0  0.00000000000E+00  0.00000000000E+00  0.23510990979E+04  0.23510990979E+04  0.25500000920E-02 0.  1.
       -2   -1    0    0    0  501  0.00000000000E+00  0.00000000000E+00 -0.71943983911E+03  0.71943983912E+03  0.25500000920E-02 0. -1.
    10030    2    1    2    0    0  0.00000000000E+00  0.00000000000E+00  0.16316592588E+04  0.30705389370E+04  0.26011338733E+04 0.  0.
        3    1    3    3  502    0 -0.75376631028E+03 -0.69242563541E+03  0.17630406928E+04  0.20386096747E+04  0.10100000352E+00 0.  1.
       -3    1    3    3    0  502  0.75376631028E+03  0.69242563541E+03 -0.13138143399E+03  0.10319292623E+04  0.10100000352E+00 0. -1.
</event>
<event>
 5   0  0.6984287E-06  0.2601184E+04  0.7818609E-02  0.8367799E-01
       -1   -1    0    0    0  501  0.00000000000E+00  0.00000000000E+00  0.11094247698E+04  0.11094247698E+04  0.50400001928E-02 0. -1.
        1   -1    0    0  501    0  0.00000000000E+00  0.00000000000E+00 -0.15246997615E+04  0.15246997615E+04  0.50400001928E-02 0.  1.
    10030    2    1    2    0    0  0.00000000000E+00  0.00000000000E+00 -0.41527499170E+03  0.26341245313E+04  0.26011841011E+04 0.  0.
        3    1    3    3  502    0 -0.68427605054E+03 -0.10969005999E+04 -0.64013971867E+02  0.12944197303E+04  0.10100000352E+00 0. -1.
       -3    1    3    3    0  502  0.68427605054E+03  0.10969005999E+04 -0.35126101983E+03  0.13397048010E+04  0.10100000352E+00 0.  1.
</event>
<event>
 5   0  0.7138294E-06  0.2732291E+04  0.7818609E-02  0.8324603E-01
       -1   -1    0    0    0  501  0.00000000000E+00  0.00000000000E+00  0.12657948306E+04  0.12657948306E+04  0.50400001928E-02 0.  1.
        1   -1    0    0  501    0  0.00000000000E+00  0.00000000000E+00 -0.14744516257E+04  0.14744516257E+04  0.50400001928E-02 0. -1.
    10030    2    1    2    0    0  0.00000000000E+00  0.00000000000E+00 -0.20865679508E+03  0.27402464563E+04  0.27322907940E+04 0.  0.
        2    1    3    3  502    0 -0.11502605060E+04 -0.66864773152E+03  0.20667810871E+03  0.13464415550E+04  0.25500000920E-02 0.  1.
       -2    1    3    3    0  502  0.11502605060E+04  0.66864773152E+03 -0.41533490379E+03  0.13938049013E+04  0.25500000920E-02 0. -1.
</event>
<event>
 5   0  0.1681731E-05  0.2557159E+04  0.7818609E-02  0.8382901E-01
        2   -1    0    0  501    0  0.00000000000E+00  0.00000000000E+00  0.19458679595E+04  0.19458679595E+04  0.25500000920E-02 0.  1.
       -2   -1    0    0    0  501  0.00000000000E+00  0.00000000000E+00 -0.84012139095E+03  0.84012139095E+03  0.25500000920E-02 0. -1.
    10030    2    1    2    0    0  0.00000000000E+00  0.00000000000E+00  0.11057465685E+04  0.27859893504E+04  0.25571588114E+04 0.  0.
        2    1    3    3  502    0 -0.31855121001E+03  0.85893497781E+03  0.15246077584E+04  0.17786716916E+04  0.25500000920E-02 0.  1.
       -2    1    3    3    0  502  0.31855121001E+03 -0.85893497781E+03 -0.41886118984E+03  0.10073176589E+04  0.25500000920E-02 0. -1.
</event>
<event>
 5   0  0.1681731E-05  0.2491863E+04  0.7818609E-02  0.8405890E-01
        2   -1    0    0  501    0  0.00000000000E+00  0.00000000000E+00  0.10382495852E+04  0.10382495852E+04  0.25500000920E-02 0. -1.
       -2   -1    0    0    0  501  0.00000000000E+00  0.00000000000E+00 -0.14951556309E+04  0.14951556309E+04  0.25500000920E-02 0.  1.
    10030    2    1    2    0    0  0.00000000000E+00  0.00000000000E+00 -0.45690604565E+03  0.25334052161E+04  0.24918625272E+04 0.  0.
        2    1    3    3  502    0 -0.71858301346E+03 -0.60470012541E+03  0.60392761507E+03  0.11165806523E+04  0.25500000920E-02 0. -1.
       -2    1    3    3    0  502  0.71858301346E+03  0.60470012541E+03 -0.10608336607E+04  0.14168245638E+04  0.25500000920E-02 0.  1.
</event>
<event>
 5   0  0.1677971E-05  0.2610807E+04  0.7818609E-02  0.8364540E-01
        2   -1    0    0  501    0  0.00000000000E+00  0.00000000000E+00  0.16618252828E+04  0.16618252828E+04  0.25500000920E-02 0.  1.
       -2   -1    0    0    0  501  0.00000000000E+00  0.00000000000E+00 -0.10254256258E+04  0.10254256258E+04  0.25500000920E-02 0. -1.
    10030    2    1    2    0    0  0.00000000000E+00  0.00000000000E+00  0.63639965701E+03  0.26872509086E+04  0.26108069485E+04 0.  0.
        4    1    3    3  502    0 -0.90215740934E+03 -0.89582570285E+03  0.62298648838E+03  0.14158055865E+04  0.12699999809E+01 0.  1.
       -4    1    3    3    0  502  0.90215740934E+03  0.89582570285E+03  0.13413168632E+02  0.12714453221E+04  0.12699999809E+01 0. -1.
</event>
<event>
 5   0  0.1702345E-05  0.2614652E+04  0.7818609E-02  0.8363241E-01
       -2   -1    0    0    0  501  0.00000000000E+00  0.00000000000E+00  0.87529507890E+03  0.87529507890E+03  0.25500000920E-02 0.  1.
        2   -1    0    0  501    0  0.00000000000E+00  0.00000000000E+00 -0.19526006008E+04  0.19526006008E+04  0.25500000920E-02 0. -1.
    10030    2    1    2    0    0  0.00000000000E+00  0.00000000000E+00 -0.10773055219E+04  0.28278956797E+04  0.26146523264E+04 0.  0.
        1    1    3    3  502    0  0.12427112336E+04  0.19296084771E+03 -0.15240422141E+03  0.12668039097E+04  0.50400001928E-02 0.  1.
       -1    1    3    3    0  502 -0.12427112336E+04 -0.19296084771E+03 -0.92490130053E+03  0.15610917701E+04  0.50400001928E-02 0. -1.
</event>
<event>
 5   0  0.5840500E-06  0.2576748E+04  0.7818609E-02  0.8376143E-01
        4   -1    0    0  501    0  0.00000000000E+00  0.00000000000E+00  0.80046075046E+03  0.80046175795E+03  0.12699999809E+01 0. -1.
       -4   -1    0    0    0  501  0.00000000000E+00  0.00000000000E+00 -0.20736873433E+04  0.20736877322E+04  0.12699999809E+01 0.  1.
    10030    2    1    2    0    0  0.00000000000E+00  0.00000000000E+00 -0.12732265929E+04  0.28741494902E+04  0.25767478214E+04 0.  0.
        5    1    3    3  502    0  0.10938589120E+04  0.83266545735E+01  0.12259900814E+03  0.11007494081E+04  0.46999998093E+01 0. -1.
       -5    1    3    3    0  502 -0.10938589120E+04 -0.83266545735E+01 -0.13958256010E+04  0.17734000821E+04  0.46999998093E+01 0.  1.
</event>
<event>
 5   0  0.1681731E-05  0.2369013E+04  0.7818609E-02  0.8451196E-01
       -2   -1    0    0    0  501  0.00000000000E+00  0.00000000000E+00  0.56708797152E+03  0.56708797152E+03  0.25500000920E-02 0.  1.
        2   -1    0    0  501    0  0.00000000000E+00  0.00000000000E+00 -0.24741421262E+04  0.24741421262E+04  0.25500000920E-02 0. -1.
    10030    2    1    2    0    0  0.00000000000E+00  0.00000000000E+00 -0.19070541547E+04  0.30412300978E+04  0.23690134990E+04 0.  0.
        2    1    3    3  502    0  0.73801457790E+03  0.90826349570E+03 -0.11883106797E+04  0.16678400302E+04  0.25500000920E-02 0. -1.
       -2    1    3    3    0  502 -0.73801457790E+03 -0.90826349570E+03 -0.71874347504E+03  0.13733900676E+04  0.25500000920E-02 0.  1.
</event>
<event>
 5   0  0.1702345E-05  0.2621734E+04  0.7818609E-02  0.8360856E-01
        2   -1    0    0  501    0  0.00000000000E+00  0.00000000000E+00  0.16940543440E+04  0.16940543440E+04  0.25500000920E-02 0. -1.
       -2   -1    0    0    0  501  0.00000000000E+00  0.00000000000E+00 -0.10143547246E+04  0.10143547246E+04  0.25500000920E-02 0.  1.
    10030    2    1    2    0    0  0.00000000000E+00  0.00000000000E+00  0.67969961937E+03  0.27084090686E+04  0.26217337985E+04 0.  0.
        1    1    3    3  502    0 -0.94990789825E+02  0.40009588137E+03 -0.94599782764E+03  0.10315095028E+04  0.50400001928E-02 0.  1.
       -1    1    3    3    0  502  0.94990789825E+02 -0.40009588137E+03  0.16256974470E+04  0.16768995658E+04  0.50400001928E-02 0. -1.
</event>
<event>
 5   0  0.5840500E-06  0.2598603E+04  0.7818609E-02  0.8368676E-01
        3   -1    0    0  501    0  0.00000000000E+00  0.00000000000E+00  0.16313333000E+04  0.16313333031E+04  0.10100000352E+00 0. -1.
       -3   -1    0    0    0  501  0.00000000000E+00  0.00000000000E+00 -0.10348496188E+04  0.10348496237E+04  0.10100000352E+00 0.  1.
    10030    2    1    2    0    0  0.00000000000E+00  0.00000000000E+00  0.59648368122E+03  0.26661829269E+04  0.25986032051E+04 0.  0.
        5    1    3    3  502    0 -0.79155621504E+03 -0.47935063116E+03  0.12340046347E+04  0.15424421537E+04  0.46999998093E+01 0. -1.
       -5    1    3    3    0  502  0.79155621504E+03  0.47935063116E+03 -0.63752095346E+03  0.11237407732E+04  0.46999998093E+01 0.  1.
</event>
<event>
 5   0  0.5840500E-06  0.2594725E+04  0.7818609E-02  0.8369995E-01
       -3   -1    0    0    0  501  0.00000000000E+00  0.00000000000E+00  0.12972694617E+04  0.12972694656E+04  0.10100000352E+00 0.  1.
        3   -1    0    0  501    0  0.00000000000E+00  0.00000000000E+00 -0.12974557295E+04  0.12974557334E+04  0.10100000352E+00 0. -1.
    10030    2    1    2    0    0  0.00000000000E+00  0.00000000000E+00 -0.18626779672E+00  0.25947251991E+04  0.25947251924E+04 0.  0.
        5    1    3    3  502    0  0.51677480714E+03  0.45025500298E+03 -0.11016111107E+04  0.12974416743E+04  0.46999998093E+01 0. -1.
       -5    1    3    3    0  502 -0.51677480714E+03 -0.45025500298E+03  0.11014248429E+04  0.12972835248E+04  0.46999998093E+01 0.  1.
</event>
<event>
 5   0  0.6984287E-06  0.2606584E+04  0.7818609E-02  0.8365968E-01
        1   -1    0    0  501    0  0.00000000000E+00  0.00000000000E+00  0.96609148619E+03  0.96609148621E+03  0.50400001928E-02 0.  1.
       -1   -1    0    0    0  501  0.00000000000E+00  0.00000000000E+00 -0.17581880903E+04  0.17581880903E+04  0.50400001928E-02 0. -1.
    10030    2    1    2    0    0  0.00000000000E+00  0.00000000000E+00 -0.79209660413E+03  0.27242795765E+04  0.26065843897E+04 0.  0.
        3    1    3    3  502    0 -0.28076818033E+03  0.48661766824E+03 -0.16251336067E+04  0.17195018976E+04  0.10100000352E+00 0. -1.
       -3    1    3    3    0  502  0.28076818033E+03 -0.48661766824E+03  0.83303700258E+03  0.10047776789E+04  0.10100000352E+00 0.  1.
</event>
<event>
 5   0  0.1869956E-05  0.2598384E+04  0.7818609E-02  0.8368750E-01
        2   -1    0    0  501    0  0.00000000000E+00  0.00000000000E+00  0.11384536285E+04  0.11384536285E+04  0.25500000920E-02 0.  1.
       -2   -1    0    0    0  501  0.00000000000E+00  0.00000000000E+00 -0.14826246106E+04  0.14826246106E+04  0.25500000920E-02 0. -1.
    10030    2    1    2    0    0  0.00000000000E+00  0.00000000000E+00 -0.34417098213E+03  0.26210782390E+04  0.25983836265E+04 0.  0.
        5    1    3    3  502    0 -0.10650539596E+04  0.49573748482E+03 -0.73171177240E+03  0.13840230484E+04  0.46999998093E+01 0. -1.
       -5    1    3    3    0  502  0.10650539596E+04 -0.49573748482E+03  0.38754079027E+03  0.12370551907E+04  0.46999998093E+01 0.  1.
</event>
<event>
 5   0  0.6918420E-06  0.2578992E+04  0.7818609E-02  0.8375372E-01
       -1   -1    0    0    0  501  0.00000000000E+00  0.00000000000E+00  0.13453212136E+04  0.13453212136E+04  0.50400001928E-02 0.  1.
        1   -1    0    0  501    0  0.00000000000E+00  0.00000000000E+00 -0.12359872698E+04  0.12359872698E+04  0.50400001928E-02 0. -1.
    10030    2    1    2    0    0  0.00000000000E+00  0.00000000000E+00  0.10933394380E+03  0.25813084834E+04  0.25789919689E+04 0.  0.
        4    1    3    3  502    0  0.36645342307E+03 -0.94958712496E+03  0.84708161851E+03  0.13242177693E+04  0.12699999809E+01 0.  1.
       -4    1    3    3    0  502 -0.36645342307E+03  0.94958712496E+03 -0.73774767470E+03  0.12570907142E+04  0.12699999809E+01 0. -1.
</event>
<event>
 5   0  0.1702345E-05  0.2612443E+04  0.7818609E-02  0.8363987E-01
       -2   -1    0    0    0  501  0.00000000000E+00  0.00000000000E+00  0.21105749163E+04  0.21105749163E+04  0.25500000920E-02 0.  1.
        2   -1    0    0  501    0  0.00000000000E+00  0.00000000000E+00 -0.80841236677E+03  0.80841236677E+03  0.25500000920E-02 0. -1.
    10030    2    1    2    0    0  0.00000000000E+00  0.00000000000E+00  0.13021625495E+04  0.29189872830E+04  0.26124431962E+04 0.  0.
        1    1    3    3  502    0 -0.37647297588E+03  0.11990084761E+04  0.10490514263E+04  0.16370284428E+04  0.50400001928E-02 0. -1.
       -1    1    3    3    0  502  0.37647297588E+03 -0.11990084761E+04  0.25311112324E+03  0.12819588403E+04  0.50400001928E-02 0.  1.
</event>
<event>
 5   0  0.1681731E-05  0.2726336E+04  0.7818609E-02  0.8326510E-01
       -2   -1    0    0    0  501  0.00000000000E+00  0.00000000000E+00  0.86249155517E+03  0.86249155517E+03  0.25500000920E-02 0.  1.
        2   -1    0    0  501    0  0.00000000000E+00  0.00000000000E+00 -0.21544873826E+04  0.21544873826E+04  0.25500000920E-02 0. -1.
    10030    2    1    2    0    0  0.00000000000E+00  0.00000000000E+00 -0.12919958274E+04  0.30169789378E+04  0.27263361298E+04 0.  0.
        2    1    3    3  502    0  0.47068767799E+03  0.83597732748E+02  0.76668797315E+03  0.90351863252E+03  0.25500000920E-02 0.  1.
       -2    1    3    3    0  502 -0.47068767799E+03 -0.83597732748E+02 -0.20586838006E+04  0.21134603052E+04  0.25500000920E-02 0. -1.
</event>
<event>
 5   0  0.6706225E-06  0.2595946E+04  0.7818609E-02  0.8369580E-01
        1   -1    0    0  501    0  0.00000000000E+00  0.00000000000E+00  0.17882705177E+04  0.17882705177E+04  0.50400001928E-02 0. -1.
       -1   -1    0    0    0  501  0.00000000000E+00  0.00000000000E+00 -0.94210210036E+03  0.94210210038E+03  0.50400001928E-02 0.  1.
    10030    2    1    2    0    0  0.00000000000E+00  0.00000000000E+00  0.84616841732E+03  0.27303726181E+04  0.25959456163E+04 0.  0.
        5    1    3    3  502    0  0.80646201156E+03 -0.21633459327E+03 -0.62212062700E+03  0.10412673993E+04  0.46999998093E+01 0.  1.
       -5    1    3    3    0  502 -0.80646201156E+03  0.21633459327E+03  0.14682890443E+04  0.16891052188E+04  0.46999998093E+01 0. -1.
</event>
<event>
 5   0  0.1677971E-05  0.2575605E+04  0.7818609E-02  0.8376535E-01
       -2   -1    0    0    0  501  0.00000000000E+00  0.00000000000E+00  0.18707942190E+04  0.18707942190E+04  0.25500000920E-02 0. -1.
        2   -1    0    0  501    0  0.00000000000E+00  0.00000000000E+00 -0.88648724510E+03  0.88648724511E+03  0.25500000920E-02 0.  1.
    10030    2    1    2    0    0  0.00000000000E+00  0.00000000000E+00  0.98430697394E+03  0.27572814641E+04  0.25756049491E+04 0.  0.
        4    1    3    3  502    0  0.87345391072E+03  0.69815462546E+03  0.11760350303E+04  0.16227758997E+04  0.12699999809E+01 0. -1.
       -4    1    3    3    0  502 -0.87345391072E+03 -0.69815462546E+03 -0.19172805640E+03  0.11345055644E+04  0.12699999809E+01 0.  1.
</event>
<event>
 5   0  0.1869956E-05  0.2611402E+04  0.7818609E-02  0.8364338E-01
       -2   -1    0    0    0  501  0.00000000000E+00  0.00000000000E+00  0.17287203495E+04  0.17287203495E+04  0.25500000920E-02 0.  1.
        2   -1    0    0  501    0  0.00000000000E+00  0.00000000000E+00 -0.98619491688E+03  0.98619491688E+03  0.25500000920E-02 0. -1.
    10030    2    1    2    0    0  0.00000000000E+00  0.00000000000E+00  0.74252543263E+03  0.27149152664E+04  0.26114020919E+04 0.  0.
        5    1    3    3  502    0 -0.31124616780E+03  0.40657255508E+03 -0.87745473957E+03  0.10159351995E+04  0.46999998093E+01 0. -1.
       -5    1    3    3    0  502  0.31124616780E+03 -0.40657255508E+03  0.16199801722E+04  0.16989800669E+04  0.46999998093E+01 0.  1.
</event>
<event>
 5   0  0.6918420E-06  0.2531990E+04  0.7818609E-02  0.8391677E-01
       -1   -1    0    0    0  501  0.00000000000E+00  0.00000000000E+00  0.19739440945E+04  0.19739440945E+04  0.50400001928E-02 0. -1.
        1   -1    0    0  501    0  0.00000000000E+00  0.00000000000E+00 -0.81194959546E+03  0.81194959548E+03  0.50400001928E-02 0.  1.
    10030    2    1    2    0    0  0.00000000000E+00  0.00000000000E+00  0.11619944991E+04  0.27858936900E+04  0.25319898176E+04 0.  0.
        4    1    3    3  502    0  0.17258244068E+03  0.99538226011E+03  0.14205110727E+04  0.17431075306E+04  0.12699999809E+01 0. -1.
       -4    1    3    3    0  502 -0.17258244068E+03 -0.99538226011E+03 -0.25851657364E+03  0.10427861594E+04  0.12699999809E+01 0.  1.
</event>
<event>
 5   0  0.1702345E-05  0.2538818E+04  0.7818609E-02  0.8389286E-01
       -2   -1    0    0    0  501  0.00000000000E+00  0.00000000000E+00  0.78513730047E+03  0.78513730048E+03  0.25500000920E-02 0. -1.
        2   -1    0    0  501    0  0.00000000000E+00  0.00000000000E+00 -0.20523781864E+04  0.20523781864E+04  0.25500000920E-02 0.  1.
    10030    2    1    2    0    0  0.00000000000E+00  0.00000000000E+00 -0.12672408859E+04  0.28375154868E+04  0.25388175742E+04 0.  0.
        1    1    3    3  502    0 -0.51283419837E+03  0.99569663394E+03  0.34159750105E+02  0.11205255867E+04  0.50400001928E-02 0. -1.
       -1    1    3    3    0  502  0.51283419837E+03 -0.99569663394E+03 -0.13014006360E+04  0.17169899002E+04  0.50400001928E-02 0.  1.
</event>
<event>
 5   0  0.6706225E-06  0.2559901E+04  0.7818609E-02  0.8381951E-01
       -1   -1    0    0    0  501  0.00000000000E+00  0.00000000000E+00  0.84986524234E+03  0.84986524236E+03  0.50400001928E-02 0.  1.
        1   -1    0    0  501    0  0.00000000000E+00  0.00000000000E+00 -0.19276863490E+04  0.19276863490E+04  0.50400001928E-02 0. -1.
    10030    2    1    2    0    0  0.00000000000E+00  0.00000000000E+00 -0.10778211067E+04  0.27775515914E+04  0.25599012686E+04 0.  0.
        5    1    3    3  502    0 -0.24884243737E+03 -0.26852693846E+03 -0.18696558032E+04  0.19051677585E+04  0.46999998093E+01 0. -1.
       -5    1    3    3    0  502  0.24884243737E+03  0.26852693846E+03  0.79183469655E+03  0.87238383293E+03  0.46999998093E+01 0.  1.
</event>
<event>
 5   0  0.6984287E-06  0.2600047E+04  0.7818609E-02  0.8368185E-01
        1   -1    0    0  501    0  0.00000000000E+00  0.00000000000E+00  0.11354294566E+04  0.11354294567E+04  0.50400001928E-02 0.  1.
       -1   -1    0    0    0  501  0.00000000000E+00  0.00000000000E+00 -0.14884774746E+04  0.14884774746E+04  0.50400001928E-02 0. -1.
    10030    2    1    2    0    0  0.00000000000E+00  0.00000000000E+00 -0.35304801795E+03  0.26239069313E+04  0.26000470536E+04 0.  0.
        3    1    3    3  502    0 -0.10298360686E+04 -0.68871692622E+03 -0.57405231574E+03  0.13654411024E+04  0.10100000352E+00 0. -1.
       -3    1    3    3    0  502  0.10298360686E+04  0.68871692622E+03  0.22100429779E+03  0.12584658289E+04  0.10100000352E+00 0.  1.
</event>
<event>
 5   0  0.6984287E-06  0.2617633E+04  0.7818609E-02  0.8362236E-01
        1   -1    0    0  501    0  0.00000000000E+00  0.00000000000E+00  0.22505687971E+04  0.22505687971E+04  0.50400001928E-02 0. -1.
       -1   -1    0    0    0  501  0.00000000000E+00  0.00000000000E+00 -0.76114146570E+03  0.76114146572E+03  0.50400001928E-02 0.  1.
    10030    2    1    2    0    0  0.00000000000E+00  0.00000000000E+00  0.14894273314E+04  0.30117102628E+04  0.26176334602E+04 0.  0.
        3    1    3    3  502    0 -0.11148655770E+04  0.67900577260E+03  0.63539881326E+03  0.14517939785E+04  0.10100000352E+00 0.  1.
       -3    1    3    3    0  502  0.11148655770E+04 -0.67900577260E+03  0.85402851815E+03  0.15599162843E+04  0.10100000352E+00 0. -1.
</event>
<event>
 5   0  0.6993678E-06  0.2652337E+04  0.7818609E-02  0.8350638E-01
       -1   -1    0    0    0  501  0.00000000000E+00  0.00000000000E+00  0.10222396058E+04  0.10222396058E+04  0.50400001928E-02 0. -1.
        1   -1    0    0  501    0  0.00000000000E+00  0.00000000000E+00 -0.17204607188E+04  0.17204607188E+04  0.50400001928E-02 0.  1.
    10030    2    1    2    0    0  0.00000000000E+00  0.00000000000E+00 -0.69822111304E+03  0.27427003246E+04  0.26523371482E+04 0.  0.
        1    1    3    3  502    0  0.10451869151E+04  0.64486639902E+03  0.16839408124E+03  0.12396067629E+04  0.50400001928E-02 0. -1.
       -1    1    3    3    0  502 -0.10451869151E+04 -0.64486639902E+03 -0.86661519428E+03  0.15030935616E+04  0.50400001928E-02 0.  1.
</event>
<event>
 5   0  0.1720129E-05  0.2224974E+04  0.7818609E-02  0.8508105E-01
       -2   -1    0    0    0  501  0.00000000000E+00  0.00000000000E+00  0.38823510633E+03  0.38823510633E+03  0.25500000920E-02 0.  1.
        2   -1    0    0  501    0  0.00000000000E+00  0.00000000000E+00 -0.31878285150E+04  0.31878285150E+04  0.25500000920E-02 0. -1.
    10030    2    1    2    0    0  0.00000000000E+00  0.00000000000E+00 -0.27995934087E+04  0.35760636213E+04  0.22249736560E+04 0.  0.
        3    1    3    3  502    0 -0.28531498701E+03 -0.10738390574E+04 -0.13104254301E+04  0.17180657091E+04  0.10100000352E+00 0. -1.
       -3    1    3    3    0  502  0.28531498701E+03  0.10738390574E+04 -0.14891679786E+04  0.18579979122E+04  0.10100000352E+00 0.  1.
</event>
<event>
 5   0  0.5840500E-06  0.2602384E+04  0.7818609E-02  0.8367392E-01
        3   -1    0    0  501    0  0.00000000000E+00  0.00000000000E+00  0.74196897709E+03  0.74196898397E+03  0.10100000352E+00 0.  1.
       -3   -1    0    0    0  501  0.00000000000E+00  0.00000000000E+00 -0.22819029464E+04  0.22819029487E+04  0.10100000352E+00 0. -1.
    10030    2    1    2    0    0  0.00000000000E+00  0.00000000000E+00 -0.15399339693E+04  0.30238719326E+04  0.26023844518E+04 0.  0.
        1    1    3    3  502    0  0.61176253426E+03  0.10361737193E+04 -0.19459999814E+03  0.12189251553E+04  0.50400001928E-02 0.  1.
       -1    1    3    3    0  502 -0.61176253426E+03 -0.10361737193E+04 -0.13453339712E+04  0.18049467773E+04  0.50400001928E-02 0. -1.
</event>
<event>
 5   0  0.1720129E-05  0.2237521E+04  0.7818609E-02  0.8502971E-01
       -2   -1    0    0    0  501  0.00000000000E+00  0.00000000000E+00  0.10756313410E+04  0.10756313410E+04  0.25500000920E-02 0.  1.
        2   -1    0    0  501    0  0.00000000000E+00  0.00000000000E+00 -0.11636188926E+04  0.11636188926E+04  0.25500000920E-02 0. -1.
    10030    2    1    2    0    0  0.00000000000E+00  0.00000000000E+00 -0.87987551628E+02  0.22392502336E+04  0.22375209048E+04 0.  0.
        3    1    3    3  502    0 -0.37178386759E+03 -0.24610552830E+03 -0.10708636875E+04  0.11599742337E+04  0.10100000352E+00 0. -1.
       -3    1    3    3    0  502  0.37178386759E+03  0.24610552830E+03  0.98287613592E+03  0.10792759999E+04  0.10100000352E+00 0.  1.
</event>
<event>
 5   0  0.1869956E-05  0.2553942E+04  0.7818609E-02  0.8384017E-01
       -2   -1    0    0    0  501  0.00000000000E+00  0.00000000000E+00  0.78878966961E+03  0.78878966962E+03  0.25500000920E-02 0. -1.
        2   -1    0    0  501    0  0.00000000000E+00  0.00000000000E+00 -0.20672869702E+04  0.20672869702E+04  0.25500000920E-02 0.  1.
    10030    2    1    2    0    0  0.00000000000E+00  0.00000000000E+00 -0.12784973006E+04  0.28560766398E+04  0.25539417427E+04 0.  0.
        5    1    3    3  502    0  0.80699491858E+02 -0.23808769369E+03  0.76083360639E+03  0.80130395262E+03  0.46999998093E+01 0. -1.
       -5    1    3    3    0  502 -0.80699491858E+02  0.23808769369E+03 -0.20393309070E+04  0.20547726872E+04  0.46999998093E+01 0.  1.
</event>
<event>
 5   0  0.7138294E-06  0.2595413E+04  0.7818609E-02  0.8369761E-01
       -1   -1    0    0    0  501  0.00000000000E+00  0.00000000000E+00  0.10952377106E+04  0.10952377106E+04  0.50400001928E-02 0.  1.
        1   -1    0    0  501    0  0.00000000000E+00  0.00000000000E+00 -0.15376044066E+04  0.15376044066E+04  0.50400001928E-02 0. -1.
    10030    2    1    2    0    0  0.00000000000E+00  0.00000000000E+00 -0.44236669595E+03  0.26328421172E+04  0.25954131310E+04 0.  0.
        2    1    3    3  502    0 -0.82475728942E+03 -0.89696886744E+03 -0.67401146895E+03  0.13925046484E+04  0.25500000920E-02 0. -1.
       -2    1    3    3    0  502  0.82475728942E+03  0.89696886744E+03  0.23164477300E+03  0.12403374688E+04  0.25500000920E-02 0.  1.
</event>
<event>
 5   0  0.6918420E-06  0.2579755E+04  0.7818609E-02  0.8375111E-01
       -1   -1    0    0    0  501  0.00000000000E+00  0.00000000000E+00  0.13297082635E+04  0.13297082635E+04  0.50400001928E-02 0.  1.
        1   -1    0    0  501    0  0.00000000000E+00  0.00000000000E+00 -0.12512394608E+04  0.12512394608E+04  0.50400001928E-02 0. -1.
    10030    2    1    2    0    0  0.00000000000E+00  0.00000000000E+00  0.78468802642E+02  0.25809477243E+04  0.25797546013E+04 0.  0.
        4    1    3    3  502    0  0.88022591164E+03  0.85917516955E+03 -0.34927780314E+03  0.12786618881E+04  0.12699999809E+01 0.  1.
       -4    1    3    3    0  502 -0.88022591164E+03 -0.85917516955E+03  0.42774660578E+03  0.13022858362E+04  0.12699999809E+01 0. -1.
</event>
<event>
 5   0  0.1681731E-05  0.2514446E+04  0.7818609E-02  0.8397857E-01
        2   -1    0    0  501    0  0.00000000000E+00  0.00000000000E+00  0.22043950827E+04  0.22043950827E+04  0.25500000920E-02 0. -1.
       -2   -1    0    0    0  501  0.00000000000E+00  0.00000000000E+00 -0.71702630686E+03  0.71702630686E+03  0.25500000920E-02 0.  1.
    10030    2    1    2    0    0  0.00000000000E+00  0.00000000000E+00  0.14873687758E+04  0.29214213895E+04  0.25144456765E+04 0.  0.
        2    1    3    3  502    0  0.15937918704E+03  0.12470791290E+04  0.74241916709E+03  0.14600665392E+04  0.25500000920E-02 0.  1.
       -2    1    3    3    0  502 -0.15937918704E+03 -0.12470791290E+04  0.74494960871E+03  0.14613548504E+04  0.25500000920E-02 0. -1.
</event>
<event>
 5   0  0.1720129E-05  0.2531811E+04  0.7818609E-02  0.8391739E-01
       -2   -1    0    0    0  501  0.00000000000E+00  0.00000000000E+00  0.75914469792E+03  0.75914469792E+03  0.25500000920E-02 0. -1.
        2   -1    0    0  501    0  0.00000000000E+00  0.00000000000E+00 -0.21109511111E+04  0.21109511111E+04  0.25500000920E-02 0.  1.
    10030    2    1    2    0    0  0.00000000000E+00  0.00000000000E+00 -0.13518064132E+04  0.28700958091E+04  0.25318114808E+04 0.  0.
        3    1    3    3  502    0  0.47329074883E+03 -0.53062032903E+03 -0.18632005293E+04  0.19942613392E+04  0.10100000352E+00 0.  1.
       -3    1    3    3    0  502 -0.47329074883E+03  0.53062032903E+03  0.51139411605E+03  0.87583446988E+03  0.10100000352E+00 0. -1.
</event>
<event>
 5   0  0.6993678E-06  0.2655243E+04  0.7818609E-02  0.8349675E-01
       -1   -1    0    0    0  501  0.00000000000E+00  0.00000000000E+00  0.80468220102E+03  0.80468220103E+03  0.50400001928E-02 0.  1.
        1   -1    0    0  501    0  0.00000000000E+00  0.00000000000E+00 -0.21904028764E+04  0.21904028764E+04  0.50400001928E-02 0. -1.
    10030    2    1    2    0    0  0.00000000000E+00  0.00000000000E+00 -0.13857206754E+04  0.29950850774E+04  0.26552425183E+04 0.  0.
        1    1    3    3  502    0 -0.55870271775E+03  0.10531647917E+04 -0.13518159946E+04  0.18024181781E+04  0.50400001928E-02 0. -1.
       -1    1    3    3    0  502  0.55870271775E+03 -0.10531647917E+04 -0.33904680769E+02  0.11926668993E+04  0.50400001928E-02 0.  1.
</event>
<event>
 5   0  0.1869956E-05  0.2540334E+04  0.7818609E-02  0.8388755E-01
       -2   -1    0    0    0  501  0.00000000000E+00  0.00000000000E+00  0.94574982755E+03  0.94574982755E+03  0.25500000920E-02 0. -1.
        2   -1    0    0  501    0  0.00000000000E+00  0.00000000000E+00 -0.17058684182E+04  0.17058684182E+04  0.25500000920E-02 0.  1.
    10030    2    1    2    0    0  0.00000000000E+00  0.00000000000E+00 -0.76011859063E+03  0.26516182457E+04  0.25403344365E+04 0.  0.
        5    1    3    3  502    0  0.99789214318E+03 -0.56597374798E+03  0.18897113118E+03  0.11626896367E+04  0.46999998093E+01 0. -1.
       -5    1    3    3    0  502 -0.99789214318E+03  0.56597374798E+03 -0.94908972181E+03  0.14889286091E+04  0.46999998093E+01 0.  1.
</event>
<event>
 5   0  0.6918420E-06  0.2577910E+04  0.7818609E-02  0.8375744E-01
       -1   -1    0    0    0  501  0.00000000000E+00  0.00000000000E+00  0.14727459438E+04  0.14727459438E+04  0.50400001928E-02 0. -1.
        1   -1    0    0  501    0  0.00000000000E+00  0.00000000000E+00 -0.11281000329E+04  0.11281000329E+04  0.50400001928E-02 0.  1.
    10030    2    1    2    0    0  0.00000000000E+00  0.00000000000E+00  0.34464591086E+03  0.26008459767E+04  0.25779098104E+04 0.  0.
        4    1    3    3  502    0 -0.55526879521E+03  0.56403505641E+03 -0.85405040798E+03  0.11644151717E+04  0.12699999809E+01 0.  1.
       -4    1    3    3    0  502  0.55526879521E+03 -0.56403505641E+03  0.11986963188E+04  0.14364308050E+04  0.12699999809E+01 0. -1.
</event>
<event>
 5   0  0.6706225E-06  0.2715422E+04  0.7818609E-02  0.8330018E-01
        1   -1    0    0  501    0  0.00000000000E+00  0.00000000000E+00  0.12567194366E+04  0.12567194366E+04  0.50400001928E-02 0. -1.
       -1   -1    0    0    0  501  0.00000000000E+00  0.00000000000E+00 -0.14668184716E+04  0.14668184716E+04  0.50400001928E-02 0.  1.
    10030    2    1    2    0    0  0.00000000000E+00  0.00000000000E+00 -0.21009903505E+03  0.27235379082E+04  0.27154220912E+04 0.  0.
        5    1    3    3  502    0 -0.39341619167E+03  0.11638658855E+04 -0.68470162827E+03  0.14064844504E+04  0.46999998093E+01 0.  1.
       -5    1    3    3    0  502  0.39341619167E+03 -0.11638658855E+04  0.47460259322E+03  0.13170534579E+04  0.46999998093E+01 0. -1.
</event>
<event>
 5   0  0.1681731E-05  0.2585392E+04  0.7818609E-02  0.8373180E-01
       -2   -1    0    0    0  501  0.00000000000E+00  0.00000000000E+00  0.85774696626E+03  0.85774696626E+03  0.25500000920E-02 0.  1.
        2   -1    0    0  501    0  0.00000000000E+00  0.00000000000E+00 -0.19481999880E+04  0.19481999880E+04  0.25500000920E-02 0. -1.
    10030    2    1    2    0    0  0.00000000000E+00  0.00000000000E+00 -0.10904530218E+04  0.28059469543E+04  0.25853917532E+04 0.  0.
        2    1    3    3  502    0 -0.47045036467E+03 -0.11361253308E+04 -0.97793431166E+03  0.15711332951E+04  0.25500000920E-02 0. -1.
       -2    1    3    3    0  502  0.47045036467E+03  0.11361253308E+04 -0.11251871010E+03  0.12348136592E+04  0.25500000920E-02 0.  1.
</event>
<event>
 5   0  0.6993678E-06  0.2629676E+04  0.7818609E-02  0.8358190E-01
       -1   -1    0    0    0  501  0.00000000000E+00  0.00000000000E+00  0.71513347628E+03  0.71513347630E+03  0.50400001928E-02 0. -1.
        1   -1    0    0  501    0  0.00000000000E+00  0.00000000000E+00 -0.24174491407E+04  0.24174491407E+04  0.50400001928E-02 0.  1.
    10030    2    1    2    0    0  0.00000000000E+00  0.00000000000E+00 -0.17023156644E+04  0.31325826170E+04  0.26296758794E+04 0.  0.
        1    1    3    3  502    0 -0.28096503068E+03 -0.52884457114E+03  0.54324822961E+03  0.80853977508E+03  0.50400001928E-02 0. -1.
       -1    1    3    3    0  502  0.28096503068E+03  0.52884457114E+03 -0.22455638940E+04  0.23240428419E+04  0.50400001928E-02 0.  1.
</event>
<event>
 5   0  0.7138294E-06  0.2529270E+04  0.7818609E-02  0.8392632E-01
        1   -1    0    0  501    0  0.00000000000E+00  0.00000000000E+00  0.20177965918E+04  0.20177965918E+04  0.50400001928E-02 0.  1.
       -1   -1    0    0    0  501  0.00000000000E+00  0.00000000000E+00 -0.79259795800E+03  0.79259795802E+03  0.50400001928E-02 0. -1.
    10030    2    1    2    0    0  0.00000000000E+00  0.00000000000E+00  0.12251986338E+04  0.28103945498E+04  0.25292698222E+04 0.  0.
        2    1    3    3  502    0  0.83497003069E+03 -0.34063434959E+03 -0.37256705515E+03  0.97571149571E+03  0.25500000920E-02 0. -1.
       -2    1    3    3    0  502 -0.83497003069E+03  0.34063434959E+03  0.15977656889E+04  0.18346830541E+04  0.25500000920E-02 0.  1.
</event>
<event>
 5   0  0.1869956E-05  0.2677511E+04  0.7818609E-02  0.8342339E-01
        2   -1    0    0  501    0  0.00000000000E+00  0.00000000000E+00  0.12969711006E+04  0.12969711006E+04  0.25500000920E-02 0.  1.
       -2   -1    0    0    0  501  0.00000000000E+00  0.00000000000E+00 -0.13818864448E+04  0.13818864448E+04  0.25500000920E-02 0. -1.
    10030    2    1    2    0    0  0.00000000000E+00  0.00000000000E+00 -0.84915344221E+02  0.26788575455E+04  0.26775113694E+04 0.  0.
        5    1    3    3  502    0  0.58495892999E+03  0.47722454601E+03  0.10636860277E+04  0.13043658508E+04  0.46999998093E+01 0.  1.
       -5    1    3    3    0  502 -0.58495892999E+03 -0.47722454601E+03 -0.11486013720E+04  0.13744916947E+04  0.46999998093E+01 0. -1.
</event>
<event>
 5   0  0.1677971E-05  0.2610362E+04  0.7818609E-02  0.8364690E-01
        2   -1    0    0  501    0  0.00000000000E+00  0.00000000000E+00  0.11530135712E+04  0.11530135712E+04  0.25500000920E-02 0. -1.
       -2   -1    0    0    0  501  0.00000000000E+00  0.00000000000E+00 -0.14774300030E+04  0.14774300030E+04  0.25500000920E-02 0.  1.
    10030    2    1    2    0    0  0.00000000000E+00  0.00000000000E+00 -0.32441643182E+03  0.26304435742E+04  0.26103615413E+04 0.  0.
        4    1    3    3  502    0 -0.38341233091E+02  0.82429827651E+03  0.85678713814E+03  0.11895476080E+04  0.12699999809E+01 0. -1.
       -4    1    3    3    0  502  0.38341233091E+02 -0.82429827651E+03 -0.11812035700E+04  0.14408959662E+04  0.12699999809E+01 0.  1.
</event>
<event>
 5   0  0.7138294E-06  0.2596359E+04  0.7818609E-02  0.8369439E-01
       -1   -1    0    0    0  501  0.00000000000E+00  0.00000000000E+00  0.10050264325E+04  0.10050264325E+04  0.50400001928E-02 0.  1.
        1   -1    0    0  501    0  0.00000000000E+00  0.00000000000E+00 -0.16768411271E+04  0.16768411271E+04  0.50400001928E-02 0. -1.
    10030    2    1    2    0    0  0.00000000000E+00  0.00000000000E+00 -0.67181469457E+03  0.26818675596E+04  0.25963587240E+04 0.  0.
        2    1    3    3  502    0  0.12286134172E+04 -0.41850768390E+03 -0.30997996934E+03  0.13344389052E+04  0.25500000920E-02 0. -1.
       -2    1    3    3    0  502 -0.12286134172E+04  0.41850768390E+03 -0.36183472523E+03  0.13474286544E+04  0.25500000920E-02 0.  1.
</event>
<event>
 5   0  0.6984287E-06  0.2561346E+04  0.7818609E-02  0.8381451E-01
       -1   -1    0    0    0  501  0.00000000000E+00  0.00000000000E+00  0.20481221459E+04  0.20481221459E+04  0.50400001928E-02 0. -1.
        1   -1    0    0  501    0  0.00000000000E+00  0.00000000000E+00 -0.80079349635E+03  0.80079349637E+03  0.50400001928E-02 0.  1.
    10030    2    1    2    0    0  0.00000000000E+00  0.00000000000E+00  0.12473286495E+04  0.28489156422E+04  0.25613456574E+04 0.  0.
        3    1    3    3  502    0  0.11969687643E+04 -0.14546865095E+03  0.11036556002E+04  0.16346103649E+04  0.10100000352E+00 0. -1.
       -3    1    3    3    0  502 -0.11969687643E+04  0.14546865095E+03  0.14367304934E+03  0.12143052773E+04  0.10100000352E+00 0.  1.
</event>
<event>
 5   0  0.7138294E-06  0.2615769E+04  0.7818609E-02  0.8362865E-01
        1   -1    0    0  501    0  0.00000000000E+00  0.00000000000E+00  0.18646148795E+04  0.18646148795E+04  0.50400001928E-02 0.  1.
       -1   -1    0    0    0  501  0.00000000000E+00  0.00000000000E+00 -0.91738060843E+03  0.91738060845E+03  0.50400001928E-02 0. -1.
    10030    2    1    2    0    0  0.00000000000E+00  0.00000000000E+00  0.94723427108E+03  0.27819954880E+04  0.26157687457E+04 0.  0.
        2    1    3    3  502    0 -0.59649922717E+03  0.28110349075E+03 -0.72764181026E+03  0.98198426901E+03  0.25500000920E-02 0. -1.
       -2    1    3    3    0  502  0.59649922717E+03 -0.28110349075E+03  0.16748760813E+04  0.18000112190E+04  0.25500000920E-02 0.  1.
</event>
<event>
 5   0  0.1720129E-05  0.2606389E+04  0.7818609E-02  0.8366034E-01
        2   -1    0    0  501    0  0.00000000000E+00  0.00000000000E+00  0.74978972154E+03  0.74978972154E+03  0.25500000920E-02 0.  1.
       -2   -1    0    0    0  501  0.00000000000E+00  0.00000000000E+00 -0.22650568704E+04  0.22650568704E+04  0.25500000920E-02 0. -1.
    10030    2    1    2    0    0  0.00000000000E+00  0.00000000000E+00 -0.15152671489E+04  0.30148465920E+04  0.26063893494E+04 0.  0.
        3    1    3    3  502    0 -0.93169233167E+03 -0.85576099697E+03 -0.11196293144E+04  0.16893629855E+04  0.10100000352E+00 0. -1.
       -3    1    3    3    0  502  0.93169233167E+03  0.85576099697E+03 -0.39563783448E+03  0.13254836065E+04  0.10100000352E+00 0.  1.
</event>
<event>
 5   0  0.5840500E-06  0.2610267E+04  0.7818609E-02  0.8364722E-01
       -3   -1    0    0    0  501  0.00000000000E+00  0.00000000000E+00  0.14988466008E+04  0.14988466042E+04  0.10100000352E+00 0.  1.
        3   -1    0    0  501    0  0.00000000000E+00  0.00000000000E+00 -0.11364557348E+04  0.11364557393E+04  0.10100000352E+00 0. -1.
    10030    2    1    2    0    0  0.00000000000E+00  0.00000000000E+00  0.36239086595E+03  0.26353023435E+04  0.26102665194E+04 0.  0.
        2    1    3    3  502    0  0.24913612667E+03 -0.47593505496E+03 -0.10196623064E+04  0.11525164664E+04  0.25500000920E-02 0. -1.
       -2    1    3    3    0  502 -0.24913612667E+03  0.47593505496E+03  0.13820531724E+04  0.14827858771E+04  0.25500000920E-02 0.  1.
</event>
<event>
 5   0  0.6918420E-06  0.2582984E+04  0.7818609E-02  0.8374004E-01
        1   -1    0    0  501    0  0.00000000000E+00  0.00000000000E+00  0.16931815059E+04  0.16931815059E+04  0.50400001928E-02 0.  1.
       -1   -1    0    0    0  501  0.00000000000E+00  0.00000000000E+00 -0.98509934493E+03  0.98509934494E+03  0.50400001928E-02 0. -1.
    10030    2    1    2    0    0  0.00000000000E+00  0.00000000000E+00  0.70808216095E+03  0.26782808508E+04  0.25829843146E+04 0.  0.
        4    1    3    3  502    0 -0.56489585753E+02 -0.18608507949E+03  0.16779121359E+04  0.16891445997E+04  0.12699999809E+01 0.  1.
       -4    1    3    3    0  502  0.56489585753E+02  0.18608507949E+03 -0.96982997493E+03  0.98913625112E+03  0.12699999809E+01 0. -1.
</event>
<event>
 5   0  0.6984287E-06  0.2583906E+04  0.7818609E-02  0.8373688E-01
        1   -1    0    0  501    0  0.00000000000E+00  0.00000000000E+00  0.15085979090E+04  0.15085979090E+04  0.50400001928E-02 0.  1.
       -1   -1    0    0    0  501  0.00000000000E+00  0.00000000000E+00 -0.11064201359E+04  0.11064201359E+04  0.50400001928E-02 0. -1.
    10030    2    1    2    0    0  0.00000000000E+00  0.00000000000E+00  0.40217777305E+03  0.26150180449E+04  0.25839064252E+04 0.  0.
        3    1    3    3  502    0 -0.13707205853E+03  0.10753236197E+04  0.91242701636E+03  0.14169095620E+04  0.10100000352E+00 0.  1.
       -3    1    3    3    0  502  0.13707205853E+03 -0.10753236197E+04 -0.51024924332E+03  0.11981084829E+04  0.10100000352E+00 0. -1.
</event>
<event>
 5   0  0.1702345E-05  0.2596973E+04  0.7818609E-02  0.8369230E-01
        2   -1    0    0  501    0  0.00000000000E+00  0.00000000000E+00  0.21359541529E+04  0.21359541529E+04  0.25500000920E-02 0. -1.
       -2   -1    0    0    0  501  0.00000000000E+00  0.00000000000E+00 -0.78937432153E+03  0.78937432153E+03  0.25500000920E-02 0.  1.
    10030    2    1    2    0    0  0.00000000000E+00  0.00000000000E+00  0.13465798314E+04  0.29253284744E+04  0.25969731306E+04 0.  0.
        1    1    3    3  502    0 -0.62153654863E+03 -0.46181365888E+03 -0.50084935524E+03  0.92218740692E+03  0.50400001928E-02 0.  1.
       -1    1    3    3    0  502  0.62153654863E+03  0.46181365888E+03  0.18474291866E+04  0.20031410675E+04  0.50400001928E-02 0. -1.
</event>
<event>
 5   0  0.6993678E-06  0.2635749E+04  0.7818609E-02  0.8356158E-01
        1   -1    0    0  501    0  0.00000000000E+00  0.00000000000E+00  0.16415977180E+04  0.16415977180E+04  0.50400001928E-02 0.  1.
       -1   -1    0    0    0  501  0.00000000000E+00  0.00000000000E+00 -0.10579896411E+04  0.10579896411E+04  0.50400001928E-02 0. -1.
    10030    2    1    2    0    0  0.00000000000E+00  0.00000000000E+00  0.58360807688E+03  0.26995873591E+04  0.26357491386E+04 0.  0.
        1    1    3    3  502    0  0.90384721724E+03 -0.12307397699E+03  0.12660018288E+04  0.15603998290E+04  0.50400001928E-02 0.  1.
       -1    1    3    3    0  502 -0.90384721724E+03  0.12307397699E+03 -0.68239375190E+03  0.11391875300E+04  0.50400001928E-02 0. -1.
</event>
<event>
 5   0  0.1720129E-05  0.2616096E+04  0.7818609E-02  0.8362754E-01
        2   -1    0    0  501    0  0.00000000000E+00  0.00000000000E+00  0.11532639789E+04  0.11532639789E+04  0.25500000920E-02 0. -1.
       -2   -1    0    0    0  501  0.00000000000E+00  0.00000000000E+00 -0.14836056234E+04  0.14836056234E+04  0.25500000920E-02 0.  1.
    10030    2    1    2    0    0  0.00000000000E+00  0.00000000000E+00 -0.33034164451E+03  0.26368696024E+04  0.26160955062E+04 0.  0.
        3    1    3    3  502    0 -0.20437256923E+03 -0.10647530452E+04  0.57243375625E+03  0.12260292043E+04  0.10100000352E+00 0. -1.
       -3    1    3    3    0  502  0.20437256923E+03  0.10647530452E+04 -0.90277540077E+03  0.14108403980E+04  0.10100000352E+00 0.  1.
</event>
<event>
 5   0  0.1720129E-05  0.2600951E+04  0.7818609E-02  0.8367878E-01
        2   -1    0    0  501    0  0.00000000000E+00  0.00000000000E+00  0.12862777168E+04  0.12862777168E+04  0.25500000920E-02 0. -1.
       -2   -1    0    0    0  501  0.00000000000E+00  0.00000000000E+00 -0.13148299730E+04  0.13148299730E+04  0.25500000920E-02 0.  1.
    10030    2    1    2    0    0  0.00000000000E+00  0.00000000000E+00 -0.28552256231E+02  0.26011076898E+04  0.26009509766E+04 0.  0.
        3    1    3    3  502    0  0.50030271444E+03  0.63993457880E+03 -0.10299245459E+04  0.13117025774E+04  0.10100000352E+00 0.  1.
       -3    1    3    3    0  502 -0.50030271444E+03 -0.63993457880E+03  0.10013722896E+04  0.12894051124E+04  0.10100000352E+00 0. -1.
</event>
<event>
 5   0  0.1677971E-05  0.2602266E+04  0.7818609E-02  0.8367432E-01
       -2   -1    0    0    0  501  0.00000000000E+00  0.00000000000E+00  0.86851907600E+03  0.86851907601E+03  0.25500000920E-02 0. -1.
        2   -1    0    0  501    0  0.00000000000E+00  0.00000000000E+00 -0.19492344802E+04  0.19492344802E+04  0.25500000920E-02 0.  1.
    10030    2    1    2    0    0  0.00000000000E+00  0.00000000000E+00 -0.10807154042E+04  0.28177535562E+04  0.26022661890E+04 0.  0.
        4    1    3    3  502    0 -0.10372822630E+04 -0.58263502758E+03 -0.11107904045E+04  0.16276593636E+04  0.12699999809E+01 0.  1.
       -4    1    3    3    0  502  0.10372822630E+04  0.58263502758E+03  0.30075000309E+02  0.11900941925E+04  0.12699999809E+01 0. -1.
</event>
<event>
 5   0  0.6984287E-06  0.2303276E+04  0.7818609E-02  0.8476631E-01
        1   -1    0    0  501    0  0.00000000000E+00  0.00000000000E+00  0.11298175319E+04  0.11298175320E+04  0.50400001928E-02 0. -1.
       -1   -1    0    0    0  501  0.00000000000E+00  0.00000000000E+00 -0.11738796962E+04  0.11738796962E+04  0.50400001928E-02 0.  1.
    10030    2    1    2    0    0  0.00000000000E+00  0.00000000000E+00 -0.44062164221E+02  0.23036972281E+04  0.23032758073E+04 0.  0.
        3    1    3    3  502    0  0.44079747076E+03  0.20372846997E+03  0.10224119381E+04  0.11318718483E+04  0.10100000352E+00 0. -1.
       -3    1    3    3    0  502 -0.44079747076E+03 -0.20372846997E+03 -0.10664741023E+04  0.11718253798E+04  0.10100000352E+00 0.  1.
</event>
<event>
 5   0  0.1677971E-05  0.2529351E+04  0.7818609E-02  0.8392603E-01
        2   -1    0    0  501    0  0.00000000000E+00  0.00000000000E+00  0.16376174784E+04  0.16376174784E+04  0.25500000920E-02 0.  1.
       -2   -1    0    0    0  501  0.00000000000E+00  0.00000000000E+00 -0.97666547815E+03  0.97666547815E+03  0.25500000920E-02 0. -1.
    10030    2    1    2    0    0  0.00000000000E+00  0.00000000000E+00  0.66095200024E+03  0.26142829565E+04  0.25293512667E+04 0.  0.
        4    1    3    3  502    0 -0.12487447767E+04  0.17723925846E+03  0.42646852445E+03  0.13314106381E+04  0.12699999809E+01 0. -1.
       -4    1    3    3    0  502  0.12487447767E+04 -0.17723925846E+03  0.23448347579E+03  0.12828723184E+04  0.12699999809E+01 0.  1.
</event>
<event>
 5   0  0.6706225E-06  0.2185753E+04  0.7818609E-02  0.8524381E-01
        1   -1    0    0  501    0  0.00000000000E+00  0.00000000000E+00  0.15901239133E+04  0.15901239133E+04  0.50400001928E-02 0. -1.
       -1   -1    0    0    0  501  0.00000000000E+00  0.00000000000E+00 -0.75112353270E+03  0.75112353272E+03  0.50400001928E-02 0.  1.
    10030    2    1    2    0    0  0.00000000000E+00  0.00000000000E+00  0.83900038055E+03  0.23412474460E+04  0.21857534090E+04 0.  0.
        5    1    3    3  502    0 -0.96285710002E+03  0.10775102792E+02  0.97313286287E+03  0.13690213865E+04  0.46999998093E+01 0. -1.
       -5    1    3    3    0  502  0.96285710002E+03 -0.10775102792E+02 -0.13413248233E+03  0.97222605947E+03  0.46999998093E+01 0.  1.
</event>
<event>
 5   0  0.1702345E-05  0.2603518E+04  0.7818609E-02  0.8367007E-01
        2   -1    0    0  501    0  0.00000000000E+00  0.00000000000E+00  0.16431008500E+04  0.16431008500E+04  0.25500000920E-02 0.  1.
       -2   -1    0    0    0  501  0.00000000000E+00  0.00000000000E+00 -0.10313283806E+04  0.10313283807E+04  0.25500000920E-02 0. -1.
    10030    2    1    2    0    0  0.00000000000E+00  0.00000000000E+00  0.61177246934E+03  0.26744292306E+04  0.26035180344E+04 0.  0.
        1    1    3    3  502    0 -0.60701281540E+03  0.18142803629E+02  0.14886736998E+04  0.16077758252E+04  0.50400001928E-02 0.  1.
       -1    1    3    3    0  502  0.60701281540E+03 -0.18142803629E+02 -0.87690123048E+03  0.10666534055E+04  0.50400001928E-02 0. -1.
</event>
<event>
 5   0  0.7138294E-06  0.2599737E+04  0.7818609E-02  0.8368290E-01
        1   -1    0    0  501    0  0.00000000000E+00  0.00000000000E+00  0.10776038211E+04  0.10776038211E+04  0.50400001928E-02 0. -1.
       -1   -1    0    0    0  501  0.00000000000E+00  0.00000000000E+00 -0.15679774437E+04  0.15679774437E+04  0.50400001928E-02 0.  1.
    10030    2    1    2    0    0  0.00000000000E+00  0.00000000000E+00 -0.49037362262E+03  0.26455812648E+04  0.25997372827E+04 0.  0.
        2    1    3    3  502    0  0.60934479266E+03  0.11405130026E+04 -0.11023034749E+03  0.12977756797E+04  0.25500000920E-02 0.  1.
       -2    1    3    3    0  502 -0.60934479266E+03 -0.11405130026E+04 -0.38014327513E+03  0.13478055850E+04  0.25500000920E-02 0. -1.
</event>
<event>
 5   0  0.1869956E-05  0.2306381E+04  0.7818609E-02  0.8475409E-01
        2   -1    0    0  501    0  0.00000000000E+00  0.00000000000E+00  0.87347073127E+03  0.87347073128E+03  0.25500000920E-02 0.  1.
       -2   -1    0    0    0  501  0.00000000000E+00  0.00000000000E+00 -0.15224880585E+04  0.15224880585E+04  0.25500000920E-02 0. -1.
    10030    2    1    2    0    0  0.00000000000E+00  0.00000000000E+00 -0.64901732727E+03  0.23959587898E+04  0.23063813716E+04 0.  0.
        5    1    3    3  502    0  0.10693054178E+04  0.94716821482E+02  0.11308960612E+03  0.10794427737E+04  0.46999998093E+01 0.  1.
       -5    1    3    3    0  502 -0.10693054178E+04 -0.94716821482E+02 -0.76210693340E+03  0.13165160161E+04  0.46999998093E+01 0. -1.
</event>
<event>
 5   0  0.6984287E-06  0.2582463E+04  0.7818609E-02  0.8374183E-01
        1   -1    0    0  501    0  0.00000000000E+00  0.00000000000E+00  0.13260661633E+04  0.13260661633E+04  0.50400001928E-02 0.  1.
       -1   -1    0    0    0  501  0.00000000000E+00  0.00000000000E+00 -0.12573120790E+04  0.12573120790E+04  0.50400001928E-02 0. -1.
    10030    2    1    2    0    0  0.00000000000E+00  0.00000000000E+00  0.68754084360E+02  0.25833782423E+04  0.25824631689E+04 0.  0.
        3    1    3    3  502    0 -0.74847322064E+03 -0.10354869322E+04 -0.15232683018E+03  0.12867201802E+04  0.10100000352E+00 0.  1.
       -3    1    3    3    0  502  0.74847322064E+03  0.10354869322E+04  0.22108091454E+03  0.12966580620E+04  0.10100000352E+00 0. -1.
</event>
<event>
 5   0  0.6984287E-06  0.2600560E+04  0.7818609E-02  0.8368011E-01
       -1   -1    0    0    0  501  0.00000000000E+00  0.00000000000E+00  0.87638264644E+03  0.87638264645E+03  0.50400001928E-02 0.  1.
        1   -1    0    0  501    0  0.00000000000E+00  0.00000000000E+00 -0.19292129076E+04  0.19292129076E+04  0.50400001928E-02 0. -1.
    10030    2    1    2    0    0  0.00000000000E+00  0.00000000000E+00 -0.10528302611E+04  0.28055955540E+04  0.26005604884E+04 0.  0.
        3    1    3    3  502    0 -0.59716654437E+03  0.44307797017E+03  0.62436297714E+03  0.97095576974E+03  0.10100000352E+00 0.  1.
       -3    1    3    3    0  502  0.59716654437E+03 -0.44307797017E+03 -0.16771932383E+04  0.18346397843E+04  0.10100000352E+00 0. -1.
</event>
<event>
 5   0  0.5840500E-06  0.2592816E+04  0.7818609E-02  0.8370646E-01
        3   -1    0    0  501    0  0.00000000000E+00  0.00000000000E+00  0.13359302755E+04  0.13359302793E+04  0.10100000352E+00 0. -1.
       -3   -1    0    0    0  501  0.00000000000E+00  0.00000000000E+00 -0.12580547138E+04  0.12580547179E+04  0.10100000352E+00 0.  1.
    10030    2    1    2    0    0  0.00000000000E+00  0.00000000000E+00  0.77875561677E+02  0.25939849972E+04  0.25928157595E+04 0.  0.
        3    1    3    3  502    0  0.11149729050E+03 -0.11633844417E+04  0.60024192296E+03  0.13138437431E+04  0.10100000352E+00 0. -1.
       -3    1    3    3    0  502 -0.11149729050E+03  0.11633844417E+04 -0.52236636128E+03  0.12801412541E+04  0.10100000352E+00 0.  1.
</event>
<event>
 5   0  0.6984287E-06  0.2619201E+04  0.7818609E-02  0.8361708E-01
       -1   -1    0    0    0  501  0.00000000000E+00  0.00000000000E+00  0.93229015676E+03  0.93229015678E+03  0.50400001928E-02 0. -1.
        1   -1    0    0  501    0  0.00000000000E+00  0.00000000000E+00 -0.18396135247E+04  0.18396135247E+04  0.50400001928E-02 0.  1.
    10030    2    1    2    0    0  0.00000000000E+00  0.00000000000E+00 -0.90732336796E+03  0.27719036815E+04  0.26192010854E+04 0.  0.
        3    1    3    3  502    0  0.42811124027E+03 -0.11874496840E+04 -0.84410722926E+02  0.12650854384E+04  0.10100000352E+00 0.  1.
       -3    1    3    3    0  502 -0.42811124027E+03  0.11874496840E+04 -0.82291264504E+03  0.15068182431E+04  0.10100000352E+00 0. -1.
</event>
<event>
 5   0  0.7138294E-06  0.2587530E+04  0.7818609E-02  0.8372449E-01
        1   -1    0    0  501    0  0.00000000000E+00  0.00000000000E+00  0.14675179293E+04  0.14675179293E+04  0.50400001928E-02 0. -1.
       -1   -1    0    0    0  501  0.00000000000E+00  0.00000000000E+00 -0.11405842278E+04  0.11405842278E+04  0.50400001928E-02 0.  1.
    10030    2    1    2    0    0  0.00000000000E+00  0.00000000000E+00  0.32693370151E+03  0.26081021571E+04  0.25875299451E+04 0.  0.
        2    1    3    3  502    0 -0.10212351006E+04 -0.62471526115E+03 -0.33098144203E+03  0.12420704502E+04  0.25500000920E-02 0.  1.
       -2    1    3    3    0  502  0.10212351006E+04  0.62471526115E+03  0.65791514354E+03  0.13660317069E+04  0.25500000920E-02 0. -1.
</event>
<event>
 5   0  0.6706225E-06  0.2871483E+04  0.7818609E-02  0.8281413E-01
        1   -1    0    0  501    0  0.00000000000E+00  0.00000000000E+00  0.12033722994E+04  0.12033722994E+04  0.50400001928E-02 0.  1.
       -1   -1    0    0    0  501  0.00000000000E+00  0.00000000000E+00 -0.17129809783E+04  0.17129809783E+04  0.50400001928E-02 0. -1.
    10030    2    1    2    0    0  0.00000000000E+00  0.00000000000E+00 -0.50960867886E+03  0.29163532778E+04  0.28714831421E+04 0.  0.
        5    1    3    3  502    0 -0.13644757072E+04  0.19813724475E+02  0.19842583378E+03  0.13789784047E+04  0.46999998093E+01 0.  1.
       -5    1    3    3    0  502  0.13644757072E+04 -0.19813724475E+02 -0.70803451265E+03  0.15373748730E+04  0.46999998093E+01 0. -1.
</event>
<event>
 5   0  0.1869956E-05  0.2599614E+04  0.7818609E-02  0.8368332E-01
       -2   -1    0    0    0  501  0.00000000000E+00  0.00000000000E+00  0.96024779005E+03  0.96024779005E+03  0.25500000920E-02 0.  1.
        2   -1    0    0  501    0  0.00000000000E+00  0.00000000000E+00 -0.17594393967E+04  0.17594393967E+04  0.25500000920E-02 0. -1.
    10030    2    1    2    0    0  0.00000000000E+00  0.00000000000E+00 -0.79919160661E+03  0.27196871867E+04  0.25996136577E+04 0.  0.
        5    1    3    3  502    0 -0.12294821118E+03  0.12659417351E+04 -0.11935974698E+03  0.12774950405E+04  0.46999998093E+01 0. -1.
       -5    1    3    3    0  502  0.12294821118E+03 -0.12659417351E+04 -0.67983185963E+03  0.14421921462E+04  0.46999998093E+01 0.  1.
</event>
<event>
 5   0  0.6706225E-06  0.2586784E+04  0.7818609E-02  0.8372704E-01
        1   -1    0    0  501    0  0.00000000000E+00  0.00000000000E+00  0.16327859863E+04  0.16327859863E+04  0.50400001928E-02 0.  1.
       -1   -1    0    0    0  501  0.00000000000E+00  0.00000000000E+00 -0.10245450812E+04  0.10245450813E+04  0.50400001928E-02 0. -1.
    10030    2    1    2    0    0  0.00000000000E+00  0.00000000000E+00  0.60824090506E+03  0.26573310676E+04  0.25867839887E+04 0.  0.
        5    1    3    3  502    0  0.70489163624E+02 -0.12482054339E+04 -0.36362895561E+02  0.12507317369E+04  0.46999998093E+01 0. -1.
       -5    1    3    3    0  502 -0.70489163624E+02  0.12482054339E+04  0.64460380062E+03  0.14065993307E+04  0.46999998093E+01 0.  1.
</event>
<event>
 5   0  0.1702345E-05  0.2640401E+04  0.7818609E-02  0.8354606E-01
       -2   -1    0    0    0  501  0.00000000000E+00  0.00000000000E+00  0.15096992361E+04  0.15096992361E+04  0.25500000920E-02 0. -1.
        2   -1    0    0  501    0  0.00000000000E+00  0.00000000000E+00 -0.11544875379E+04  0.11544875379E+04  0.25500000920E-02 0.  1.
    10030    2    1    2    0    0  0.00000000000E+00  0.00000000000E+00  0.35521169819E+03  0.26641867740E+04  0.26404006923E+04 0.  0.
        1    1    3    3  502    0  0.47836958761E+03 -0.15935241715E+02  0.14190708146E+04  0.14976158958E+04  0.50400001928E-02 0. -1.
       -1    1    3    3    0  502 -0.47836958761E+03  0.15935241715E+02 -0.10638591164E+04  0.11665708782E+04  0.50400001928E-02 0.  1.
</event>
<event>
 5   0  0.6993678E-06  0.2628265E+04  0.7818609E-02  0.8358663E-01
       -1   -1    0    0    0  501  0.00000000000E+00  0.00000000000E+00  0.16653639822E+04  0.16653639822E+04  0.50400001928E-02 0.  1.
        1   -1    0    0  501    0  0.00000000000E+00  0.00000000000E+00 -0.10369767196E+04  0.10369767196E+04  0.50400001928E-02 0. -1.
    10030    2    1    2    0    0  0.00000000000E+00  0.00000000000E+00  0.62838726255E+03  0.27023407018E+04  0.26282645827E+04 0.  0.
        1    1    3    3  502    0 -0.86513814803E+03  0.70222177616E+03  0.10305100539E+04  0.15177385840E+04  0.50400001928E-02 0.  1.
       -1    1    3    3    0  502  0.86513814803E+03 -0.70222177616E+03 -0.40212279138E+03  0.11846021178E+04  0.50400001928E-02 0. -1.
</event>
<event>
 5   0  0.1677971E-05  0.2579896E+04  0.7818609E-02  0.8375062E-01
       -2   -1    0    0    0  501  0.00000000000E+00  0.00000000000E+00  0.13594764437E+04  0.13594764437E+04  0.25500000920E-02 0. -1.
        2   -1    0    0  501    0  0.00000000000E+00  0.00000000000E+00 -0.12239750571E+04  0.12239750571E+04  0.25500000920E-02 0.  1.
    10030    2    1    2    0    0  0.00000000000E+00  0.00000000000E+00  0.13550138659E+03  0.25834515008E+04  0.25798955466E+04 0.  0.
        4    1    3    3  502    0 -0.11887124882E+04  0.50048539868E+03  0.88770842437E+02  0.12928282520E+04  0.12699999809E+01 0. -1.
       -4    1    3    3    0  502  0.11887124882E+04 -0.50048539868E+03  0.46730544158E+02  0.12906232488E+04  0.12699999809E+01 0.  1.
</event>
<event>
 5   0  0.1720129E-05  0.2515838E+04  0.7818609E-02  0.8397365E-01
        2   -1    0    0  501    0  0.00000000000E+00  0.00000000000E+00  0.15274207690E+04  0.15274207690E+04  0.25500000920E-02 0. -1.
       -2   -1    0    0    0  501  0.00000000000E+00  0.00000000000E+00 -0.10359685235E+04  0.10359685235E+04  0.25500000920E-02 0.  1.
    10030    2    1    2    0    0  0.00000000000E+00  0.00000000000E+00  0.49145224550E+03  0.25633892925E+04  0.25158377045E+04 0.  0.
        3    1    3    3  502    0 -0.11011904094E+04  0.36091656312E+03 -0.25288898287E+03  0.11861003040E+04  0.10100000352E+00 0.  1.
       -3    1    3    3    0  502  0.11011904094E+04 -0.36091656312E+03  0.74434122836E+03  0.13772889885E+04  0.10100000352E+00 0. -1.
</event>
<event>
 5   0  0.6984287E-06  0.2587317E+04  0.7818609E-02  0.8372522E-01
        1   -1    0    0  501    0  0.00000000000E+00  0.00000000000E+00  0.13962178720E+04  0.13962178720E+04  0.50400001928E-02 0.  1.
       -1   -1    0    0    0  501  0.00000000000E+00  0.00000000000E+00 -0.11986323343E+04  0.11986323343E+04  0.50400001928E-02 0. -1.
    10030    2    1    2    0    0  0.00000000000E+00  0.00000000000E+00  0.19758553766E+03  0.25948502063E+04  0.25873166695E+04 0.  0.
        3    1    3    3  502    0 -0.78421851810E+03  0.59182686769E+03  0.94284541070E+03  0.13616957091E+04  0.10100000352E+00 0.  1.
       -3    1    3    3    0  502  0.78421851810E+03 -0.59182686769E+03 -0.74525987304E+03  0.12331544972E+04  0.10100000352E+00 0. -1.
</event>
<event>
 5   0  0.6706225E-06  0.2601019E+04  0.7818609E-02  0.8367855E-01
        1   -1    0    0  501    0  0.00000000000E+00  0.00000000000E+00  0.10420181466E+04  0.10420181466E+04  0.50400001928E-02 0.  1.
       -1   -1    0    0    0  501  0.00000000000E+00  0.00000000000E+00 -0.16231238500E+04  0.16231238500E+04  0.50400001928E-02 0. -1.
    10030    2    1    2    0    0  0.00000000000E+00  0.00000000000E+00 -0.58110570337E+03  0.26651419966E+04  0.26010186511E+04 0.  0.
        5    1    3    3  502    0  0.67611650946E+03 -0.11520798000E+03 -0.14227347902E+04  0.15794311590E+04  0.46999998093E+01 0. -1.
       -5    1    3    3    0  502 -0.67611650946E+03  0.11520798000E+03  0.84162908679E+03  0.10857108375E+04  0.46999998093E+01 0.  1.
</event>
<event>
 5   0  0.6918420E-06  0.2535738E+04  0.7818609E-02  0.8390363E-01
       -1   -1    0    0    0  501  0.00000000000E+00  0.00000000000E+00  0.15146208013E+04  0.15146208013E+04  0.50400001928E-02 0. -1.
        1   -1    0    0  501    0  0.00000000000E+00  0.00000000000E+00 -0.10613160370E+04  0.10613160370E+04  0.50400001928E-02 0.  1.
    10030    2    1    2    0    0  0.00000000000E+00  0.00000000000E+00  0.45330476431E+03  0.25759368382E+04  0.25357376413E+04 0.  0.
        4    1    3    3  502    0  0.11195134786E+04  0.47347107974E+03 -0.13962490342E+03  0.12235121653E+04  0.12699999809E+01 0. -1.
       -4    1    3    3    0  502 -0.11195134786E+04 -0.47347107974E+03  0.59292966774E+03  0.13524246729E+04  0.12699999809E+01 0.  1.
</event>
<event>
 5   0  0.1720129E-05  0.2521087E+04  0.7818609E-02  0.8395511E-01
       -2   -1    0    0    0  501  0.00000000000E+00  0.00000000000E+00  0.91116766088E+03  0.91116766089E+03  0.25500000920E-02 0. -1.
        2   -1    0    0  501    0  0.00000000000E+00  0.00000000000E+00 -0.17438836863E+04  0.17438836863E+04  0.25500000920E-02 0.  1.
    10030    2    1    2    0    0  0.00000000000E+00  0.00000000000E+00 -0.83271602545E+03  0.26550513472E+04  0.25210873998E+04 0.  0.
        3    1    3    3  502    0 -0.28661157055E+03  0.78539051475E+03  0.57716195384E+03  0.10159234145E+04  0.10100000352E+00 0. -1.
       -3    1    3    3    0  502  0.28661157055E+03 -0.78539051475E+03 -0.14098779793E+04  0.16391279327E+04  0.10100000352E+00 0.  1.
</event>
<event>
 5   0  0.1681731E-05  0.2665885E+04  0.7818609E-02  0.8346160E-01
        2   -1    0    0  501    0  0.00000000000E+00  0.00000000000E+00  0.15930887792E+04  0.15930887792E+04  0.25500000920E-02 0.  1.
       -2   -1    0    0    0  501  0.00000000000E+00  0.00000000000E+00 -0.11152773004E+04  0.11152773004E+04  0.25500000920E-02 0. -1.
    10030    2    1    2    0    0  0.00000000000E+00  0.00000000000E+00  0.47781147878E+03  0.27083660796E+04  0.26658850335E+04 0.  0.
        2    1    3    3  502    0 -0.23782046672E+03 -0.26445396120E+02  0.15710898164E+04  0.15892077097E+04  0.25500000920E-02 0.  1.
       -2    1    3    3    0  502  0.23782046672E+03  0.26445396120E+02 -0.10932783376E+04  0.11191583699E+04  0.25500000920E-02 0. -1.
</event>
<event>
 5   0  0.1720129E-05  0.2634401E+04  0.7818609E-02  0.8356609E-01
       -2   -1    0    0    0  501  0.00000000000E+00  0.00000000000E+00  0.16585595035E+04  0.16585595035E+04  0.25500000920E-02 0.  1.
        2   -1    0    0  501    0  0.00000000000E+00  0.00000000000E+00 -0.10460987838E+04  0.10460987838E+04  0.25500000920E-02 0. -1.
    10030    2    1    2    0    0  0.00000000000E+00  0.00000000000E+00  0.61246071970E+03  0.27046582872E+04  0.26344009409E+04 0.  0.
        3    1    3    3  502    0  0.12986291471E+03  0.12409580638E+04  0.73959638460E+03  0.14504634139E+04  0.10100000352E+00 0.  1.
       -3    1    3    3    0  502 -0.12986291471E+03 -0.12409580638E+04 -0.12713566490E+03  0.12541948733E+04  0.10100000352E+00 0. -1.
</event>
<event>
 5   0  0.1681731E-05  0.2623391E+04  0.7818609E-02  0.8360299E-01
       -2   -1    0    0    0  501  0.00000000000E+00  0.00000000000E+00  0.11848545720E+04  0.11848545720E+04  0.25500000920E-02 0.  1.
        2   -1    0    0  501    0  0.00000000000E+00  0.00000000000E+00 -0.14521146968E+04  0.14521146968E+04  0.25500000920E-02 0. -1.
    10030    2    1    2    0    0  0.00000000000E+00  0.00000000000E+00 -0.26726012479E+03  0.26369692688E+04  0.26233907354E+04 0.  0.
        2    1    3    3  502    0  0.10247596403E+04  0.80063636477E+03 -0.30596374406E+03  0.13359508680E+04  0.25500000920E-02 0.  1.
       -2    1    3    3    0  502 -0.10247596403E+04 -0.80063636477E+03  0.38703619271E+02  0.13010184008E+04  0.25500000920E-02 0. -1.
</event>
<event>
 5   0  0.1720129E-05  0.2402384E+04  0.7818609E-02  0.8438612E-01
       -2   -1    0    0    0  501  0.00000000000E+00  0.00000000000E+00  0.81155757209E+03  0.81155757209E+03  0.25500000920E-02 0. -1.
        2   -1    0    0  501    0  0.00000000000E+00  0.00000000000E+00 -0.17778921940E+04  0.17778921940E+04  0.25500000920E-02 0.  1.
    10030    2    1    2    0    0  0.00000000000E+00  0.00000000000E+00 -0.96633462186E+03  0.25894497660E+04  0.24023837099E+04 0.  0.
        3    1    3    3  502    0  0.31144822983E+03 -0.91917213576E+03  0.27974959328E+03  0.10100184455E+04  0.10100000352E+00 0. -1.
       -3    1    3    3    0  502 -0.31144822983E+03  0.91917213576E+03 -0.12460842151E+04  0.15794313206E+04  0.10100000352E+00 0.  1.
</event>
<event>
 5   0  0.1869956E-05  0.2603473E+04  0.7818609E-02  0.8367023E-01
        2   -1    0    0  501    0  0.00000000000E+00  0.00000000000E+00  0.16674003581E+04  0.16674003581E+04  0.25500000920E-02 0. -1.
       -2   -1    0    0    0  501  0.00000000000E+00  0.00000000000E+00 -0.10162631901E+04  0.10162631901E+04  0.25500000920E-02 0.  1.
    10030    2    1    2    0    0  0.00000000000E+00  0.00000000000E+00  0.65113716797E+03  0.26836635482E+04  0.26034727631E+04 0.  0.
        5    1    3    3  502    0  0.11934377107E+04 -0.26575235855E+03  0.78606999046E+03  0.14535632100E+04  0.46999998093E+01 0. -1.
       -5    1    3    3    0  502 -0.11934377107E+04  0.26575235855E+03 -0.13493282249E+03  0.12301003382E+04  0.46999998093E+01 0.  1.
</event>
<event>
 5   0  0.1677971E-05  0.2603865E+04  0.7818609E-02  0.8366890E-01
       -2   -1    0    0    0  501  0.00000000000E+00  0.00000000000E+00  0.17110639823E+04  0.17110639823E+04  0.25500000920E-02 0. -1.
        2   -1    0    0  501    0  0.00000000000E+00  0.00000000000E+00 -0.99062826574E+03  0.99062826575E+03  0.25500000920E-02 0.  1.
    10030    2    1    2    0    0  0.00000000000E+00  0.00000000000E+00  0.72043571659E+03  0.27016922481E+04  0.26038650851E+04 0.  0.
        4    1    3    3  502    0 -0.46201581904E+03 -0.98565409882E+03  0.11012303435E+04  0.15484451885E+04  0.12699999809E+01 0.  1.
       -4    1    3    3    0  502  0.46201581904E+03  0.98565409882E+03 -0.38079462690E+03  0.11532470595E+04  0.12699999809E+01 0. -1.
</event>
<event>
 5   0  0.1677971E-05  0.2574870E+04  0.7818609E-02  0.8376788E-01
       -2   -1    0    0    0  501  0.00000000000E+00  0.00000000000E+00  0.68760310007E+03  0.68760310008E+03  0.25500000920E-02 0. -1.
        2   -1    0    0  501    0  0.00000000000E+00  0.00000000000E+00 -0.24105321092E+04  0.24105321092E+04  0.25500000920E-02 0.  1.
    10030    2    1    2    0    0  0.00000000000E+00  0.00000000000E+00 -0.17229290092E+04  0.30981352093E+04  0.25748703666E+04 0.  0.
        4    1    3    3  502    0 -0.39381057016E+03  0.97849967637E+02  0.60864486461E+03  0.73151320251E+03  0.12699999809E+01 0. -1.
       -4    1    3    3    0  502  0.39381057016E+03 -0.97849967637E+02 -0.23315738738E+04  0.23666220068E+04  0.12699999809E+01 0.  1.
</event>
<event>
 5   0  0.6993678E-06  0.2562822E+04  0.7818609E-02  0.8380941E-01
       -1   -1    0    0    0  501  0.00000000000E+00  0.00000000000E+00  0.12451790620E+04  0.12451790620E+04  0.50400001928E-02 0.  1.
        1   -1    0    0  501    0  0.00000000000E+00  0.00000000000E+00 -0.13186968879E+04  0.13186968879E+04  0.50400001928E-02 0. -1.
    10030    2    1    2    0    0  0.00000000000E+00  0.00000000000E+00 -0.73517825925E+02  0.25638759499E+04  0.25628216902E+04 0.  0.
        1    1    3    3  502    0 -0.11669149702E+04  0.38690542247E+03  0.32481389307E+03  0.12715700605E+04  0.50400001928E-02 0. -1.
       -1    1    3    3    0  502  0.11669149702E+04 -0.38690542247E+03 -0.39833171899E+03  0.12923058894E+04  0.50400001928E-02 0.  1.
</event>
<event>
 5   0  0.1681731E-05  0.2606429E+04  0.7818609E-02  0.8366021E-01
        2   -1    0    0  501    0  0.00000000000E+00  0.00000000000E+00  0.11843522330E+04  0.11843522330E+04  0.25500000920E-02 0. -1.
       -2   -1    0    0    0  501  0.00000000000E+00  0.00000000000E+00 -0.14340058169E+04  0.14340058169E+04  0.25500000920E-02 0.  1.
    10030    2    1    2    0    0  0.00000000000E+00  0.00000000000E+00 -0.24965358390E+03  0.26183580500E+04  0.26064289681E+04 0.  0.
        2    1    3    3  502    0 -0.57781407879E+03  0.10544616133E+04 -0.62972991351E+03  0.13573202155E+04  0.25500000920E-02 0.  1.
       -2    1    3    3    0  502  0.57781407879E+03 -0.10544616133E+04  0.38007632961E+03  0.12610378344E+04  0.25500000920E-02 0. -1.
</event>
<event>
 5   0  0.6706225E-06  0.2605788E+04  0.7818609E-02  0.8366238E-01
       -1   -1    0    0    0  501  0.00000000000E+00  0.00000000000E+00  0.18145767230E+04  0.18145767230E+04  0.50400001928E-02 0. -1.
        1   -1    0    0  501    0  0.00000000000E+00  0.00000000000E+00 -0.93549782428E+03  0.93549782430E+03  0.50400001928E-02 0.  1.
    10030    2    1    2    0    0  0.00000000000E+00  0.00000000000E+00  0.87907889869E+03  0.27500745473E+04  0.26057878474E+04 0.  0.
        5    1    3    3  502    0 -0.91585692214E+03  0.56129861544E+03 -0.33862122982E+03  0.11262932410E+04  0.46999998093E+01 0.  1.
       -5    1    3    3    0  502  0.91585692214E+03 -0.56129861544E+03  0.12177001285E+04  0.16237813062E+04  0.46999998093E+01 0. -1.
</event>
<event>
 5   0  0.6993678E-06  0.2557958E+04  0.7818609E-02  0.8382624E-01
        1   -1    0    0  501    0  0.00000000000E+00  0.00000000000E+00  0.49421597303E+03  0.49421597305E+03  0.50400001928E-02 0.  1.
       -1   -1    0    0    0  501  0.00000000000E+00  0.00000000000E+00 -0.33098637165E+04  0.33098637165E+04  0.50400001928E-02 0. -1.
    10030    2    1    2    0    0  0.00000000000E+00  0.00000000000E+00 -0.28156477434E+04  0.38040796895E+04  0.25579581836E+04 0.  0.
        1    1    3    3  502    0 -0.60358088482E+02 -0.12205374243E+04 -0.19690801256E+04  0.23174622422E+04  0.50400001928E-02 0.  1.
       -1    1    3    3    0  502  0.60358088482E+02  0.12205374243E+04 -0.84656761788E+03  0.14866174473E+04  0.50400001928E-02 0. -1.
</event>
<event>
 5   0  0.6706225E-06  0.2608243E+04  0.7818609E-02  0.8365407E-01
       -1   -1    0    0    0  501  0.00000000000E+00  0.00000000000E+00  0.15577511291E+04  0.15577511291E+04  0.50400001928E-02 0. -1.
        1   -1    0    0  501    0  0.00000000000E+00  0.00000000000E+00 -0.10917874309E+04  0.10917874309E+04  0.50400001928E-02 0.  1.
    10030    2    1    2    0    0  0.00000000000E+00  0.00000000000E+00  0.46596369824E+03  0.26495385600E+04  0.26082431660E+04 0.  0.
        5    1    3    3  502    0 -0.65586281485E+03 -0.70275538901E+03  0.11282352502E+04  0.14822138977E+04  0.46999998093E+01 0. -1.
       -5    1    3    3    0  502  0.65586281485E+03  0.70275538901E+03 -0.66227155197E+03  0.11673246623E+04  0.46999998093E+01 0.  1.
</event>
<event>
 5   0  0.1702345E-05  0.2602365E+04  0.7818609E-02  0.8367398E-01
       -2   -1    0    0    0  501  0.00000000000E+00  0.00000000000E+00  0.63838463567E+03  0.63838463568E+03  0.25500000920E-02 0.  1.
        2   -1    0    0  501    0  0.00000000000E+00  0.00000000000E+00 -0.26521254564E+04  0.26521254564E+04  0.25500000920E-02 0. -1.
    10030    2    1    2    0    0  0.00000000000E+00  0.00000000000E+00 -0.20137408208E+04  0.32905100921E+04  0.26023651883E+04 0.  0.
        1    1    3    3  502    0  0.11453314582E+03 -0.12839445733E+04 -0.78265355299E+03  0.15080378287E+04  0.50400001928E-02 0.  1.
       -1    1    3    3    0  502 -0.11453314582E+03  0.12839445733E+04 -0.12310872678E+04  0.17824722634E+04  0.50400001928E-02 0. -1.
</event>
<event>
 5   0  0.1720129E-05  0.2602288E+04  0.7818609E-02  0.8367425E-01
        2   -1    0    0  501    0  0.00000000000E+00  0.00000000000E+00  0.11091707422E+04  0.11091707422E+04  0.25500000920E-02 0.  1.
       -2   -1    0    0    0  501  0.00000000000E+00  0.00000000000E+00 -0.15263430894E+04  0.15263430894E+04  0.25500000920E-02 0. -1.
    10030    2    1    2    0    0  0.00000000000E+00  0.00000000000E+00 -0.41717234727E+03  0.26355138316E+04  0.26022875301E+04 0.  0.
        3    1    3    3  502    0  0.12680343197E+04 -0.18520987116E+02  0.86198987132E+02  0.12710957236E+04  0.10100000352E+00 0. -1.
       -3    1    3    3    0  502 -0.12680343197E+04  0.18520987116E+02 -0.50337133440E+03  0.13644181080E+04  0.10100000352E+00 0.  1.
</event>
<event>
 5   0  0.1869956E-05  0.2639153E+04  0.7818609E-02  0.8355022E-01
        2   -1    0    0  501    0  0.00000000000E+00  0.00000000000E+00  0.24055999226E+04  0.24055999226E+04  0.25500000920E-02 0. -1.
       -2   -1    0    0    0  501  0.00000000000E+00  0.00000000000E+00 -0.72384512582E+03  0.72384512582E+03  0.25500000920E-02 0.  1.
    10030    2    1    2    0    0  0.00000000000E+00  0.00000000000E+00  0.16817547967E+04  0.31294450484E+04  0.26391527266E+04 0.  0.
        5    1    3    3  502    0  0.75862260384E+03  0.10712530449E+04  0.68104658135E+03  0.14788299014E+04  0.46999998093E+01 0. -1.
       -5    1    3    3    0  502 -0.75862260384E+03 -0.10712530449E+04  0.10007082154E+04  0.16506151470E+04  0.46999998093E+01 0.  1.
</event>
<event>
 5   0  0.6706225E-06  0.2607604E+04  0.7818609E-02  0.8365623E-01
        1   -1    0    0  501    0  0.00000000000E+00  0.00000000000E+00  0.12309622582E+04  0.12309622582E+04  0.50400001928E-02 0. -1.
       -1   -1    0    0    0  501  0.00000000000E+00  0.00000000000E+00 -0.13809516535E+04  0.13809516535E+04  0.50400001928E-02 0.  1.
    10030    2    1    2    0    0  0.00000000000E+00  0.00000000000E+00 -0.14998939530E+03  0.26119139117E+04  0.26076037781E+04 0.  0.
        5    1    3    3  502    0 -0.22600312909E+03 -0.12039362758E+03  0.12055178634E+04  0.12324234049E+04  0.46999998093E+01 0. -1.
       -5    1    3    3    0  502  0.22600312909E+03  0.12039362758E+03 -0.13555072587E+04  0.13794905068E+04  0.46999998093E+01 0.  1.
</event>
<event>
 5   0  0.1720129E-05  0.2603342E+04  0.7818609E-02  0.8367067E-01
       -2   -1    0    0    0  501  0.00000000000E+00  0.00000000000E+00  0.88661674354E+03  0.88661674355E+03  0.25500000920E-02 0. -1.
        2   -1    0    0  501    0  0.00000000000E+00  0.00000000000E+00 -0.19110250811E+04  0.19110250811E+04  0.25500000920E-02 0.  1.
    10030    2    1    2    0    0  0.00000000000E+00  0.00000000000E+00 -0.10244083375E+04  0.27976418246E+04  0.26033415713E+04 0.  0.
        3    1    3    3  502    0  0.59605494296E+03 -0.41449955950E+03 -0.16732354280E+04  0.18239539982E+04  0.10100000352E+00 0.  1.
       -3    1    3    3    0  502 -0.59605494296E+03  0.41449955950E+03  0.64882709045E+03  0.97368782644E+03  0.10100000352E+00 0. -1.
</event>
<event>
 5   0  0.1677971E-05  0.2392806E+04  0.7818609E-02  0.8442202E-01
       -2   -1    0    0    0  501  0.00000000000E+00  0.00000000000E+00  0.54588957047E+03  0.54588957047E+03  0.25500000920E-02 0. -1.
        2   -1    0    0  501    0  0.00000000000E+00  0.00000000000E+00 -0.26221047441E+04  0.26221047441E+04  0.25500000920E-02 0.  1.
    10030    2    1    2    0    0  0.00000000000E+00  0.00000000000E+00 -0.20762151736E+04  0.31679943145E+04  0.23928055771E+04 0.  0.
        4    1    3    3  502    0 -0.52803602891E+03  0.98123378643E+03 -0.16148104566E+04  0.19619521440E+04  0.12699999809E+01 0.  1.
       -4    1    3    3    0  502  0.52803602891E+03 -0.98123378643E+03 -0.46140471696E+03  0.12060421706E+04  0.12699999809E+01 0. -1.
</event>
<event>
 5   0  0.1869956E-05  0.2647461E+04  0.7818609E-02  0.8352256E-01
       -2   -1    0    0    0  501  0.00000000000E+00  0.00000000000E+00  0.11768721927E+04  0.11768721927E+04  0.25500000920E-02 0.  1.
        2   -1    0    0  501    0  0.00000000000E+00  0.00000000000E+00 -0.14889150316E+04  0.14889150316E+04  0.25500000920E-02 0. -1.
    10030    2    1    2    0    0  0.00000000000E+00  0.00000000000E+00 -0.31204283899E+03  0.26657872243E+04  0.26474611974E+04 0.  0.
        5    1    3    3  502    0  0.48773786251E+03 -0.36669593847E+03 -0.13388384188E+04  0.14713478635E+04  0.46999998093E+01 0. -1.
       -5    1    3    3    0  502 -0.48773786251E+03  0.36669593847E+03  0.10267955798E+04  0.11944393608E+04  0.46999998093E+01 0.  1.
</event>
<event>
 5   0  0.6706225E-06  0.2558179E+04  0.7818609E-02  0.8382547E-01
        1   -1    0    0  501    0  0.00000000000E+00  0.00000000000E+00  0.18547448268E+04  0.18547448268E+04  0.50400001928E-02 0. -1.
       -1   -1    0    0    0  501  0.00000000000E+00  0.00000000000E+00 -0.88209994385E+03  0.88209994387E+03  0.50400001928E-02 0.  1.
    10030    2    1    2    0    0  0.00000000000E+00  0.00000000000E+00  0.97264488294E+03  0.27368447707E+04  0.25581792804E+04 0.  0.
        5    1    3    3  502    0  0.12103424070E+04 -0.67814499365E+02  0.49753071471E+02  0.12132703766E+04  0.46999998093E+01 0.  1.
       -5    1    3    3    0  502 -0.12103424070E+04  0.67814499365E+02  0.92289181147E+03  0.15235743941E+04  0.46999998093E+01 0. -1.
</event>
<event>
 5   0  0.1720129E-05  0.2612802E+04  0.7818609E-02  0.8363865E-01
       -2   -1    0    0    0  501  0.00000000000E+00  0.00000000000E+00  0.15260997087E+04  0.15260997087E+04  0.25500000920E-02 0. -1.
        2   -1    0    0  501    0  0.00000000000E+00  0.00000000000E+00 -0.11183306868E+04  0.11183306868E+04  0.25500000920E-02 0.  1.
    10030    2    1    2    0    0  0.00000000000E+00  0.00000000000E+00  0.40776902186E+03  0.26444303955E+04  0.26128024307E+04 0.  0.
        3    1    3    3  502    0  0.99264622458E+03  0.75984722537E+03  0.58791106717E+03  0.13814317812E+04  0.10100000352E+00 0. -1.
       -3    1    3    3    0  502 -0.99264622458E+03 -0.75984722537E+03 -0.18014204531E+03  0.12629986143E+04  0.10100000352E+00 0.  1.
</event>
<event>
 5   0  0.1702345E-05  0.2620535E+04  0.7818609E-02  0.8361259E-01
        2   -1    0    0  501    0  0.00000000000E+00  0.00000000000E+00  0.19226017324E+04  0.19226017324E+04  0.25500000920E-02 0.  1.
       -2   -1    0    0    0  501  0.00000000000E+00  0.00000000000E+00 -0.89295693834E+03  0.89295693835E+03  0.25500000920E-02 0. -1.
    10030    2    1    2    0    0  0.00000000000E+00  0.00000000000E+00  0.10296447941E+04  0.28155586708E+04  0.26205347215E+04 0.  0.
        1    1    3    3  502    0 -0.37740593635E+03  0.15375575978E+03 -0.82313407578E+03  0.91849103490E+03  0.50400001928E-02 0. -1.
       -1    1    3    3    0  502  0.37740593635E+03 -0.15375575978E+03  0.18527788699E+04  0.18970676359E+04  0.50400001928E-02 0.  1.
</event>
<event>
 5   0  0.1677971E-05  0.2579269E+04  0.7818609E-02  0.8375277E-01
        2   -1    0    0  501    0  0.00000000000E+00  0.00000000000E+00  0.10067889147E+04  0.10067889147E+04  0.25500000920E-02 0.  1.
       -2   -1    0    0    0  501  0.00000000000E+00  0.00000000000E+00 -0.16519417989E+04  0.16519417989E+04  0.25500000920E-02 0. -1.
    10030    2    1    2    0    0  0.00000000000E+00  0.00000000000E+00 -0.64515288411E+03  0.26587307136E+04  0.25792686490E+04 0.  0.
        4    1    3    3  502    0  0.41687671983E+02 -0.29618512033E+03 -0.16156927395E+04  0.16431458027E+04  0.12699999809E+01 0. -1.
       -4    1    3    3    0  502 -0.41687671983E+02  0.29618512033E+03  0.97053985538E+03  0.10155849109E+04  0.12699999809E+01 0.  1.
</event>
<event>
 5   0  0.1702345E-05  0.2605108E+04  0.7818609E-02  0.8366468E-01
        2   -1    0    0  501    0  0.00000000000E+00  0.00000000000E+00  0.16724315957E+04  0.16724315957E+04  0.25500000920E-02 0.  1.
       -2   -1    0    0    0  501  0.00000000000E+00  0.00000000000E+00 -0.10144794091E+04  0.10144794092E+04  0.25500000920E-02 0. -1.
    10030    2    1    2    0    0  0.00000000000E+00  0.00000000000E+00  0.65795218652E+03  0.26869110048E+04  0.26051083793E+04 0.  0.
        1    1    3    3  502    0 -0.40308925671E+03  0.21058568090E+03 -0.92993310467E+03  0.10351825235E+04  0.50400001928E-02 0. -1.
       -1    1    3    3    0  502  0.40308925671E+03 -0.21058568090E+03  0.15878852912E+04  0.16517284813E+04  0.50400001928E-02 0.  1.
</event>
<event>
 5   0  0.1720129E-05  0.2606092E+04  0.7818609E-02  0.8366135E-01
        2   -1    0    0  501    0  0.00000000000E+00  0.00000000000E+00  0.15973882349E+04  0.15973882349E+04  0.25500000920E-02 0.  1.
       -2   -1    0    0    0  501  0.00000000000E+00  0.00000000000E+00 -0.10629410244E+04  0.10629410244E+04  0.25500000920E-02 0. -1.
    10030    2    1    2    0    0  0.00000000000E+00  0.00000000000E+00  0.53444721057E+03  0.26603292593E+04  0.26060924671E+04 0.  0.
        3    1    3    3  502    0  0.15824497315E+02  0.11383474255E+04 -0.37988089877E+03  0.12001644818E+04  0.10100000352E+00 0. -1.
       -3    1    3    3    0  502 -0.15824497315E+02 -0.11383474255E+04  0.91432810934E+03  0.14601647775E+04  0.10100000352E+00 0.  1.
</event>
<event>
 5   0  0.1681731E-05  0.2574214E+04  0.7818609E-02  0.8377013E-01
        2   -1    0    0  501    0  0.00000000000E+00  0.00000000000E+00  0.15212760557E+04  0.15212760557E+04  0.25500000920E-02 0. -1.
       -2   -1    0    0    0  501  0.00000000000E+00  0.00000000000E+00 -0.10889830674E+04  0.10889830675E+04  0.25500000920E-02 0.  1.
    10030    2    1    2    0    0  0.00000000000E+00  0.00000000000E+00  0.43229298821E+03  0.26102591231E+04  0.25742135619E+04 0.  0.
        2    1    3    3  502    0 -0.13906908755E+03  0.12012477374E+04 -0.23082915256E+03  0.12311045591E+04  0.25500000920E-02 0.  1.
       -2    1    3    3    0  502  0.13906908755E+03 -0.12012477374E+04  0.66312214076E+03  0.13791545640E+04  0.25500000920E-02 0. -1.
</event>
<event>
 5   0  0.1702345E-05  0.2547660E+04  0.7818609E-02  0.8386201E-01
       -2   -1    0    0    0  501  0.00000000000E+00  0.00000000000E+00  0.66698547562E+03  0.66698547563E+03  0.25500000920E-02 0.  1.
        2   -1    0    0  501    0  0.00000000000E+00  0.00000000000E+00 -0.24328004569E+04  0.24328004569E+04  0.25500000920E-02 0. -1.
    10030    2    1    2    0    0  0.00000000000E+00  0.00000000000E+00 -0.17658149813E+04  0.30997859325E+04  0.25476597652E+04 0.  0.
        1    1    3    3  502    0  0.34619904312E+03 -0.24200054016E+03 -0.23451103652E+04  0.23828471759E+04  0.50400001928E-02 0. -1.
       -1    1    3    3    0  502 -0.34619904312E+03  0.24200054016E+03  0.57929538390E+03  0.71693875661E+03  0.50400001928E-02 0.  1.
</event>
<event>
 5   0  0.1681731E-05  0.2585520E+04  0.7818609E-02  0.8373136E-01
        2   -1    0    0  501    0  0.00000000000E+00  0.00000000000E+00  0.10366981338E+04  0.10366981338E+04  0.25500000920E-02 0. -1.
       -2   -1    0    0    0  501  0.00000000000E+00  0.00000000000E+00 -0.16120691186E+04  0.16120691186E+04  0.25500000920E-02 0.  1.
    10030    2    1    2    0    0  0.00000000000E+00  0.00000000000E+00 -0.57537098486E+03  0.26487672524E+04  0.25855204867E+04 0.  0.
        2    1    3    3  502    0  0.69426792785E+03  0.90599227360E+03  0.33412076804E+03  0.11893135176E+04  0.25500000920E-02 0. -1.
       -2    1    3    3    0  502 -0.69426792785E+03 -0.90599227360E+03 -0.90949175290E+03  0.14594537348E+04  0.25500000920E-02 0.  1.
</event>
<event>
 5   0  0.6993678E-06  0.2646622E+04  0.7818609E-02  0.8352535E-01
       -1   -1    0    0    0  501  0.00000000000E+00  0.00000000000E+00  0.11627599732E+04  0.11627599732E+04  0.50400001928E-02 0. -1.
        1   -1    0    0  501    0  0.00000000000E+00  0.00000000000E+00 -0.15060309533E+04  0.15060309533E+04  0.50400001928E-02 0.  1.
    10030    2    1    2    0    0  0.00000000000E+00  0.00000000000E+00 -0.34327098010E+03  0.26687909266E+04  0.26466223841E+04 0.  0.
        1    1    3    3  502    0  0.16092402177E+03 -0.28705214585E+03  0.11208404199E+04  0.11681518404E+04  0.50400001928E-02 0. -1.
       -1    1    3    3    0  502 -0.16092402177E+03  0.28705214585E+03 -0.14641114000E+04  0.15006390862E+04  0.50400001928E-02 0.  1.
</event>
<event>
 5   0  0.7138294E-06  0.2640052E+04  0.7818609E-02  0.8354722E-01
        1   -1    0    0  501    0  0.00000000000E+00  0.00000000000E+00  0.14160108451E+04  0.14160108451E+04  0.50400001928E-02 0. -1.
       -1   -1    0    0    0  501  0.00000000000E+00  0.00000000000E+00 -0.12305472975E+04  0.12305472975E+04  0.50400001928E-02 0.  1.
    10030    2    1    2    0    0  0.00000000000E+00  0.00000000000E+00  0.18546354758E+03  0.26465581427E+04  0.26400517561E+04 0.  0.
        2    1    3    3  502    0  0.84282978731E+03  0.19999969176E+03  0.10912318960E+04  0.13932512257E+04  0.25500000920E-02 0. -1.
       -2    1    3    3    0  502 -0.84282978731E+03 -0.19999969176E+03 -0.90576834843E+03  0.12533069170E+04  0.25500000920E-02 0.  1.
</event>
<event>
 5   0  0.6918420E-06  0.2578682E+04  0.7818609E-02  0.8375479E-01
       -1   -1    0    0    0  501  0.00000000000E+00  0.00000000000E+00  0.12382012014E+04  0.12382012014E+04  0.50400001928E-02 0. -1.
        1   -1    0    0  501    0  0.00000000000E+00  0.00000000000E+00 -0.13425928652E+04  0.13425928653E+04  0.50400001928E-02 0.  1.
    10030    2    1    2    0    0  0.00000000000E+00  0.00000000000E+00 -0.10439166381E+03  0.25807940667E+04  0.25786819104E+04 0.  0.
        4    1    3    3  502    0  0.72863462738E+03  0.31948082768E+03  0.96323960312E+03  0.12493232430E+04  0.12699999809E+01 0. -1.
       -4    1    3    3    0  502 -0.72863462738E+03 -0.31948082768E+03 -0.10676312669E+04  0.13314708237E+04  0.12699999809E+01 0.  1.
</event>
<event>
 5   0  0.6706225E-06  0.2605835E+04  0.7818609E-02  0.8366222E-01
        1   -1    0    0  501    0  0.00000000000E+00  0.00000000000E+00  0.20150204408E+04  0.20150204408E+04  0.50400001928E-02 0. -1.
       -1   -1    0    0    0  501  0.00000000000E+00  0.00000000000E+00 -0.84246956463E+03  0.84246956464E+03  0.50400001928E-02 0.  1.
    10030    2    1    2    0    0  0.00000000000E+00  0.00000000000E+00  0.11725508762E+04  0.28574900055E+04  0.26058345255E+04 0.  0.
        5    1    3    3  502    0  0.11627313823E+04 -0.39924407595E+03  0.11305432619E+03  0.12345620560E+04  0.46999998093E+01 0.  1.
       -5    1    3    3    0  502 -0.11627313823E+04  0.39924407595E+03  0.10594965500E+04  0.16229279494E+04  0.46999998093E+01 0. -1.
</event>
<event>
 5   0  0.1720129E-05  0.2603676E+04  0.7818609E-02  0.8366954E-01
       -2   -1    0    0    0  501  0.00000000000E+00  0.00000000000E+00  0.12133189238E+04  0.12133189238E+04  0.25500000920E-02 0. -1.
        2   -1    0    0  501    0  0.00000000000E+00  0.00000000000E+00 -0.13968147709E+04  0.13968147709E+04  0.25500000920E-02 0.  1.
    10030    2    1    2    0    0  0.00000000000E+00  0.00000000000E+00 -0.18349584716E+03  0.26101336947E+04  0.26036757053E+04 0.  0.
        3    1    3    3  502    0  0.81237178300E+03  0.80257562939E+03  0.53486742768E+03  0.12610149603E+04  0.10100000352E+00 0. -1.
       -3    1    3    3    0  502 -0.81237178300E+03 -0.80257562939E+03 -0.71836327484E+03  0.13491187344E+04  0.10100000352E+00 0.  1.
</event>
<event>
 5   0  0.1720129E-05  0.2582187E+04  0.7818609E-02  0.8374277E-01
       -2   -1    0    0    0  501  0.00000000000E+00  0.00000000000E+00  0.13383696028E+04  0.13383696028E+04  0.25500000920E-02 0. -1.
        2   -1    0    0  501    0  0.00000000000E+00  0.00000000000E+00 -0.12454873752E+04  0.12454873752E+04  0.25500000920E-02 0.  1.
    10030    2    1    2    0    0  0.00000000000E+00  0.00000000000E+00  0.92882227686E+02  0.25838569780E+04  0.25821870139E+04 0.  0.
        3    1    3    3  502    0 -0.40481148582E+03  0.12247345440E+04  0.10193318716E+03  0.12939232695E+04  0.10100000352E+00 0. -1.
       -3    1    3    3    0  502  0.40481148582E+03 -0.12247345440E+04 -0.90509594721E+01  0.12899337086E+04  0.10100000352E+00 0.  1.
</event>
<event>
 5   0  0.6984287E-06  0.2586237E+04  0.7818609E-02  0.8372891E-01
        1   -1    0    0  501    0  0.00000000000E+00  0.00000000000E+00  0.14826616467E+04  0.14826616467E+04  0.50400001928E-02 0.  1.
       -1   -1    0    0    0  501  0.00000000000E+00  0.00000000000E+00 -0.11278066513E+04  0.11278066513E+04  0.50400001928E-02 0. -1.
    10030    2    1    2    0    0  0.00000000000E+00  0.00000000000E+00  0.35485499535E+03  0.26104682980E+04  0.25862371638E+04 0.  0.
        3    1    3    3  502    0  0.71665758150E+03  0.10584484531E+04 -0.19966629064E+02  0.12784013037E+04  0.10100000352E+00 0.  1.
       -3    1    3    3    0  502 -0.71665758150E+03 -0.10584484531E+04  0.37482162442E+03  0.13320669943E+04  0.10100000352E+00 0. -1.
</event>
<event>
 5   0  0.6918420E-06  0.2635381E+04  0.7818609E-02  0.8356281E-01
       -1   -1    0    0    0  501  0.00000000000E+00  0.00000000000E+00  0.64372924285E+03  0.64372924287E+03  0.50400001928E-02 0.  1.
        1   -1    0    0  501    0  0.00000000000E+00  0.00000000000E+00 -0.26972646821E+04  0.26972646821E+04  0.50400001928E-02 0. -1.
    10030    2    1    2    0    0  0.00000000000E+00  0.00000000000E+00 -0.20535354392E+04  0.33409939249E+04  0.26353809224E+04 0.  0.
        4    1    3    3  502    0 -0.76782025576E+03 -0.10701423708E+04 -0.97679375723E+03  0.16397805634E+04  0.12699999809E+01 0.  1.
       -4    1    3    3    0  502  0.76782025576E+03  0.10701423708E+04 -0.10767416820E+04  0.17012133616E+04  0.12699999809E+01 0. -1.
</event>
<event>
 5   0  0.6706225E-06  0.2589911E+04  0.7818609E-02  0.8371636E-01
       -1   -1    0    0    0  501  0.00000000000E+00  0.00000000000E+00  0.11245016549E+04  0.11245016550E+04  0.50400001928E-02 0.  1.
        1   -1    0    0  501    0  0.00000000000E+00  0.00000000000E+00 -0.14912464649E+04  0.14912464649E+04  0.50400001928E-02 0. -1.
    10030    2    1    2    0    0  0.00000000000E+00  0.00000000000E+00 -0.36674480998E+03  0.26157481199E+04  0.25899105141E+04 0.  0.
        5    1    3    3  502    0  0.95379149025E+02 -0.78705117296E+03 -0.12174718452E+04  0.14528614920E+04  0.46999998093E+01 0. -1.
       -5    1    3    3    0  502 -0.95379149025E+02  0.78705117296E+03  0.85072703524E+03  0.11628866279E+04  0.46999998093E+01 0.  1.
</event>
<event>
 5   0  0.1677971E-05  0.2600055E+04  0.7818609E-02  0.8368182E-01
        2   -1    0    0  501    0  0.00000000000E+00  0.00000000000E+00  0.14841519821E+04  0.14841519821E+04  0.25500000920E-02 0.  1.
       -2   -1    0    0    0  501  0.00000000000E+00  0.00000000000E+00 -0.11387458799E+04  0.11387458799E+04  0.25500000920E-02 0. -1.
    10030    2    1    2    0    0  0.00000000000E+00  0.00000000000E+00  0.34540610223E+03  0.26228978619E+04  0.26000553492E+04 0.  0.
        4    1    3    3  502    0 -0.87017142024E+03 -0.57765507567E+03  0.95357505376E+03  0.14142809774E+04  0.12699999809E+01 0.  1.
       -4    1    3    3    0  502  0.87017142024E+03  0.57765507567E+03 -0.60816895153E+03  0.12086168845E+04  0.12699999809E+01 0. -1.
</event>
<event>
 5   0  0.1677971E-05  0.2573685E+04  0.7818609E-02  0.8377195E-01
        2   -1    0    0  501    0  0.00000000000E+00  0.00000000000E+00  0.11523562160E+04  0.11523562160E+04  0.25500000920E-02 0.  1.
       -2   -1    0    0    0  501  0.00000000000E+00  0.00000000000E+00 -0.14370242487E+04  0.14370242487E+04  0.25500000920E-02 0. -1.
    10030    2    1    2    0    0  0.00000000000E+00  0.00000000000E+00 -0.28466803275E+03  0.25893804647E+04  0.25736851598E+04 0.  0.
        4    1    3    3  502    0 -0.54944496697E+03  0.10929921380E+04 -0.54406927132E+03  0.13388556944E+04  0.12699999809E+01 0. -1.
       -4    1    3    3    0  502  0.54944496697E+03 -0.10929921380E+04  0.25940123857E+03  0.12505247703E+04  0.12699999809E+01 0.  1.
</event>
<event>
 5   0  0.1720129E-05  0.2605492E+04  0.7818609E-02  0.8366338E-01
       -2   -1    0    0    0  501  0.00000000000E+00  0.00000000000E+00  0.12899568645E+04  0.12899568645E+04  0.25500000920E-02 0.  1.
        2   -1    0    0  501    0  0.00000000000E+00  0.00000000000E+00 -0.13156617926E+04  0.13156617926E+04  0.25500000920E-02 0. -1.
    10030    2    1    2    0    0  0.00000000000E+00  0.00000000000E+00 -0.25704928148E+02  0.26056186571E+04  0.26054918620E+04 0.  0.
        3    1    3    3  502    0  0.94637795958E+03  0.57833052746E+03 -0.69629592752E+03  0.13095516295E+04  0.10100000352E+00 0. -1.
       -3    1    3    3    0  502 -0.94637795958E+03 -0.57833052746E+03  0.67059099937E+03  0.12960670276E+04  0.10100000352E+00 0.  1.
</event>
<event>
 5   0  0.6993678E-06  0.2613392E+04  0.7818609E-02  0.8363666E-01
       -1   -1    0    0    0  501  0.00000000000E+00  0.00000000000E+00  0.10357488882E+04  0.10357488882E+04  0.50400001928E-02 0.  1.
        1   -1    0    0  501    0  0.00000000000E+00  0.00000000000E+00 -0.16485215537E+04  0.16485215537E+04  0.50400001928E-02 0. -1.
    10030    2    1    2    0    0  0.00000000000E+00  0.00000000000E+00 -0.61277266543E+03  0.26842704419E+04  0.26133919464E+04 0.  0.
        1    1    3    3  502    0 -0.51421578363E+02 -0.57357802357E+03  0.89837850432E+03  0.10671081786E+04  0.50400001928E-02 0.  1.
       -1    1    3    3    0  502  0.51421578363E+02  0.57357802357E+03 -0.15111511698E+04  0.16171622633E+04  0.50400001928E-02 0. -1.
</event>
<event>
 5   0  0.1677971E-05  0.2549473E+04  0.7818609E-02  0.8385570E-01
       -2   -1    0    0    0  501  0.00000000000E+00  0.00000000000E+00  0.83291970896E+03  0.83291970897E+03  0.25500000920E-02 0.  1.
        2   -1    0    0  501    0  0.00000000000E+00  0.00000000000E+00 -0.19509114017E+04  0.19509114017E+04  0.25500000920E-02 0. -1.
    10030    2    1    2    0    0  0.00000000000E+00  0.00000000000E+00 -0.11179916927E+04  0.27838311106E+04  0.25494725391E+04 0.  0.
        4    1    3    3  502    0  0.92110153610E+03  0.32175518253E+03  0.33677918017E+03  0.10321706576E+04  0.12699999809E+01 0.  1.
       -4    1    3    3    0  502 -0.92110153610E+03 -0.32175518253E+03 -0.14547708729E+04  0.17516604530E+04  0.12699999809E+01 0. -1.
</event>
<event>
 5   0  0.6918420E-06  0.2456346E+04  0.7818609E-02  0.8418705E-01
        1   -1    0    0  501    0  0.00000000000E+00  0.00000000000E+00  0.96964674514E+03  0.96964674515E+03  0.50400001928E-02 0. -1.
       -1   -1    0    0    0  501  0.00000000000E+00  0.00000000000E+00 -0.15556276031E+04  0.15556276031E+04  0.50400001928E-02 0.  1.
    10030    2    1    2    0    0  0.00000000000E+00  0.00000000000E+00 -0.58598085793E+03  0.25252743482E+04  0.24563462639E+04 0.  0.
        4    1    3    3  502    0 -0.86115473540E+03  0.64882665354E+01  0.60724026450E+03  0.10537418695E+04  0.12699999809E+01 0. -1.
       -4    1    3    3    0  502  0.86115473540E+03 -0.64882665354E+01 -0.11932211224E+04  0.14715324787E+04  0.12699999809E+01 0.  1.
</event>
<event>
 5   0  0.1702345E-05  0.2633598E+04  0.7818609E-02  0.8356877E-01
        2   -1    0    0  501    0  0.00000000000E+00  0.00000000000E+00  0.27947318747E+04  0.27947318747E+04  0.25500000920E-02 0.  1.
       -2   -1    0    0    0  501  0.00000000000E+00  0.00000000000E+00 -0.62043860948E+03  0.62043860949E+03  0.25500000920E-02 0. -1.
    10030    2    1    2    0    0  0.00000000000E+00  0.00000000000E+00  0.21742932653E+04  0.34151704842E+04  0.26335979634E+04 0.  0.
        1    1    3    3  502    0 -0.81758188508E+03  0.30543836637E+03  0.23657819921E+04  0.25216377949E+04  0.50400001928E-02 0.  1.
       -1    1    3    3    0  502  0.81758188508E+03 -0.30543836637E+03 -0.19148872680E+03  0.89353268937E+03  0.50400001928E-02 0. -1.
</event>
<event>
 5   0  0.1869956E-05  0.2799971E+04  0.7818609E-02  0.8303277E-01
       -2   -1    0    0    0  501  0.00000000000E+00  0.00000000000E+00  0.93922698739E+03  0.93922698739E+03  0.25500000920E-02 0. -1.
        2   -1    0    0  501    0  0.00000000000E+00  0.00000000000E+00 -0.20867799459E+04  0.20867799459E+04  0.25500000920E-02 0.  1.
    10030    2    1    2    0    0  0.00000000000E+00  0.00000000000E+00 -0.11475529585E+04  0.30260069333E+04  0.27999714584E+04 0.  0.
        5    1    3    3  502    0  0.63523352358E+03  0.50536143584E+03  0.65892899855E+03  0.10455244260E+04  0.46999998093E+01 0. -1.
       -5    1    3    3    0  502 -0.63523352358E+03 -0.50536143584E+03 -0.18064819570E+04  0.19804825072E+04  0.46999998093E+01 0.  1.
</event>
<event>
 5   0  0.6993678E-06  0.2615132E+04  0.7818609E-02  0.8363079E-01
       -1   -1    0    0    0  501  0.00000000000E+00  0.00000000000E+00  0.65386864130E+03  0.65386864132E+03  0.50400001928E-02 0. -1.
        1   -1    0    0  501    0  0.00000000000E+00  0.00000000000E+00 -0.26147900830E+04  0.26147900830E+04  0.50400001928E-02 0.  1.
    10030    2    1    2    0    0  0.00000000000E+00  0.00000000000E+00 -0.19609214417E+04  0.32686587243E+04  0.26151323017E+04 0.  0.
        1    1    3    3  502    0 -0.71931621886E+02 -0.10745827012E+04 -0.19072670358E+04  0.21903355190E+04  0.50400001928E-02 0.  1.
       -1    1    3    3    0  502  0.71931621886E+02  0.10745827012E+04 -0.53654405882E+02  0.10783232053E+04  0.50400001928E-02 0. -1.
</event>
<event>
 5   0  0.6993678E-06  0.2617328E+04  0.7818609E-02  0.8362339E-01
        1   -1    0    0  501    0  0.00000000000E+00  0.00000000000E+00  0.17106927861E+04  0.17106927861E+04  0.50400001928E-02 0. -1.
       -1   -1    0    0    0  501  0.00000000000E+00  0.00000000000E+00 -0.10011154324E+04  0.10011154324E+04  0.50400001928E-02 0.  1.
    10030    2    1    2    0    0  0.00000000000E+00  0.00000000000E+00  0.70957735374E+03  0.27118082185E+04  0.26173276052E+04 0.  0.
        1    1    3    3  502    0  0.71439775716E+02  0.46529245662E+03 -0.91035469055E+03  0.10248640760E+04  0.50400001928E-02 0.  1.
       -1    1    3    3    0  502 -0.71439775716E+02 -0.46529245662E+03  0.16199320443E+04  0.16869441425E+04  0.50400001928E-02 0. -1.
</event>
<event>
 5   0  0.6918420E-06  0.2626128E+04  0.7818609E-02  0.8359380E-01
        1   -1    0    0  501    0  0.00000000000E+00  0.00000000000E+00  0.12307179259E+04  0.12307179259E+04  0.50400001928E-02 0. -1.
       -1   -1    0    0    0  501  0.00000000000E+00  0.00000000000E+00 -0.14009198140E+04  0.14009198140E+04  0.50400001928E-02 0.  1.
    10030    2    1    2    0    0  0.00000000000E+00  0.00000000000E+00 -0.17020188811E+03  0.26316377399E+04  0.26261280455E+04 0.  0.
        4    1    3    3  502    0 -0.28084770493E+03 -0.26903076562E+02 -0.13701862006E+04  0.13989321092E+04  0.12699999809E+01 0.  1.
       -4    1    3    3    0  502  0.28084770493E+03  0.26903076562E+02  0.11999843125E+04  0.12327056307E+04  0.12699999809E+01 0. -1.
</event>
<event>
 5   0  0.1677971E-05  0.2651459E+04  0.7818609E-02  0.8350929E-01
        2   -1    0    0  501    0  0.00000000000E+00  0.00000000000E+00  0.20799512362E+04  0.20799512362E+04  0.25500000920E-02 0. -1.
       -2   -1    0    0    0  501  0.00000000000E+00  0.00000000000E+00 -0.84499971617E+03  0.84499971618E+03  0.25500000920E-02 0.  1.
    10030    2    1    2    0    0  0.00000000000E+00  0.00000000000E+00  0.12349515201E+04  0.29249509524E+04  0.26514586207E+04 0.  0.
        4    1    3    3  502    0  0.58150462349E+03  0.32119794527E+03  0.18830901840E+04  0.19968339944E+04  0.12699999809E+01 0. -1.
       -4    1    3    3    0  502 -0.58150462349E+03 -0.32119794527E+03 -0.64813866394E+03  0.92811695802E+03  0.12699999809E+01 0.  1.
</event>
<event>
 5   0  0.6993678E-06  0.2609311E+04  0.7818609E-02  0.8365045E-01
        1   -1    0    0  501    0  0.00000000000E+00  0.00000000000E+00  0.14304797005E+04  0.14304797005E+04  0.50400001928E-02 0. -1.
       -1   -1    0    0    0  501  0.00000000000E+00  0.00000000000E+00 -0.11898983850E+04  0.11898983850E+04  0.50400001928E-02 0.  1.
    10030    2    1    2    0    0  0.00000000000E+00  0.00000000000E+00  0.24058131557E+03  0.26203780855E+04  0.26093106257E+04 0.  0.
        1    1    3    3  502    0  0.37830754257E+03 -0.73856724824E+03  0.11313017101E+04  0.14030116665E+04  0.50400001928E-02 0. -1.
       -1    1    3    3    0  502 -0.37830754257E+03  0.73856724824E+03 -0.89072039452E+03  0.12173664190E+04  0.50400001928E-02 0.  1.
</event>
<event>
 5   0  0.1702345E-05  0.2710289E+04  0.7818609E-02  0.8331674E-01
       -2   -1    0    0    0  501  0.00000000000E+00  0.00000000000E+00  0.14556626716E+04  0.14556626716E+04  0.25500000920E-02 0. -1.
        2   -1    0    0  501    0  0.00000000000E+00  0.00000000000E+00 -0.12615674073E+04  0.12615674073E+04  0.25500000920E-02 0.  1.
    10030    2    1    2    0    0  0.00000000000E+00  0.00000000000E+00  0.19409526430E+03  0.27172300788E+04  0.27102889753E+04 0.  0.
        1    1    3    3  502    0 -0.12517000427E+04  0.11548874233E+03  0.60463065861E+03  0.13948723525E+04  0.50400001928E-02 0.  1.
       -1    1    3    3    0  502  0.12517000427E+04 -0.11548874233E+03 -0.41053539432E+03  0.13223577263E+04  0.50400001928E-02 0. -1.
</event>
<event>
 5   0  0.5840500E-06  0.2599722E+04  0.7818609E-02  0.8368296E-01
       -3   -1    0    0    0  501  0.00000000000E+00  0.00000000000E+00  0.17632956942E+04  0.17632956971E+04  0.10100000352E+00 0.  1.
        3   -1    0    0  501    0  0.00000000000E+00  0.00000000000E+00 -0.95822769637E+03  0.95822770170E+03  0.10100000352E+00 0. -1.
    10030    2    1    2    0    0  0.00000000000E+00  0.00000000000E+00  0.80506799785E+03  0.27215233988E+04  0.25997221254E+04 0.  0.
        5    1    3    3  502    0 -0.39348238593E+01 -0.12740596594E+04  0.13283365537E+03  0.12809802374E+04  0.46999998093E+01 0. -1.
       -5    1    3    3    0  502  0.39348238593E+01  0.12740596594E+04  0.67223434248E+03  0.14405431614E+04  0.46999998093E+01 0.  1.
</event>
<event>
 5   0  0.6706225E-06  0.2565589E+04  0.7818609E-02  0.8379985E-01
       -1   -1    0    0    0  501  0.00000000000E+00  0.00000000000E+00  0.99268200966E+03  0.99268200967E+03  0.50400001928E-02 0.  1.
        1   -1    0    0  501    0  0.00000000000E+00  0.00000000000E+00 -0.16576929800E+04  0.16576929800E+04  0.50400001928E-02 0. -1.
    10030    2    1    2    0    0  0.00000000000E+00  0.00000000000E+00 -0.66501097036E+03  0.26503749897E+04  0.25655892102E+04 0.  0.
        5    1    3    3  502    0  0.50885070183E+02 -0.75623901236E+03  0.73661270953E+03  0.10569328777E+04  0.46999998093E+01 0.  1.
       -5    1    3    3    0  502 -0.50885070183E+02  0.75623901236E+03 -0.14016236799E+04  0.15934421120E+04  0.46999998093E+01 0. -1.
</event>
<event>
 5   0  0.1720129E-05  0.2551023E+04  0.7818609E-02  0.8385031E-01
        2   -1    0    0  501    0  0.00000000000E+00  0.00000000000E+00  0.13952317061E+04  0.13952317061E+04  0.25500000920E-02 0. -1.
       -2   -1    0    0    0  501  0.00000000000E+00  0.00000000000E+00 -0.11660640376E+04  0.11660640376E+04  0.25500000920E-02 0.  1.
    10030    2    1    2    0    0  0.00000000000E+00  0.00000000000E+00  0.22916766843E+03  0.25612957437E+04  0.25510229451E+04 0.  0.
        3    1    3    3  502    0 -0.99346377719E+03  0.76165952405E+03 -0.13101108540E+03  0.12586736757E+04  0.10100000352E+00 0.  1.
       -3    1    3    3    0  502  0.99346377719E+03 -0.76165952405E+03  0.36017875383E+03  0.13026220680E+04  0.10100000352E+00 0. -1.
</event>
<event>
 5   0  0.6993678E-06  0.2581523E+04  0.7818609E-02  0.8374504E-01
        1   -1    0    0  501    0  0.00000000000E+00  0.00000000000E+00  0.13364432684E+04  0.13364432684E+04  0.50400001928E-02 0.  1.
       -1   -1    0    0    0  501  0.00000000000E+00  0.00000000000E+00 -0.12466415612E+04  0.12466415612E+04  0.50400001928E-02 0. -1.
    10030    2    1    2    0    0  0.00000000000E+00  0.00000000000E+00  0.89801707223E+02  0.25830848296E+04  0.25815233662E+04 0.  0.
        1    1    3    3  502    0  0.22459606852E+03  0.36032390583E+03 -0.11747658826E+04  0.12491403404E+04  0.50400001928E-02 0. -1.
       -1    1    3    3    0  502 -0.22459606852E+03 -0.36032390583E+03  0.12645675898E+04  0.13339444892E+04  0.50400001928E-02 0.  1.
</event>
<event>
 5   0  0.6706225E-06  0.2593250E+04  0.7818609E-02  0.8370498E-01
        1   -1    0    0  501    0  0.00000000000E+00  0.00000000000E+00  0.13194829309E+04  0.13194829309E+04  0.50400001928E-02 0. -1.
       -1   -1    0    0    0  501  0.00000000000E+00  0.00000000000E+00 -0.12741631032E+04  0.12741631032E+04  0.50400001928E-02 0.  1.
    10030    2    1    2    0    0  0.00000000000E+00  0.00000000000E+00  0.45319827744E+02  0.25936460341E+04  0.25932500580E+04 0.  0.
        5    1    3    3  502    0 -0.42990515570E+03 -0.75397059363E+03 -0.94077543796E+03  0.12799885209E+04  0.46999998093E+01 0.  1.
       -5    1    3    3    0  502  0.42990515570E+03  0.75397059363E+03  0.98609526571E+03  0.13136575132E+04  0.46999998093E+01 0. -1.
</event>
<event>
 5   0  0.1869956E-05  0.2609298E+04  0.7818609E-02  0.8365050E-01
       -2   -1    0    0    0  501  0.00000000000E+00  0.00000000000E+00  0.68408564572E+03  0.68408564572E+03  0.25500000920E-02 0.  1.
        2   -1    0    0  501    0  0.00000000000E+00  0.00000000000E+00 -0.24881523144E+04  0.24881523144E+04  0.25500000920E-02 0. -1.
    10030    2    1    2    0    0  0.00000000000E+00  0.00000000000E+00 -0.18040666687E+04  0.31722379601E+04  0.26092982065E+04 0.  0.
        5    1    3    3  502    0  0.11741166611E+04  0.56083677192E+03 -0.78670176669E+03  0.15205293743E+04  0.46999998093E+01 0.  1.
       -5    1    3    3    0  502 -0.11741166611E+04 -0.56083677192E+03 -0.10173649020E+04  0.16517085858E+04  0.46999998093E+01 0. -1.
</event>
<event>
 5   0  0.6993678E-06  0.2363209E+04  0.7818609E-02  0.8453407E-01
       -1   -1    0    0    0  501  0.00000000000E+00  0.00000000000E+00  0.86883858695E+03  0.86883858697E+03  0.50400001928E-02 0.  1.
        1   -1    0    0  501    0  0.00000000000E+00  0.00000000000E+00 -0.16069607178E+04  0.16069607178E+04  0.50400001928E-02 0. -1.
    10030    2    1    2    0    0  0.00000000000E+00  0.00000000000E+00 -0.73812213085E+03  0.24757993048E+04  0.23632092412E+04 0.  0.
        1    1    3    3  502    0  0.11190143420E+04  0.97570499201E+02 -0.75324240308E+03  0.13524375097E+04  0.50400001928E-02 0. -1.
       -1    1    3    3    0  502 -0.11190143420E+04 -0.97570499201E+02  0.15120272226E+02  0.11233617950E+04  0.50400001928E-02 0.  1.
</event>
<event>
 5   0  0.6706225E-06  0.2602248E+04  0.7818609E-02  0.8367438E-01
       -1   -1    0    0    0  501  0.00000000000E+00  0.00000000000E+00  0.20599293090E+04  0.20599293090E+04  0.50400001928E-02 0.  1.
        1   -1    0    0  501    0  0.00000000000E+00  0.00000000000E+00 -0.82183556594E+03  0.82183556596E+03  0.50400001928E-02 0. -1.
    10030    2    1    2    0    0  0.00000000000E+00  0.00000000000E+00  0.12380937431E+04  0.28817648750E+04  0.26022476204E+04 0.  0.
        5    1    3    3  502    0 -0.96421397209E+02  0.69462260299E+03 -0.59462176089E+03  0.91945351974E+03  0.46999998093E+01 0. -1.
       -5    1    3    3    0  502  0.96421397209E+02 -0.69462260299E+03  0.18327155040E+04  0.19623113553E+04  0.46999998093E+01 0.  1.
</event>
<event>
 5   0  0.6984287E-06  0.2314645E+04  0.7818609E-02  0.8472169E-01
       -1   -1    0    0    0  501  0.00000000000E+00  0.00000000000E+00  0.12869533572E+04  0.12869533572E+04  0.50400001928E-02 0. -1.
        1   -1    0    0  501    0  0.00000000000E+00  0.00000000000E+00 -0.10407486291E+04  0.10407486291E+04  0.50400001928E-02 0.  1.
    10030    2    1    2    0    0  0.00000000000E+00  0.00000000000E+00  0.24620472816E+03  0.23277019863E+04  0.23146446312E+04 0.  0.
        3    1    3    3  502    0  0.58539728981E+03 -0.76508705978E+03 -0.52187887463E+03  0.10956303053E+04  0.10100000352E+00 0.  1.
       -3    1    3    3    0  502 -0.58539728981E+03  0.76508705978E+03  0.76808360280E+03  0.12320716810E+04  0.10100000352E+00 0. -1.
</event>
<event>
 5   0  0.1677971E-05  0.2605316E+04  0.7818609E-02  0.8366398E-01
       -2   -1    0    0    0  501  0.00000000000E+00  0.00000000000E+00  0.75404430027E+03  0.75404430027E+03  0.25500000920E-02 0.  1.
        2   -1    0    0  501    0  0.00000000000E+00  0.00000000000E+00 -0.22504218431E+04  0.22504218431E+04  0.25500000920E-02 0. -1.
    10030    2    1    2    0    0  0.00000000000E+00  0.00000000000E+00 -0.14963775429E+04  0.30044661434E+04  0.26053159225E+04 0.  0.
        4    1    3    3  502    0  0.42583622873E+03 -0.14303328500E+02 -0.21677920385E+04  0.22092679815E+04  0.12699999809E+01 0. -1.
       -4    1    3    3    0  502 -0.42583622873E+03  0.14303328500E+02  0.67141449563E+03  0.79519816194E+03  0.12699999809E+01 0.  1.
</event>
<event>
 5   0  0.7138294E-06  0.2591660E+04  0.7818609E-02  0.8371040E-01
       -1   -1    0    0    0  501  0.00000000000E+00  0.00000000000E+00  0.10785632985E+04  0.10785632985E+04  0.50400001928E-02 0. -1.
        1   -1    0    0  501    0  0.00000000000E+00  0.00000000000E+00 -0.15568632213E+04  0.15568632213E+04  0.50400001928E-02 0.  1.
    10030    2    1    2    0    0  0.00000000000E+00  0.00000000000E+00 -0.47829992278E+03  0.26354265197E+04  0.25916601098E+04 0.  0.
        2    1    3    3  502    0 -0.35945620235E+03  0.70314701799E+03 -0.12839002187E+04  0.15073235426E+04  0.25500000920E-02 0.  1.
       -2    1    3    3    0  502  0.35945620235E+03 -0.70314701799E+03  0.80560029594E+03  0.11281029772E+04  0.25500000920E-02 0. -1.
</event>
<event>
 5   0  0.5840500E-06  0.2604922E+04  0.7818609E-02  0.8366531E-01
       -3   -1    0    0    0  501  0.00000000000E+00  0.00000000000E+00  0.76426082546E+03  0.76426083213E+03  0.10100000352E+00 0.  1.
        3   -1    0    0  501    0  0.00000000000E+00  0.00000000000E+00 -0.22196672502E+04  0.22196672525E+04  0.10100000352E+00 0. -1.
    10030    2    1    2    0    0  0.00000000000E+00  0.00000000000E+00 -0.14554064247E+04  0.29839280846E+04  0.26049220627E+04 0.  0.
        3    1    3    3  502    0  0.10430685569E+04  0.18050275328E+03 -0.15969464402E+04  0.19159361162E+04  0.10100000352E+00 0. -1.
       -3    1    3    3    0  502 -0.10430685569E+04 -0.18050275328E+03  0.14154001551E+03  0.10679919684E+04  0.10100000352E+00 0.  1.
</event>
<event>
 5   0  0.1702345E-05  0.2585635E+04  0.7818609E-02  0.8373097E-01
        2   -1    0    0  501    0  0.00000000000E+00  0.00000000000E+00  0.18723562344E+04  0.18723562344E+04  0.25500000920E-02 0.  1.
       -2   -1    0    0    0  501  0.00000000000E+00  0.00000000000E+00 -0.89265947460E+03  0.89265947461E+03  0.25500000920E-02 0. -1.
    10030    2    1    2    0    0  0.00000000000E+00  0.00000000000E+00  0.97969675976E+03  0.27650157090E+04  0.25856345700E+04 0.  0.
        1    1    3    3  502    0 -0.12510105362E+04  0.32302224613E+03  0.53774161723E+03  0.13994773239E+04  0.50400001928E-02 0. -1.
       -1    1    3    3    0  502  0.12510105362E+04 -0.32302224613E+03  0.44195514253E+03  0.13655383851E+04  0.50400001928E-02 0.  1.
</event>
<event>
 5   0  0.1677971E-05  0.2593252E+04  0.7818609E-02  0.8370497E-01
        2   -1    0    0  501    0  0.00000000000E+00  0.00000000000E+00  0.27758303173E+04  0.27758303173E+04  0.25500000920E-02 0.  1.
       -2   -1    0    0    0  501  0.00000000000E+00  0.00000000000E+00 -0.60567086838E+03  0.60567086838E+03  0.25500000920E-02 0. -1.
    10030    2    1    2    0    0  0.00000000000E+00  0.00000000000E+00  0.21701594489E+04  0.33815011857E+04  0.25932524434E+04 0.  0.
        4    1    3    3  502    0  0.48405194836E+03  0.69641356395E+03 -0.19382648617E+03  0.86998187360E+03  0.12699999809E+01 0. -1.
       -4    1    3    3    0  502 -0.48405194836E+03 -0.69641356395E+03  0.23639859351E+04  0.25115193121E+04  0.12699999809E+01 0.  1.
</event>
<event>
 5   0  0.1677971E-05  0.2608128E+04  0.7818609E-02  0.8365445E-01
       -2   -1    0    0    0  501  0.00000000000E+00  0.00000000000E+00  0.10009299391E+04  0.10009299391E+04  0.25500000920E-02 0.  1.
        2   -1    0    0  501    0  0.00000000000E+00  0.00000000000E+00 -0.16990033556E+04  0.16990033556E+04  0.25500000920E-02 0. -1.
    10030    2    1    2    0    0  0.00000000000E+00  0.00000000000E+00 -0.69807341655E+03  0.26999332947E+04  0.26081283137E+04 0.  0.
        4    1    3    3  502    0 -0.33043175701E+03  0.47734137101E+03 -0.15578474365E+04  0.16625071967E+04  0.12699999809E+01 0. -1.
       -4    1    3    3    0  502  0.33043175701E+03 -0.47734137101E+03  0.85977401999E+03  0.10374260980E+04  0.12699999809E+01 0.  1.
</event>
<event>
 5   0  0.1681731E-05  0.2615284E+04  0.7818609E-02  0.8363028E-01
       -2   -1    0    0    0  501  0.00000000000E+00  0.00000000000E+00  0.74137393235E+03  0.74137393235E+03  0.25500000920E-02 0.  1.
        2   -1    0    0  501    0  0.00000000000E+00  0.00000000000E+00 -0.23064298243E+04  0.23064298243E+04  0.25500000920E-02 0. -1.
    10030    2    1    2    0    0  0.00000000000E+00  0.00000000000E+00 -0.15650558920E+04  0.30478037567E+04  0.26152835017E+04 0.  0.
        2    1    3    3  502    0  0.12160278154E+04  0.35334157202E+03 -0.11625800737E+04  0.17190597262E+04  0.25500000920E-02 0. -1.
       -2    1    3    3    0  502 -0.12160278154E+04 -0.35334157202E+03 -0.40247581821E+03  0.13287440305E+04  0.25500000920E-02 0.  1.
</event>
<event>
 5   0  0.1720129E-05  0.2588098E+04  0.7818609E-02  0.8372255E-01
       -2   -1    0    0    0  501  0.00000000000E+00  0.00000000000E+00  0.12677655115E+04  0.12677655116E+04  0.25500000920E-02 0. -1.
        2   -1    0    0  501    0  0.00000000000E+00  0.00000000000E+00 -0.13208774440E+04  0.13208774440E+04  0.25500000920E-02 0.  1.
    10030    2    1    2    0    0  0.00000000000E+00  0.00000000000E+00 -0.53111932462E+02  0.25886429556E+04  0.25880980418E+04 0.  0.
        3    1    3    3  502    0 -0.11340542003E+04  0.33735483106E+03  0.49764945428E+03  0.12835662043E+04  0.10100000352E+00 0. -1.
       -3    1    3    3    0  502  0.11340542003E+04 -0.33735483106E+03 -0.55076138674E+03  0.13050767512E+04  0.10100000352E+00 0.  1.
</event>
<event>
 5   0  0.6984287E-06  0.2606426E+04  0.7818609E-02  0.8366022E-01
       -1   -1    0    0    0  501  0.00000000000E+00  0.00000000000E+00  0.16424625857E+04  0.16424625857E+04  0.50400001928E-02 0.  1.
        1   -1    0    0  501    0  0.00000000000E+00  0.00000000000E+00 -0.10340350499E+04  0.10340350499E+04  0.50400001928E-02 0. -1.
    10030    2    1    2    0    0  0.00000000000E+00  0.00000000000E+00  0.60842753581E+03  0.26764976356E+04  0.26064258147E+04 0.  0.
        3    1    3    3  502    0 -0.87105142840E+03  0.13701761989E+03 -0.68119896795E+03  0.11142425513E+04  0.10100000352E+00 0. -1.
       -3    1    3    3    0  502  0.87105142840E+03 -0.13701761989E+03  0.12896265038E+04  0.15622550843E+04  0.10100000352E+00 0.  1.
</event>
<event>
 5   0  0.6918420E-06  0.2616863E+04  0.7818609E-02  0.8362496E-01
       -1   -1    0    0    0  501  0.00000000000E+00  0.00000000000E+00  0.14186993598E+04  0.14186993598E+04  0.50400001928E-02 0. -1.
        1   -1    0    0  501    0  0.00000000000E+00  0.00000000000E+00 -0.12067338143E+04  0.12067338143E+04  0.50400001928E-02 0.  1.
    10030    2    1    2    0    0  0.00000000000E+00  0.00000000000E+00  0.21196554547E+03  0.26254331741E+04  0.26168626175E+04 0.  0.
        4    1    3    3  502    0 -0.65062962966E+03  0.68406082458E+03  0.10148928679E+04  0.13860978584E+04  0.12699999809E+01 0. -1.
       -4    1    3    3    0  502  0.65062962966E+03 -0.68406082458E+03 -0.80292732244E+03  0.12393353157E+04  0.12699999809E+01 0.  1.
</event>
<event>
 5   0  0.1720129E-05  0.2605844E+04  0.7818609E-02  0.8366219E-01
        2   -1    0    0  501    0  0.00000000000E+00  0.00000000000E+00  0.20364500964E+04  0.20364500964E+04  0.25500000920E-02 0.  1.
       -2   -1    0    0    0  501  0.00000000000E+00  0.00000000000E+00 -0.83361012431E+03  0.83361012431E+03  0.25500000920E-02 0. -1.
    10030    2    1    2    0    0  0.00000000000E+00  0.00000000000E+00  0.12028399721E+04  0.28700602207E+04  0.26058437543E+04 0.  0.
        3    1    3    3  502    0  0.80661995457E+03  0.84454975387E+03  0.12376647701E+04  0.17016797969E+04  0.10100000352E+00 0.  1.
       -3    1    3    3    0  502 -0.80661995457E+03 -0.84454975387E+03 -0.34824798037E+02  0.11683804238E+04  0.10100000352E+00 0. -1.
</event>
<event>
 5   0  0.1681731E-05  0.2616072E+04  0.7818609E-02  0.8362762E-01
        2   -1    0    0  501    0  0.00000000000E+00  0.00000000000E+00  0.98633474022E+03  0.98633474022E+03  0.25500000920E-02 0. -1.
       -2   -1    0    0    0  501  0.00000000000E+00  0.00000000000E+00 -0.17346633617E+04  0.17346633617E+04  0.25500000920E-02 0.  1.
    10030    2    1    2    0    0  0.00000000000E+00  0.00000000000E+00 -0.74832862147E+03  0.27209981019E+04  0.26160724273E+04 0.  0.
        2    1    3    3  502    0 -0.37982844379E+03  0.12298639400E+04 -0.61614044227E+03  0.14270473021E+04  0.25500000920E-02 0.  1.
       -2    1    3    3    0  502  0.37982844379E+03 -0.12298639400E+04 -0.13218817920E+03  0.12939507999E+04  0.25500000920E-02 0. -1.
</event>
<event>
 5   0  0.6993678E-06  0.2373623E+04  0.7818609E-02  0.8449445E-01
       -1   -1    0    0    0  501  0.00000000000E+00  0.00000000000E+00  0.13385167061E+04  0.13385167061E+04  0.50400001928E-02 0.  1.
        1   -1    0    0  501    0  0.00000000000E+00  0.00000000000E+00 -0.10522999043E+04  0.10522999043E+04  0.50400001928E-02 0. -1.
    10030    2    1    2    0    0  0.00000000000E+00  0.00000000000E+00  0.28621680180E+03  0.23908166104E+04  0.23736225494E+04 0.  0.
        1    1    3    3  502    0  0.55778541290E+03 -0.32168258278E+03  0.11472838758E+04  0.13156232525E+04  0.50400001928E-02 0.  1.
       -1    1    3    3    0  502 -0.55778541290E+03  0.32168258278E+03 -0.86106707400E+03  0.10751933579E+04  0.50400001928E-02 0. -1.
</event>
<event>
 5   0  0.1702345E-05  0.2629033E+04  0.7818609E-02  0.8358406E-01
        2   -1    0    0  501    0  0.00000000000E+00  0.00000000000E+00  0.16886681442E+04  0.16886681442E+04  0.25500000920E-02 0.  1.
       -2   -1    0    0    0  501  0.00000000000E+00  0.00000000000E+00 -0.10232644758E+04  0.10232644758E+04  0.25500000920E-02 0. -1.
    10030    2    1    2    0    0  0.00000000000E+00  0.00000000000E+00  0.66540366835E+03  0.27119326200E+04  0.26290333762E+04 0.  0.
        1    1    3    3  502    0  0.17611270730E+03 -0.65013392877E+03 -0.83172593910E+03  0.10702606453E+04  0.50400001928E-02 0. -1.
       -1    1    3    3    0  502 -0.17611270730E+03  0.65013392877E+03  0.14971296074E+04  0.16416719747E+04  0.50400001928E-02 0.  1.
</event>
<event>
 5   0  0.7138294E-06  0.2629393E+04  0.7818609E-02  0.8358285E-01
        1   -1    0    0  501    0  0.00000000000E+00  0.00000000000E+00  0.17723663921E+04  0.17723663921E+04  0.50400001928E-02 0. -1.
       -1   -1    0    0    0  501  0.00000000000E+00  0.00000000000E+00 -0.97520841621E+03  0.97520841622E+03  0.50400001928E-02 0.  1.
    10030    2    1    2    0    0  0.00000000000E+00  0.00000000000E+00  0.79715797587E+03  0.27475748083E+04  0.26293927985E+04 0.  0.
        2    1    3    3  502    0  0.99707585507E+03  0.85591387246E+03  0.44138105231E+03  0.13862056309E+04  0.25500000920E-02 0. -1.
       -2    1    3    3    0  502 -0.99707585507E+03 -0.85591387246E+03  0.35577692355E+03  0.13613691774E+04  0.25500000920E-02 0.  1.
</event>
<event>
 5   0  0.1869956E-05  0.2641525E+04  0.7818609E-02  0.8354232E-01
       -2   -1    0    0    0  501  0.00000000000E+00  0.00000000000E+00  0.17408622605E+04  0.17408622605E+04  0.25500000920E-02 0. -1.
        2   -1    0    0  501    0  0.00000000000E+00  0.00000000000E+00 -0.10020396815E+04  0.10020396815E+04  0.25500000920E-02 0.  1.
    10030    2    1    2    0    0  0.00000000000E+00  0.00000000000E+00  0.73882257899E+03  0.27429019421E+04  0.26415246091E+04 0.  0.
        5    1    3    3  502    0  0.13051278199E+04 -0.15927432787E+03  0.49937062300E+03  0.14064565571E+04  0.46999998093E+01 0. -1.
       -5    1    3    3    0  502 -0.13051278199E+04  0.15927432787E+03  0.23945195600E+03  0.13364453850E+04  0.46999998093E+01 0.  1.
</event>
<event>
 5   0  0.7138294E-06  0.2587580E+04  0.7818609E-02  0.8372432E-01
        1   -1    0    0  501    0  0.00000000000E+00  0.00000000000E+00  0.20947977397E+04  0.20947977397E+04  0.50400001928E-02 0. -1.
       -1   -1    0    0    0  501  0.00000000000E+00  0.00000000000E+00 -0.79907141543E+03  0.79907141544E+03  0.50400001928E-02 0.  1.
    10030    2    1    2    0    0  0.00000000000E+00  0.00000000000E+00  0.12957263242E+04  0.28938691551E+04  0.25875803330E+04 0.  0.
        2    1    3    3  502    0  0.90298676649E+03 -0.25368581969E+03  0.16444994638E+04  0.18931772453E+04  0.25500000920E-02 0. -1.
       -2    1    3    3    0  502 -0.90298676649E+03  0.25368581969E+03 -0.34877313955E+03  0.10006919099E+04  0.25500000920E-02 0.  1.
</event>
<event>
 5   0  0.6984287E-06  0.2604825E+04  0.7818609E-02  0.8366564E-01
       -1   -1    0    0    0  501  0.00000000000E+00  0.00000000000E+00  0.99760168319E+03  0.99760168320E+03  0.50400001928E-02 0. -1.
        1   -1    0    0  501    0  0.00000000000E+00  0.00000000000E+00 -0.17003568283E+04  0.17003568283E+04  0.50400001928E-02 0.  1.
    10030    2    1    2    0    0  0.00000000000E+00  0.00000000000E+00 -0.70275514508E+03  0.26979585115E+04  0.26048253945E+04 0.  0.
        3    1    3    3  502    0 -0.15724094291E+03  0.79880590912E+03 -0.14043188814E+04  0.16232458611E+04  0.10100000352E+00 0.  1.
       -3    1    3    3    0  502  0.15724094291E+03 -0.79880590912E+03  0.70156373635E+03  0.10747126504E+04  0.10100000352E+00 0. -1.
</event>
<event>
 5   0  0.6706225E-06  0.2823888E+04  0.7818609E-02  0.8295890E-01
        1   -1    0    0  501    0  0.00000000000E+00  0.00000000000E+00  0.14252636787E+04  0.14252636787E+04  0.50400001928E-02 0.  1.
       -1   -1    0    0    0  501  0.00000000000E+00  0.00000000000E+00 -0.13987485104E+04  0.13987485104E+04  0.50400001928E-02 0. -1.
    10030    2    1    2    0    0  0.00000000000E+00  0.00000000000E+00  0.26515168259E+02  0.28240121892E+04  0.28238877085E+04 0.  0.
        5    1    3    3  502    0 -0.99276662098E+03 -0.16739133970E+03  0.10032294680E+04  0.14213011221E+04  0.46999998093E+01 0.  1.
       -5    1    3    3    0  502  0.99276662098E+03  0.16739133970E+03 -0.97671429970E+03  0.14027110670E+04  0.46999998093E+01 0. -1.
</event>
<event>
 5   0  0.1702345E-05  0.2598734E+04  0.7818609E-02  0.8368631E-01
       -2   -1    0    0    0  501  0.00000000000E+00  0.00000000000E+00  0.13382768238E+04  0.13382768238E+04  0.25500000920E-02 0. -1.
        2   -1    0    0  501    0  0.00000000000E+00  0.00000000000E+00 -0.12615888083E+04  0.12615888083E+04  0.25500000920E-02 0.  1.
    10030    2    1    2    0    0  0.00000000000E+00  0.00000000000E+00  0.76688015532E+02  0.25998656320E+04  0.25987343560E+04 0.  0.
        1    1    3    3  502    0 -0.55741143070E+03  0.42761891671E+03 -0.10551961496E+04  0.12676767550E+04  0.50400001928E-02 0.  1.
       -1    1    3    3    0  502  0.55741143070E+03 -0.42761891671E+03  0.11318841651E+04  0.13321888771E+04  0.50400001928E-02 0. -1.
</event>
<event>
 5   0  0.6984287E-06  0.2601959E+04  0.7818609E-02  0.8367536E-01
       -1   -1    0    0    0  501  0.00000000000E+00  0.00000000000E+00  0.88768686409E+03  0.88768686411E+03  0.50400001928E-02 0. -1.
        1   -1    0    0  501    0  0.00000000000E+00  0.00000000000E+00 -0.19066939404E+04  0.19066939404E+04  0.50400001928E-02 0.  1.
    10030    2    1    2    0    0  0.00000000000E+00  0.00000000000E+00 -0.10190070763E+04  0.27943808045E+04  0.26019586198E+04 0.  0.
        3    1    3    3  502    0  0.56312261330E+03  0.88306333289E+03 -0.13383552706E+04  0.16994418990E+04  0.10100000352E+00 0.  1.
       -3    1    3    3    0  502 -0.56312261330E+03 -0.88306333289E+03  0.31934819426E+03  0.10949389055E+04  0.10100000352E+00 0. -1.
</event>
<event>
 5   0  0.1681731E-05  0.2571946E+04  0.7818609E-02  0.8377793E-01
       -2   -1    0    0    0  501  0.00000000000E+00  0.00000000000E+00  0.10049383870E+04  0.10049383870E+04  0.25500000920E-02 0. -1.
        2   -1    0    0  501    0  0.00000000000E+00  0.00000000000E+00 -0.16456002310E+04  0.16456002310E+04  0.25500000920E-02 0.  1.
    10030    2    1    2    0    0  0.00000000000E+00  0.00000000000E+00 -0.64066184393E+03  0.26505386180E+04  0.25719462217E+04 0.  0.
        2    1    3    3  502    0  0.70455774143E+03  0.10693185384E+04 -0.19890388703E+03  0.12959191733E+04  0.25500000920E-02 0. -1.
       -2    1    3    3    0  502 -0.70455774143E+03 -0.10693185384E+04 -0.44175795690E+03  0.13546194447E+04  0.25500000920E-02 0.  1.
</event>
<event>
 5   0  0.6918420E-06  0.2651301E+04  0.7818609E-02  0.8350981E-01
       -1   -1    0    0    0  501  0.00000000000E+00  0.00000000000E+00  0.21344042011E+04  0.21344042011E+04  0.50400001928E-02 0.  1.
        1   -1    0    0  501    0  0.00000000000E+00  0.00000000000E+00 -0.82334416268E+03  0.82334416270E+03  0.50400001928E-02 0. -1.
    10030    2    1    2    0    0  0.00000000000E+00  0.00000000000E+00  0.13110600384E+04  0.29577483638E+04  0.26513009937E+04 0.  0.
        4    1    3    3  502    0 -0.18840804734E+03 -0.11150610660E+04 -0.11615150230E+03  0.11368164134E+04  0.12699999809E+01 0. -1.
       -4    1    3    3    0  502  0.18840804734E+03  0.11150610660E+04  0.14272115407E+04  0.18209319504E+04  0.12699999809E+01 0.  1.
</event>
<event>
 5   0  0.6706225E-06  0.2423816E+04  0.7818609E-02  0.8430641E-01
       -1   -1    0    0    0  501  0.00000000000E+00  0.00000000000E+00  0.77349566511E+03  0.77349566513E+03  0.50400001928E-02 0.  1.
        1   -1    0    0  501    0  0.00000000000E+00  0.00000000000E+00 -0.18988095389E+04  0.18988095389E+04  0.50400001928E-02 0. -1.
    10030    2    1    2    0    0  0.00000000000E+00  0.00000000000E+00 -0.11253138737E+04  0.26723052040E+04  0.24238159561E+04 0.  0.
        5    1    3    3  502    0 -0.10108423381E+04  0.64298211451E+03 -0.76436271007E+03  0.14210913675E+04  0.46999998093E+01 0.  1.
       -5    1    3    3    0  502  0.10108423381E+04 -0.64298211451E+03 -0.36095116368E+03  0.12512138365E+04  0.46999998093E+01 0. -1.
</event>
<event>
 5   0  0.1869956E-05  0.2549908E+04  0.7818609E-02  0.8385418E-01
       -2   -1    0    0    0  501  0.00000000000E+00  0.00000000000E+00  0.13496278560E+04  0.13496278560E+04  0.25500000920E-02 0.  1.
        2   -1    0    0  501    0  0.00000000000E+00  0.00000000000E+00 -0.12044113328E+04  0.12044113328E+04  0.25500000920E-02 0. -1.
    10030    2    1    2    0    0  0.00000000000E+00  0.00000000000E+00  0.14521652315E+03  0.25540391888E+04  0.25499075158E+04 0.  0.
        5    1    3    3  502    0 -0.67634263584E+03  0.10398449250E+04  0.36764991687E+03  0.12937949530E+04  0.46999998093E+01 0. -1.
       -5    1    3    3    0  502  0.67634263584E+03 -0.10398449250E+04 -0.22243339372E+03  0.12602442358E+04  0.46999998093E+01 0.  1.
</event>
<event>
 5   0  0.6706225E-06  0.2674338E+04  0.7818609E-02  0.8343380E-01
        1   -1    0    0  501    0  0.00000000000E+00  0.00000000000E+00  0.27582021375E+04  0.27582021375E+04  0.50400001928E-02 0.  1.
       -1   -1    0    0    0  501  0.00000000000E+00  0.00000000000E+00 -0.64825571980E+03  0.64825571982E+03  0.50400001928E-02 0. -1.
    10030    2    1    2    0    0  0.00000000000E+00  0.00000000000E+00  0.21099464177E+04  0.34064578574E+04  0.26743375345E+04 0.  0.
        5    1    3    3  502    0 -0.26490536757E+03 -0.22511773323E+03  0.26996233879E+04  0.27219186935E+04  0.46999998093E+01 0.  1.
       -5    1    3    3    0  502  0.26490536757E+03  0.22511773323E+03 -0.58967697022E+03  0.68453916381E+03  0.46999998093E+01 0. -1.
</event>
<event>
 5   0  0.7138294E-06  0.2616980E+04  0.7818609E-02  0.8362456E-01
        1   -1    0    0  501    0  0.00000000000E+00  0.00000000000E+00  0.18034573494E+04  0.18034573494E+04  0.50400001928E-02 0.  1.
       -1   -1    0    0    0  501  0.00000000000E+00  0.00000000000E+00 -0.94936887364E+03  0.94936887366E+03  0.50400001928E-02 0. -1.
    10030    2    1    2    0    0  0.00000000000E+00  0.00000000000E+00  0.85408847575E+03  0.27528262231E+04  0.26169801470E+04 0.  0.
        2    1    3    3  502    0 -0.94612552878E+03  0.85992037508E+03  0.13414891694E+03  0.12855397698E+04  0.25500000920E-02 0. -1.
       -2    1    3    3    0  502  0.94612552878E+03 -0.85992037508E+03  0.71993955880E+03  0.14672864533E+04  0.25500000920E-02 0.  1.
</event>
<event>
 5   0  0.1702345E-05  0.2608557E+04  0.7818609E-02  0.8365300E-01
        2   -1    0    0  501    0  0.00000000000E+00  0.00000000000E+00  0.10962783271E+04  0.10962783271E+04  0.25500000920E-02 0.  1.
       -2   -1    0    0    0  501  0.00000000000E+00  0.00000000000E+00 -0.15517433563E+04  0.15517433563E+04  0.25500000920E-02 0. -1.
    10030    2    1    2    0    0  0.00000000000E+00  0.00000000000E+00 -0.45546502918E+03  0.26480216833E+04  0.26085571572E+04 0.  0.
        1    1    3    3  502    0 -0.81313424729E+03 -0.88576721120E+03  0.28525596207E+03  0.12357757970E+04  0.50400001928E-02 0.  1.
       -1    1    3    3    0  502  0.81313424729E+03  0.88576721120E+03 -0.74072099124E+03  0.14122458863E+04  0.50400001928E-02 0. -1.
</event>
<event>
 5   0  0.6918420E-06  0.2588852E+04  0.7818609E-02  0.8371998E-01
       -1   -1    0    0    0  501  0.00000000000E+00  0.00000000000E+00  0.85443724641E+03  0.85443724642E+03  0.50400001928E-02 0.  1.
        1   -1    0    0  501    0  0.00000000000E+00  0.00000000000E+00 -0.19609850069E+04  0.19609850069E+04  0.50400001928E-02 0. -1.
    10030    2    1    2    0    0  0.00000000000E+00  0.00000000000E+00 -0.11065477605E+04  0.28154222534E+04  0.25888519692E+04 0.  0.
        4    1    3    3  502    0  0.10525006816E+04  0.71884473339E+03 -0.30757771346E+03  0.13111449570E+04  0.12699999809E+01 0.  1.
       -4    1    3    3    0  502 -0.10525006816E+04 -0.71884473339E+03 -0.79897004707E+03  0.15042772964E+04  0.12699999809E+01 0. -1.
</event>
<event>
 5   0  0.1702345E-05  0.2433836E+04  0.7818609E-02  0.8426943E-01
        2   -1    0    0  501    0  0.00000000000E+00  0.00000000000E+00  0.15721321779E+04  0.15721321780E+04  0.25500000920E-02 0. -1.
       -2   -1    0    0    0  501  0.00000000000E+00  0.00000000000E+00 -0.94196250726E+03  0.94196250726E+03  0.25500000920E-02 0.  1.
    10030    2    1    2    0    0  0.00000000000E+00  0.00000000000E+00  0.63016967069E+03  0.25140946852E+04  0.24338361227E+04 0.  0.
        1    1    3    3  502    0 -0.80010996077E+03 -0.66798632866E+03 -0.33372606923E+03  0.10944198344E+04  0.50400001928E-02 0.  1.
       -1    1    3    3    0  502  0.80010996077E+03  0.66798632866E+03  0.96389573992E+03  0.14196748508E+04  0.50400001928E-02 0. -1.
</event>
<event>
 5   0  0.1702345E-05  0.2602810E+04  0.7818609E-02  0.8367247E-01
        2   -1    0    0  501    0  0.00000000000E+00  0.00000000000E+00  0.14372031838E+04  0.14372031838E+04  0.25500000920E-02 0.  1.
       -2   -1    0    0    0  501  0.00000000000E+00  0.00000000000E+00 -0.11784383954E+04  0.11784383954E+04  0.25500000920E-02 0. -1.
    10030    2    1    2    0    0  0.00000000000E+00  0.00000000000E+00  0.25876478838E+03  0.26156415792E+04  0.26028103379E+04 0.  0.
        1    1    3    3  502    0  0.39935292804E+03 -0.57830559231E+03 -0.97134158365E+03  0.11989264329E+04  0.50400001928E-02 0. -1.
       -1    1    3    3    0  502 -0.39935292804E+03  0.57830559231E+03  0.12301063720E+04  0.14167151463E+04  0.50400001928E-02 0.  1.
</event>
<event>
 5   0  0.6918420E-06  0.2352479E+04  0.7818609E-02  0.8457512E-01
        1   -1    0    0  501    0  0.00000000000E+00  0.00000000000E+00  0.83421904840E+03  0.83421904841E+03  0.50400001928E-02 0. -1.
       -1   -1    0    0    0  501  0.00000000000E+00  0.00000000000E+00 -0.16584850092E+04  0.16584850092E+04  0.50400001928E-02 0.  1.
    10030    2    1    2    0    0  0.00000000000E+00  0.00000000000E+00 -0.82426596076E+03  0.24927040576E+04  0.23524793611E+04 0.  0.
        4    1    3    3  502    0 -0.29781480977E+03 -0.96823833363E+03 -0.10455610228E+04  0.14558085715E+04  0.12699999809E+01 0.  1.
       -4    1    3    3    0  502  0.29781480977E+03  0.96823833363E+03  0.22129506204E+03  0.10368954861E+04  0.12699999809E+01 0. -1.
</event>
<event>
 5   0  0.6984287E-06  0.2588386E+04  0.7818609E-02  0.8372157E-01
       -1   -1    0    0    0  501  0.00000000000E+00  0.00000000000E+00  0.15937163655E+04  0.15937163655E+04  0.50400001928E-02 0.  1.
        1   -1    0    0  501    0  0.00000000000E+00  0.00000000000E+00 -0.10509617185E+04  0.10509617186E+04  0.50400001928E-02 0. -1.
    10030    2    1    2    0    0  0.00000000000E+00  0.00000000000E+00  0.54275464698E+03  0.26446780841E+04  0.25883855126E+04 0.  0.
        3    1    3    3  502    0  0.69270487366E+03 -0.82791235962E+03  0.10008052910E+04  0.14720360586E+04  0.10100000352E+00 0.  1.
       -3    1    3    3    0  502 -0.69270487366E+03  0.82791235962E+03 -0.45805064402E+03  0.11726420255E+04  0.10100000352E+00 0. -1.
</event>
<event>
 5   0  0.1677971E-05  0.2197069E+04  0.7818609E-02  0.8519649E-01
        2   -1    0    0  501    0  0.00000000000E+00  0.00000000000E+00  0.11963039299E+04  0.11963039299E+04  0.25500000920E-02 0. -1.
       -2   -1    0    0    0  501  0.00000000000E+00  0.00000000000E+00 -0.10087555564E+04  0.10087555564E+04  0.25500000920E-02 0.  1.
    10030    2    1    2    0    0  0.00000000000E+00  0.00000000000E+00  0.18754837352E+03  0.22050594864E+04  0.21970691719E+04 0.  0.
        4    1    3    3  502    0  0.69646479833E+03 -0.25181340019E+03 -0.72053556418E+03  0.10332697208E+04  0.12699999809E+01 0.  1.
       -4    1    3    3    0  502 -0.69646479833E+03  0.25181340019E+03  0.90808393770E+03  0.11717897655E+04  0.12699999809E+01 0. -1.
</event>
<event>
 5   0  0.6918420E-06  0.2623878E+04  0.7818609E-02  0.8360135E-01
        1   -1    0    0  501    0  0.00000000000E+00  0.00000000000E+00  0.22043568030E+04  0.22043568030E+04  0.50400001928E-02 0. -1.
       -1   -1    0    0    0  501  0.00000000000E+00  0.00000000000E+00 -0.78080991060E+03  0.78080991062E+03  0.50400001928E-02 0.  1.
    10030    2    1    2    0    0  0.00000000000E+00  0.00000000000E+00  0.14235468924E+04  0.29851667137E+04  0.26238777703E+04 0.  0.
        4    1    3    3  502    0 -0.12568404715E+04  0.18352237200E+03  0.33814296418E+03  0.13144088820E+04  0.12699999809E+01 0. -1.
       -4    1    3    3    0  502  0.12568404715E+04 -0.18352237200E+03  0.10854039283E+04  0.16707578317E+04  0.12699999809E+01 0.  1.
</event>
<event>
 5   0  0.6993678E-06  0.2516372E+04  0.7818609E-02  0.8397176E-01
       -1   -1    0    0    0  501  0.00000000000E+00  0.00000000000E+00  0.71357072730E+03  0.71357072732E+03  0.50400001928E-02 0.  1.
        1   -1    0    0  501    0  0.00000000000E+00  0.00000000000E+00 -0.22184648587E+04  0.22184648587E+04  0.50400001928E-02 0. -1.
    10030    2    1    2    0    0  0.00000000000E+00  0.00000000000E+00 -0.15048941314E+04  0.29320355861E+04  0.25163716600E+04 0.  0.
        1    1    3    3  502    0 -0.11230238920E+04  0.79062467502E+01 -0.14134118213E+04  0.18052640104E+04  0.50400001928E-02 0. -1.
       -1    1    3    3    0  502  0.11230238920E+04 -0.79062467502E+01 -0.91482310156E+02  0.11267715757E+04  0.50400001928E-02 0.  1.
</event>
<event>
 5   0  0.6706225E-06  0.2608000E+04  0.7818609E-02  0.8365489E-01
        1   -1    0    0  501    0  0.00000000000E+00  0.00000000000E+00  0.24212566917E+04  0.24212566917E+04  0.50400001928E-02 0.  1.
       -1   -1    0    0    0  501  0.00000000000E+00  0.00000000000E+00 -0.70228658311E+03  0.70228658313E+03  0.50400001928E-02 0. -1.
    10030    2    1    2    0    0  0.00000000000E+00  0.00000000000E+00  0.17189701086E+04  0.31235432748E+04  0.26080000682E+04 0.  0.
        5    1    3    3  502    0 -0.39342829677E+03  0.12217993726E+04  0.11347281163E+04  0.17132453180E+04  0.46999998093E+01 0.  1.
       -5    1    3    3    0  502  0.39342829677E+03 -0.12217993726E+04  0.58424199227E+03  0.14102979569E+04  0.46999998093E+01 0. -1.
</event>
<event>
 5   0  0.1677971E-05  0.2603962E+04  0.7818609E-02  0.8366857E-01
       -2   -1    0    0    0  501  0.00000000000E+00  0.00000000000E+00  0.10867944301E+04  0.10867944301E+04  0.25500000920E-02 0. -1.
        2   -1    0    0  501    0  0.00000000000E+00  0.00000000000E+00 -0.15597750454E+04  0.15597750454E+04  0.25500000920E-02 0.  1.
    10030    2    1    2    0    0  0.00000000000E+00  0.00000000000E+00 -0.47298061535E+03  0.26465694755E+04  0.26039622359E+04 0.  0.
        4    1    3    3  502    0  0.49398975940E+03 -0.61330242093E+03 -0.12902712015E+04  0.15116107727E+04  0.12699999809E+01 0.  1.
       -4    1    3    3    0  502 -0.49398975940E+03  0.61330242093E+03  0.81729058612E+03  0.11349587028E+04  0.12699999809E+01 0. -1.
</event>
<event>
 5   0  0.1681731E-05  0.2613817E+04  0.7818609E-02  0.8363523E-01
        2   -1    0    0  501    0  0.00000000000E+00  0.00000000000E+00  0.17879390574E+04  0.17879390574E+04  0.25500000920E-02 0. -1.
       -2   -1    0    0    0  501  0.00000000000E+00  0.00000000000E+00 -0.95529519961E+03  0.95529519961E+03  0.25500000920E-02 0.  1.
    10030    2    1    2    0    0  0.00000000000E+00  0.00000000000E+00  0.83264385779E+03  0.27432342570E+04  0.26138168251E+04 0.  0.
        2    1    3    3  502    0  0.38309907571E+03  0.61813620341E+03 -0.72333124222E+03  0.10257023709E+04  0.25500000920E-02 0.  1.
       -2    1    3    3    0  502 -0.38309907571E+03 -0.61813620341E+03  0.15559751000E+04  0.17175318861E+04  0.25500000920E-02 0. -1.
</event>
<event>
 5   0  0.6706225E-06  0.2547616E+04  0.7818609E-02  0.8386216E-01
        1   -1    0    0  501    0  0.00000000000E+00  0.00000000000E+00  0.18864036883E+04  0.18864036884E+04  0.50400001928E-02 0. -1.
       -1   -1    0    0    0  501  0.00000000000E+00  0.00000000000E+00 -0.86014817150E+03  0.86014817151E+03  0.50400001928E-02 0.  1.
    10030    2    1    2    0    0  0.00000000000E+00  0.00000000000E+00  0.10262555168E+04  0.27465518599E+04  0.25476158920E+04 0.  0.
        5    1    3    3  502    0 -0.52835468322E+03 -0.11353991079E+04  0.76428917353E+03  0.14671229793E+04  0.46999998093E+01 0.  1.
       -5    1    3    3    0  502  0.52835468322E+03  0.11353991079E+04  0.26196634332E+03  0.12794288806E+04  0.46999998093E+01 0. -1.
</event>
<event>
 5   0  0.6993678E-06  0.2589365E+04  0.7818609E-02  0.8371823E-01
       -1   -1    0    0    0  501  0.00000000000E+00  0.00000000000E+00  0.28106062839E+04  0.28106062839E+04  0.50400001928E-02 0. -1.
        1   -1    0    0  501    0  0.00000000000E+00  0.00000000000E+00 -0.59638485404E+03  0.59638485407E+03  0.50400001928E-02 0.  1.
    10030    2    1    2    0    0  0.00000000000E+00  0.00000000000E+00  0.22142214299E+04  0.34069911380E+04  0.25893651874E+04 0.  0.
        1    1    3    3  502    0 -0.76403264105E+03 -0.10294478597E+03  0.24756684801E+04  0.25929284465E+04  0.50400001928E-02 0. -1.
       -1    1    3    3    0  502  0.76403264105E+03  0.10294478597E+03 -0.26144705020E+03  0.81406269146E+03  0.50400001928E-02 0.  1.
</event>
<event>
 5   0  0.1720129E-05  0.2593509E+04  0.7818609E-02  0.8370409E-01
        2   -1    0    0  501    0  0.00000000000E+00  0.00000000000E+00  0.15991285047E+04  0.15991285047E+04  0.25500000920E-02 0.  1.
       -2   -1    0    0    0  501  0.00000000000E+00  0.00000000000E+00 -0.10515553810E+04  0.10515553810E+04  0.25500000920E-02 0. -1.
    10030    2    1    2    0    0  0.00000000000E+00  0.00000000000E+00  0.54757312366E+03  0.26506838857E+04  0.25935089621E+04 0.  0.
        3    1    3    3  502    0 -0.85974375828E+03  0.91735248931E+03  0.59840023683E+03  0.13924000047E+04  0.10100000352E+00 0.  1.
       -3    1    3    3    0  502  0.85974375828E+03 -0.91735248931E+03 -0.50827113167E+02  0.12582838810E+04  0.10100000352E+00 0. -1.
</event>
<event>
 5   0  0.1677971E-05  0.2314921E+04  0.7818609E-02  0.8472061E-01
        2   -1    0    0  501    0  0.00000000000E+00  0.00000000000E+00  0.83620000399E+03  0.83620000399E+03  0.25500000920E-02 0.  1.
       -2   -1    0    0    0  501  0.00000000000E+00  0.00000000000E+00 -0.16021463983E+04  0.16021463983E+04  0.25500000920E-02 0. -1.
    10030    2    1    2    0    0  0.00000000000E+00  0.00000000000E+00 -0.76594639432E+03  0.24383464023E+04  0.23149210135E+04 0.  0.
        4    1    3    3  502    0 -0.80178956494E+03  0.83467030503E+03 -0.36915155407E+03  0.12148314728E+04  0.12699999809E+01 0. -1.
       -4    1    3    3    0  502  0.80178956494E+03 -0.83467030503E+03 -0.39679484025E+03  0.12235149295E+04  0.12699999809E+01 0.  1.
</event>
<event>
 5   0  0.1677971E-05  0.2560695E+04  0.7818609E-02  0.8381676E-01
       -2   -1    0    0    0  501  0.00000000000E+00  0.00000000000E+00  0.10065991571E+04  0.10065991571E+04  0.25500000920E-02 0.  1.
        2   -1    0    0  501    0  0.00000000000E+00  0.00000000000E+00 -0.16285432581E+04  0.16285432581E+04  0.25500000920E-02 0. -1.
    10030    2    1    2    0    0  0.00000000000E+00  0.00000000000E+00 -0.62194410105E+03  0.26351424152E+04  0.25606954296E+04 0.  0.
        4    1    3    3  502    0 -0.11134070228E+04 -0.51143732265E+03 -0.69331845991E+03  0.14078122862E+04  0.12699999809E+01 0.  1.
       -4    1    3    3    0  502  0.11134070228E+04  0.51143732265E+03  0.71374358858E+02  0.12273301290E+04  0.12699999809E+01 0. -1.
</event>
<event>
 5   0  0.6984287E-06  0.2283707E+04  0.7818609E-02  0.8484373E-01
       -1   -1    0    0    0  501  0.00000000000E+00  0.00000000000E+00  0.96040090238E+03  0.96040090239E+03  0.50400001928E-02 0. -1.
        1   -1    0    0  501    0  0.00000000000E+00  0.00000000000E+00 -0.13575882460E+04  0.13575882460E+04  0.50400001928E-02 0.  1.
    10030    2    1    2    0    0  0.00000000000E+00  0.00000000000E+00 -0.39718734366E+03  0.23179891484E+04  0.22837066156E+04 0.  0.
        3    1    3    3  502    0  0.11333687117E+04 -0.13575309524E+03 -0.22862544754E+03  0.11641405177E+04  0.10100000352E+00 0. -1.
       -3    1    3    3    0  502 -0.11333687117E+04  0.13575309524E+03 -0.16856189612E+03  0.11538486307E+04  0.10100000352E+00 0.  1.
</event>
<event>
 5   0  0.6984287E-06  0.2612364E+04  0.7818609E-02  0.8364014E-01
       -1   -1    0    0    0  501  0.00000000000E+00  0.00000000000E+00  0.59201103297E+03  0.59201103299E+03  0.50400001928E-02 0.  1.
        1   -1    0    0  501    0  0.00000000000E+00  0.00000000000E+00 -0.28818914832E+04  0.28818914832E+04  0.50400001928E-02 0. -1.
    10030    2    1    2    0    0  0.00000000000E+00  0.00000000000E+00 -0.22898804502E+04  0.34739025162E+04  0.26123641047E+04 0.  0.
        3    1    3    3  502    0 -0.41463839439E+02 -0.12509464345E+04 -0.16416588223E+04  0.20643715583E+04  0.10100000352E+00 0.  1.
       -3    1    3    3    0  502  0.41463839439E+02  0.12509464345E+04 -0.64822162797E+03  0.14095309579E+04  0.10100000352E+00 0. -1.
</event>
<event>
 5   0  0.6984287E-06  0.2607861E+04  0.7818609E-02  0.8365536E-01
        1   -1    0    0  501    0  0.00000000000E+00  0.00000000000E+00  0.10952926324E+04  0.10952926324E+04  0.50400001928E-02 0.  1.
       -1   -1    0    0    0  501  0.00000000000E+00  0.00000000000E+00 -0.15523103580E+04  0.15523103580E+04  0.50400001928E-02 0. -1.
    10030    2    1    2    0    0  0.00000000000E+00  0.00000000000E+00 -0.45701772557E+03  0.26476029905E+04  0.26078605012E+04 0.  0.
        3    1    3    3  502    0 -0.10964160568E+04  0.66930113593E+03 -0.11724855992E+01  0.12845596775E+04  0.10100000352E+00 0.  1.
       -3    1    3    3    0  502  0.10964160568E+04 -0.66930113593E+03 -0.45584523997E+03  0.13630433130E+04  0.10100000352E+00 0. -1.
</event>
<event>
 5   0  0.7138294E-06  0.2552094E+04  0.7818609E-02  0.8384658E-01
        1   -1    0    0  501    0  0.00000000000E+00  0.00000000000E+00  0.81945766722E+03  0.81945766724E+03  0.50400001928E-02 0.  1.
       -1   -1    0    0    0  501  0.00000000000E+00  0.00000000000E+00 -0.19870417048E+04  0.19870417048E+04  0.50400001928E-02 0. -1.
    10030    2    1    2    0    0  0.00000000000E+00  0.00000000000E+00 -0.11675840376E+04  0.28064993720E+04  0.25520944811E+04 0.  0.
        2    1    3    3  502    0  0.42513390469E+03 -0.63647136274E+03 -0.17065814149E+04  0.18703621998E+04  0.25500000920E-02 0. -1.
       -2    1    3    3    0  502 -0.42513390469E+03  0.63647136274E+03  0.53899737736E+03  0.93613717227E+03  0.25500000920E-02 0.  1.
</event>
<event>
 5   0  0.1720129E-05  0.2569313E+04  0.7818609E-02  0.8378700E-01
       -2   -1    0    0    0  501  0.00000000000E+00  0.00000000000E+00  0.79781078940E+03  0.79781078940E+03  0.25500000920E-02 0. -1.
        2   -1    0    0  501    0  0.00000000000E+00  0.00000000000E+00 -0.20685884905E+04  0.20685884905E+04  0.25500000920E-02 0.  1.
    10030    2    1    2    0    0  0.00000000000E+00  0.00000000000E+00 -0.12707777011E+04  0.28663992799E+04  0.25693129172E+04 0.  0.
        3    1    3    3  502    0 -0.58892345684E+03 -0.83481073232E+03  0.23351505900E+03  0.10479833442E+04  0.10100000352E+00 0. -1.
       -3    1    3    3    0  502  0.58892345684E+03  0.83481073232E+03 -0.15042927601E+04  0.18184159357E+04  0.10100000352E+00 0.  1.
</event>
<event>
 5   0  0.1720129E-05  0.2626752E+04  0.7818609E-02  0.8359171E-01
        2   -1    0    0  501    0  0.00000000000E+00  0.00000000000E+00  0.14625315899E+04  0.14625315899E+04  0.25500000920E-02 0. -1.
       -2   -1    0    0    0  501  0.00000000000E+00  0.00000000000E+00 -0.11794316714E+04  0.11794316714E+04  0.25500000920E-02 0.  1.
    10030    2    1    2    0    0  0.00000000000E+00  0.00000000000E+00  0.28309991852E+03  0.26419632613E+04  0.26267516651E+04 0.  0.
        3    1    3    3  502    0 -0.31279529630E+03 -0.43314354983E+03  0.13482904058E+04  0.14502900609E+04  0.10100000352E+00 0. -1.
       -3    1    3    3    0  502  0.31279529630E+03  0.43314354983E+03 -0.10651904873E+04  0.11916732004E+04  0.10100000352E+00 0.  1.
</event>
<event>
 5   0  0.6984287E-06  0.2579494E+04  0.7818609E-02  0.8375200E-01
       -1   -1    0    0    0  501  0.00000000000E+00  0.00000000000E+00  0.67535932389E+03  0.67535932391E+03  0.50400001928E-02 0. -1.
        1   -1    0    0  501    0  0.00000000000E+00  0.00000000000E+00 -0.24630555598E+04  0.24630555598E+04  0.50400001928E-02 0.  1.
    10030    2    1    2    0    0  0.00000000000E+00  0.00000000000E+00 -0.17876962359E+04  0.31384148837E+04  0.25794941656E+04 0.  0.
        3    1    3    3  502    0  0.12367490568E+04  0.17280960509E+03 -0.12862832830E+04  0.17927454040E+04  0.10100000352E+00 0. -1.
       -3    1    3    3    0  502 -0.12367490568E+04 -0.17280960509E+03 -0.50141295294E+03  0.13456694798E+04  0.10100000352E+00 0.  1.
</event>
<event>
 5   0  0.1681731E-05  0.2587522E+04  0.7818609E-02  0.8372452E-01
       -2   -1    0    0    0  501  0.00000000000E+00  0.00000000000E+00  0.86856874225E+03  0.86856874225E+03  0.25500000920E-02 0.  1.
        2   -1    0    0  501    0  0.00000000000E+00  0.00000000000E+00 -0.19270991722E+04  0.19270991722E+04  0.25500000920E-02 0. -1.
    10030    2    1    2    0    0  0.00000000000E+00  0.00000000000E+00 -0.10585304299E+04  0.27956679144E+04  0.25875224476E+04 0.  0.
        2    1    3    3  502    0 -0.57620694166E+03 -0.99059099866E+03 -0.11780102547E+04  0.16434698435E+04  0.25500000920E-02 0. -1.
       -2    1    3    3    0  502  0.57620694166E+03  0.99059099866E+03  0.11947982473E+03  0.11521980710E+04  0.25500000920E-02 0.  1.
</event>
<event>
 5   0  0.1702345E-05  0.2609043E+04  0.7818609E-02  0.8365136E-01
       -2   -1    0    0    0  501  0.00000000000E+00  0.00000000000E+00  0.88007983379E+03  0.88007983379E+03  0.25500000920E-02 0.  1.
        2   -1    0    0  501    0  0.00000000000E+00  0.00000000000E+00 -0.19336616784E+04  0.19336616784E+04  0.25500000920E-02 0. -1.
    10030    2    1    2    0    0  0.00000000000E+00  0.00000000000E+00 -0.10535818446E+04  0.28137415121E+04  0.26090432334E+04 0.  0.
        1    1    3    3  502    0  0.10384360341E+04 -0.60242099319E+03 -0.10772439799E+04  0.16129832740E+04  0.50400001928E-02 0. -1.
       -1    1    3    3    0  502 -0.10384360341E+04  0.60242099319E+03  0.23662135312E+02  0.12007582382E+04  0.50400001928E-02 0.  1.
</event>
<event>
 5   0  0.1677971E-05  0.2593953E+04  0.7818609E-02  0.8370258E-01
        2   -1    0    0  501    0  0.00000000000E+00  0.00000000000E+00  0.19412510671E+04  0.19412510671E+04  0.25500000920E-02 0.  1.
       -2   -1    0    0    0  501  0.00000000000E+00  0.00000000000E+00 -0.86652760823E+03  0.86652760824E+03  0.25500000920E-02 0. -1.
    10030    2    1    2    0    0  0.00000000000E+00  0.00000000000E+00  0.10747234589E+04  0.28077786754E+04  0.25939526936E+04 0.  0.
        4    1    3    3  502    0 -0.12531666936E+04  0.17523956080E+03  0.22927633072E+03  0.12859645852E+04  0.12699999809E+01 0. -1.
       -4    1    3    3    0  502  0.12531666936E+04 -0.17523956080E+03  0.84544712817E+03  0.15218140902E+04  0.12699999809E+01 0.  1.
</event>
<event>
 5   0  0.6706225E-06  0.2588592E+04  0.7818609E-02  0.8372087E-01
        1   -1    0    0  501    0  0.00000000000E+00  0.00000000000E+00  0.15270126902E+04  0.15270126902E+04  0.50400001928E-02 0.  1.
       -1   -1    0    0    0  501  0.00000000000E+00  0.00000000000E+00 -0.10970449088E+04  0.10970449088E+04  0.50400001928E-02 0. -1.
    10030    2    1    2    0    0  0.00000000000E+00  0.00000000000E+00  0.42996778135E+03  0.26240575990E+04  0.25885915070E+04 0.  0.
        5    1    3    3  502    0  0.80120961016E+03 -0.60977050980E+02 -0.81357261836E+03  0.11434935660E+04  0.46999998093E+01 0. -1.
       -5    1    3    3    0  502 -0.80120961016E+03  0.60977050980E+02  0.12435403997E+04  0.14805640330E+04  0.46999998093E+01 0.  1.
</event>
<event>
 5   0  0.1702345E-05  0.2588366E+04  0.7818609E-02  0.8372164E-01
       -2   -1    0    0    0  501  0.00000000000E+00  0.00000000000E+00  0.14089016938E+04  0.14089016938E+04  0.25500000920E-02 0. -1.
        2   -1    0    0  501    0  0.00000000000E+00  0.00000000000E+00 -0.11888052468E+04  0.11888052468E+04  0.25500000920E-02 0.  1.
    10030    2    1    2    0    0  0.00000000000E+00  0.00000000000E+00  0.22009644699E+03  0.25977069407E+04  0.25883660683E+04 0.  0.
        1    1    3    3  502    0 -0.93407518402E+03 -0.35223988840E+03  0.93663466717E+03  0.13688878289E+04  0.50400001928E-02 0. -1.
       -1    1    3    3    0  502  0.93407518402E+03  0.35223988840E+03 -0.71653822018E+03  0.12288191117E+04  0.50400001928E-02 0.  1.
</event>
<event>
 5   0  0.1720129E-05  0.2586948E+04  0.7818609E-02  0.8372648E-01
        2   -1    0    0  501    0  0.00000000000E+00  0.00000000000E+00  0.22619654584E+04  0.22619654584E+04  0.25500000920E-02 0. -1.
       -2   -1    0    0    0  501  0.00000000000E+00  0.00000000000E+00 -0.73965554920E+03  0.73965554920E+03  0.25500000920E-02 0.  1.
    10030    2    1    2    0    0  0.00000000000E+00  0.00000000000E+00  0.15223099092E+04  0.30016210076E+04  0.25869482433E+04 0.  0.
        3    1    3    3  502    0 -0.11619115414E+04 -0.44287244706E+03  0.34782165304E+03  0.12911833126E+04  0.10100000352E+00 0.  1.
       -3    1    3    3    0  502  0.11619115414E+04  0.44287244706E+03  0.11744882562E+04  0.17104376950E+04  0.10100000352E+00 0. -1.
</event>
<event>
 5   0  0.6918420E-06  0.2621583E+04  0.7818609E-02  0.8360907E-01
        1   -1    0    0  501    0  0.00000000000E+00  0.00000000000E+00  0.19001214822E+04  0.19001214822E+04  0.50400001928E-02 0.  1.
       -1   -1    0    0    0  501  0.00000000000E+00  0.00000000000E+00 -0.90424450924E+03  0.90424450926E+03  0.50400001928E-02 0. -1.
    10030    2    1    2    0    0  0.00000000000E+00  0.00000000000E+00  0.99587697291E+03  0.28043659914E+04  0.26215830463E+04 0.  0.
        4    1    3    3  502    0 -0.33619576835E+03 -0.39205865830E+03  0.17866921128E+04  0.18598408279E+04  0.12699999809E+01 0.  1.
       -4    1    3    3    0  502  0.33619576835E+03  0.39205865830E+03 -0.79081513988E+03  0.94452516355E+03  0.12699999809E+01 0. -1.
</event>
<event>
 5   0  0.1869956E-05  0.2674186E+04  0.7818609E-02  0.8343430E-01
        2   -1    0    0  501    0  0.00000000000E+00  0.00000000000E+00  0.15242459967E+04  0.15242459967E+04  0.25500000920E-02 0. -1.
       -2   -1    0    0    0  501  0.00000000000E+00  0.00000000000E+00 -0.11729191580E+04  0.11729191581E+04  0.25500000920E-02 0.  1.
    10030    2    1    2    0    0  0.00000000000E+00  0.00000000000E+00  0.35132683868E+03  0.26971651548E+04  0.26741857311E+04 0.  0.
        5    1    3    3  502    0  0.12335936956E+03  0.13008881680E+04 -0.11008664217E+03  0.13113613989E+04  0.46999998093E+01 0.  1.
       -5    1    3    3    0  502 -0.12335936956E+03 -0.13008881680E+04  0.46141348085E+03  0.13858037559E+04  0.46999998093E+01 0. -1.
</event>
<event>
 5   0  0.1681731E-05  0.2608610E+04  0.7818609E-02  0.8365283E-01
       -2   -1    0    0    0  501  0.00000000000E+00  0.00000000000E+00  0.96371050791E+03  0.96371050791E+03  0.25500000920E-02 0.  1.
        2   -1    0    0  501    0  0.00000000000E+00  0.00000000000E+00 -0.17652719815E+04  0.17652719815E+04  0.25500000920E-02 0. -1.
    10030    2    1    2    0    0  0.00000000000E+00  0.00000000000E+00 -0.80156147358E+03  0.27289824894E+04  0.26086097124E+04 0.  0.
        2    1    3    3  502    0  0.18160119079E+03  0.31414604299E+03 -0.17114057404E+04  0.17494502956E+04  0.25500000920E-02 0. -1.
       -2    1    3    3    0  502 -0.18160119079E+03 -0.31414604299E+03  0.90984426677E+03  0.97953219376E+03  0.25500000920E-02 0.  1.
</event>
<event>
 5   0  0.1681731E-05  0.2564519E+04  0.7818609E-02  0.8380354E-01
       -2   -1    0    0    0  501  0.00000000000E+00  0.00000000000E+00  0.11144662849E+04  0.11144662849E+04  0.25500000920E-02 0.  1.
        2   -1    0    0  501    0  0.00000000000E+00  0.00000000000E+00 -0.14753160601E+04  0.14753160601E+04  0.25500000920E-02 0. -1.
    10030    2    1    2    0    0  0.00000000000E+00  0.00000000000E+00 -0.36084977523E+03  0.25897823450E+04  0.25645194548E+04 0.  0.
        2    1    3    3  502    0 -0.11986339598E+04 -0.45548441085E+03 -0.17964892902E+03  0.12947830536E+04  0.25500000920E-02 0.  1.
       -2    1    3    3    0  502  0.11986339598E+04  0.45548441085E+03 -0.18120084621E+03  0.12949992914E+04  0.25500000920E-02 0. -1.
</event>
<event>
 5   0  0.6984287E-06  0.2109651E+04  0.7818609E-02  0.8557004E-01
       -1   -1    0    0    0  501  0.00000000000E+00  0.00000000000E+00  0.93183104585E+03  0.93183104587E+03  0.50400001928E-02 0.  1.
        1   -1    0    0  501    0  0.00000000000E+00  0.00000000000E+00 -0.11940538401E+04  0.11940538401E+04  0.50400001928E-02 0. -1.
    10030    2    1    2    0    0  0.00000000000E+00  0.00000000000E+00 -0.26222279422E+03  0.21258848860E+04  0.21096506238E+04 0.  0.
        3    1    3    3  502    0 -0.14904622768E+03  0.22109815091E+03 -0.11595320290E+04  0.11897956576E+04  0.10100000352E+00 0. -1.
       -3    1    3    3    0  502  0.14904622768E+03 -0.22109815091E+03  0.89730923481E+03  0.93608922834E+03  0.10100000352E+00 0.  1.
</event>
<event>
 5   0  0.7138294E-06  0.2429478E+04  0.7818609E-02  0.8428549E-01
        1   -1    0    0  501    0  0.00000000000E+00  0.00000000000E+00  0.11806563396E+04  0.11806563396E+04  0.50400001928E-02 0. -1.
       -1   -1    0    0    0  501  0.00000000000E+00  0.00000000000E+00 -0.12498057989E+04  0.12498057989E+04  0.50400001928E-02 0.  1.
    10030    2    1    2    0    0  0.00000000000E+00  0.00000000000E+00 -0.69149459365E+02  0.24304621385E+04  0.24294782483E+04 0.  0.
        2    1    3    3  502    0  0.89426057953E+03  0.78069756244E+03 -0.29236197582E+03  0.12225654146E+04  0.25500000920E-02 0.  1.
       -2    1    3    3    0  502 -0.89426057953E+03 -0.78069756244E+03  0.22321251646E+03  0.12078967239E+04  0.25500000920E-02 0. -1.
</event>
<event>
 5   0  0.1702345E-05  0.2603560E+04  0.7818609E-02  0.8366993E-01
       -2   -1    0    0    0  501  0.00000000000E+00  0.00000000000E+00  0.97789011983E+03  0.97789011983E+03  0.25500000920E-02 0. -1.
        2   -1    0    0  501    0  0.00000000000E+00  0.00000000000E+00 -0.17329459794E+04  0.17329459794E+04  0.25500000920E-02 0.  1.
    10030    2    1    2    0    0  0.00000000000E+00  0.00000000000E+00 -0.75505585959E+03  0.27108360993E+04  0.26035596797E+04 0.  0.
        1    1    3    3  502    0  0.28782493824E+03 -0.85480789602E+03 -0.13548689117E+04  0.16276392420E+04  0.50400001928E-02 0.  1.
       -1    1    3    3    0  502 -0.28782493824E+03  0.85480789602E+03  0.59981305207E+03  0.10831968573E+04  0.50400001928E-02 0. -1.
</event>
<event>
 5   0  0.7138294E-06  0.2590383E+04  0.7818609E-02  0.8371475E-01
        1   -1    0    0  501    0  0.00000000000E+00  0.00000000000E+00  0.12254963772E+04  0.12254963772E+04  0.50400001928E-02 0. -1.
       -1   -1    0    0    0  501  0.00000000000E+00  0.00000000000E+00 -0.13688506271E+04  0.13688506271E+04  0.50400001928E-02 0.  1.
    10030    2    1    2    0    0  0.00000000000E+00  0.00000000000E+00 -0.14335424988E+03  0.25943470042E+04  0.25903833572E+04 0.  0.
        2    1    3    3  502    0 -0.45911248366E+03 -0.11425831455E+04  0.33048551263E+03  0.12749514466E+04  0.25500000920E-02 0. -1.
       -2    1    3    3    0  502  0.45911248366E+03  0.11425831455E+04 -0.47383976251E+03  0.13193955577E+04  0.25500000920E-02 0.  1.
</event>
<event>
 5   0  0.6706225E-06  0.2608108E+04  0.7818609E-02  0.8365452E-01
        1   -1    0    0  501    0  0.00000000000E+00  0.00000000000E+00  0.19669938601E+04  0.19669938601E+04  0.50400001928E-02 0.  1.
       -1   -1    0    0    0  501  0.00000000000E+00  0.00000000000E+00 -0.86454592537E+03  0.86454592538E+03  0.50400001928E-02 0. -1.
    10030    2    1    2    0    0  0.00000000000E+00  0.00000000000E+00  0.11024479347E+04  0.28315397855E+04  0.26081077639E+04 0.  0.
        5    1    3    3  502    0 -0.37260118222E+03 -0.59398373265E+03  0.17449092301E+04  0.18805261570E+04  0.46999998093E+01 0.  1.
       -5    1    3    3    0  502  0.37260118222E+03  0.59398373265E+03 -0.64246129537E+03  0.95101362855E+03  0.46999998093E+01 0. -1.
</event>
<event>
 5   0  0.1869956E-05  0.2602971E+04  0.7818609E-02  0.8367193E-01
        2   -1    0    0  501    0  0.00000000000E+00  0.00000000000E+00  0.13396189802E+04  0.13396189802E+04  0.25500000920E-02 0.  1.
       -2   -1    0    0    0  501  0.00000000000E+00  0.00000000000E+00 -0.12644378735E+04  0.12644378735E+04  0.25500000920E-02 0. -1.
    10030    2    1    2    0    0  0.00000000000E+00  0.00000000000E+00  0.75181106680E+02  0.26040568537E+04  0.26029713596E+04 0.  0.
        5    1    3    3  502    0  0.34854086099E+03 -0.12297290866E+04  0.28290399892E+03  0.13091108131E+04  0.46999998093E+01 0.  1.
       -5    1    3    3    0  502 -0.34854086099E+03  0.12297290866E+04 -0.20772289224E+03  0.12949460407E+04  0.46999998093E+01 0. -1.
</event>
<event>
 5   0  0.7138294E-06  0.2599415E+04  0.7818609E-02  0.8368400E-01
       -1   -1    0    0    0  501  0.00000000000E+00  0.00000000000E+00  0.13972974665E+04  0.13972974665E+04  0.50400001928E-02 0.  1.
        1   -1    0    0  501    0  0.00000000000E+00  0.00000000000E+00 -0.12089337308E+04  0.12089337308E+04  0.50400001928E-02 0. -1.
    10030    2    1    2    0    0  0.00000000000E+00  0.00000000000E+00  0.18836373573E+03  0.26062311973E+04  0.25994153490E+04 0.  0.
        2    1    3    3  502    0 -0.28585725511E+03 -0.12653139902E+04  0.13309505243E+02  0.12972705990E+04  0.25500000920E-02 0. -1.
       -2    1    3    3    0  502  0.28585725511E+03  0.12653139902E+04  0.17505423048E+03  0.13089605982E+04  0.25500000920E-02 0.  1.
</event>
<event>
 5   0  0.6984287E-06  0.2631732E+04  0.7818609E-02  0.8357502E-01
        1   -1    0    0  501    0  0.00000000000E+00  0.00000000000E+00  0.21559916675E+04  0.21559916675E+04  0.50400001928E-02 0. -1.
       -1   -1    0    0    0  501  0.00000000000E+00  0.00000000000E+00 -0.80311229345E+03  0.80311229347E+03  0.50400001928E-02 0.  1.
    10030    2    1    2    0    0  0.00000000000E+00  0.00000000000E+00  0.13528793741E+04  0.29591039610E+04  0.26317320630E+04 0.  0.
        3    1    3    3  502    0  0.25052098788E+03  0.37829477001E+03  0.20652533285E+04  0.21145068029E+04  0.10100000352E+00 0. -1.
       -3    1    3    3    0  502 -0.25052098788E+03 -0.37829477001E+03 -0.71237395441E+03  0.84459715813E+03  0.10100000352E+00 0.  1.
</event>
<event>
 5   0  0.6706225E-06  0.2603012E+04  0.7818609E-02  0.8367179E-01
        1   -1    0    0  501    0  0.00000000000E+00  0.00000000000E+00  0.18571408836E+04  0.18571408836E+04  0.50400001928E-02 0.  1.
       -1   -1    0    0    0  501  0.00000000000E+00  0.00000000000E+00 -0.91211048934E+03  0.91211048936E+03  0.50400001928E-02 0. -1.
    10030    2    1    2    0    0  0.00000000000E+00  0.00000000000E+00  0.94503039427E+03  0.27692513730E+04  0.26030118556E+04 0.  0.
        5    1    3    3  502    0 -0.12975526299E+04  0.25654251966E+02  0.36830741017E+03  0.13490639000E+04  0.46999998093E+01 0. -1.
       -5    1    3    3    0  502  0.12975526299E+04 -0.25654251966E+02  0.57672298410E+03  0.14201874730E+04  0.46999998093E+01 0.  1.
</event>
<event>
 5   0  0.1681731E-05  0.2629911E+04  0.7818609E-02  0.8358112E-01
       -2   -1    0    0    0  501  0.00000000000E+00  0.00000000000E+00  0.71816808332E+03  0.71816808332E+03  0.25500000920E-02 0. -1.
        2   -1    0    0  501    0  0.00000000000E+00  0.00000000000E+00 -0.24076648317E+04  0.24076648317E+04  0.25500000920E-02 0.  1.
    10030    2    1    2    0    0  0.00000000000E+00  0.00000000000E+00 -0.16894967484E+04  0.31258329151E+04  0.26299110536E+04 0.  0.
        2    1    3    3  502    0 -0.67370256947E+03  0.59398739862E+03 -0.19862778701E+04  0.21799073281E+04  0.25500000920E-02 0.  1.
       -2    1    3    3    0  502  0.67370256947E+03 -0.59398739862E+03  0.29678112170E+03  0.94592558694E+03  0.25500000920E-02 0. -1.
</event>
<event>
 5   0  0.1702345E-05  0.2623896E+04  0.7818609E-02  0.8360129E-01
        2   -1    0    0  501    0  0.00000000000E+00  0.00000000000E+00  0.18383887931E+04  0.18383887931E+04  0.25500000920E-02 0. -1.
       -2   -1    0    0    0  501  0.00000000000E+00  0.00000000000E+00 -0.93625908247E+03  0.93625908248E+03  0.25500000920E-02 0.  1.
    10030    2    1    2    0    0  0.00000000000E+00  0.00000000000E+00  0.90212971065E+03  0.27746478756E+04  0.26238964954E+04 0.  0.
        1    1    3    3  502    0 -0.11970597689E+04 -0.26540509424E+02 -0.11598227612E+03  0.12029581777E+04  0.50400001928E-02 0.  1.
       -1    1    3    3    0  502  0.11970597689E+04  0.26540509424E+02  0.10181119868E+04  0.15716896979E+04  0.50400001928E-02 0. -1.
</event>
<event>
 5   0  0.6984287E-06  0.2601877E+04  0.7818609E-02  0.8367564E-01
        1   -1    0    0  501    0  0.00000000000E+00  0.00000000000E+00  0.14367325973E+04  0.14367325973E+04  0.50400001928E-02 0.  1.
       -1   -1    0    0    0  501  0.00000000000E+00  0.00000000000E+00 -0.11779789925E+04  0.11779789925E+04  0.50400001928E-02 0. -1.
    10030    2    1    2    0    0  0.00000000000E+00  0.00000000000E+00  0.25875360482E+03  0.26147115898E+04  0.26018768745E+04 0.  0.
        3    1    3    3  502    0 -0.20572822694E+03 -0.99304205491E+03  0.94824860596E+03  0.13883918954E+04  0.10100000352E+00 0.  1.
       -3    1    3    3    0  502  0.20572822694E+03  0.99304205491E+03 -0.68949500114E+03  0.12263196944E+04  0.10100000352E+00 0. -1.
</event>
<event>
 5   0  0.1702345E-05  0.2582646E+04  0.7818609E-02  0.8374120E-01
        2   -1    0    0  501    0  0.00000000000E+00  0.00000000000E+00  0.20313340394E+04  0.20313340394E+04  0.25500000920E-02 0.  1.
       -2   -1    0    0    0  501  0.00000000000E+00  0.00000000000E+00 -0.82089641453E+03  0.82089641454E+03  0.25500000920E-02 0. -1.
    10030    2    1    2    0    0  0.00000000000E+00  0.00000000000E+00  0.12104376249E+04  0.28522304539E+04  0.25826457981E+04 0.  0.
        1    1    3    3  502    0  0.85581115914E+03 -0.73160583046E+03  0.13035654222E+04  0.17224815358E+04  0.50400001928E-02 0.  1.
       -1    1    3    3    0  502 -0.85581115914E+03  0.73160583046E+03 -0.93127797358E+02  0.11297489181E+04  0.50400001928E-02 0. -1.
</event>
<event>
 5   0  0.1702345E-05  0.2588565E+04  0.7818609E-02  0.8372096E-01
        2   -1    0    0  501    0  0.00000000000E+00  0.00000000000E+00  0.26787151736E+04  0.26787151736E+04  0.25500000920E-02 0.  1.
       -2   -1    0    0    0  501  0.00000000000E+00  0.00000000000E+00 -0.62536200574E+03  0.62536200575E+03  0.25500000920E-02 0. -1.
    10030    2    1    2    0    0  0.00000000000E+00  0.00000000000E+00  0.20533531679E+04  0.33040771794E+04  0.25885646168E+04 0.  0.
        1    1    3    3  502    0 -0.83462248162E+03 -0.98814779361E+03  0.10856676440E+04  0.16886991982E+04  0.50400001928E-02 0. -1.
       -1    1    3    3    0  502  0.83462248162E+03  0.98814779361E+03  0.96768552393E+03  0.16153779812E+04  0.50400001928E-02 0.  1.
</event>
<event>
 5   0  0.1869956E-05  0.2592694E+04  0.7818609E-02  0.8370687E-01
        2   -1    0    0  501    0  0.00000000000E+00  0.00000000000E+00  0.14069420081E+04  0.14069420081E+04  0.25500000920E-02 0.  1.
       -2   -1    0    0    0  501  0.00000000000E+00  0.00000000000E+00 -0.11944458626E+04  0.11944458626E+04  0.25500000920E-02 0. -1.
    10030    2    1    2    0    0  0.00000000000E+00  0.00000000000E+00  0.21249614545E+03  0.26013878707E+04  0.25926943981E+04 0.  0.
        5    1    3    3  502    0 -0.28704110559E+03  0.26069315477E+03 -0.11348880911E+04  0.11993108799E+04  0.46999998093E+01 0. -1.
       -5    1    3    3    0  502  0.28704110559E+03 -0.26069315477E+03  0.13473842366E+04  0.14020769908E+04  0.46999998093E+01 0.  1.
</event>
<event>
 5   0  0.1702345E-05  0.2603483E+04  0.7818609E-02  0.8367019E-01
        2   -1    0    0  501    0  0.00000000000E+00  0.00000000000E+00  0.10487172719E+04  0.10487172719E+04  0.25500000920E-02 0. -1.
       -2   -1    0    0    0  501  0.00000000000E+00  0.00000000000E+00 -0.16158127035E+04  0.16158127035E+04  0.25500000920E-02 0.  1.
    10030    2    1    2    0    0  0.00000000000E+00  0.00000000000E+00 -0.56709543158E+03  0.26645299754E+04  0.26034828137E+04 0.  0.
        1    1    3    3  502    0  0.76681572057E+02 -0.29776263896E+03 -0.15781139135E+04  0.16077892203E+04  0.50400001928E-02 0.  1.
       -1    1    3    3    0  502 -0.76681572057E+02  0.29776263896E+03  0.10110184820E+04  0.10567407551E+04  0.50400001928E-02 0. -1.
</event>
<event>
 5   0  0.6993678E-06  0.2587826E+04  0.7818609E-02  0.8372348E-01
        1   -1    0    0  501    0  0.00000000000E+00  0.00000000000E+00  0.12286549272E+04  0.12286549272E+04  0.50400001928E-02 0.  1.
       -1   -1    0    0    0  501  0.00000000000E+00  0.00000000000E+00 -0.13626366866E+04  0.13626366866E+04  0.50400001928E-02 0. -1.
    10030    2    1    2    0    0  0.00000000000E+00  0.00000000000E+00 -0.13398175945E+03  0.25912916138E+04  0.25878255574E+04 0.  0.
        1    1    3    3  502    0 -0.54980766257E+03 -0.10298732432E+04 -0.62566549029E+03  0.13245318678E+04  0.50400001928E-02 0. -1.
       -1    1    3    3    0  502  0.54980766257E+03  0.10298732432E+04  0.49168373083E+03  0.12667597460E+04  0.50400001928E-02 0.  1.
</event>
<event>
 5   0  0.6993678E-06  0.2591823E+04  0.7818609E-02  0.8370984E-01
       -1   -1    0    0    0  501  0.00000000000E+00  0.00000000000E+00  0.20966478050E+04  0.20966478051E+04  0.50400001928E-02 0.  1.
        1   -1    0    0  501    0  0.00000000000E+00  0.00000000000E+00 -0.80098669407E+03  0.80098669409E+03  0.50400001928E-02 0. -1.
    10030    2    1    2    0    0  0.00000000000E+00  0.00000000000E+00  0.12956611110E+04  0.28976344991E+04  0.25918232918E+04 0.  0.
        1    1    3    3  502    0  0.48448474651E+03 -0.74891210387E+03 -0.40319504320E+03  0.97885701295E+03  0.50400001928E-02 0. -1.
       -1    1    3    3    0  502 -0.48448474651E+03  0.74891210387E+03  0.16988561542E+04  0.19187774862E+04  0.50400001928E-02 0.  1.
</event>
<event>
 5   0  0.6993678E-06  0.2516975E+04  0.7818609E-02  0.8396963E-01
        1   -1    0    0  501    0  0.00000000000E+00  0.00000000000E+00  0.59836167557E+03  0.59836167559E+03  0.50400001928E-02 0. -1.
       -1   -1    0    0    0  501  0.00000000000E+00  0.00000000000E+00 -0.26468795987E+04  0.26468795987E+04  0.50400001928E-02 0.  1.
    10030    2    1    2    0    0  0.00000000000E+00  0.00000000000E+00 -0.20485179232E+04  0.32452412743E+04  0.25169754165E+04 0.  0.
        1    1    3    3  502    0 -0.68413819641E+03 -0.15443797853E+03  0.32302297071E+03  0.77216578571E+03  0.50400001928E-02 0. -1.
       -1    1    3    3    0  502  0.68413819641E+03  0.15443797853E+03 -0.23715408939E+04  0.24730754886E+04  0.50400001928E-02 0.  1.
</event>
<event>
 5   0  0.1869956E-05  0.2645071E+04  0.7818609E-02  0.8353051E-01
       -2   -1    0    0    0  501  0.00000000000E+00  0.00000000000E+00  0.90880013798E+03  0.90880013799E+03  0.25500000920E-02 0.  1.
        2   -1    0    0  501    0  0.00000000000E+00  0.00000000000E+00 -0.19246256074E+04  0.19246256074E+04  0.25500000920E-02 0. -1.
    10030    2    1    2    0    0  0.00000000000E+00  0.00000000000E+00 -0.10158254694E+04  0.28334257454E+04  0.26450709008E+04 0.  0.
        5    1    3    3  502    0 -0.10793490138E+04  0.60431664582E+03 -0.10090798236E+04  0.15963887630E+04  0.46999998093E+01 0. -1.
       -5    1    3    3    0  502  0.10793490138E+04 -0.60431664582E+03 -0.67456457820E+01  0.12370369824E+04  0.46999998093E+01 0.  1.
</event>
<event>
 5   0  0.1702345E-05  0.2604198E+04  0.7818609E-02  0.8366777E-01
        2   -1    0    0  501    0  0.00000000000E+00  0.00000000000E+00  0.21142559078E+04  0.21142559078E+04  0.25500000920E-02 0.  1.
       -2   -1    0    0    0  501  0.00000000000E+00  0.00000000000E+00 -0.80191907637E+03  0.80191907637E+03  0.25500000920E-02 0. -1.
    10030    2    1    2    0    0  0.00000000000E+00  0.00000000000E+00  0.13123368315E+04  0.29161749842E+04  0.26041982604E+04 0.  0.
        1    1    3    3  502    0  0.11702949886E+02  0.12610581425E+04  0.10191237333E+04  0.16214246149E+04  0.50400001928E-02 0.  1.
       -1    1    3    3    0  502 -0.11702949886E+02 -0.12610581425E+04  0.29321309818E+03  0.12947503693E+04  0.50400001928E-02 0. -1.
</event>
<event>
 5   0  0.6706225E-06  0.2575237E+04  0.7818609E-02  0.8376661E-01
       -1   -1    0    0    0  501  0.00000000000E+00  0.00000000000E+00  0.10175672879E+04  0.10175672880E+04  0.50400001928E-02 0.  1.
        1   -1    0    0  501    0  0.00000000000E+00  0.00000000000E+00 -0.16293387808E+04  0.16293387808E+04  0.50400001928E-02 0. -1.
    10030    2    1    2    0    0  0.00000000000E+00  0.00000000000E+00 -0.61177149281E+03  0.26469060687E+04  0.25752373439E+04 0.  0.
        5    1    3    3  502    0 -0.73418527885E+03 -0.83282372044E+03 -0.97619825421E+03  0.14783803619E+04  0.46999998093E+01 0. -1.
       -5    1    3    3    0  502  0.73418527885E+03  0.83282372044E+03  0.36442676140E+03  0.11685257068E+04  0.46999998093E+01 0.  1.
</event>
<event>
 5   0  0.6706225E-06  0.2594108E+04  0.7818609E-02  0.8370205E-01
        1   -1    0    0  501    0  0.00000000000E+00  0.00000000000E+00  0.23630697884E+04  0.23630697884E+04  0.50400001928E-02 0.  1.
       -1   -1    0    0    0  501  0.00000000000E+00  0.00000000000E+00 -0.71193347903E+03  0.71193347904E+03  0.50400001928E-02 0. -1.
    10030    2    1    2    0    0  0.00000000000E+00  0.00000000000E+00  0.16511363093E+04  0.30750032674E+04  0.25941075503E+04 0.  0.
        5    1    3    3  502    0 -0.42291861843E+03 -0.12023369198E+04  0.11106814469E+04  0.16905944496E+04  0.46999998093E+01 0.  1.
       -5    1    3    3    0  502  0.42291861843E+03  0.12023369198E+04  0.54045486240E+03  0.13844088178E+04  0.46999998093E+01 0. -1.
</event>
<event>
 5   0  0.1702345E-05  0.2594278E+04  0.7818609E-02  0.8370147E-01
       -2   -1    0    0    0  501  0.00000000000E+00  0.00000000000E+00  0.12172461049E+04  0.12172461049E+04  0.25500000920E-02 0.  1.
        2   -1    0    0  501    0  0.00000000000E+00  0.00000000000E+00 -0.13822756904E+04  0.13822756904E+04  0.25500000920E-02 0. -1.
    10030    2    1    2    0    0  0.00000000000E+00  0.00000000000E+00 -0.16502958555E+03  0.25995217953E+04  0.25942780884E+04 0.  0.
        1    1    3    3  502    0  0.54462402682E+03 -0.69791455986E+03  0.86748889395E+03  0.12394502994E+04  0.50400001928E-02 0.  1.
       -1    1    3    3    0  502 -0.54462402682E+03  0.69791455986E+03 -0.10325184795E+04  0.13600714959E+04  0.50400001928E-02 0. -1.
</event>
<event>
 5   0  0.6984287E-06  0.2628160E+04  0.7818609E-02  0.8358698E-01
        1   -1    0    0  501    0  0.00000000000E+00  0.00000000000E+00  0.58266611807E+03  0.58266611809E+03  0.50400001928E-02 0. -1.
       -1   -1    0    0    0  501  0.00000000000E+00  0.00000000000E+00 -0.29636297570E+04  0.29636297570E+04  0.50400001928E-02 0.  1.
    10030    2    1    2    0    0  0.00000000000E+00  0.00000000000E+00 -0.23809636390E+04  0.35462958751E+04  0.26281603041E+04 0.  0.
        3    1    3    3  502    0  0.81325538477E+03  0.79460702995E+03 -0.20794351858E+04  0.23699863618E+04  0.10100000352E+00 0.  1.
       -3    1    3    3    0  502 -0.81325538477E+03 -0.79460702995E+03 -0.30152845314E+03  0.11763095133E+04  0.10100000352E+00 0. -1.
</event>
<event>
 5   0  0.7138294E-06  0.2588221E+04  0.7818609E-02  0.8372213E-01
        1   -1    0    0  501    0  0.00000000000E+00  0.00000000000E+00  0.16339364834E+04  0.16339364834E+04  0.50400001928E-02 0.  1.
       -1   -1    0    0    0  501  0.00000000000E+00  0.00000000000E+00 -0.10249614431E+04  0.10249614431E+04  0.50400001928E-02 0. -1.
    10030    2    1    2    0    0  0.00000000000E+00  0.00000000000E+00  0.60897504034E+03  0.26588979265E+04  0.25882209302E+04 0.  0.
        2    1    3    3  502    0  0.98495467723E+03 -0.61275239694E+03 -0.28486874697E+03  0.11944670021E+04  0.25500000920E-02 0. -1.
       -2    1    3    3    0  502 -0.98495467723E+03  0.61275239694E+03  0.89384378731E+03  0.14644309244E+04  0.25500000920E-02 0.  1.
</event>
<event>
 5   0  0.6918420E-06  0.2608279E+04  0.7818609E-02  0.8365395E-01
       -1   -1    0    0    0  501  0.00000000000E+00  0.00000000000E+00  0.17102314322E+04  0.17102314322E+04  0.50400001928E-02 0. -1.
        1   -1    0    0  501    0  0.00000000000E+00  0.00000000000E+00 -0.99447325087E+03  0.99447325088E+03  0.50400001928E-02 0.  1.
    10030    2    1    2    0    0  0.00000000000E+00  0.00000000000E+00  0.71575818135E+03  0.27047046831E+04  0.26082786754E+04 0.  0.
        4    1    3    3  502    0  0.32903489645E+03  0.58061686278E+03 -0.80398829323E+03  0.10448821431E+04  0.12699999809E+01 0.  1.
       -4    1    3    3    0  502 -0.32903489645E+03 -0.58061686278E+03  0.15197464746E+04  0.16598225400E+04  0.12699999809E+01 0. -1.
</event>
<event>
 5   0  0.6918420E-06  0.2614596E+04  0.7818609E-02  0.8363260E-01
        1   -1    0    0  501    0  0.00000000000E+00  0.00000000000E+00  0.16683136872E+04  0.16683136872E+04  0.50400001928E-02 0. -1.
       -1   -1    0    0    0  501  0.00000000000E+00  0.00000000000E+00 -0.10244042344E+04  0.10244042344E+04  0.50400001928E-02 0.  1.
    10030    2    1    2    0    0  0.00000000000E+00  0.00000000000E+00  0.64390945275E+03  0.26927179216E+04  0.26145956517E+04 0.  0.
        4    1    3    3  502    0 -0.86721707683E+03  0.27736997802E+03  0.12880816476E+04  0.15773888255E+04  0.12699999809E+01 0. -1.
       -4    1    3    3    0  502  0.86721707683E+03 -0.27736997802E+03 -0.64417219484E+03  0.11153290961E+04  0.12699999809E+01 0.  1.
</event>
<event>
 5   0  0.6993678E-06  0.2594218E+04  0.7818609E-02  0.8370168E-01
        1   -1    0    0  501    0  0.00000000000E+00  0.00000000000E+00  0.17275805759E+04  0.17275805759E+04  0.50400001928E-02 0. -1.
       -1   -1    0    0    0  501  0.00000000000E+00  0.00000000000E+00 -0.97390075438E+03  0.97390075439E+03  0.50400001928E-02 0.  1.
    10030    2    1    2    0    0  0.00000000000E+00  0.00000000000E+00  0.75367982151E+03  0.27014813303E+04  0.25942182068E+04 0.  0.
        1    1    3    3  502    0 -0.65935902036E+03  0.85602199522E+03 -0.37044106174E+03  0.11422585322E+04  0.50400001928E-02 0.  1.
       -1    1    3    3    0  502  0.65935902036E+03 -0.85602199522E+03  0.11241208832E+04  0.15592227981E+04  0.50400001928E-02 0. -1.
</event>
<event>
 5   0  0.6984287E-06  0.2113139E+04  0.7818609E-02  0.8555478E-01
        1   -1    0    0  501    0  0.00000000000E+00  0.00000000000E+00  0.72358413453E+03  0.72358413455E+03  0.50400001928E-02 0.  1.
       -1   -1    0    0    0  501  0.00000000000E+00  0.00000000000E+00 -0.15427905737E+04  0.15427905737E+04  0.50400001928E-02 0. -1.
    10030    2    1    2    0    0  0.00000000000E+00  0.00000000000E+00 -0.81920643915E+03  0.22663747082E+04  0.21131386912E+04 0.  0.
        3    1    3    3  502    0  0.18157392837E+03  0.97494548732E+02  0.70181741223E+03  0.73145195932E+03  0.10100000352E+00 0.  1.
       -3    1    3    3    0  502 -0.18157392837E+03 -0.97494548732E+02 -0.15210238514E+04  0.15349227489E+04  0.10100000352E+00 0. -1.
</event>
<event>
 5   0  0.6918420E-06  0.2537306E+04  0.7818609E-02  0.8389815E-01
       -1   -1    0    0    0  501  0.00000000000E+00  0.00000000000E+00  0.16081665728E+04  0.16081665728E+04  0.50400001928E-02 0. -1.
        1   -1    0    0  501    0  0.00000000000E+00  0.00000000000E+00 -0.10008166051E+04  0.10008166052E+04  0.50400001928E-02 0.  1.
    10030    2    1    2    0    0  0.00000000000E+00  0.00000000000E+00  0.60734996763E+03  0.26089831779E+04  0.25373055077E+04 0.  0.
        4    1    3    3  502    0 -0.28041419765E+03  0.58620989207E+03 -0.81669431407E+03  0.10436787702E+04  0.12699999809E+01 0.  1.
       -4    1    3    3    0  502  0.28041419765E+03 -0.58620989207E+03  0.14240442817E+04  0.15653044078E+04  0.12699999809E+01 0. -1.
</event>
<event>
 5   0  0.1720129E-05  0.2595088E+04  0.7818609E-02  0.8369871E-01
        2   -1    0    0  501    0  0.00000000000E+00  0.00000000000E+00  0.94466963719E+03  0.94466963719E+03  0.25500000920E-02 0. -1.
       -2   -1    0    0    0  501  0.00000000000E+00  0.00000000000E+00 -0.17822324769E+04  0.17822324769E+04  0.25500000920E-02 0.  1.
    10030    2    1    2    0    0  0.00000000000E+00  0.00000000000E+00 -0.83756283970E+03  0.27269021141E+04  0.25950883664E+04 0.  0.
        3    1    3    3  502    0  0.11335104570E+04  0.60551334278E+03 -0.23043262592E+03  0.13056000803E+04  0.10100000352E+00 0.  1.
       -3    1    3    3    0  502 -0.11335104570E+04 -0.60551334278E+03 -0.60713021378E+03  0.14213020338E+04  0.10100000352E+00 0. -1.
</event>
<event>
 5   0  0.7138294E-06  0.2661505E+04  0.7818609E-02  0.8347605E-01
        1   -1    0    0  501    0  0.00000000000E+00  0.00000000000E+00  0.22407641376E+04  0.22407641376E+04  0.50400001928E-02 0.  1.
       -1   -1    0    0    0  501  0.00000000000E+00  0.00000000000E+00 -0.79031149138E+03  0.79031149140E+03  0.50400001928E-02 0. -1.
    10030    2    1    2    0    0  0.00000000000E+00  0.00000000000E+00  0.14504526462E+04  0.30310756290E+04  0.26615045725E+04 0.  0.
        2    1    3    3  502    0 -0.10989540889E+04 -0.54090643279E+03  0.13277737020E+03  0.12320347757E+04  0.25500000920E-02 0.  1.
       -2    1    3    3    0  502  0.10989540889E+04  0.54090643279E+03  0.13176752760E+04  0.17990408532E+04  0.25500000920E-02 0. -1.
</event>
<event>
 5   0  0.6984287E-06  0.2542031E+04  0.7818609E-02  0.8388163E-01
       -1   -1    0    0    0  501  0.00000000000E+00  0.00000000000E+00  0.10980827031E+04  0.10980827031E+04  0.50400001928E-02 0. -1.
        1   -1    0    0  501    0  0.00000000000E+00  0.00000000000E+00 -0.14711829686E+04  0.14711829686E+04  0.50400001928E-02 0.  1.
    10030    2    1    2    0    0  0.00000000000E+00  0.00000000000E+00 -0.37310026546E+03  0.25692656717E+04  0.25420311335E+04 0.  0.
        3    1    3    3  502    0  0.67155639823E+01 -0.10413974599E+03  0.10937454304E+04  0.10987125475E+04  0.10100000352E+00 0. -1.
       -3    1    3    3    0  502 -0.67155639823E+01  0.10413974599E+03 -0.14668456958E+04  0.14705531242E+04  0.10100000352E+00 0.  1.
</event>
<event>
 5   0  0.7138294E-06  0.2608020E+04  0.7818609E-02  0.8365482E-01
        1   -1    0    0  501    0  0.00000000000E+00  0.00000000000E+00  0.20527579223E+04  0.20527579223E+04  0.50400001928E-02 0. -1.
       -1   -1    0    0    0  501  0.00000000000E+00  0.00000000000E+00 -0.82836924740E+03  0.82836924741E+03  0.50400001928E-02 0.  1.
    10030    2    1    2    0    0  0.00000000000E+00  0.00000000000E+00  0.12243886749E+04  0.28811271697E+04  0.26080195821E+04 0.  0.
        2    1    3    3  502    0 -0.26300491526E+03  0.72167196753E+03  0.17763282638E+04  0.19352839882E+04  0.25500000920E-02 0. -1.
       -2    1    3    3    0  502  0.26300491526E+03 -0.72167196753E+03 -0.55193958892E+03  0.94584318150E+03  0.25500000920E-02 0.  1.
</event>
<event>
 5   0  0.1702345E-05  0.2595830E+04  0.7818609E-02  0.8369619E-01
       -2   -1    0    0    0  501  0.00000000000E+00  0.00000000000E+00  0.13837936999E+04  0.13837936999E+04  0.25500000920E-02 0.  1.
        2   -1    0    0  501    0  0.00000000000E+00  0.00000000000E+00 -0.12173663640E+04  0.12173663640E+04  0.25500000920E-02 0. -1.
    10030    2    1    2    0    0  0.00000000000E+00  0.00000000000E+00  0.16642733584E+03  0.26011600639E+04  0.25958304297E+04 0.  0.
        1    1    3    3  502    0  0.10637148738E+04  0.58156859369E+03 -0.38128152130E+03  0.12708607163E+04  0.50400001928E-02 0. -1.
       -1    1    3    3    0  502 -0.10637148738E+04 -0.58156859369E+03  0.54770885714E+03  0.13302993475E+04  0.50400001928E-02 0.  1.
</event>
<event>
 5   0  0.6993678E-06  0.2580150E+04  0.7818609E-02  0.8374975E-01
       -1   -1    0    0    0  501  0.00000000000E+00  0.00000000000E+00  0.23265187949E+04  0.23265187949E+04  0.50400001928E-02 0.  1.
        1   -1    0    0  501    0  0.00000000000E+00  0.00000000000E+00 -0.71535807094E+03  0.71535807096E+03  0.50400001928E-02 0. -1.
    10030    2    1    2    0    0  0.00000000000E+00  0.00000000000E+00  0.16111607240E+04  0.30418768659E+04  0.25801503810E+04 0.  0.
        1    1    3    3  502    0  0.52197627991E+03  0.10516067343E+04  0.17513454961E+03  0.11870164577E+04  0.50400001928E-02 0. -1.
       -1    1    3    3    0  502 -0.52197627991E+03 -0.10516067343E+04  0.14360261744E+04  0.18548604082E+04  0.50400001928E-02 0.  1.
</event>
<event>
 5   0  0.1681731E-05  0.2596129E+04  0.7818609E-02  0.8369517E-01
       -2   -1    0    0    0  501  0.00000000000E+00  0.00000000000E+00  0.14189511812E+04  0.14189511812E+04  0.25500000920E-02 0. -1.
        2   -1    0    0  501    0  0.00000000000E+00  0.00000000000E+00 -0.11874770287E+04  0.11874770287E+04  0.25500000920E-02 0.  1.
    10030    2    1    2    0    0  0.00000000000E+00  0.00000000000E+00  0.23147415254E+03  0.26064282099E+04  0.25961293747E+04 0.  0.
        2    1    3    3  502    0 -0.55805815406E+03 -0.91072376986E+03  0.85631178056E+03  0.13689837668E+04  0.25500000920E-02 0. -1.
       -2    1    3    3    0  502  0.55805815406E+03  0.91072376986E+03 -0.62483762802E+03  0.12374444431E+04  0.25500000920E-02 0.  1.
</event>
<event>
 5   0  0.5840500E-06  0.2626992E+04  0.7818609E-02  0.8359090E-01
        3   -1    0    0  501    0  0.00000000000E+00  0.00000000000E+00  0.10974986292E+04  0.10974986338E+04  0.10100000352E+00 0.  1.
       -3   -1    0    0    0  501  0.00000000000E+00  0.00000000000E+00 -0.15720035576E+04  0.15720035608E+04  0.10100000352E+00 0. -1.
    10030    2    1    2    0    0  0.00000000000E+00  0.00000000000E+00 -0.47450492838E+03  0.26695021946E+04  0.26269920137E+04 0.  0.
        2    1    3    3  502    0  0.46794785805E+03  0.11384661927E+04  0.22863270750E+03  0.12519398487E+04  0.25500000920E-02 0. -1.
       -2    1    3    3    0  502 -0.46794785805E+03 -0.11384661927E+04 -0.70313763588E+03  0.14175623460E+04  0.25500000920E-02 0.  1.
</event>
<event>
 5   0  0.6993678E-06  0.2557749E+04  0.7818609E-02  0.8382696E-01
       -1   -1    0    0    0  501  0.00000000000E+00  0.00000000000E+00  0.10158592016E+04  0.10158592016E+04  0.50400001928E-02 0.  1.
        1   -1    0    0  501    0  0.00000000000E+00  0.00000000000E+00 -0.16099874520E+04  0.16099874520E+04  0.50400001928E-02 0. -1.
    10030    2    1    2    0    0  0.00000000000E+00  0.00000000000E+00 -0.59412825040E+03  0.26258466535E+04  0.25577494541E+04 0.  0.
        1    1    3    3  502    0  0.28609613442E+03  0.12419159490E+04 -0.40626498799E+03  0.13376312881E+04  0.50400001928E-02 0. -1.
       -1    1    3    3    0  502 -0.28609613442E+03 -0.12419159490E+04 -0.18786326241E+03  0.12882153655E+04  0.50400001928E-02 0.  1.
</event>
<event>
 5   0  0.6984287E-06  0.2603029E+04  0.7818609E-02  0.8367173E-01
        1   -1    0    0  501    0  0.00000000000E+00  0.00000000000E+00  0.14702556191E+04  0.14702556191E+04  0.50400001928E-02 0. -1.
       -1   -1    0    0    0  501  0.00000000000E+00  0.00000000000E+00 -0.11521398335E+04  0.11521398335E+04  0.50400001928E-02 0.  1.
    10030    2    1    2    0    0  0.00000000000E+00  0.00000000000E+00  0.31811578559E+03  0.26223954526E+04  0.26030290541E+04 0.  0.
        3    1    3    3  502    0  0.44715975279E+03  0.36758445362E+01  0.13904341873E+04  0.14605726945E+04  0.10100000352E+00 0. -1.
       -3    1    3    3    0  502 -0.44715975279E+03 -0.36758445362E+01 -0.10723184017E+04  0.11618227581E+04  0.10100000352E+00 0.  1.
</event>
<event>
 5   0  0.1720129E-05  0.2572685E+04  0.7818609E-02  0.8377539E-01
       -2   -1    0    0    0  501  0.00000000000E+00  0.00000000000E+00  0.78948196939E+03  0.78948196939E+03  0.25500000920E-02 0.  1.
        2   -1    0    0  501    0  0.00000000000E+00  0.00000000000E+00 -0.20959029582E+04  0.20959029582E+04  0.25500000920E-02 0. -1.
    10030    2    1    2    0    0  0.00000000000E+00  0.00000000000E+00 -0.13064209889E+04  0.28853849276E+04  0.25726854414E+04 0.  0.
        3    1    3    3  502    0  0.12568216186E+04 -0.61886937810E+02 -0.35384592867E+03  0.13071486241E+04  0.10100000352E+00 0.  1.
       -3    1    3    3    0  502 -0.12568216186E+04  0.61886937810E+02 -0.95257506018E+03  0.15782363035E+04  0.10100000352E+00 0. -1.
</event>
<event>
 5   0  0.1677971E-05  0.2544241E+04  0.7818609E-02  0.8387392E-01
       -2   -1    0    0    0  501  0.00000000000E+00  0.00000000000E+00  0.10968493508E+04  0.10968493508E+04  0.25500000920E-02 0. -1.
        2   -1    0    0  501    0  0.00000000000E+00  0.00000000000E+00 -0.14753990646E+04  0.14753990646E+04  0.25500000920E-02 0.  1.
    10030    2    1    2    0    0  0.00000000000E+00  0.00000000000E+00 -0.37854971381E+03  0.25722484154E+04  0.25442409525E+04 0.  0.
        4    1    3    3  502    0  0.79473148669E+03  0.56159183946E+03 -0.10176264808E+04  0.14080301124E+04  0.12699999809E+01 0.  1.
       -4    1    3    3    0  502 -0.79473148669E+03 -0.56159183946E+03  0.63907676694E+03  0.11642183030E+04  0.12699999809E+01 0. -1.
</event>
<event>
 5   0  0.6993678E-06  0.2598630E+04  0.7818609E-02  0.8368667E-01
        1   -1    0    0  501    0  0.00000000000E+00  0.00000000000E+00  0.22558583844E+04  0.22558583844E+04  0.50400001928E-02 0.  1.
       -1   -1    0    0    0  501  0.00000000000E+00  0.00000000000E+00 -0.74837120773E+03  0.74837120775E+03  0.50400001928E-02 0. -1.
    10030    2    1    2    0    0  0.00000000000E+00  0.00000000000E+00  0.15074871766E+04  0.30042295921E+04  0.25986299957E+04 0.  0.
        1    1    3    3  502    0  0.61539675013E+03 -0.29971906314E+03 -0.52302060831E+03  0.86144949569E+03  0.50400001928E-02 0. -1.
       -1    1    3    3    0  502 -0.61539675013E+03  0.29971906314E+03  0.20305077850E+04  0.21427800964E+04  0.50400001928E-02 0.  1.
</event>
<event>
 5   0  0.6706225E-06  0.2816377E+04  0.7818609E-02  0.8298202E-01
       -1   -1    0    0    0  501  0.00000000000E+00  0.00000000000E+00  0.13010260531E+04  0.13010260532E+04  0.50400001928E-02 0.  1.
        1   -1    0    0  501    0  0.00000000000E+00  0.00000000000E+00 -0.15241777151E+04  0.15241777151E+04  0.50400001928E-02 0. -1.
    10030    2    1    2    0    0  0.00000000000E+00  0.00000000000E+00 -0.22315166199E+03  0.28252037683E+04  0.28163770465E+04 0.  0.
        5    1    3    3  502    0  0.13536792462E+04 -0.21425220324E+03  0.21289008011E+03  0.13869736062E+04  0.46999998093E+01 0.  1.
       -5    1    3    3    0  502 -0.13536792462E+04  0.21425220324E+03 -0.43604174210E+03  0.14382301621E+04  0.46999998093E+01 0. -1.
</event>
<event>
 5   0  0.1720129E-05  0.2581945E+04  0.7818609E-02  0.8374360E-01
        2   -1    0    0  501    0  0.00000000000E+00  0.00000000000E+00  0.75642923328E+03  0.75642923328E+03  0.25500000920E-02 0. -1.
       -2   -1    0    0    0  501  0.00000000000E+00  0.00000000000E+00 -0.22032593808E+04  0.22032593808E+04  0.25500000920E-02 0.  1.
    10030    2    1    2    0    0  0.00000000000E+00  0.00000000000E+00 -0.14468301475E+04  0.29596886140E+04  0.25819448515E+04 0.  0.
        3    1    3    3  502    0 -0.84366353356E+03 -0.75357938110E+03 -0.14364847336E+04  0.18284251260E+04  0.10100000352E+00 0.  1.
       -3    1    3    3    0  502  0.84366353356E+03  0.75357938110E+03 -0.10345413880E+02  0.11312634880E+04  0.10100000352E+00 0. -1.
</event>
<event>
 5   0  0.6918420E-06  0.2600357E+04  0.7818609E-02  0.8368080E-01
       -1   -1    0    0    0  501  0.00000000000E+00  0.00000000000E+00  0.14225090438E+04  0.14225090438E+04  0.50400001928E-02 0.  1.
        1   -1    0    0  501    0  0.00000000000E+00  0.00000000000E+00 -0.11883678473E+04  0.11883678473E+04  0.50400001928E-02 0. -1.
    10030    2    1    2    0    0  0.00000000000E+00  0.00000000000E+00  0.23414119649E+03  0.26108768910E+04  0.26003569063E+04 0.  0.
        4    1    3    3  502    0 -0.12315962974E+04 -0.18615091142E+03 -0.25723888537E+03  0.12718706926E+04  0.12699999809E+01 0. -1.
       -4    1    3    3    0  502  0.12315962974E+04  0.18615091142E+03  0.49138008185E+03  0.13390061984E+04  0.12699999809E+01 0.  1.
</event>
<event>
 5   0  0.1720129E-05  0.2600816E+04  0.7818609E-02  0.8367924E-01
        2   -1    0    0  501    0  0.00000000000E+00  0.00000000000E+00  0.21137498769E+04  0.21137498769E+04  0.25500000920E-02 0. -1.
       -2   -1    0    0    0  501  0.00000000000E+00  0.00000000000E+00 -0.80002866426E+03  0.80002866426E+03  0.25500000920E-02 0.  1.
    10030    2    1    2    0    0  0.00000000000E+00  0.00000000000E+00  0.13137212126E+04  0.29137785412E+04  0.26008156341E+04 0.  0.
        3    1    3    3  502    0 -0.93258311696E+03  0.82575880242E+03  0.10752588776E+04  0.16455304719E+04  0.10100000352E+00 0.  1.
       -3    1    3    3    0  502  0.93258311696E+03 -0.82575880242E+03  0.23846233505E+03  0.12682480693E+04  0.10100000352E+00 0. -1.
</event>
<event>
 5   0  0.6706225E-06  0.2593748E+04  0.7818609E-02  0.8370328E-01
       -1   -1    0    0    0  501  0.00000000000E+00  0.00000000000E+00  0.20866864728E+04  0.20866864728E+04  0.50400001928E-02 0.  1.
        1   -1    0    0  501    0  0.00000000000E+00  0.00000000000E+00 -0.80600615348E+03  0.80600615350E+03  0.50400001928E-02 0. -1.
    10030    2    1    2    0    0  0.00000000000E+00  0.00000000000E+00  0.12806803193E+04  0.28926926263E+04  0.25937479735E+04 0.  0.
        5    1    3    3  502    0 -0.88843804763E+03 -0.50780994169E+03 -0.24813942701E+03  0.10529902025E+04  0.46999998093E+01 0. -1.
       -5    1    3    3    0  502  0.88843804763E+03  0.50780994169E+03  0.15288197463E+04  0.18397024238E+04  0.46999998093E+01 0.  1.
</event>
<event>
 5   0  0.7138294E-06  0.2597020E+04  0.7818609E-02  0.8369214E-01
       -1   -1    0    0    0  501  0.00000000000E+00  0.00000000000E+00  0.12959391796E+04  0.12959391796E+04  0.50400001928E-02 0.  1.
        1   -1    0    0  501    0  0.00000000000E+00  0.00000000000E+00 -0.13010854699E+04  0.13010854699E+04  0.50400001928E-02 0. -1.
    10030    2    1    2    0    0  0.00000000000E+00  0.00000000000E+00 -0.51462903435E+01  0.25970246495E+04  0.25970195505E+04 0.  0.
        2    1    3    3  502    0 -0.70618112256E+03  0.97971975041E+03 -0.47963285096E+03  0.12994576711E+04  0.25500000920E-02 0. -1.
       -2    1    3    3    0  502  0.70618112256E+03 -0.97971975041E+03  0.47448656062E+03  0.12975669784E+04  0.25500000920E-02 0.  1.
</event>
<event>
 5   0  0.1869956E-05  0.2616066E+04  0.7818609E-02  0.8362764E-01
        2   -1    0    0  501    0  0.00000000000E+00  0.00000000000E+00  0.11485767944E+04  0.11485767944E+04  0.25500000920E-02 0.  1.
       -2   -1    0    0    0  501  0.00000000000E+00  0.00000000000E+00 -0.14896261502E+04  0.14896261502E+04  0.25500000920E-02 0. -1.
    10030    2    1    2    0    0  0.00000000000E+00  0.00000000000E+00 -0.34104935573E+03  0.26382029446E+04  0.26160657702E+04 0.  0.
        5    1    3    3  502    0 -0.38075826111E+03  0.89793539178E+03 -0.10494866037E+04  0.14327278327E+04  0.46999998093E+01 0. -1.
       -5    1    3    3    0  502  0.38075826111E+03 -0.89793539178E+03  0.70843724795E+03  0.12054751119E+04  0.46999998093E+01 0.  1.
</event>
<event>
 5   0  0.6993678E-06  0.2503092E+04  0.7818609E-02  0.8401885E-01
       -1   -1    0    0    0  501  0.00000000000E+00  0.00000000000E+00  0.59704095747E+03  0.59704095749E+03  0.50400001928E-02 0. -1.
        1   -1    0    0  501    0  0.00000000000E+00  0.00000000000E+00 -0.26235519432E+04  0.26235519432E+04  0.50400001928E-02 0.  1.
    10030    2    1    2    0    0  0.00000000000E+00  0.00000000000E+00 -0.20265109858E+04  0.32205929007E+04  0.25030924587E+04 0.  0.
        1    1    3    3  502    0 -0.43447287487E+03  0.11464835303E+04 -0.13366538072E+04  0.18137901103E+04  0.50400001928E-02 0. -1.
       -1    1    3    3    0  502  0.43447287487E+03 -0.11464835303E+04 -0.68985717861E+03  0.14068027904E+04  0.50400001928E-02 0.  1.
</event>
<event>
 5   0  0.6993678E-06  0.2600643E+04  0.7818609E-02  0.8367983E-01
        1   -1    0    0  501    0  0.00000000000E+00  0.00000000000E+00  0.13249807584E+04  0.13249807584E+04  0.50400001928E-02 0. -1.
       -1   -1    0    0    0  501  0.00000000000E+00  0.00000000000E+00 -0.12761207645E+04  0.12761207645E+04  0.50400001928E-02 0.  1.
    10030    2    1    2    0    0  0.00000000000E+00  0.00000000000E+00  0.48859993946E+02  0.26011015229E+04  0.26006425808E+04 0.  0.
        1    1    3    3  502    0  0.11345070391E+03  0.45110443545E+03 -0.11900615168E+04  0.12777373312E+04  0.50400001928E-02 0.  1.
       -1    1    3    3    0  502 -0.11345070391E+03 -0.45110443545E+03  0.12389215107E+04  0.13233641916E+04  0.50400001928E-02 0. -1.
</event>
<event>
 5   0  0.1720129E-05  0.2785611E+04  0.7818609E-02  0.8307750E-01
       -2   -1    0    0    0  501  0.00000000000E+00  0.00000000000E+00  0.78834557397E+03  0.78834557398E+03  0.25500000920E-02 0. -1.
        2   -1    0    0  501    0  0.00000000000E+00  0.00000000000E+00 -0.24607319090E+04  0.24607319090E+04  0.25500000920E-02 0.  1.
    10030    2    1    2    0    0  0.00000000000E+00  0.00000000000E+00 -0.16723863350E+04  0.32490774830E+04  0.27856109629E+04 0.  0.
        3    1    3    3  502    0  0.11258419206E+04  0.78509042852E+03 -0.11122582620E+04  0.17666367659E+04  0.10100000352E+00 0. -1.
       -3    1    3    3    0  502 -0.11258419206E+04 -0.78509042852E+03 -0.56012807307E+03  0.14824407171E+04  0.10100000352E+00 0.  1.
</event>
<event>
 5   0  0.6918420E-06  0.2593409E+04  0.7818609E-02  0.8370443E-01
        1   -1    0    0  501    0  0.00000000000E+00  0.00000000000E+00  0.10217583650E+04  0.10217583650E+04  0.50400001928E-02 0.  1.
       -1   -1    0    0    0  501  0.00000000000E+00  0.00000000000E+00 -0.16456363780E+04  0.16456363780E+04  0.50400001928E-02 0. -1.
    10030    2    1    2    0    0  0.00000000000E+00  0.00000000000E+00 -0.62387801294E+03  0.26673947430E+04  0.25934091347E+04 0.  0.
        4    1    3    3  502    0  0.63458840079E+03  0.57693303023E+03 -0.13122519178E+04  0.15676609545E+04  0.12699999809E+01 0. -1.
       -4    1    3    3    0  502 -0.63458840079E+03 -0.57693303023E+03  0.68837390482E+03  0.10997337885E+04  0.12699999809E+01 0.  1.
</event>
<event>
 5   0  0.6993678E-06  0.2598189E+04  0.7818609E-02  0.8368817E-01
       -1   -1    0    0    0  501  0.00000000000E+00  0.00000000000E+00  0.13011843258E+04  0.13011843258E+04  0.50400001928E-02 0.  1.
        1   -1    0    0  501    0  0.00000000000E+00  0.00000000000E+00 -0.12970075837E+04  0.12970075837E+04  0.50400001928E-02 0. -1.
    10030    2    1    2    0    0  0.00000000000E+00  0.00000000000E+00  0.41767420815E+01  0.25981919096E+04  0.25981885524E+04 0.  0.
        1    1    3    3  502    0  0.68726456480E+03  0.30423719772E+02  0.11040824236E+04  0.13008674732E+04  0.50400001928E-02 0.  1.
       -1    1    3    3    0  502 -0.68726456480E+03 -0.30423719772E+02 -0.10999056815E+04  0.12973244363E+04  0.50400001928E-02 0. -1.
</event>
<event>
 5   0  0.1869956E-05  0.2592661E+04  0.7818609E-02  0.8370698E-01
       -2   -1    0    0    0  501  0.00000000000E+00  0.00000000000E+00  0.70692138001E+03  0.70692138001E+03  0.25500000920E-02 0.  1.
        2   -1    0    0  501    0  0.00000000000E+00  0.00000000000E+00 -0.23771702250E+04  0.23771702250E+04  0.25500000920E-02 0. -1.
    10030    2    1    2    0    0  0.00000000000E+00  0.00000000000E+00 -0.16702488450E+04  0.30840916050E+04  0.25926607615E+04 0.  0.
        5    1    3    3  502    0 -0.98399958874E+03  0.78803216645E+03 -0.47588818734E+03  0.13474945428E+04  0.46999998093E+01 0.  1.
       -5    1    3    3    0  502  0.98399958874E+03 -0.78803216645E+03 -0.11943606577E+04  0.17365970623E+04  0.46999998093E+01 0. -1.
</event>
<event>
 5   0  0.6706225E-06  0.2580968E+04  0.7818609E-02  0.8374695E-01
        1   -1    0    0  501    0  0.00000000000E+00  0.00000000000E+00  0.21997233049E+04  0.21997233049E+04  0.50400001928E-02 0. -1.
       -1   -1    0    0    0  501  0.00000000000E+00  0.00000000000E+00 -0.75707183857E+03  0.75707183858E+03  0.50400001928E-02 0.  1.
    10030    2    1    2    0    0  0.00000000000E+00  0.00000000000E+00  0.14426514664E+04  0.29567951435E+04  0.25809676998E+04 0.  0.
        5    1    3    3  502    0 -0.12845687619E+04 -0.11350896532E+03  0.66608276512E+03  0.14514439463E+04  0.46999998093E+01 0.  1.
       -5    1    3    3    0  502  0.12845687619E+04  0.11350896532E+03  0.77656870126E+03  0.15053511972E+04  0.46999998093E+01 0. -1.
</event>
<event>
 5   0  0.1720129E-05  0.2613350E+04  0.7818609E-02  0.8363681E-01
        2   -1    0    0  501    0  0.00000000000E+00  0.00000000000E+00  0.16799951064E+04  0.16799951064E+04  0.25500000920E-02 0.  1.
       -2   -1    0    0    0  501  0.00000000000E+00  0.00000000000E+00 -0.10163123213E+04  0.10163123213E+04  0.25500000920E-02 0. -1.
    10030    2    1    2    0    0  0.00000000000E+00  0.00000000000E+00  0.66368278510E+03  0.26963074278E+04  0.26133501307E+04 0.  0.
        3    1    3    3  502    0 -0.99804736380E+03 -0.38551657340E+03  0.11057716626E+04  0.15386528357E+04  0.10100000352E+00 0.  1.
       -3    1    3    3    0  502  0.99804736380E+03  0.38551657340E+03 -0.44208887750E+03  0.11576545921E+04  0.10100000352E+00 0. -1.
</event>
<event>
 5   0  0.7138294E-06  0.2604647E+04  0.7818609E-02  0.8366625E-01
       -1   -1    0    0    0  501  0.00000000000E+00  0.00000000000E+00  0.28088155383E+04  0.28088155383E+04  0.50400001928E-02 0.  1.
        1   -1    0    0  501    0  0.00000000000E+00  0.00000000000E+00 -0.60382960406E+03  0.60382960408E+03  0.50400001928E-02 0. -1.
    10030    2    1    2    0    0  0.00000000000E+00  0.00000000000E+00  0.22049859342E+04  0.34126451424E+04  0.26046465974E+04 0.  0.
        2    1    3    3  502    0  0.67143730991E+02 -0.13948546849E+03  0.27967178118E+04  0.28009989281E+04  0.25500000920E-02 0.  1.
       -2    1    3    3    0  502 -0.67143730991E+02  0.13948546849E+03 -0.59173187754E+03  0.61164621427E+03  0.25500000920E-02 0. -1.
</event>
<event>
 5   0  0.6918420E-06  0.2595552E+04  0.7818609E-02  0.8369714E-01
       -1   -1    0    0    0  501  0.00000000000E+00  0.00000000000E+00  0.12929842035E+04  0.12929842035E+04  0.50400001928E-02 0. -1.
        1   -1    0    0  501    0  0.00000000000E+00  0.00000000000E+00 -0.13025852216E+04  0.13025852216E+04  0.50400001928E-02 0.  1.
    10030    2    1    2    0    0  0.00000000000E+00  0.00000000000E+00 -0.96010181239E+01  0.25955694251E+04  0.25955516679E+04 0.  0.
        4    1    3    3  502    0  0.30733318975E+03 -0.60698771837E+02  0.12546057693E+04  0.12931261654E+04  0.12699999809E+01 0. -1.
       -4    1    3    3    0  502 -0.30733318975E+03  0.60698771837E+02 -0.12642067874E+04  0.13024432597E+04  0.12699999809E+01 0.  1.
</event>
<event>
 5   0  0.6993678E-06  0.2600938E+04  0.7818609E-02  0.8367883E-01
        1   -1    0    0  501    0  0.00000000000E+00  0.00000000000E+00  0.14228728524E+04  0.14228728524E+04  0.50400001928E-02 0.  1.
       -1   -1    0    0    0  501  0.00000000000E+00  0.00000000000E+00 -0.11885947798E+04  0.11885947798E+04  0.50400001928E-02 0. -1.
    10030    2    1    2    0    0  0.00000000000E+00  0.00000000000E+00  0.23427807256E+03  0.26114676322E+04  0.26009377114E+04 0.  0.
        1    1    3    3  502    0  0.51114312640E+03  0.87571743813E+03  0.93472736985E+03  0.13790807022E+04  0.50400001928E-02 0.  1.
       -1    1    3    3    0  502 -0.51114312640E+03 -0.87571743813E+03 -0.70044929729E+03  0.12323869300E+04  0.50400001928E-02 0. -1.
</event>
<event>
 5   0  0.6918420E-06  0.2393727E+04  0.7818609E-02  0.8441856E-01
        1   -1    0    0  501    0  0.00000000000E+00  0.00000000000E+00  0.12392758053E+04  0.12392758053E+04  0.50400001928E-02 0. -1.
       -1   -1    0    0    0  501  0.00000000000E+00  0.00000000000E+00 -0.11559022794E+04  0.11559022794E+04  0.50400001928E-02 0.  1.
    10030    2    1    2    0    0  0.00000000000E+00  0.00000000000E+00  0.83373525888E+02  0.23951780847E+04  0.23937265743E+04 0.  0.
        4    1    3    3  502    0  0.50677619246E+03 -0.10657043193E+04 -0.15826511340E+03  0.11906289365E+04  0.12699999809E+01 0.  1.
       -4    1    3    3    0  502 -0.50677619246E+03  0.10657043193E+04  0.24163863929E+03  0.12045491482E+04  0.12699999809E+01 0. -1.
</event>
<event>
 5   0  0.1681731E-05  0.2718910E+04  0.7818609E-02  0.8328895E-01
       -2   -1    0    0    0  501  0.00000000000E+00  0.00000000000E+00  0.82311555997E+03  0.82311555997E+03  0.25500000920E-02 0. -1.
        2   -1    0    0  501    0  0.00000000000E+00  0.00000000000E+00 -0.22452722576E+04  0.22452722576E+04  0.25500000920E-02 0.  1.
    10030    2    1    2    0    0  0.00000000000E+00  0.00000000000E+00 -0.14221566976E+04  0.30683878175E+04  0.27189104668E+04 0.  0.
        2    1    3    3  502    0 -0.12166189099E+04 -0.58036615581E+03 -0.51195625690E+03  0.14419034835E+04  0.25500000920E-02 0. -1.
       -2    1    3    3    0  502  0.12166189099E+04  0.58036615581E+03 -0.91020044069E+03  0.16264843341E+04  0.25500000920E-02 0.  1.
</event>
<event>
 5   0  0.1702345E-05  0.2614030E+04  0.7818609E-02  0.8363451E-01
       -2   -1    0    0    0  501  0.00000000000E+00  0.00000000000E+00  0.11731476962E+04  0.11731476962E+04  0.25500000920E-02 0.  1.
        2   -1    0    0  501    0  0.00000000000E+00  0.00000000000E+00 -0.14561581069E+04  0.14561581069E+04  0.25500000920E-02 0. -1.
    10030    2    1    2    0    0  0.00000000000E+00  0.00000000000E+00 -0.28301041071E+03  0.26293058031E+04  0.26140302434E+04 0.  0.
        1    1    3    3  502    0 -0.12094110827E+04 -0.45570188608E+03 -0.33744900798E+03  0.13357436914E+04  0.50400001928E-02 0. -1.
       -1    1    3    3    0  502  0.12094110827E+04  0.45570188608E+03  0.54438597270E+02  0.12935621117E+04  0.50400001928E-02 0.  1.
</event>
<event>
 5   0  0.1720129E-05  0.2600119E+04  0.7818609E-02  0.8368161E-01
       -2   -1    0    0    0  501  0.00000000000E+00  0.00000000000E+00  0.13557734307E+04  0.13557734307E+04  0.25500000920E-02 0.  1.
        2   -1    0    0  501    0  0.00000000000E+00  0.00000000000E+00 -0.12466352711E+04  0.12466352711E+04  0.25500000920E-02 0. -1.
    10030    2    1    2    0    0  0.00000000000E+00  0.00000000000E+00  0.10913815958E+03  0.26024087019E+04  0.26001192114E+04 0.  0.
        3    1    3    3  502    0 -0.65794762190E+03  0.68466983396E+03 -0.83418077393E+03  0.12639325253E+04  0.10100000352E+00 0. -1.
       -3    1    3    3    0  502  0.65794762190E+03 -0.68466983396E+03  0.94331893352E+03  0.13384761766E+04  0.10100000352E+00 0.  1.
</event>
<event>
 5   0  0.1702345E-05  0.2632700E+04  0.7818609E-02  0.8357178E-01
       -2   -1    0    0    0  501  0.00000000000E+00  0.00000000000E+00  0.99074791078E+03  0.99074791078E+03  0.25500000920E-02 0. -1.
        2   -1    0    0  501    0  0.00000000000E+00  0.00000000000E+00 -0.17489594318E+04  0.17489594318E+04  0.25500000920E-02 0.  1.
    10030    2    1    2    0    0  0.00000000000E+00  0.00000000000E+00 -0.75821152103E+03  0.27397073426E+04  0.26327004411E+04 0.  0.
        1    1    3    3  502    0 -0.86335183529E+03 -0.35595601106E+03 -0.13445514084E+04  0.16370398783E+04  0.50400001928E-02 0.  1.
       -1    1    3    3    0  502  0.86335183529E+03  0.35595601106E+03  0.58633988735E+03  0.11026674643E+04  0.50400001928E-02 0. -1.
</event>
<event>
 5   0  0.1677971E-05  0.2558929E+04  0.7818609E-02  0.8382287E-01
        2   -1    0    0  501    0  0.00000000000E+00  0.00000000000E+00  0.15107346884E+04  0.15107346884E+04  0.25500000920E-02 0. -1.
       -2   -1    0    0    0  501  0.00000000000E+00  0.00000000000E+00 -0.10835985229E+04  0.10835985229E+04  0.25500000920E-02 0.  1.
    10030    2    1    2    0    0  0.00000000000E+00  0.00000000000E+00  0.42713616551E+03  0.25943332113E+04  0.25589293674E+04 0.  0.
        4    1    3    3  502    0 -0.10523887953E+04  0.43345392321E+03 -0.37900443542E+03  0.11996042910E+04  0.12699999809E+01 0.  1.
       -4    1    3    3    0  502  0.10523887953E+04 -0.43345392321E+03  0.80614060093E+03  0.13947289204E+04  0.12699999809E+01 0. -1.
</event>
<event>
 5   0  0.6984287E-06  0.2597059E+04  0.7818609E-02  0.8369201E-01
       -1   -1    0    0    0  501  0.00000000000E+00  0.00000000000E+00  0.13874735152E+04  0.13874735152E+04  0.50400001928E-02 0. -1.
        1   -1    0    0  501    0  0.00000000000E+00  0.00000000000E+00 -0.12152876882E+04  0.12152876882E+04  0.50400001928E-02 0.  1.
    10030    2    1    2    0    0  0.00000000000E+00  0.00000000000E+00  0.17218582703E+03  0.26027612034E+04  0.25970594762E+04 0.  0.
        3    1    3    3  502    0 -0.98341760870E+03 -0.47423225380E+03 -0.61842486349E+03  0.12547731849E+04  0.10100000352E+00 0.  1.
       -3    1    3    3    0  502  0.98341760870E+03  0.47423225380E+03  0.79061069052E+03  0.13479880184E+04  0.10100000352E+00 0. -1.
</event>
<event>
 5   0  0.6993678E-06  0.2618131E+04  0.7818609E-02  0.8362068E-01
       -1   -1    0    0    0  501  0.00000000000E+00  0.00000000000E+00  0.84873209283E+03  0.84873209284E+03  0.50400001928E-02 0. -1.
        1   -1    0    0  501    0  0.00000000000E+00  0.00000000000E+00 -0.20190736860E+04  0.20190736860E+04  0.50400001928E-02 0.  1.
    10030    2    1    2    0    0  0.00000000000E+00  0.00000000000E+00 -0.11703415932E+04  0.28678057789E+04  0.26181311160E+04 0.  0.
        1    1    3    3  502    0 -0.51354929143E+02  0.12789374621E+04 -0.88581625536E+03  0.15565952586E+04  0.50400001928E-02 0.  1.
       -1    1    3    3    0  502  0.51354929143E+02 -0.12789374621E+04 -0.28452533783E+03  0.13112105203E+04  0.50400001928E-02 0. -1.
</event>
<event>
 5   0  0.5840500E-06  0.2596569E+04  0.7818609E-02  0.8369368E-01
        3   -1    0    0  501    0  0.00000000000E+00  0.00000000000E+00  0.13155525324E+04  0.13155525363E+04  0.10100000352E+00 0.  1.
       -3   -1    0    0    0  501  0.00000000000E+00  0.00000000000E+00 -0.12812429632E+04  0.12812429671E+04  0.10100000352E+00 0. -1.
    10030    2    1    2    0    0  0.00000000000E+00  0.00000000000E+00  0.34309569251E+02  0.25967955034E+04  0.25965688399E+04 0.  0.
        2    1    3    3  502    0 -0.85903523557E+02  0.11392648863E+04  0.63384346298E+03  0.13065456104E+04  0.25500000920E-02 0.  1.
       -2    1    3    3    0  502  0.85903523557E+02 -0.11392648863E+04 -0.59953389373E+03  0.12902498930E+04  0.25500000920E-02 0. -1.
</event>
<event>
 5   0  0.6993678E-06  0.2607164E+04  0.7818609E-02  0.8365772E-01
        1   -1    0    0  501    0  0.00000000000E+00  0.00000000000E+00  0.20084688994E+04  0.20084688994E+04  0.50400001928E-02 0.  1.
       -1   -1    0    0    0  501  0.00000000000E+00  0.00000000000E+00 -0.84608056467E+03  0.84608056469E+03  0.50400001928E-02 0. -1.
    10030    2    1    2    0    0  0.00000000000E+00  0.00000000000E+00  0.11623883347E+04  0.28545494641E+04  0.26071643604E+04 0.  0.
        1    1    3    3  502    0  0.64977179485E+03 -0.35077929455E+03  0.17574087391E+04  0.19062358131E+04  0.50400001928E-02 0.  1.
       -1    1    3    3    0  502 -0.64977179485E+03  0.35077929455E+03 -0.59502040443E+03  0.94831365094E+03  0.50400001928E-02 0. -1.
</event>
<event>
 5   0  0.6918420E-06  0.2605660E+04  0.7818609E-02  0.8366281E-01
        1   -1    0    0  501    0  0.00000000000E+00  0.00000000000E+00  0.15473369029E+04  0.15473369030E+04  0.50400001928E-02 0. -1.
       -1   -1    0    0    0  501  0.00000000000E+00  0.00000000000E+00 -0.10969595141E+04  0.10969595141E+04  0.50400001928E-02 0.  1.
    10030    2    1    2    0    0  0.00000000000E+00  0.00000000000E+00  0.45037738882E+03  0.26442964171E+04  0.26056599450E+04 0.  0.
        4    1    3    3  502    0 -0.80135784087E+03 -0.82340731086E+02  0.12642901768E+04  0.14991282965E+04  0.12699999809E+01 0. -1.
       -4    1    3    3    0  502  0.80135784087E+03  0.82340731086E+02 -0.81391278801E+03  0.11451681206E+04  0.12699999809E+01 0.  1.
</event>
<event>
 5   0  0.6984287E-06  0.2606943E+04  0.7818609E-02  0.8365847E-01
        1   -1    0    0  501    0  0.00000000000E+00  0.00000000000E+00  0.15197192223E+04  0.15197192223E+04  0.50400001928E-02 0. -1.
       -1   -1    0    0    0  501  0.00000000000E+00  0.00000000000E+00 -0.11179944778E+04  0.11179944778E+04  0.50400001928E-02 0.  1.
    10030    2    1    2    0    0  0.00000000000E+00  0.00000000000E+00  0.40172474451E+03  0.26377137001E+04  0.26069428059E+04 0.  0.
        3    1    3    3  502    0  0.10911618846E+04  0.50279718131E+02 -0.51878198346E+03  0.12092547560E+04  0.10100000352E+00 0.  1.
       -3    1    3    3    0  502 -0.10911618846E+04 -0.50279718131E+02  0.92050672797E+03  0.14284589441E+04  0.10100000352E+00 0. -1.
</event>
<event>
 5   0  0.1677971E-05  0.2577430E+04  0.7818609E-02  0.8375908E-01
        2   -1    0    0  501    0  0.00000000000E+00  0.00000000000E+00  0.20288175628E+04  0.20288175628E+04  0.25500000920E-02 0.  1.
       -2   -1    0    0    0  501  0.00000000000E+00  0.00000000000E+00 -0.81859842020E+03  0.81859842021E+03  0.25500000920E-02 0. -1.
    10030    2    1    2    0    0  0.00000000000E+00  0.00000000000E+00  0.12102191426E+04  0.28474159830E+04  0.25774303884E+04 0.  0.
        4    1    3    3  502    0  0.31026280478E+03  0.53762173881E+02 -0.77544412844E+03  0.83694001494E+03  0.12699999809E+01 0. -1.
       -4    1    3    3    0  502 -0.31026280478E+03 -0.53762173881E+02  0.19856632710E+04  0.20104759681E+04  0.12699999809E+01 0.  1.
</event>
<event>
 5   0  0.7138294E-06  0.2642364E+04  0.7818609E-02  0.8353952E-01
       -1   -1    0    0    0  501  0.00000000000E+00  0.00000000000E+00  0.79575765812E+03  0.79575765813E+03  0.50400001928E-02 0.  1.
        1   -1    0    0  501    0  0.00000000000E+00  0.00000000000E+00 -0.21935337089E+04  0.21935337089E+04  0.50400001928E-02 0. -1.
    10030    2    1    2    0    0  0.00000000000E+00  0.00000000000E+00 -0.13977760508E+04  0.29892913670E+04  0.26423635232E+04 0.  0.
        2    1    3    3  502    0  0.86488966196E+03  0.61762014580E+03  0.18903943257E+03  0.10794557327E+04  0.25500000920E-02 0.  1.
       -2    1    3    3    0  502 -0.86488966196E+03 -0.61762014580E+03 -0.15868154834E+04  0.19098356343E+04  0.25500000920E-02 0. -1.
</event>
<event>
 5   0  0.6984287E-06  0.2577546E+04  0.7818609E-02  0.8375868E-01
       -1   -1    0    0    0  501  0.00000000000E+00  0.00000000000E+00  0.95663381207E+03  0.95663381208E+03  0.50400001928E-02 0. -1.
        1   -1    0    0  501    0  0.00000000000E+00  0.00000000000E+00 -0.17362298520E+04  0.17362298520E+04  0.50400001928E-02 0.  1.
    10030    2    1    2    0    0  0.00000000000E+00  0.00000000000E+00 -0.77959603992E+03  0.26928636641E+04  0.25775462610E+04 0.  0.
        3    1    3    3  502    0 -0.46932331631E+03 -0.10213217813E+03  0.85963356733E+03  0.98471581552E+03  0.10100000352E+00 0. -1.
       -3    1    3    3    0  502  0.46932331631E+03  0.10213217813E+03 -0.16392296073E+04  0.17081478486E+04  0.10100000352E+00 0.  1.
</event>
<event>
 5   0  0.1869956E-05  0.2607191E+04  0.7818609E-02  0.8365763E-01
        2   -1    0    0  501    0  0.00000000000E+00  0.00000000000E+00  0.13641446529E+04  0.13641446529E+04  0.25500000920E-02 0.  1.
       -2   -1    0    0    0  501  0.00000000000E+00  0.00000000000E+00 -0.12457339926E+04  0.12457339926E+04  0.25500000920E-02 0. -1.
    10030    2    1    2    0    0  0.00000000000E+00  0.00000000000E+00  0.11841066022E+03  0.26098786455E+04  0.26071911053E+04 0.  0.
        5    1    3    3  502    0 -0.97590962473E+03 -0.36452143381E+03 -0.72522467469E+03  0.12693495933E+04  0.46999998093E+01 0. -1.
       -5    1    3    3    0  502  0.97590962473E+03  0.36452143381E+03  0.84363533491E+03  0.13405290521E+04  0.46999998093E+01 0.  1.
</event>
<event>
 5   0  0.7138294E-06  0.2585832E+04  0.7818609E-02  0.8373030E-01
        1   -1    0    0  501    0  0.00000000000E+00  0.00000000000E+00  0.24053203325E+04  0.24053203326E+04  0.50400001928E-02 0. -1.
       -1   -1    0    0    0  501  0.00000000000E+00  0.00000000000E+00 -0.69497253368E+03  0.69497253370E+03  0.50400001928E-02 0.  1.
    10030    2    1    2    0    0  0.00000000000E+00  0.00000000000E+00  0.17103477989E+04  0.31002928663E+04  0.25858318320E+04 0.  0.
        2    1    3    3  502    0 -0.46959927603E+03 -0.99815781320E+03  0.46622839216E+02  0.11040906617E+04  0.25500000920E-02 0.  1.
       -2    1    3    3    0  502  0.46959927603E+03  0.99815781320E+03  0.16637249597E+04  0.19962022046E+04  0.25500000920E-02 0. -1.
</event>
<event>
 5   0  0.6706225E-06  0.2605853E+04  0.7818609E-02  0.8366216E-01
        1   -1    0    0  501    0  0.00000000000E+00  0.00000000000E+00  0.14434153471E+04  0.14434153471E+04  0.50400001928E-02 0.  1.
       -1   -1    0    0    0  501  0.00000000000E+00  0.00000000000E+00 -0.11761118267E+04  0.11761118267E+04  0.50400001928E-02 0. -1.
    10030    2    1    2    0    0  0.00000000000E+00  0.00000000000E+00  0.26730352040E+03  0.26195271738E+04  0.26058533041E+04 0.  0.
        5    1    3    3  502    0  0.42137630169E+03 -0.32373510018E+03  0.13295300295E+04  0.14317941864E+04  0.46999998093E+01 0.  1.
       -5    1    3    3    0  502 -0.42137630169E+03  0.32373510018E+03 -0.10622265092E+04  0.11877329874E+04  0.46999998093E+01 0. -1.
</event>
<event>
 5   0  0.6706225E-06  0.2616063E+04  0.7818609E-02  0.8362765E-01
       -1   -1    0    0    0  501  0.00000000000E+00  0.00000000000E+00  0.16591056691E+04  0.16591056691E+04  0.50400001928E-02 0.  1.
        1   -1    0    0  501    0  0.00000000000E+00  0.00000000000E+00 -0.10312465103E+04  0.10312465103E+04  0.50400001928E-02 0. -1.
    10030    2    1    2    0    0  0.00000000000E+00  0.00000000000E+00  0.62785915881E+03  0.26903521793E+04  0.26160634024E+04 0.  0.
        5    1    3    3  502    0  0.11537500917E+04  0.60750797930E+03  0.20745385250E+03  0.13203273874E+04  0.46999998093E+01 0.  1.
       -5    1    3    3    0  502 -0.11537500917E+04 -0.60750797930E+03  0.42040530631E+03  0.13700247919E+04  0.46999998093E+01 0. -1.
</event>
<event>
 5   0  0.1681731E-05  0.2619392E+04  0.7818609E-02  0.8361644E-01
        2   -1    0    0  501    0  0.00000000000E+00  0.00000000000E+00  0.20063079045E+04  0.20063079045E+04  0.25500000920E-02 0.  1.
       -2   -1    0    0    0  501  0.00000000000E+00  0.00000000000E+00 -0.85495537973E+03  0.85495537973E+03  0.25500000920E-02 0. -1.
    10030    2    1    2    0    0  0.00000000000E+00  0.00000000000E+00  0.11513525248E+04  0.28612632843E+04  0.26193920947E+04 0.  0.
        2    1    3    3  502    0  0.69119460975E+03 -0.11060194977E+04  0.44516753174E+03  0.13781158330E+04  0.25500000920E-02 0. -1.
       -2    1    3    3    0  502 -0.69119460975E+03  0.11060194977E+04  0.70618499307E+03  0.14831474513E+04  0.25500000920E-02 0.  1.
</event>
<event>
 5   0  0.1681731E-05  0.2601446E+04  0.7818609E-02  0.8367710E-01
       -2   -1    0    0    0  501  0.00000000000E+00  0.00000000000E+00  0.10078284431E+04  0.10078284431E+04  0.25500000920E-02 0.  1.
        2   -1    0    0  501    0  0.00000000000E+00  0.00000000000E+00 -0.16787378825E+04  0.16787378825E+04  0.25500000920E-02 0. -1.
    10030    2    1    2    0    0  0.00000000000E+00  0.00000000000E+00 -0.67090943942E+03  0.26865663256E+04  0.26014455877E+04 0.  0.
        2    1    3    3  502    0  0.10165164853E+03 -0.16812369036E+03  0.99241717182E+03  0.10116770610E+04  0.25500000920E-02 0.  1.
       -2    1    3    3    0  502 -0.10165164853E+03  0.16812369036E+03 -0.16633266112E+04  0.16748892646E+04  0.25500000920E-02 0. -1.
</event>
<event>
 5   0  0.1720129E-05  0.2656508E+04  0.7818609E-02  0.8349256E-01
        2   -1    0    0  501    0  0.00000000000E+00  0.00000000000E+00  0.15974583168E+04  0.15974583168E+04  0.25500000920E-02 0.  1.
       -2   -1    0    0    0  501  0.00000000000E+00  0.00000000000E+00 -0.11044159032E+04  0.11044159032E+04  0.25500000920E-02 0. -1.
    10030    2    1    2    0    0  0.00000000000E+00  0.00000000000E+00  0.49304241362E+03  0.27018742200E+04  0.26565077600E+04 0.  0.
        3    1    3    3  502    0  0.54155126230E+03 -0.11697630968E+04  0.57235906565E+03  0.14103965338E+04  0.10100000352E+00 0.  1.
       -3    1    3    3    0  502 -0.54155126230E+03  0.11697630968E+04 -0.79316652036E+02  0.12914776862E+04  0.10100000352E+00 0. -1.
</event>
<event>
 5   0  0.1677971E-05  0.2648069E+04  0.7818609E-02  0.8352054E-01
       -2   -1    0    0    0  501  0.00000000000E+00  0.00000000000E+00  0.64079977023E+03  0.64079977023E+03  0.25500000920E-02 0. -1.
        2   -1    0    0  501    0  0.00000000000E+00  0.00000000000E+00 -0.27357492312E+04  0.27357492312E+04  0.25500000920E-02 0.  1.
    10030    2    1    2    0    0  0.00000000000E+00  0.00000000000E+00 -0.20949494610E+04  0.33765490015E+04  0.26480690918E+04 0.  0.
        4    1    3    3  502    0  0.19359049680E+03 -0.11668544542E+04 -0.28877581783E+03  0.12175465837E+04  0.12699999809E+01 0. -1.
       -4    1    3    3    0  502 -0.19359049680E+03  0.11668544542E+04 -0.18061736432E+04  0.21590024178E+04  0.12699999809E+01 0.  1.
</event>
<event>
 5   0  0.6993678E-06  0.2596629E+04  0.7818609E-02  0.8369347E-01
       -1   -1    0    0    0  501  0.00000000000E+00  0.00000000000E+00  0.19789550524E+04  0.19789550524E+04  0.50400001928E-02 0.  1.
        1   -1    0    0  501    0  0.00000000000E+00  0.00000000000E+00 -0.85177329634E+03  0.85177329636E+03  0.50400001928E-02 0. -1.
    10030    2    1    2    0    0  0.00000000000E+00  0.00000000000E+00  0.11271817561E+04  0.28307283488E+04  0.25966294062E+04 0.  0.
        1    1    3    3  502    0  0.50198984186E+03  0.90853857111E+03  0.14137614168E+04  0.17538977964E+04  0.50400001928E-02 0.  1.
       -1    1    3    3    0  502 -0.50198984186E+03 -0.90853857111E+03 -0.28657966076E+03  0.10768305524E+04  0.50400001928E-02 0. -1.
</event>
<event>
 5   0  0.1677971E-05  0.2604603E+04  0.7818609E-02  0.8366640E-01
        2   -1    0    0  501    0  0.00000000000E+00  0.00000000000E+00  0.15220053785E+04  0.15220053785E+04  0.25500000920E-02 0. -1.
       -2   -1    0    0    0  501  0.00000000000E+00  0.00000000000E+00 -0.11143118034E+04  0.11143118034E+04  0.25500000920E-02 0.  1.
    10030    2    1    2    0    0  0.00000000000E+00  0.00000000000E+00  0.40769357509E+03  0.26363171819E+04  0.26046025095E+04 0.  0.
        4    1    3    3  502    0  0.10470557075E+04 -0.77406266856E+03  0.22621280971E+03  0.13216173870E+04  0.12699999809E+01 0.  1.
       -4    1    3    3    0  502 -0.10470557075E+04  0.77406266856E+03  0.18148076538E+03  0.13146997949E+04  0.12699999809E+01 0. -1.
</event>
<event>
 5   0  0.6918420E-06  0.2610715E+04  0.7818609E-02  0.8364571E-01
       -1   -1    0    0    0  501  0.00000000000E+00  0.00000000000E+00  0.10598833006E+04  0.10598833006E+04  0.50400001928E-02 0.  1.
        1   -1    0    0  501    0  0.00000000000E+00  0.00000000000E+00 -0.16076848169E+04  0.16076848169E+04  0.50400001928E-02 0. -1.
    10030    2    1    2    0    0  0.00000000000E+00  0.00000000000E+00 -0.54780151638E+03  0.26675681175E+04  0.26107150668E+04 0.  0.
        4    1    3    3  502    0 -0.20168553766E+03  0.87118298047E+03  0.69776538639E+03  0.11342464410E+04  0.12699999809E+01 0.  1.
       -4    1    3    3    0  502  0.20168553766E+03 -0.87118298047E+03 -0.12455669028E+04  0.15333216765E+04  0.12699999809E+01 0. -1.
</event>
<event>
 5   0  0.1702345E-05  0.2597595E+04  0.7818609E-02  0.8369019E-01
        2   -1    0    0  501    0  0.00000000000E+00  0.00000000000E+00  0.20117163790E+04  0.20117163790E+04  0.25500000920E-02 0.  1.
       -2   -1    0    0    0  501  0.00000000000E+00  0.00000000000E+00 -0.83852525904E+03  0.83852525905E+03  0.25500000920E-02 0. -1.
    10030    2    1    2    0    0  0.00000000000E+00  0.00000000000E+00  0.11731911200E+04  0.28502416380E+04  0.25975950399E+04 0.  0.
        1    1    3    3  502    0  0.46663642617E+03  0.50435845490E+03 -0.62275811565E+03  0.92733741210E+03  0.50400001928E-02 0. -1.
       -1    1    3    3    0  502 -0.46663642617E+03 -0.50435845490E+03  0.17959492356E+04  0.19229042259E+04  0.50400001928E-02 0.  1.
</event>
<event>
 5   0  0.6984287E-06  0.2558707E+04  0.7818609E-02  0.8382364E-01
        1   -1    0    0  501    0  0.00000000000E+00  0.00000000000E+00  0.20286359147E+04  0.20286359147E+04  0.50400001928E-02 0. -1.
       -1   -1    0    0    0  501  0.00000000000E+00  0.00000000000E+00 -0.80682065976E+03  0.80682065977E+03  0.50400001928E-02 0.  1.
    10030    2    1    2    0    0  0.00000000000E+00  0.00000000000E+00  0.12218152550E+04  0.28354565745E+04  0.25587069915E+04 0.  0.
        3    1    3    3  502    0 -0.78776790954E+03  0.96328612167E+03  0.28171338096E+03  0.12758765108E+04  0.10100000352E+00 0.  1.
       -3    1    3    3    0  502  0.78776790954E+03 -0.96328612167E+03  0.94010187399E+03  0.15595800637E+04  0.10100000352E+00 0. -1.
</event>
<event>
 5   0  0.1720129E-05  0.2586071E+04  0.7818609E-02  0.8372948E-01
        2   -1    0    0  501    0  0.00000000000E+00  0.00000000000E+00  0.16010643324E+04  0.16010643324E+04  0.25500000920E-02 0. -1.
       -2   -1    0    0    0  501  0.00000000000E+00  0.00000000000E+00 -0.10442687470E+04  0.10442687470E+04  0.25500000920E-02 0.  1.
    10030    2    1    2    0    0  0.00000000000E+00  0.00000000000E+00  0.55679558532E+03  0.26453330794E+04  0.25860714950E+04 0.  0.
        3    1    3    3  502    0 -0.10742763097E+04  0.35093937934E+03 -0.36426146593E+03  0.11873981908E+04  0.10100000352E+00 0.  1.
       -3    1    3    3    0  502  0.10742763097E+04 -0.35093937934E+03  0.92105705126E+03  0.14579348886E+04  0.10100000352E+00 0. -1.
</event>
<event>
 5   0  0.6706225E-06  0.2622179E+04  0.7818609E-02  0.8360706E-01
       -1   -1    0    0    0  501  0.00000000000E+00  0.00000000000E+00  0.67812976474E+03  0.67812976476E+03  0.50400001928E-02 0.  1.
        1   -1    0    0  501    0  0.00000000000E+00  0.00000000000E+00 -0.25348483751E+04  0.25348483751E+04  0.50400001928E-02 0. -1.
    10030    2    1    2    0    0  0.00000000000E+00  0.00000000000E+00 -0.18567186104E+04  0.32129781399E+04  0.26221793473E+04 0.  0.
        5    1    3    3  502    0 -0.78417725604E+03 -0.10304257235E+03 -0.22096019880E+04  0.23468947092E+04  0.46999998093E+01 0. -1.
       -5    1    3    3    0  502  0.78417725604E+03  0.10304257235E+03  0.35288337767E+03  0.86608343065E+03  0.46999998093E+01 0.  1.
</event>
<event>
 5   0  0.1702345E-05  0.2616431E+04  0.7818609E-02  0.8362641E-01
        2   -1    0    0  501    0  0.00000000000E+00  0.00000000000E+00  0.13023154609E+04  0.13023154609E+04  0.25500000920E-02 0. -1.
       -2   -1    0    0    0  501  0.00000000000E+00  0.00000000000E+00 -0.13141420571E+04  0.13141420571E+04  0.25500000920E-02 0.  1.
    10030    2    1    2    0    0  0.00000000000E+00  0.00000000000E+00 -0.11826596223E+02  0.26164575181E+04  0.26164307894E+04 0.  0.
        1    1    3    3  502    0 -0.27794723402E+03  0.19735740836E+03 -0.12689475416E+04  0.13139377743E+04  0.50400001928E-02 0.  1.
       -1    1    3    3    0  502  0.27794723402E+03 -0.19735740836E+03  0.12571209454E+04  0.13025197437E+04  0.50400001928E-02 0. -1.
</event>
<event>
 5   0  0.1720129E-05  0.2658514E+04  0.7818609E-02  0.8348593E-01
        2   -1    0    0  501    0  0.00000000000E+00  0.00000000000E+00  0.21068300001E+04  0.21068300001E+04  0.25500000920E-02 0. -1.
       -2   -1    0    0    0  501  0.00000000000E+00  0.00000000000E+00 -0.83866478785E+03  0.83866478785E+03  0.25500000920E-02 0.  1.
    10030    2    1    2    0    0  0.00000000000E+00  0.00000000000E+00  0.12681652123E+04  0.29454947880E+04  0.26585139722E+04 0.  0.
        3    1    3    3  502    0  0.13046270073E+04 -0.24637146177E+03  0.70565980592E+03  0.15035645304E+04  0.10100000352E+00 0.  1.
       -3    1    3    3    0  502 -0.13046270073E+04  0.24637146177E+03  0.56250540637E+03  0.14419302576E+04  0.10100000352E+00 0. -1.
</event>
<event>
 5   0  0.5840500E-06  0.2596008E+04  0.7818609E-02  0.8369558E-01
       -3   -1    0    0    0  501  0.00000000000E+00  0.00000000000E+00  0.16603619010E+04  0.16603619040E+04  0.10100000352E+00 0.  1.
        3   -1    0    0  501    0  0.00000000000E+00  0.00000000000E+00 -0.10147272851E+04  0.10147272902E+04  0.10100000352E+00 0. -1.
    10030    2    1    2    0    0  0.00000000000E+00  0.00000000000E+00  0.64563461581E+03  0.26750891942E+04  0.25960081163E+04 0.  0.
        2    1    3    3  502    0  0.53066012276E+03 -0.10914705629E+04 -0.15153851571E+03  0.12230584930E+04  0.25500000920E-02 0. -1.
       -2    1    3    3    0  502 -0.53066012276E+03  0.10914705629E+04  0.79717313152E+03  0.14520307012E+04  0.25500000920E-02 0.  1.
</event>
<event>
 5   0  0.6918420E-06  0.2590463E+04  0.7818609E-02  0.8371448E-01
       -1   -1    0    0    0  501  0.00000000000E+00  0.00000000000E+00  0.12940192406E+04  0.12940192407E+04  0.50400001928E-02 0.  1.
        1   -1    0    0  501    0  0.00000000000E+00  0.00000000000E+00 -0.12964446008E+04  0.12964446008E+04  0.50400001928E-02 0. -1.
    10030    2    1    2    0    0  0.00000000000E+00  0.00000000000E+00 -0.24253601613E+01  0.25904638415E+04  0.25904627061E+04 0.  0.
        4    1    3    3  502    0  0.11360159866E+04 -0.26527312314E+03 -0.56399218482E+03  0.12957588314E+04  0.12699999809E+01 0. -1.
       -4    1    3    3    0  502 -0.11360159866E+04  0.26527312314E+03  0.56156682465E+03  0.12947050101E+04  0.12699999809E+01 0.  1.
</event>
<event>
 5   0  0.7138294E-06  0.2603316E+04  0.7818609E-02  0.8367076E-01
       -1   -1    0    0    0  501  0.00000000000E+00  0.00000000000E+00  0.12289097275E+04  0.12289097275E+04  0.50400001928E-02 0.  1.
        1   -1    0    0  501    0  0.00000000000E+00  0.00000000000E+00 -0.13787128656E+04  0.13787128656E+04  0.50400001928E-02 0. -1.
    10030    2    1    2    0    0  0.00000000000E+00  0.00000000000E+00 -0.14980313815E+03  0.26076225931E+04  0.26033160792E+04 0.  0.
        2    1    3    3  502    0  0.75168373672E+02  0.48443265729E+03  0.11329075397E+04  0.12344248772E+04  0.25500000920E-02 0.  1.
       -2    1    3    3    0  502 -0.75168373672E+02 -0.48443265729E+03 -0.12827106779E+04  0.13731977159E+04  0.25500000920E-02 0. -1.
</event>
<event>
 5   0  0.1677971E-05  0.2587103E+04  0.7818609E-02  0.8372595E-01
        2   -1    0    0  501    0  0.00000000000E+00  0.00000000000E+00  0.20926418480E+04  0.20926418480E+04  0.25500000920E-02 0. -1.
       -2   -1    0    0    0  501  0.00000000000E+00  0.00000000000E+00 -0.79959963380E+03  0.79959963381E+03  0.25500000920E-02 0.  1.
    10030    2    1    2    0    0  0.00000000000E+00  0.00000000000E+00  0.12930422142E+04  0.28922414819E+04  0.25871031331E+04 0.  0.
        4    1    3    3  502    0  0.23664191912E+03 -0.10377568548E+04 -0.17525309100E+03  0.10787279297E+04  0.12699999809E+01 0.  1.
       -4    1    3    3    0  502 -0.23664191912E+03  0.10377568548E+04  0.14682953052E+04  0.18135135521E+04  0.12699999809E+01 0. -1.
</event>
<event>
 5   0  0.1702345E-05  0.2588112E+04  0.7818609E-02  0.8372250E-01
        2   -1    0    0  501    0  0.00000000000E+00  0.00000000000E+00  0.18624980415E+04  0.18624980415E+04  0.25500000920E-02 0. -1.
       -2   -1    0    0    0  501  0.00000000000E+00  0.00000000000E+00 -0.89910496993E+03  0.89910496994E+03  0.25500000920E-02 0.  1.
    10030    2    1    2    0    0  0.00000000000E+00  0.00000000000E+00  0.96339307158E+03  0.27616030115E+04  0.25881122430E+04 0.  0.
        1    1    3    3  502    0 -0.11191563300E+04 -0.53620271578E+03  0.90287099388E+02  0.12442572097E+04  0.50400001928E-02 0.  1.
       -1    1    3    3    0  502  0.11191563300E+04  0.53620271578E+03  0.87310597219E+03  0.15173458018E+04  0.50400001928E-02 0. -1.
</event>
<event>
 5   0  0.6993678E-06  0.2585054E+04  0.7818609E-02  0.8373296E-01
        1   -1    0    0  501    0  0.00000000000E+00  0.00000000000E+00  0.10241220056E+04  0.10241220056E+04  0.50400001928E-02 0. -1.
       -1   -1    0    0    0  501  0.00000000000E+00  0.00000000000E+00 -0.16312765578E+04  0.16312765578E+04  0.50400001928E-02 0.  1.
    10030    2    1    2    0    0  0.00000000000E+00  0.00000000000E+00 -0.60715455215E+03  0.26553985634E+04  0.25850541349E+04 0.  0.
        1    1    3    3  502    0  0.10689975980E+02 -0.26594619408E+03  0.99566703835E+03  0.10306282089E+04  0.50400001928E-02 0. -1.
       -1    1    3    3    0  502 -0.10689975980E+02  0.26594619408E+03 -0.16028215905E+04  0.16247703545E+04  0.50400001928E-02 0.  1.
</event>
<event>
 5   0  0.1869956E-05  0.2610276E+04  0.7818609E-02  0.8364719E-01
       -2   -1    0    0    0  501  0.00000000000E+00  0.00000000000E+00  0.88133114802E+03  0.88133114802E+03  0.25500000920E-02 0. -1.
        2   -1    0    0  501    0  0.00000000000E+00  0.00000000000E+00 -0.19327416172E+04  0.19327416172E+04  0.25500000920E-02 0.  1.
    10030    2    1    2    0    0  0.00000000000E+00  0.00000000000E+00 -0.10514104691E+04  0.28140727652E+04  0.26102761450E+04 0.  0.
        5    1    3    3  502    0 -0.67777782910E+03 -0.19566625900E+03  0.65806561054E+03  0.96474893537E+03  0.46999998093E+01 0. -1.
       -5    1    3    3    0  502  0.67777782910E+03  0.19566625900E+03 -0.17094760797E+04  0.18493238298E+04  0.46999998093E+01 0.  1.
</event>
<event>
 5   0  0.6918420E-06  0.2629613E+04  0.7818609E-02  0.8358211E-01
        1   -1    0    0  501    0  0.00000000000E+00  0.00000000000E+00  0.23341667506E+04  0.23341667506E+04  0.50400001928E-02 0.  1.
       -1   -1    0    0    0  501  0.00000000000E+00  0.00000000000E+00 -0.74061389652E+03  0.74061389654E+03  0.50400001928E-02 0. -1.
    10030    2    1    2    0    0  0.00000000000E+00  0.00000000000E+00  0.15935528541E+04  0.30747806471E+04  0.26296131520E+04 0.  0.
        4    1    3    3  502    0 -0.70578491744E+03 -0.10386747830E+04  0.34129768202E+03  0.13013313856E+04  0.12699999809E+01 0. -1.
       -4    1    3    3    0  502  0.70578491744E+03  0.10386747830E+04  0.12522551720E+04  0.17734492615E+04  0.12699999809E+01 0.  1.
</event>
<event>
 5   0  0.6984287E-06  0.2571058E+04  0.7818609E-02  0.8378099E-01
       -1   -1    0    0    0  501  0.00000000000E+00  0.00000000000E+00  0.86847127316E+03  0.86847127317E+03  0.50400001928E-02 0.  1.
        1   -1    0    0  501    0  0.00000000000E+00  0.00000000000E+00 -0.19028658171E+04  0.19028658171E+04  0.50400001928E-02 0. -1.
    10030    2    1    2    0    0  0.00000000000E+00  0.00000000000E+00 -0.10343945439E+04  0.27713370903E+04  0.25710576025E+04 0.  0.
        3    1    3    3  502    0 -0.73221377517E+03 -0.68370491244E+03 -0.13855540108E+04  0.17097804967E+04  0.10100000352E+00 0. -1.
       -3    1    3    3    0  502  0.73221377517E+03  0.68370491244E+03  0.35115946692E+03  0.10615565935E+04  0.10100000352E+00 0.  1.
</event>
<event>
 5   0  0.7138294E-06  0.2585237E+04  0.7818609E-02  0.8373233E-01
       -1   -1    0    0    0  501  0.00000000000E+00  0.00000000000E+00  0.11559934799E+04  0.11559934799E+04  0.50400001928E-02 0.  1.
        1   -1    0    0  501    0  0.00000000000E+00  0.00000000000E+00 -0.14453908167E+04  0.14453908167E+04  0.50400001928E-02 0. -1.
    10030    2    1    2    0    0  0.00000000000E+00  0.00000000000E+00 -0.28939733680E+03  0.26013842966E+04  0.25852368247E+04 0.  0.
        2    1    3    3  502    0  0.72686873384E+03 -0.37530653682E+03  0.86238682993E+03  0.11886564673E+04  0.25500000920E-02 0.  1.
       -2    1    3    3    0  502 -0.72686873384E+03  0.37530653682E+03 -0.11517841667E+04  0.14127278293E+04  0.25500000920E-02 0. -1.
</event>
<event>
 5   0  0.1677971E-05  0.2592526E+04  0.7818609E-02  0.8370744E-01
        2   -1    0    0  501    0  0.00000000000E+00  0.00000000000E+00  0.15030102095E+04  0.15030102095E+04  0.25500000920E-02 0. -1.
       -2   -1    0    0    0  501  0.00000000000E+00  0.00000000000E+00 -0.11179548101E+04  0.11179548101E+04  0.25500000920E-02 0.  1.
    10030    2    1    2    0    0  0.00000000000E+00  0.00000000000E+00  0.38505539941E+03  0.26209650196E+04  0.25925257903E+04 0.  0.
        4    1    3    3  502    0  0.28548467230E+03  0.29767920431E+03 -0.10498473140E+04  0.11279607274E+04  0.12699999809E+01 0.  1.
       -4    1    3    3    0  502 -0.28548467230E+03 -0.29767920431E+03  0.14349027134E+04  0.14930042923E+04  0.12699999809E+01 0. -1.
</event>
<event>
 5   0  0.6993678E-06  0.2608270E+04  0.7818609E-02  0.8365397E-01
        1   -1    0    0  501    0  0.00000000000E+00  0.00000000000E+00  0.24307844188E+04  0.24307844188E+04  0.50400001928E-02 0. -1.
       -1   -1    0    0    0  501  0.00000000000E+00  0.00000000000E+00 -0.69967871105E+03  0.69967871107E+03  0.50400001928E-02 0.  1.
    10030    2    1    2    0    0  0.00000000000E+00  0.00000000000E+00  0.17311057077E+04  0.31304631299E+04  0.26082700083E+04 0.  0.
        1    1    3    3  502    0 -0.76657717057E+03 -0.92830567712E+03  0.26380014339E+03  0.12324700825E+04  0.50400001928E-02 0.  1.
       -1    1    3    3    0  502  0.76657717057E+03  0.92830567712E+03  0.14673055644E+04  0.18979930474E+04  0.50400001928E-02 0. -1.
</event>
<event>
 5   0  0.6984287E-06  0.2587891E+04  0.7818609E-02  0.8372326E-01
       -1   -1    0    0    0  501  0.00000000000E+00  0.00000000000E+00  0.92813617563E+03  0.92813617564E+03  0.50400001928E-02 0. -1.
        1   -1    0    0  501    0  0.00000000000E+00  0.00000000000E+00 -0.18039323592E+04  0.18039323592E+04  0.50400001928E-02 0.  1.
    10030    2    1    2    0    0  0.00000000000E+00  0.00000000000E+00 -0.87579618353E+03  0.27320685348E+04  0.25878909413E+04 0.  0.
        3    1    3    3  502    0 -0.59613845098E+03  0.10156265171E+04  0.12808250110E+03  0.11846026390E+04  0.10100000352E+00 0. -1.
       -3    1    3    3    0  502  0.59613845098E+03 -0.10156265171E+04 -0.10038786846E+04  0.15474658958E+04  0.10100000352E+00 0.  1.
</event>
<event>
 5   0  0.1681731E-05  0.2610860E+04  0.7818609E-02  0.8364522E-01
        2   -1    0    0  501    0  0.00000000000E+00  0.00000000000E+00  0.15095061388E+04  0.15095061388E+04  0.25500000920E-02 0. -1.
       -2   -1    0    0    0  501  0.00000000000E+00  0.00000000000E+00 -0.11289435200E+04  0.11289435200E+04  0.25500000920E-02 0.  1.
    10030    2    1    2    0    0  0.00000000000E+00  0.00000000000E+00  0.38056261880E+03  0.26384496587E+04  0.26108597616E+04 0.  0.
        2    1    3    3  502    0  0.84034557435E+03 -0.20242773079E+02 -0.81905074663E+03  0.11736415891E+04  0.25500000920E-02 0.  1.
       -2    1    3    3    0  502 -0.84034557435E+03  0.20242773079E+02  0.11996133654E+04  0.14648080696E+04  0.25500000920E-02 0. -1.
</event>
<event>
 5   0  0.1677971E-05  0.2921617E+04  0.7818609E-02  0.8266475E-01
       -2   -1    0    0    0  501  0.00000000000E+00  0.00000000000E+00  0.25985008437E+04  0.25985008437E+04  0.25500000920E-02 0.  1.
        2   -1    0    0  501    0  0.00000000000E+00  0.00000000000E+00 -0.82122802324E+03  0.82122802324E+03  0.25500000920E-02 0. -1.
    10030    2    1    2    0    0  0.00000000000E+00  0.00000000000E+00  0.17772728205E+04  0.34197288670E+04  0.29216171627E+04 0.  0.
        4    1    3    3  502    0 -0.37247952151E+03  0.48067535560E+03  0.24433078536E+04  0.25178452438E+04  0.12699999809E+01 0.  1.
       -4    1    3    3    0  502  0.37247952151E+03 -0.48067535560E+03 -0.66603503313E+03  0.90188362314E+03  0.12699999809E+01 0. -1.
</event>
<event>
 5   0  0.6706225E-06  0.2583449E+04  0.7818609E-02  0.8373845E-01
        1   -1    0    0  501    0  0.00000000000E+00  0.00000000000E+00  0.14721784730E+04  0.14721784730E+04  0.50400001928E-02 0. -1.
       -1   -1    0    0    0  501  0.00000000000E+00  0.00000000000E+00 -0.11333899389E+04  0.11333899389E+04  0.50400001928E-02 0.  1.
    10030    2    1    2    0    0  0.00000000000E+00  0.00000000000E+00  0.33878853407E+03  0.26055684119E+04  0.25834490663E+04 0.  0.
        5    1    3    3  502    0 -0.74596982046E+03 -0.10371949884E+04 -0.22724903751E+02  0.12778039475E+04  0.46999998093E+01 0.  1.
       -5    1    3    3    0  502  0.74596982046E+03  0.10371949884E+04  0.36151343782E+03  0.13277644644E+04  0.46999998093E+01 0. -1.
</event>
<event>
 5   0  0.1677971E-05  0.2629705E+04  0.7818609E-02  0.8358180E-01
       -2   -1    0    0    0  501  0.00000000000E+00  0.00000000000E+00  0.73403774305E+03  0.73403774306E+03  0.25500000920E-02 0. -1.
        2   -1    0    0  501    0  0.00000000000E+00  0.00000000000E+00 -0.23552434767E+04  0.23552434767E+04  0.25500000920E-02 0.  1.
    10030    2    1    2    0    0  0.00000000000E+00  0.00000000000E+00 -0.16212057336E+04  0.30892812197E+04  0.26297053873E+04 0.  0.
        4    1    3    3  502    0 -0.42592580724E+03 -0.18021139230E+03 -0.22565388834E+04  0.23034448733E+04  0.12699999809E+01 0.  1.
       -4    1    3    3    0  502  0.42592580724E+03  0.18021139230E+03  0.63533314980E+03  0.78583634640E+03  0.12699999809E+01 0. -1.
</event>
<event>
 5   0  0.7138294E-06  0.2596916E+04  0.7818609E-02  0.8369250E-01
       -1   -1    0    0    0  501  0.00000000000E+00  0.00000000000E+00  0.11539619312E+04  0.11539619312E+04  0.50400001928E-02 0.  1.
        1   -1    0    0  501    0  0.00000000000E+00  0.00000000000E+00 -0.14610473858E+04  0.14610473858E+04  0.50400001928E-02 0. -1.
    10030    2    1    2    0    0  0.00000000000E+00  0.00000000000E+00 -0.30708545460E+03  0.26150093169E+04  0.25969159115E+04 0.  0.
        2    1    3    3  502    0 -0.12312275505E+04  0.22092844540E+03 -0.50419643850E+03  0.13486825822E+04  0.25500000920E-02 0. -1.
       -2    1    3    3    0  502  0.12312275505E+04 -0.22092844540E+03  0.19711098389E+03  0.12663267347E+04  0.25500000920E-02 0.  1.
</event>
<event>
 5   0  0.1869956E-05  0.2394757E+04  0.7818609E-02  0.8441469E-01
       -2   -1    0    0    0  501  0.00000000000E+00  0.00000000000E+00  0.57028659252E+03  0.57028659253E+03  0.25500000920E-02 0.  1.
        2   -1    0    0  501    0  0.00000000000E+00  0.00000000000E+00 -0.25140260124E+04  0.25140260124E+04  0.25500000920E-02 0. -1.
    10030    2    1    2    0    0  0.00000000000E+00  0.00000000000E+00 -0.19437394199E+04  0.30843126049E+04  0.23947570467E+04 0.  0.
        5    1    3    3  502    0 -0.99344708328E+03 -0.48609070787E+03 -0.15627425748E+04  0.19145254578E+04  0.46999998093E+01 0. -1.
       -5    1    3    3    0  502  0.99344708328E+03  0.48609070787E+03 -0.38099684506E+03  0.11697871471E+04  0.46999998093E+01 0.  1.
</event>
<event>
 5   0  0.6918420E-06  0.2616247E+04  0.7818609E-02  0.8362703E-01
       -1   -1    0    0    0  501  0.00000000000E+00  0.00000000000E+00  0.93296374231E+03  0.93296374233E+03  0.50400001928E-02 0. -1.
        1   -1    0    0  501    0  0.00000000000E+00  0.00000000000E+00 -0.18341405461E+04  0.18341405461E+04  0.50400001928E-02 0.  1.
    10030    2    1    2    0    0  0.00000000000E+00  0.00000000000E+00 -0.90117680379E+03  0.27671042884E+04  0.26162466458E+04 0.  0.
        4    1    3    3  502    0 -0.12191714281E+04 -0.45594292530E+03 -0.31300251785E+03  0.13387438557E+04  0.12699999809E+01 0. -1.
       -4    1    3    3    0  502  0.12191714281E+04  0.45594292530E+03 -0.58817428594E+03  0.14283604327E+04  0.12699999809E+01 0.  1.
</event>
<event>
 5   0  0.1720129E-05  0.2588535E+04  0.7818609E-02  0.8372106E-01
       -2   -1    0    0    0  501  0.00000000000E+00  0.00000000000E+00  0.62472348144E+03  0.62472348145E+03  0.25500000920E-02 0. -1.
        2   -1    0    0  501    0  0.00000000000E+00  0.00000000000E+00 -0.26813922246E+04  0.26813922246E+04  0.25500000920E-02 0.  1.
    10030    2    1    2    0    0  0.00000000000E+00  0.00000000000E+00 -0.20566687432E+04  0.33061157061E+04  0.25885352504E+04 0.  0.
        3    1    3    3  502    0 -0.44025758261E+03 -0.66211315013E+03  0.27599414134E+03  0.84166105938E+03  0.10100000352E+00 0. -1.
       -3    1    3    3    0  502  0.44025758261E+03  0.66211315013E+03 -0.23326628845E+04  0.24644546467E+04  0.10100000352E+00 0.  1.
</event>
<event>
 5   0  0.7138294E-06  0.2635940E+04  0.7818609E-02  0.8356095E-01
        1   -1    0    0  501    0  0.00000000000E+00  0.00000000000E+00  0.25487112074E+04  0.25487112074E+04  0.50400001928E-02 0.  1.
       -1   -1    0    0    0  501  0.00000000000E+00  0.00000000000E+00 -0.68153832117E+03  0.68153832119E+03  0.50400001928E-02 0. -1.
    10030    2    1    2    0    0  0.00000000000E+00  0.00000000000E+00  0.18671728862E+04  0.32302495286E+04  0.26359395725E+04 0.  0.
        2    1    3    3  502    0  0.31829134830E+03  0.58318542083E+03 -0.46130713821E+03  0.80883798949E+03  0.25500000920E-02 0. -1.
       -2    1    3    3    0  502 -0.31829134830E+03 -0.58318542083E+03  0.23284800244E+04  0.24214115391E+04  0.25500000920E-02 0.  1.
</event>
<event>
 5   0  0.1681731E-05  0.2661028E+04  0.7818609E-02  0.8347762E-01
        2   -1    0    0  501    0  0.00000000000E+00  0.00000000000E+00  0.19199208757E+04  0.19199208757E+04  0.25500000920E-02 0.  1.
       -2   -1    0    0    0  501  0.00000000000E+00  0.00000000000E+00 -0.92205214337E+03  0.92205214337E+03  0.25500000920E-02 0. -1.
    10030    2    1    2    0    0  0.00000000000E+00  0.00000000000E+00  0.99786873235E+03  0.28419730191E+04  0.26610277402E+04 0.  0.
        2    1    3    3  502    0 -0.93230704618E+03 -0.65595010370E+02 -0.51243688857E+03  0.10658755549E+04  0.25500000920E-02 0. -1.
       -2    1    3    3    0  502  0.93230704618E+03  0.65595010370E+02  0.15103056209E+04  0.17760974642E+04  0.25500000920E-02 0.  1.
</event>
<event>
 5   0  0.5840500E-06  0.2596036E+04  0.7818609E-02  0.8369549E-01
        3   -1    0    0  501    0  0.00000000000E+00  0.00000000000E+00  0.27422960765E+04  0.27422960784E+04  0.10100000352E+00 0. -1.
       -3   -1    0    0    0  501  0.00000000000E+00  0.00000000000E+00 -0.61439430203E+03  0.61439431033E+03  0.10100000352E+00 0.  1.
    10030    2    1    2    0    0  0.00000000000E+00  0.00000000000E+00  0.21279017745E+04  0.33566903887E+04  0.25960362871E+04 0.  0.
        3    1    3    3  502    0 -0.25168800566E+03  0.91602429287E+03 -0.79759284073E+02  0.95331469668E+03  0.10100000352E+00 0. -1.
       -3    1    3    3    0  502  0.25168800566E+03 -0.91602429287E+03  0.22076610586E+04  0.24033756921E+04  0.10100000352E+00 0.  1.
</event>
<event>
 5   0  0.1677971E-05  0.2607023E+04  0.7818609E-02  0.8365820E-01
        2   -1    0    0  501    0  0.00000000000E+00  0.00000000000E+00  0.14387278640E+04  0.14387278640E+04  0.25500000920E-02 0.  1.
       -2   -1    0    0    0  501  0.00000000000E+00  0.00000000000E+00 -0.11810033690E+04  0.11810033690E+04  0.25500000920E-02 0. -1.
    10030    2    1    2    0    0  0.00000000000E+00  0.00000000000E+00  0.25772449497E+03  0.26197312329E+04  0.26070231717E+04 0.  0.
        4    1    3    3  502    0 -0.96342637041E+03 -0.87803702896E+03  0.12765385954E+03  0.13097467374E+04  0.12699999809E+01 0. -1.
       -4    1    3    3    0  502  0.96342637041E+03  0.87803702896E+03  0.13007063543E+03  0.13099844955E+04  0.12699999809E+01 0.  1.
</event>
<event>
 5   0  0.1869956E-05  0.2584656E+04  0.7818609E-02  0.8373432E-01
       -2   -1    0    0    0  501  0.00000000000E+00  0.00000000000E+00  0.87043675310E+03  0.87043675311E+03  0.25500000920E-02 0.  1.
        2   -1    0    0  501    0  0.00000000000E+00  0.00000000000E+00 -0.19187050304E+04  0.19187050304E+04  0.25500000920E-02 0. -1.
    10030    2    1    2    0    0  0.00000000000E+00  0.00000000000E+00 -0.10482682773E+04  0.27891417836E+04  0.25846557812E+04 0.  0.
        5    1    3    3  502    0 -0.38864647716E+03 -0.41884335452E+01  0.80586216495E+03  0.89470640217E+03  0.46999998093E+01 0.  1.
       -5    1    3    3    0  502  0.38864647716E+03  0.41884335452E+01 -0.18541304423E+04  0.18944353814E+04  0.46999998093E+01 0. -1.
</event>
<event>
 5   0  0.6993678E-06  0.2603656E+04  0.7818609E-02  0.8366960E-01
       -1   -1    0    0    0  501  0.00000000000E+00  0.00000000000E+00  0.97187372311E+03  0.97187372312E+03  0.50400001928E-02 0. -1.
        1   -1    0    0  501    0  0.00000000000E+00  0.00000000000E+00 -0.17438033686E+04  0.17438033686E+04  0.50400001928E-02 0.  1.
    10030    2    1    2    0    0  0.00000000000E+00  0.00000000000E+00 -0.77192964550E+03  0.27156770917E+04  0.26036564076E+04 0.  0.
        1    1    3    3  502    0 -0.42812052586E+03 -0.35826368532E+03 -0.16126238431E+04  0.17065156642E+04  0.50400001928E-02 0.  1.
       -1    1    3    3    0  502  0.42812052586E+03  0.35826368532E+03  0.84069419760E+03  0.10091614275E+04  0.50400001928E-02 0. -1.
</event>
<event>
 5   0  0.7138294E-06  0.2575385E+04  0.7818609E-02  0.8376611E-01
        1   -1    0    0  501    0  0.00000000000E+00  0.00000000000E+00  0.22355396532E+04  0.22355396532E+04  0.50400001928E-02 0. -1.
       -1   -1    0    0    0  501  0.00000000000E+00  0.00000000000E+00 -0.74172357080E+03  0.74172357082E+03  0.50400001928E-02 0.  1.
    10030    2    1    2    0    0  0.00000000000E+00  0.00000000000E+00  0.14938160824E+04  0.29772632240E+04  0.25753853725E+04 0.  0.
        2    1    3    3  502    0  0.92827178046E+03 -0.45430771998E+03  0.16349351136E+04  0.19341915181E+04  0.25500000920E-02 0. -1.
       -2    1    3    3    0  502 -0.92827178046E+03  0.45430771998E+03 -0.14111903119E+03  0.10430717060E+04  0.25500000920E-02 0.  1.
</event>
<event>
 5   0  0.1869956E-05  0.2611473E+04  0.7818609E-02  0.8364315E-01
        2   -1    0    0  501    0  0.00000000000E+00  0.00000000000E+00  0.20215643876E+04  0.20215643876E+04  0.25500000920E-02 0. -1.
       -2   -1    0    0    0  501  0.00000000000E+00  0.00000000000E+00 -0.84338010836E+03  0.84338010836E+03  0.25500000920E-02 0.  1.
    10030    2    1    2    0    0  0.00000000000E+00  0.00000000000E+00  0.11781842793E+04  0.28649444960E+04  0.26114725289E+04 0.  0.
        5    1    3    3  502    0  0.11528387386E+04  0.61248865852E+03  0.55913638543E+03  0.14201531965E+04  0.46999998093E+01 0. -1.
       -5    1    3    3    0  502 -0.11528387386E+04 -0.61248865852E+03  0.61904789385E+03  0.14447912995E+04  0.46999998093E+01 0.  1.
</event>
<event>
 5   0  0.6984287E-06  0.2611145E+04  0.7818609E-02  0.8364425E-01
        1   -1    0    0  501    0  0.00000000000E+00  0.00000000000E+00  0.19043149474E+04  0.19043149474E+04  0.50400001928E-02 0. -1.
       -1   -1    0    0    0  501  0.00000000000E+00  0.00000000000E+00 -0.89508259850E+03  0.89508259852E+03  0.50400001928E-02 0.  1.
    10030    2    1    2    0    0  0.00000000000E+00  0.00000000000E+00  0.10092323489E+04  0.27993975459E+04  0.26111447080E+04 0.  0.
        3    1    3    3  502    0  0.63609193979E+03  0.54878576335E+03  0.15760366550E+04  0.17859648143E+04  0.10100000352E+00 0. -1.
       -3    1    3    3    0  502 -0.63609193979E+03 -0.54878576335E+03 -0.56680430608E+03  0.10134327316E+04  0.10100000352E+00 0.  1.
</event>
<event>
 5   0  0.1702345E-05  0.2582399E+04  0.7818609E-02  0.8374204E-01
       -2   -1    0    0    0  501  0.00000000000E+00  0.00000000000E+00  0.10566032678E+04  0.10566032678E+04  0.25500000920E-02 0. -1.
        2   -1    0    0  501    0  0.00000000000E+00  0.00000000000E+00 -0.15778833372E+04  0.15778833372E+04  0.25500000920E-02 0.  1.
    10030    2    1    2    0    0  0.00000000000E+00  0.00000000000E+00 -0.52128006939E+03  0.26344866050E+04  0.25823994194E+04 0.  0.
        1    1    3    3  502    0  0.76430971293E+03  0.74171193618E+03 -0.10053577295E+04  0.14645989546E+04  0.50400001928E-02 0.  1.
       -1    1    3    3    0  502 -0.76430971293E+03 -0.74171193618E+03  0.48407766013E+03  0.11698876504E+04  0.50400001928E-02 0. -1.
</event>
<event>
 5   0  0.6993678E-06  0.2598415E+04  0.7818609E-02  0.8368740E-01
        1   -1    0    0  501    0  0.00000000000E+00  0.00000000000E+00  0.75735292624E+03  0.75735292626E+03  0.50400001928E-02 0. -1.
       -1   -1    0    0    0  501  0.00000000000E+00  0.00000000000E+00 -0.22287367455E+04  0.22287367455E+04  0.50400001928E-02 0.  1.
    10030    2    1    2    0    0  0.00000000000E+00  0.00000000000E+00 -0.14713838192E+04  0.29860896717E+04  0.25984151293E+04 0.  0.
        1    1    3    3  502    0 -0.12703943862E+04  0.41065512324E+01 -0.42303116717E+03  0.13389824975E+04  0.50400001928E-02 0.  1.
       -1    1    3    3    0  502  0.12703943862E+04 -0.41065512324E+01 -0.10483526521E+04  0.16471071742E+04  0.50400001928E-02 0. -1.
</event>
<event>
 5   0  0.1702345E-05  0.2602288E+04  0.7818609E-02  0.8367424E-01
        2   -1    0    0  501    0  0.00000000000E+00  0.00000000000E+00  0.18708076014E+04  0.18708076014E+04  0.25500000920E-02 0.  1.
       -2   -1    0    0    0  501  0.00000000000E+00  0.00000000000E+00 -0.90494369110E+03  0.90494369111E+03  0.25500000920E-02 0. -1.
    10030    2    1    2    0    0  0.00000000000E+00  0.00000000000E+00  0.96586391025E+03  0.27757512925E+04  0.26022878673E+04 0.  0.
        1    1    3    3  502    0 -0.36508284352E+03 -0.81159018847E+03 -0.52955715638E+03  0.10355650142E+04  0.50400001928E-02 0. -1.
       -1    1    3    3    0  502  0.36508284352E+03  0.81159018847E+03  0.14954210666E+04  0.17401862783E+04  0.50400001928E-02 0.  1.
</event>
<event>
 5   0  0.1702345E-05  0.2609980E+04  0.7818609E-02  0.8364819E-01
       -2   -1    0    0    0  501  0.00000000000E+00  0.00000000000E+00  0.75472181212E+03  0.75472181213E+03  0.25500000920E-02 0. -1.
        2   -1    0    0  501    0  0.00000000000E+00  0.00000000000E+00 -0.22564584911E+04  0.22564584911E+04  0.25500000920E-02 0.  1.
    10030    2    1    2    0    0  0.00000000000E+00  0.00000000000E+00 -0.15017366790E+04  0.30111803032E+04  0.26099796485E+04 0.  0.
        1    1    3    3  502    0  0.74161808158E+03 -0.33613303253E+02 -0.19890991366E+04  0.21231209594E+04  0.50400001928E-02 0.  1.
       -1    1    3    3    0  502 -0.74161808158E+03  0.33613303253E+02  0.48736245759E+03  0.88805934384E+03  0.50400001928E-02 0. -1.
</event>
<event>
 5   0  0.1869956E-05  0.2613007E+04  0.7818609E-02  0.8363796E-01
       -2   -1    0    0    0  501  0.00000000000E+00  0.00000000000E+00  0.62907721983E+03  0.62907721983E+03  0.25500000920E-02 0. -1.
        2   -1    0    0  501    0  0.00000000000E+00  0.00000000000E+00 -0.27134220208E+04  0.27134220208E+04  0.25500000920E-02 0.  1.
    10030    2    1    2    0    0  0.00000000000E+00  0.00000000000E+00 -0.20843448010E+04  0.33424992406E+04  0.26130074482E+04 0.  0.
        5    1    3    3  502    0 -0.73316216559E+03 -0.32475808650E+03 -0.23616082565E+04  0.24940349281E+04  0.46999998093E+01 0.  1.
       -5    1    3    3    0  502  0.73316216559E+03  0.32475808650E+03  0.27726345549E+03  0.84846431248E+03  0.46999998093E+01 0. -1.
</event>
<event>
 5   0  0.1720129E-05  0.2616413E+04  0.7818609E-02  0.8362647E-01
       -2   -1    0    0    0  501  0.00000000000E+00  0.00000000000E+00  0.11491125468E+04  0.11491125468E+04  0.25500000920E-02 0.  1.
        2   -1    0    0  501    0  0.00000000000E+00  0.00000000000E+00 -0.14893272476E+04  0.14893272476E+04  0.25500000920E-02 0. -1.
    10030    2    1    2    0    0  0.00000000000E+00  0.00000000000E+00 -0.34021470075E+03  0.26384397944E+04  0.26164132904E+04 0.  0.
        3    1    3    3  502    0  0.38926275164E+03  0.23137300995E+02 -0.14293568295E+04  0.14815943374E+04  0.10100000352E+00 0. -1.
       -3    1    3    3    0  502 -0.38926275164E+03 -0.23137300995E+02  0.10891421288E+04  0.11568454570E+04  0.10100000352E+00 0.  1.
</event>
<event>
 5   0  0.7138294E-06  0.2588766E+04  0.7818609E-02  0.8372027E-01
       -1   -1    0    0    0  501  0.00000000000E+00  0.00000000000E+00  0.15119648000E+04  0.15119648000E+04  0.50400001928E-02 0.  1.
        1   -1    0    0  501    0  0.00000000000E+00  0.00000000000E+00 -0.11081129055E+04  0.11081129055E+04  0.50400001928E-02 0. -1.
    10030    2    1    2    0    0  0.00000000000E+00  0.00000000000E+00  0.40385189449E+03  0.26200777055E+04  0.25887662757E+04 0.  0.
        2    1    3    3  502    0  0.33106807625E+03  0.11449749204E+03 -0.10592241525E+04  0.11156484895E+04  0.25500000920E-02 0. -1.
       -2    1    3    3    0  502 -0.33106807625E+03 -0.11449749204E+03  0.14630760470E+04  0.15044292160E+04  0.25500000920E-02 0.  1.
</event>
<event>
 5   0  0.6984287E-06  0.2388734E+04  0.7818609E-02  0.8443734E-01
        1   -1    0    0  501    0  0.00000000000E+00  0.00000000000E+00  0.13653571752E+04  0.13653571752E+04  0.50400001928E-02 0. -1.
       -1   -1    0    0    0  501  0.00000000000E+00  0.00000000000E+00 -0.10447903664E+04  0.10447903664E+04  0.50400001928E-02 0.  1.
    10030    2    1    2    0    0  0.00000000000E+00  0.00000000000E+00  0.32056680875E+03  0.24101475416E+04  0.23887335752E+04 0.  0.
        3    1    3    3  502    0  0.53987278040E+03 -0.42414321839E+03  0.11463633879E+04  0.13362294399E+04  0.10100000352E+00 0. -1.
       -3    1    3    3    0  502 -0.53987278040E+03  0.42414321839E+03 -0.82579657918E+03  0.10739181017E+04  0.10100000352E+00 0.  1.
</event>
<event>
 5   0  0.5840500E-06  0.2669166E+04  0.7818609E-02  0.8345079E-01
        3   -1    0    0  501    0  0.00000000000E+00  0.00000000000E+00  0.28655595192E+04  0.28655595210E+04  0.10100000352E+00 0.  1.
       -3   -1    0    0    0  501  0.00000000000E+00  0.00000000000E+00 -0.62155805670E+03  0.62155806491E+03  0.10100000352E+00 0. -1.
    10030    2    1    2    0    0  0.00000000000E+00  0.00000000000E+00  0.22440014625E+04  0.34871175859E+04  0.26691658798E+04 0.  0.
        5    1    3    3  502    0 -0.69825955659E+03  0.46737213759E+03  0.24766058536E+04  0.26152632310E+04  0.46999998093E+01 0.  1.
       -5    1    3    3    0  502  0.69825955659E+03 -0.46737213759E+03 -0.23260439111E+03  0.87185435488E+03  0.46999998093E+01 0. -1.
</event>
<event>
 5   0  0.7138294E-06  0.2602407E+04  0.7818609E-02  0.8367384E-01
       -1   -1    0    0    0  501  0.00000000000E+00  0.00000000000E+00  0.84342128122E+03  0.84342128123E+03  0.50400001928E-02 0.  1.
        1   -1    0    0  501    0  0.00000000000E+00  0.00000000000E+00 -0.20074553440E+04  0.20074553440E+04  0.50400001928E-02 0. -1.
    10030    2    1    2    0    0  0.00000000000E+00  0.00000000000E+00 -0.11640340628E+04  0.28508766252E+04  0.26024070076E+04 0.  0.
        2    1    3    3  502    0  0.14297611711E+02  0.17104295319E+03 -0.19949997626E+04  0.20023696378E+04  0.25500000920E-02 0. -1.
       -2    1    3    3    0  502 -0.14297611711E+02 -0.17104295319E+03  0.83096569980E+03  0.84850698747E+03  0.25500000920E-02 0.  1.
</event>
<event>
 5   0  0.6993678E-06  0.2591661E+04  0.7818609E-02  0.8371039E-01
       -1   -1    0    0    0  501  0.00000000000E+00  0.00000000000E+00  0.65808359911E+03  0.65808359913E+03  0.50400001928E-02 0. -1.
        1   -1    0    0  501    0  0.00000000000E+00  0.00000000000E+00 -0.25516160670E+04  0.25516160670E+04  0.50400001928E-02 0.  1.
    10030    2    1    2    0    0  0.00000000000E+00  0.00000000000E+00 -0.18935324679E+04  0.32096996661E+04  0.25916610001E+04 0.  0.
        1    1    3    3  502    0  0.11319179340E+03 -0.12513720975E+04 -0.13392508518E+04  0.18363924832E+04  0.50400001928E-02 0.  1.
       -1    1    3    3    0  502 -0.11319179340E+03  0.12513720975E+04 -0.55428161609E+03  0.13733071829E+04  0.50400001928E-02 0. -1.
</event>
<event>
 5   0  0.1677971E-05  0.2606633E+04  0.7818609E-02  0.8365952E-01
       -2   -1    0    0    0  501  0.00000000000E+00  0.00000000000E+00  0.21326841515E+04  0.21326841515E+04  0.25500000920E-02 0. -1.
        2   -1    0    0  501    0  0.00000000000E+00  0.00000000000E+00 -0.79647681863E+03  0.79647681863E+03  0.25500000920E-02 0.  1.
    10030    2    1    2    0    0  0.00000000000E+00  0.00000000000E+00  0.13362073328E+04  0.29291609701E+04  0.26066326846E+04 0.  0.
        4    1    3    3  502    0  0.46447335106E+03  0.34075863768E+03 -0.64564624253E+03  0.86528181906E+03  0.12699999809E+01 0.  1.
       -4    1    3    3    0  502 -0.46447335106E+03 -0.34075863768E+03  0.19818535754E+04  0.20638791510E+04  0.12699999809E+01 0. -1.
</event>
<event>
 5   0  0.6984287E-06  0.2637954E+04  0.7818609E-02  0.8355422E-01
       -1   -1    0    0    0  501  0.00000000000E+00  0.00000000000E+00  0.91709653296E+03  0.91709653298E+03  0.50400001928E-02 0. -1.
        1   -1    0    0  501    0  0.00000000000E+00  0.00000000000E+00 -0.18969650609E+04  0.18969650609E+04  0.50400001928E-02 0.  1.
    10030    2    1    2    0    0  0.00000000000E+00  0.00000000000E+00 -0.97986852794E+03  0.28140615939E+04  0.26379538135E+04 0.  0.
        3    1    3    3  502    0 -0.97226394884E+03  0.87053574926E+03 -0.69393476190E+03  0.14780646606E+04  0.10100000352E+00 0.  1.
       -3    1    3    3    0  502  0.97226394884E+03 -0.87053574926E+03 -0.28593376604E+03  0.13359969333E+04  0.10100000352E+00 0. -1.
</event>
<event>
 5   0  0.1681731E-05  0.2560440E+04  0.7818609E-02  0.8381765E-01
        2   -1    0    0  501    0  0.00000000000E+00  0.00000000000E+00  0.22767134819E+04  0.22767134819E+04  0.25500000920E-02 0.  1.
       -2   -1    0    0    0  501  0.00000000000E+00  0.00000000000E+00 -0.71988093520E+03  0.71988093521E+03  0.25500000920E-02 0. -1.
    10030    2    1    2    0    0  0.00000000000E+00  0.00000000000E+00  0.15568325467E+04  0.29965944171E+04  0.25604395174E+04 0.  0.
        2    1    3    3  502    0  0.35163328337E+03 -0.32176082307E+03 -0.61217012817E+03  0.77584035669E+03  0.25500000920E-02 0. -1.
       -2    1    3    3    0  502 -0.35163328337E+03  0.32176082307E+03  0.21690026748E+04  0.22207540604E+04  0.25500000920E-02 0.  1.
</event>
<event>
 5   0  0.6706225E-06  0.2617287E+04  0.7818609E-02  0.8362353E-01
       -1   -1    0    0    0  501  0.00000000000E+00  0.00000000000E+00  0.92654478930E+03  0.92654478931E+03  0.50400001928E-02 0.  1.
        1   -1    0    0  501    0  0.00000000000E+00  0.00000000000E+00 -0.18483161165E+04  0.18483161165E+04  0.50400001928E-02 0. -1.
    10030    2    1    2    0    0  0.00000000000E+00  0.00000000000E+00 -0.92177132722E+03  0.27748609058E+04  0.26172868905E+04 0.  0.
        5    1    3    3  502    0  0.23751129150E+03  0.12866104665E+04 -0.48987157542E+03  0.13970591815E+04  0.46999998093E+01 0. -1.
       -5    1    3    3    0  502 -0.23751129150E+03 -0.12866104665E+04 -0.43189975180E+03  0.13778017244E+04  0.46999998093E+01 0.  1.
</event>
<event>
 5   0  0.1677971E-05  0.2372602E+04  0.7818609E-02  0.8449833E-01
       -2   -1    0    0    0  501  0.00000000000E+00  0.00000000000E+00  0.10663245664E+04  0.10663245664E+04  0.25500000920E-02 0.  1.
        2   -1    0    0  501    0  0.00000000000E+00  0.00000000000E+00 -0.13197761796E+04  0.13197761796E+04  0.25500000920E-02 0. -1.
    10030    2    1    2    0    0  0.00000000000E+00  0.00000000000E+00 -0.25345161322E+03  0.23861007461E+04  0.23726017471E+04 0.  0.
        4    1    3    3  502    0  0.83771713897E+03  0.74898181152E+03  0.25565368880E+03  0.11524340243E+04  0.12699999809E+01 0. -1.
       -4    1    3    3    0  502 -0.83771713897E+03 -0.74898181152E+03 -0.50910530202E+03  0.12336667218E+04  0.12699999809E+01 0.  1.
</event>
<event>
 5   0  0.1702345E-05  0.2612941E+04  0.7818609E-02  0.8363819E-01
       -2   -1    0    0    0  501  0.00000000000E+00  0.00000000000E+00  0.11639738568E+04  0.11639738568E+04  0.25500000920E-02 0. -1.
        2   -1    0    0  501    0  0.00000000000E+00  0.00000000000E+00 -0.14664118164E+04  0.14664118164E+04  0.25500000920E-02 0.  1.
    10030    2    1    2    0    0  0.00000000000E+00  0.00000000000E+00 -0.30243795965E+03  0.26303856732E+04  0.26129408854E+04 0.  0.
        1    1    3    3  502    0 -0.35433614499E+03 -0.12221159509E+04  0.14697396508E+03  0.12809070409E+04  0.50400001928E-02 0. -1.
       -1    1    3    3    0  502  0.35433614499E+03  0.12221159509E+04 -0.44941192472E+03  0.13494786323E+04  0.50400001928E-02 0.  1.
</event>
<event>
 5   0  0.1702345E-05  0.2602347E+04  0.7818609E-02  0.8367405E-01
       -2   -1    0    0    0  501  0.00000000000E+00  0.00000000000E+00  0.77760573580E+03  0.77760573580E+03  0.25500000920E-02 0. -1.
        2   -1    0    0  501    0  0.00000000000E+00  0.00000000000E+00 -0.21772625645E+04  0.21772625645E+04  0.25500000920E-02 0.  1.
    10030    2    1    2    0    0  0.00000000000E+00  0.00000000000E+00 -0.13996568287E+04  0.29548683003E+04  0.26023465246E+04 0.  0.
        1    1    3    3  502    0  0.46276126593E+02 -0.86760343975E+03  0.39997445856E+03  0.95648145621E+03  0.50400001928E-02 0. -1.
       -1    1    3    3    0  502 -0.46276126593E+02  0.86760343975E+03 -0.17996312872E+04  0.19983868441E+04  0.50400001928E-02 0.  1.
</event>
<event>
 5   0  0.6918420E-06  0.2569646E+04  0.7818609E-02  0.8378585E-01
       -1   -1    0    0    0  501  0.00000000000E+00  0.00000000000E+00  0.95976569872E+03  0.95976569873E+03  0.50400001928E-02 0. -1.
        1   -1    0    0  501    0  0.00000000000E+00  0.00000000000E+00 -0.17199718536E+04  0.17199718536E+04  0.50400001928E-02 0.  1.
    10030    2    1    2    0    0  0.00000000000E+00  0.00000000000E+00 -0.76020615489E+03  0.26797375524E+04  0.25696458806E+04 0.  0.
        4    1    3    3  502    0  0.76553550481E+03 -0.68488942387E+03 -0.11849525170E+04  0.15681939333E+04  0.12699999809E+01 0.  1.
       -4    1    3    3    0  502 -0.76553550481E+03  0.68488942387E+03  0.42474636208E+03  0.11115436191E+04  0.12699999809E+01 0. -1.
</event>
<event>
 5   0  0.1677971E-05  0.2568962E+04  0.7818609E-02  0.8378821E-01
       -2   -1    0    0    0  501  0.00000000000E+00  0.00000000000E+00  0.10058217474E+04  0.10058217474E+04  0.25500000920E-02 0.  1.
        2   -1    0    0  501    0  0.00000000000E+00  0.00000000000E+00 -0.16403412709E+04  0.16403412709E+04  0.25500000920E-02 0. -1.
    10030    2    1    2    0    0  0.00000000000E+00  0.00000000000E+00 -0.63451952356E+03  0.26461630183E+04  0.25689615983E+04 0.  0.
        4    1    3    3  502    0 -0.18022932374E+03  0.51213625133E+02  0.99166952219E+03  0.10092152886E+04  0.12699999809E+01 0.  1.
       -4    1    3    3    0  502  0.18022932374E+03 -0.51213625133E+02 -0.16261890457E+04  0.16369477297E+04  0.12699999809E+01 0. -1.
</event>
<event>
 5   0  0.1677971E-05  0.2515131E+04  0.7818609E-02  0.8397615E-01
       -2   -1    0    0    0  501  0.00000000000E+00  0.00000000000E+00  0.15595930815E+04  0.15595930815E+04  0.25500000920E-02 0. -1.
        2   -1    0    0  501    0  0.00000000000E+00  0.00000000000E+00 -0.10140277625E+04  0.10140277625E+04  0.25500000920E-02 0.  1.
    10030    2    1    2    0    0  0.00000000000E+00  0.00000000000E+00  0.54556531901E+03  0.25736208440E+04  0.25151307584E+04 0.  0.
        4    1    3    3  502    0  0.72117339118E+03  0.89961736197E+03  0.78652062192E+03  0.13957144263E+04  0.12699999809E+01 0. -1.
       -4    1    3    3    0  502 -0.72117339118E+03 -0.89961736197E+03 -0.24095530291E+03  0.11779064178E+04  0.12699999809E+01 0.  1.
</event>
<event>
 5   0  0.7138294E-06  0.2607701E+04  0.7818609E-02  0.8365590E-01
        1   -1    0    0  501    0  0.00000000000E+00  0.00000000000E+00  0.94177385006E+03  0.94177385007E+03  0.50400001928E-02 0.  1.
       -1   -1    0    0    0  501  0.00000000000E+00  0.00000000000E+00 -0.18051315134E+04  0.18051315134E+04  0.50400001928E-02 0. -1.
    10030    2    1    2    0    0  0.00000000000E+00  0.00000000000E+00 -0.86335766334E+03  0.27469053635E+04  0.26077006387E+04 0.  0.
        2    1    3    3  502    0 -0.30953709274E+03 -0.11230968662E+04  0.18512646386E+03  0.11795895856E+04  0.25500000920E-02 0. -1.
       -2    1    3    3    0  502  0.30953709274E+03  0.11230968662E+04 -0.10484841272E+04  0.15673157779E+04  0.25500000920E-02 0.  1.
</event>
<event>
 5   0  0.1677971E-05  0.2543270E+04  0.7818609E-02  0.8387730E-01
       -2   -1    0    0    0  501  0.00000000000E+00  0.00000000000E+00  0.11127883339E+04  0.11127883339E+04  0.25500000920E-02 0.  1.
        2   -1    0    0  501    0  0.00000000000E+00  0.00000000000E+00 -0.14531568508E+04  0.14531568508E+04  0.25500000920E-02 0. -1.
    10030    2    1    2    0    0  0.00000000000E+00  0.00000000000E+00 -0.34036851689E+03  0.25659451846E+04  0.25432703284E+04 0.  0.
        4    1    3    3  502    0  0.57053462767E+03 -0.72079809391E+03  0.71628160500E+03  0.11653843161E+04  0.12699999809E+01 0.  1.
       -4    1    3    3    0  502 -0.57053462767E+03  0.72079809391E+03 -0.10566501219E+04  0.14005608686E+04  0.12699999809E+01 0. -1.
</event>
<event>
 5   0  0.6706225E-06  0.2462358E+04  0.7818609E-02  0.8416520E-01
        1   -1    0    0  501    0  0.00000000000E+00  0.00000000000E+00  0.21311684993E+04  0.21311684993E+04  0.50400001928E-02 0.  1.
       -1   -1    0    0    0  501  0.00000000000E+00  0.00000000000E+00 -0.71125408632E+03  0.71125408634E+03  0.50400001928E-02 0. -1.
    10030    2    1    2    0    0  0.00000000000E+00  0.00000000000E+00  0.14199144130E+04  0.28424225857E+04  0.24623584660E+04 0.  0.
        5    1    3    3  502    0 -0.23036894749E+02  0.10559717866E+04  0.14401899703E+04  0.17859944997E+04  0.46999998093E+01 0.  1.
       -5    1    3    3    0  502  0.23036894749E+02 -0.10559717866E+04 -0.20275557249E+02  0.10564280860E+04  0.46999998093E+01 0. -1.
</event>
<event>
 5   0  0.6706225E-06  0.2574307E+04  0.7818609E-02  0.8376981E-01
        1   -1    0    0  501    0  0.00000000000E+00  0.00000000000E+00  0.14310890726E+04  0.14310890726E+04  0.50400001928E-02 0.  1.
       -1   -1    0    0    0  501  0.00000000000E+00  0.00000000000E+00 -0.11576944809E+04  0.11576944809E+04  0.50400001928E-02 0. -1.
    10030    2    1    2    0    0  0.00000000000E+00  0.00000000000E+00  0.27339459173E+03  0.25887835535E+04  0.25743068356E+04 0.  0.
        5    1    3    3  502    0  0.48555438475E+03  0.11873461416E+04  0.24306503292E+03  0.13056249924E+04  0.46999998093E+01 0. -1.
       -5    1    3    3    0  502 -0.48555438475E+03 -0.11873461416E+04  0.30329558813E+02  0.12831585610E+04  0.46999998093E+01 0.  1.
</event>
<event>
 5   0  0.6706225E-06  0.2606289E+04  0.7818609E-02  0.8366068E-01
       -1   -1    0    0    0  501  0.00000000000E+00  0.00000000000E+00  0.12823613522E+04  0.12823613522E+04  0.50400001928E-02 0.  1.
        1   -1    0    0  501    0  0.00000000000E+00  0.00000000000E+00 -0.13242649123E+04  0.13242649123E+04  0.50400001928E-02 0. -1.
    10030    2    1    2    0    0  0.00000000000E+00  0.00000000000E+00 -0.41903560042E+02  0.26066262645E+04  0.26062894264E+04 0.  0.
        5    1    3    3  502    0  0.10824714547E+04  0.55867125556E+03  0.44204004414E+03  0.12958701758E+04  0.46999998093E+01 0.  1.
       -5    1    3    3    0  502 -0.10824714547E+04 -0.55867125556E+03 -0.48394360418E+03  0.13107560887E+04  0.46999998093E+01 0. -1.
</event>
<event>
 5   0  0.7138294E-06  0.2632175E+04  0.7818609E-02  0.8357353E-01
       -1   -1    0    0    0  501  0.00000000000E+00  0.00000000000E+00  0.11881054136E+04  0.11881054136E+04  0.50400001928E-02 0. -1.
        1   -1    0    0  501    0  0.00000000000E+00  0.00000000000E+00 -0.14578562601E+04  0.14578562601E+04  0.50400001928E-02 0.  1.
    10030    2    1    2    0    0  0.00000000000E+00  0.00000000000E+00 -0.26975084654E+03  0.26459616737E+04  0.26321754614E+04 0.  0.
        2    1    3    3  502    0  0.45246541080E+03  0.68564472222E+03 -0.11684890687E+04  0.14283558159E+04  0.25500000920E-02 0.  1.
       -2    1    3    3    0  502 -0.45246541080E+03 -0.68564472222E+03  0.89873822217E+03  0.12176058578E+04  0.25500000920E-02 0. -1.
</event>
<event>
 5   0  0.1720129E-05  0.2562197E+04  0.7818609E-02  0.8381157E-01
        2   -1    0    0  501    0  0.00000000000E+00  0.00000000000E+00  0.12692809586E+04  0.12692809586E+04  0.25500000920E-02 0.  1.
       -2   -1    0    0    0  501  0.00000000000E+00  0.00000000000E+00 -0.12930262362E+04  0.12930262362E+04  0.25500000920E-02 0. -1.
    10030    2    1    2    0    0  0.00000000000E+00  0.00000000000E+00 -0.23745277629E+02  0.25623071947E+04  0.25621971669E+04 0.  0.
        3    1    3    3  502    0 -0.95681179808E+03 -0.44972348640E+03  0.71167314336E+03  0.12744483922E+04  0.10100000352E+00 0.  1.
       -3    1    3    3    0  502  0.95681179808E+03  0.44972348640E+03 -0.73541842099E+03  0.12878588026E+04  0.10100000352E+00 0. -1.
</event>
<event>
 5   0  0.1869956E-05  0.2539625E+04  0.7818609E-02  0.8389003E-01
        2   -1    0    0  501    0  0.00000000000E+00  0.00000000000E+00  0.15338965351E+04  0.15338965351E+04  0.25500000920E-02 0.  1.
       -2   -1    0    0    0  501  0.00000000000E+00  0.00000000000E+00 -0.10511946808E+04  0.10511946808E+04  0.25500000920E-02 0. -1.
    10030    2    1    2    0    0  0.00000000000E+00  0.00000000000E+00  0.48270185432E+03  0.25850912158E+04  0.25396250735E+04 0.  0.
        5    1    3    3  502    0 -0.51351735867E+03  0.83650629834E+03 -0.57865099441E+03  0.11394305280E+04  0.46999998093E+01 0. -1.
       -5    1    3    3    0  502  0.51351735867E+03 -0.83650629834E+03  0.10613528487E+04  0.14456606878E+04  0.46999998093E+01 0.  1.
</event>
<event>
 5   0  0.1681731E-05  0.2634335E+04  0.7818609E-02  0.8356631E-01
       -2   -1    0    0    0  501  0.00000000000E+00  0.00000000000E+00  0.13038667268E+04  0.13038667268E+04  0.25500000920E-02 0.  1.
        2   -1    0    0  501    0  0.00000000000E+00  0.00000000000E+00 -0.13306042071E+04  0.13306042071E+04  0.25500000920E-02 0. -1.
    10030    2    1    2    0    0  0.00000000000E+00  0.00000000000E+00 -0.26737480251E+02  0.26344709339E+04  0.26343352498E+04 0.  0.
        2    1    3    3  502    0 -0.49143985011E+03  0.10854216631E+04  0.54815571817E+03  0.13115365052E+04  0.25500000920E-02 0.  1.
       -2    1    3    3    0  502  0.49143985011E+03 -0.10854216631E+04 -0.57489319842E+03  0.13229344287E+04  0.25500000920E-02 0. -1.
</event>
<event>
 5   0  0.6918420E-06  0.2592515E+04  0.7818609E-02  0.8370748E-01
       -1   -1    0    0    0  501  0.00000000000E+00  0.00000000000E+00  0.14810050053E+04  0.14810050053E+04  0.50400001928E-02 0.  1.
        1   -1    0    0  501    0  0.00000000000E+00  0.00000000000E+00 -0.11345564542E+04  0.11345564543E+04  0.50400001928E-02 0. -1.
    10030    2    1    2    0    0  0.00000000000E+00  0.00000000000E+00  0.34644855105E+03  0.26155614596E+04  0.25925152170E+04 0.  0.
        4    1    3    3  502    0 -0.86245287351E+03 -0.71692304473E+03  0.82898583387E+03  0.13946407196E+04  0.12699999809E+01 0.  1.
       -4    1    3    3    0  502  0.86245287351E+03  0.71692304473E+03 -0.48253728282E+03  0.12209207400E+04  0.12699999809E+01 0. -1.
</event>
<event>
 5   0  0.1702345E-05  0.2588718E+04  0.7818609E-02  0.8372044E-01
       -2   -1    0    0    0  501  0.00000000000E+00  0.00000000000E+00  0.92784520675E+03  0.92784520675E+03  0.25500000920E-02 0. -1.
        2   -1    0    0  501    0  0.00000000000E+00  0.00000000000E+00 -0.18056516800E+04  0.18056516800E+04  0.25500000920E-02 0.  1.
    10030    2    1    2    0    0  0.00000000000E+00  0.00000000000E+00 -0.87780647329E+03  0.27334968868E+04  0.25887180274E+04 0.  0.
        1    1    3    3  502    0 -0.55881902621E+03 -0.68436883570E+03 -0.14377039130E+04  0.16874927996E+04  0.50400001928E-02 0.  1.
       -1    1    3    3    0  502  0.55881902621E+03  0.68436883570E+03  0.55989743972E+03  0.10460040872E+04  0.50400001928E-02 0. -1.
</event>
<event>
 5   0  0.7138294E-06  0.2605226E+04  0.7818609E-02  0.8366428E-01
       -1   -1    0    0    0  501  0.00000000000E+00  0.00000000000E+00  0.83872151441E+03  0.83872151443E+03  0.50400001928E-02 0. -1.
        1   -1    0    0  501    0  0.00000000000E+00  0.00000000000E+00 -0.20230802877E+04  0.20230802877E+04  0.50400001928E-02 0.  1.
    10030    2    1    2    0    0  0.00000000000E+00  0.00000000000E+00 -0.11843587733E+04  0.28618018022E+04  0.26052262572E+04 0.  0.
        2    1    3    3  502    0 -0.32889257962E+03 -0.53776961093E+03  0.66001369305E+03  0.91267987728E+03  0.25500000920E-02 0. -1.
       -2    1    3    3    0  502  0.32889257962E+03  0.53776961093E+03 -0.18443724664E+04  0.19491219249E+04  0.25500000920E-02 0.  1.
</event>
<event>
 5   0  0.6993678E-06  0.2580815E+04  0.7818609E-02  0.8374747E-01
       -1   -1    0    0    0  501  0.00000000000E+00  0.00000000000E+00  0.16790699867E+04  0.16790699867E+04  0.50400001928E-02 0.  1.
        1   -1    0    0  501    0  0.00000000000E+00  0.00000000000E+00 -0.99171060507E+03  0.99171060508E+03  0.50400001928E-02 0. -1.
    10030    2    1    2    0    0  0.00000000000E+00  0.00000000000E+00  0.68735938167E+03  0.26707805918E+04  0.25808149973E+04 0.  0.
        1    1    3    3  502    0 -0.56106307048E+03 -0.11014612074E+04 -0.39557885327E+02  0.12367592275E+04  0.50400001928E-02 0. -1.
       -1    1    3    3    0  502  0.56106307048E+03  0.11014612074E+04  0.72691726700E+03  0.14340213644E+04  0.50400001928E-02 0.  1.
</event>
<event>
 5   0  0.6984287E-06  0.2578015E+04  0.7818609E-02  0.8375708E-01
        1   -1    0    0  501    0  0.00000000000E+00  0.00000000000E+00  0.15874285654E+04  0.15874285654E+04  0.50400001928E-02 0.  1.
       -1   -1    0    0    0  501  0.00000000000E+00  0.00000000000E+00 -0.10466864348E+04  0.10466864349E+04  0.50400001928E-02 0. -1.
    10030    2    1    2    0    0  0.00000000000E+00  0.00000000000E+00  0.54074213053E+03  0.26341150002E+04  0.25780146979E+04 0.  0.
        3    1    3    3  502    0 -0.23077565769E+03  0.66239089567E+03 -0.83460615166E+03  0.10902231613E+04  0.10100000352E+00 0. -1.
       -3    1    3    3    0  502  0.23077565769E+03 -0.66239089567E+03  0.13753482822E+04  0.15438918389E+04  0.10100000352E+00 0.  1.
</event>
<event>
 5   0  0.7138294E-06  0.2613013E+04  0.7818609E-02  0.8363794E-01
        1   -1    0    0  501    0  0.00000000000E+00  0.00000000000E+00  0.14952920189E+04  0.14952920189E+04  0.50400001928E-02 0. -1.
       -1   -1    0    0    0  501  0.00000000000E+00  0.00000000000E+00 -0.11415559215E+04  0.11415559215E+04  0.50400001928E-02 0.  1.
    10030    2    1    2    0    0  0.00000000000E+00  0.00000000000E+00  0.35373609745E+03  0.26368479404E+04  0.26130131714E+04 0.  0.
        2    1    3    3  502    0 -0.12846749590E+04 -0.15716054894E+01 -0.63140093235E+02  0.12862266098E+04  0.25500000920E-02 0.  1.
       -2    1    3    3    0  502  0.12846749590E+04  0.15716054894E+01  0.41687619068E+03  0.13506213306E+04  0.25500000920E-02 0. -1.
</event>
<event>
 5   0  0.6984287E-06  0.2435345E+04  0.7818609E-02  0.8426388E-01
        1   -1    0    0  501    0  0.00000000000E+00  0.00000000000E+00  0.11748140595E+04  0.11748140595E+04  0.50400001928E-02 0.  1.
       -1   -1    0    0    0  501  0.00000000000E+00  0.00000000000E+00 -0.12620940418E+04  0.12620940418E+04  0.50400001928E-02 0. -1.
    10030    2    1    2    0    0  0.00000000000E+00  0.00000000000E+00 -0.87279982261E+02  0.24369081013E+04  0.24353445955E+04 0.  0.
        3    1    3    3  502    0  0.73328545082E+03 -0.55329796408E+02 -0.10148077150E+04  0.12532372670E+04  0.10100000352E+00 0. -1.
       -3    1    3    3    0  502 -0.73328545082E+03  0.55329796408E+02  0.92752773274E+03  0.11836708343E+04  0.10100000352E+00 0.  1.
</event>
<event>
 5   0  0.6993678E-06  0.2531129E+04  0.7818609E-02  0.8391979E-01
        1   -1    0    0  501    0  0.00000000000E+00  0.00000000000E+00  0.19384325191E+04  0.19384325191E+04  0.50400001928E-02 0.  1.
       -1   -1    0    0    0  501  0.00000000000E+00  0.00000000000E+00 -0.82626242871E+03  0.82626242872E+03  0.50400001928E-02 0. -1.
    10030    2    1    2    0    0  0.00000000000E+00  0.00000000000E+00  0.11121700904E+04  0.27646949479E+04  0.25311293615E+04 0.  0.
        1    1    3    3  502    0 -0.52450634112E+03 -0.10349518339E+04  0.40561328314E+01  0.11602795579E+04  0.50400001928E-02 0. -1.
       -1    1    3    3    0  502  0.52450634112E+03  0.10349518339E+04  0.11081139576E+04  0.16044153899E+04  0.50400001928E-02 0.  1.
</event>
<event>
 5   0  0.7138294E-06  0.2642667E+04  0.7818609E-02  0.8353851E-01
       -1   -1    0    0    0  501  0.00000000000E+00  0.00000000000E+00  0.13510613177E+04  0.13510613178E+04  0.50400001928E-02 0. -1.
        1   -1    0    0  501    0  0.00000000000E+00  0.00000000000E+00 -0.12922595963E+04  0.12922595963E+04  0.50400001928E-02 0.  1.
    10030    2    1    2    0    0  0.00000000000E+00  0.00000000000E+00  0.58801721481E+02  0.26433209140E+04  0.26426667993E+04 0.  0.
        2    1    3    3  502    0  0.88142993046E+03 -0.88667304100E+03  0.45707440547E+03  0.13311742245E+04  0.25500000920E-02 0. -1.
       -2    1    3    3    0  502 -0.88142993046E+03  0.88667304100E+03 -0.39827268399E+03  0.13121466895E+04  0.25500000920E-02 0.  1.
</event>
<event>
 5   0  0.1681731E-05  0.2617316E+04  0.7818609E-02  0.8362343E-01
       -2   -1    0    0    0  501  0.00000000000E+00  0.00000000000E+00  0.11669818904E+04  0.11669818904E+04  0.25500000920E-02 0.  1.
        2   -1    0    0  501    0  0.00000000000E+00  0.00000000000E+00 -0.14675344751E+04  0.14675344751E+04  0.25500000920E-02 0. -1.
    10030    2    1    2    0    0  0.00000000000E+00  0.00000000000E+00 -0.30055258467E+03  0.26345163656E+04  0.26173163019E+04 0.  0.
        2    1    3    3  502    0  0.10590120302E+04 -0.76155668318E+03 -0.25637817902E+03  0.13293625662E+04  0.25500000920E-02 0. -1.
       -2    1    3    3    0  502 -0.10590120302E+04  0.76155668318E+03 -0.44174405652E+02  0.13051537993E+04  0.25500000920E-02 0.  1.
</event>
<event>
 5   0  0.7138294E-06  0.2621730E+04  0.7818609E-02  0.8360857E-01
        1   -1    0    0  501    0  0.00000000000E+00  0.00000000000E+00  0.14162666842E+04  0.14162666842E+04  0.50400001928E-02 0. -1.
       -1   -1    0    0    0  501  0.00000000000E+00  0.00000000000E+00 -0.12133072537E+04  0.12133072537E+04  0.50400001928E-02 0.  1.
    10030    2    1    2    0    0  0.00000000000E+00  0.00000000000E+00  0.20295943053E+03  0.26295739380E+04  0.26217296895E+04 0.  0.
        2    1    3    3  502    0 -0.51197157670E+02  0.10533393714E+04  0.88241168013E+03  0.13750619453E+04  0.25500000920E-02 0. -1.
       -2    1    3    3    0  502  0.51197157670E+02 -0.10533393714E+04 -0.67945224960E+03  0.12545119926E+04  0.25500000920E-02 0.  1.
</event>
<event>
 5   0  0.6706225E-06  0.2590910E+04  0.7818609E-02  0.8371295E-01
        1   -1    0    0  501    0  0.00000000000E+00  0.00000000000E+00  0.15723352707E+04  0.15723352707E+04  0.50400001928E-02 0. -1.
       -1   -1    0    0    0  501  0.00000000000E+00  0.00000000000E+00 -0.10673318629E+04  0.10673318629E+04  0.50400001928E-02 0.  1.
    10030    2    1    2    0    0  0.00000000000E+00  0.00000000000E+00  0.50500340773E+03  0.26396671336E+04  0.25909099047E+04 0.  0.
        5    1    3    3  502    0 -0.52323550620E+03 -0.87946550841E+03  0.10617710879E+04  0.14746575563E+04  0.46999998093E+01 0. -1.
       -5    1    3    3    0  502  0.52323550620E+03  0.87946550841E+03 -0.55676768015E+03  0.11650095773E+04  0.46999998093E+01 0.  1.
</event>
<event>
 5   0  0.5840500E-06  0.2586996E+04  0.7818609E-02  0.8372632E-01
       -3   -1    0    0    0  501  0.00000000000E+00  0.00000000000E+00  0.17730922116E+04  0.17730922144E+04  0.10100000352E+00 0. -1.
        3   -1    0    0  501    0  0.00000000000E+00  0.00000000000E+00 -0.94362629660E+03  0.94362630200E+03  0.10100000352E+00 0.  1.
    10030    2    1    2    0    0  0.00000000000E+00  0.00000000000E+00  0.82946591496E+03  0.27167185164E+04  0.25869955148E+04 0.  0.
        5    1    3    3  502    0  0.41470530065E+03  0.10907182553E+04  0.10008109005E+04  0.15373000187E+04  0.46999998093E+01 0. -1.
       -5    1    3    3    0  502 -0.41470530065E+03 -0.10907182553E+04 -0.17134498551E+03  0.11794184978E+04  0.46999998093E+01 0.  1.
</event>
<event>
 5   0  0.1720129E-05  0.2587137E+04  0.7818609E-02  0.8372583E-01
       -2   -1    0    0    0  501  0.00000000000E+00  0.00000000000E+00  0.19803512964E+04  0.19803512964E+04  0.25500000920E-02 0. -1.
        2   -1    0    0  501    0  0.00000000000E+00  0.00000000000E+00 -0.84496120145E+03  0.84496120146E+03  0.25500000920E-02 0.  1.
    10030    2    1    2    0    0  0.00000000000E+00  0.00000000000E+00  0.11353900950E+04  0.28253124979E+04  0.25871374225E+04 0.  0.
        3    1    3    3  502    0  0.10850801584E+04 -0.40584957999E+03 -0.60792759732E+02  0.11600899110E+04  0.10100000352E+00 0.  1.
       -3    1    3    3    0  502 -0.10850801584E+04  0.40584957999E+03  0.11961828547E+04  0.16652225869E+04  0.10100000352E+00 0. -1.
</event>
<event>
 5   0  0.1720129E-05  0.2586818E+04  0.7818609E-02  0.8372693E-01
       -2   -1    0    0    0  501  0.00000000000E+00  0.00000000000E+00  0.15498931452E+04  0.15498931452E+04  0.25500000920E-02 0. -1.
        2   -1    0    0  501    0  0.00000000000E+00  0.00000000000E+00 -0.10793687647E+04  0.10793687647E+04  0.25500000920E-02 0.  1.
    10030    2    1    2    0    0  0.00000000000E+00  0.00000000000E+00  0.47052438049E+03  0.26292619100E+04  0.25868175426E+04 0.  0.
        3    1    3    3  502    0  0.10349635430E+04 -0.77416886573E+03  0.18526905720E+03  0.13056843423E+04  0.10100000352E+00 0. -1.
       -3    1    3    3    0  502 -0.10349635430E+04  0.77416886573E+03  0.28525532328E+03  0.13235775677E+04  0.10100000352E+00 0.  1.
</event>
<event>
 5   0  0.1677971E-05  0.2588642E+04  0.7818609E-02  0.8372070E-01
       -2   -1    0    0    0  501  0.00000000000E+00  0.00000000000E+00  0.11089111841E+04  0.11089111841E+04  0.25500000920E-02 0. -1.
        2   -1    0    0  501    0  0.00000000000E+00  0.00000000000E+00 -0.15107309567E+04  0.15107309567E+04  0.25500000920E-02 0.  1.
    10030    2    1    2    0    0  0.00000000000E+00  0.00000000000E+00 -0.40181977253E+03  0.26196421408E+04  0.25886416933E+04 0.  0.
        4    1    3    3  502    0 -0.10906301733E+04 -0.66343313804E+03 -0.41712039622E+03  0.13429850116E+04  0.12699999809E+01 0.  1.
       -4    1    3    3    0  502  0.10906301733E+04  0.66343313804E+03  0.15300623680E+02  0.12766571292E+04  0.12699999809E+01 0. -1.
</event>
<event>
 5   0  0.1720129E-05  0.2596732E+04  0.7818609E-02  0.8369312E-01
        2   -1    0    0  501    0  0.00000000000E+00  0.00000000000E+00  0.12879144678E+04  0.12879144678E+04  0.25500000920E-02 0.  1.
       -2   -1    0    0    0  501  0.00000000000E+00  0.00000000000E+00 -0.13089023897E+04  0.13089023897E+04  0.25500000920E-02 0. -1.
    10030    2    1    2    0    0  0.00000000000E+00  0.00000000000E+00 -0.20987921858E+02  0.25968168575E+04  0.25967320422E+04 0.  0.
        3    1    3    3  502    0 -0.85753301628E+03 -0.85978475332E+03 -0.47003222128E+03  0.13021224963E+04  0.10100000352E+00 0. -1.
       -3    1    3    3    0  502  0.85753301628E+03  0.85978475332E+03  0.44904429942E+03  0.12946943613E+04  0.10100000352E+00 0.  1.
</event>
<event>
 5   0  0.1702345E-05  0.2699255E+04  0.7818609E-02  0.8335247E-01
       -2   -1    0    0    0  501  0.00000000000E+00  0.00000000000E+00  0.83828528951E+03  0.83828528952E+03  0.25500000920E-02 0. -1.
        2   -1    0    0  501    0  0.00000000000E+00  0.00000000000E+00 -0.21728812038E+04  0.21728812038E+04  0.25500000920E-02 0.  1.
    10030    2    1    2    0    0  0.00000000000E+00  0.00000000000E+00 -0.13345959142E+04  0.30111664933E+04  0.26992549705E+04 0.  0.
        1    1    3    3  502    0  0.50163724582E+02  0.65556622164E+03  0.64754821746E+03  0.92282293219E+03  0.50400001928E-02 0. -1.
       -1    1    3    3    0  502 -0.50163724582E+02 -0.65556622164E+03 -0.19821441317E+04  0.20883435611E+04  0.50400001928E-02 0.  1.
</event>
<event>
 5   0  0.1720129E-05  0.2598834E+04  0.7818609E-02  0.8368597E-01
       -2   -1    0    0    0  501  0.00000000000E+00  0.00000000000E+00  0.69584391409E+03  0.69584391409E+03  0.25500000920E-02 0. -1.
        2   -1    0    0  501    0  0.00000000000E+00  0.00000000000E+00 -0.24265274733E+04  0.24265274733E+04  0.25500000920E-02 0.  1.
    10030    2    1    2    0    0  0.00000000000E+00  0.00000000000E+00 -0.17306835592E+04  0.31223713874E+04  0.25988338729E+04 0.  0.
        3    1    3    3  502    0 -0.14015871060E+03  0.97156477916E+03  0.15758753130E+03  0.99419134198E+03  0.10100000352E+00 0. -1.
       -3    1    3    3    0  502  0.14015871060E+03 -0.97156477916E+03 -0.18882710905E+04  0.21281800454E+04  0.10100000352E+00 0.  1.
</event>
<event>
 5   0  0.1869956E-05  0.2580440E+04  0.7818609E-02  0.8374876E-01
       -2   -1    0    0    0  501  0.00000000000E+00  0.00000000000E+00  0.10981029912E+04  0.10981029912E+04  0.25500000920E-02 0.  1.
        2   -1    0    0  501    0  0.00000000000E+00  0.00000000000E+00 -0.15159481043E+04  0.15159481043E+04  0.25500000920E-02 0. -1.
    10030    2    1    2    0    0  0.00000000000E+00  0.00000000000E+00 -0.41784511316E+03  0.26140510955E+04  0.25804396120E+04 0.  0.
        5    1    3    3  502    0  0.67037209903E+03 -0.10856145104E+04 -0.14887999037E+02  0.12760099368E+04  0.46999998093E+01 0.  1.
       -5    1    3    3    0  502 -0.67037209903E+03  0.10856145104E+04 -0.40295711413E+03  0.13380411587E+04  0.46999998093E+01 0. -1.
</event>
<event>
 5   0  0.6984287E-06  0.2599792E+04  0.7818609E-02  0.8368272E-01
       -1   -1    0    0    0  501  0.00000000000E+00  0.00000000000E+00  0.12842946619E+04  0.12842946619E+04  0.50400001928E-02 0.  1.
        1   -1    0    0  501    0  0.00000000000E+00  0.00000000000E+00 -0.13156867065E+04  0.13156867065E+04  0.50400001928E-02 0. -1.
    10030    2    1    2    0    0  0.00000000000E+00  0.00000000000E+00 -0.31392044569E+02  0.25999813684E+04  0.25997918485E+04 0.  0.
        3    1    3    3  502    0  0.98371703444E+02 -0.59577541766E+02  0.12791967782E+04  0.12843562135E+04  0.10100000352E+00 0.  1.
       -3    1    3    3    0  502 -0.98371703444E+02  0.59577541766E+02 -0.13105888228E+04  0.13156251549E+04  0.10100000352E+00 0. -1.
</event>
<event>
 5   0  0.6993678E-06  0.2490174E+04  0.7818609E-02  0.8406495E-01
        1   -1    0    0  501    0  0.00000000000E+00  0.00000000000E+00  0.11142666801E+04  0.11142666801E+04  0.50400001928E-02 0. -1.
       -1   -1    0    0    0  501  0.00000000000E+00  0.00000000000E+00 -0.13912658645E+04  0.13912658645E+04  0.50400001928E-02 0.  1.
    10030    2    1    2    0    0  0.00000000000E+00  0.00000000000E+00 -0.27699918443E+03  0.25055325447E+04  0.24901736454E+04 0.  0.
        1    1    3    3  502    0 -0.81709333314E+03 -0.92435737336E+03  0.30354214049E+02  0.12340986375E+04  0.50400001928E-02 0. -1.
       -1    1    3    3    0  502  0.81709333314E+03  0.92435737336E+03 -0.30735339848E+03  0.12714339072E+04  0.50400001928E-02 0.  1.
</event>
<event>
 5   0  0.6984287E-06  0.2602314E+04  0.7818609E-02  0.8367416E-01
        1   -1    0    0  501    0  0.00000000000E+00  0.00000000000E+00  0.85601919931E+03  0.85601919932E+03  0.50400001928E-02 0. -1.
       -1   -1    0    0    0  501  0.00000000000E+00  0.00000000000E+00 -0.19777700495E+04  0.19777700495E+04  0.50400001928E-02 0.  1.
    10030    2    1    2    0    0  0.00000000000E+00  0.00000000000E+00 -0.11217508502E+04  0.28337892488E+04  0.26023136892E+04 0.  0.
        3    1    3    3  502    0 -0.93663938025E+03 -0.79237208245E+03 -0.10328598793E+04  0.16037289005E+04  0.10100000352E+00 0.  1.
       -3    1    3    3    0  502  0.93663938025E+03  0.79237208245E+03 -0.88890970863E+02  0.12300603483E+04  0.10100000352E+00 0. -1.
</event>
<event>
 5   0  0.6993678E-06  0.2602045E+04  0.7818609E-02  0.8367507E-01
        1   -1    0    0  501    0  0.00000000000E+00  0.00000000000E+00  0.15918893458E+04  0.15918893458E+04  0.50400001928E-02 0.  1.
       -1   -1    0    0    0  501  0.00000000000E+00  0.00000000000E+00 -0.10633023285E+04  0.10633023286E+04  0.50400001928E-02 0. -1.
    10030    2    1    2    0    0  0.00000000000E+00  0.00000000000E+00  0.52858701727E+03  0.26551916744E+04  0.26020450789E+04 0.  0.
        1    1    3    3  502    0 -0.64239976087E+03 -0.15350987339E+03  0.14080878630E+04  0.15552987379E+04  0.50400001928E-02 0.  1.
       -1    1    3    3    0  502  0.64239976087E+03  0.15350987339E+03 -0.87950084578E+03  0.10998929365E+04  0.50400001928E-02 0. -1.
</event>
<event>
 5   0  0.6918420E-06  0.2555606E+04  0.7818609E-02  0.8383439E-01
       -1   -1    0    0    0  501  0.00000000000E+00  0.00000000000E+00  0.14827526884E+04  0.14827526884E+04  0.50400001928E-02 0.  1.
        1   -1    0    0  501    0  0.00000000000E+00  0.00000000000E+00 -0.11011823582E+04  0.11011823582E+04  0.50400001928E-02 0. -1.
    10030    2    1    2    0    0  0.00000000000E+00  0.00000000000E+00  0.38157033020E+03  0.25839350466E+04  0.25556064659E+04 0.  0.
        4    1    3    3  502    0  0.74663886266E+03  0.33251997733E+03 -0.80231450723E+03  0.11453162480E+04  0.12699999809E+01 0. -1.
       -4    1    3    3    0  502 -0.74663886266E+03 -0.33251997733E+03  0.11838848374E+04  0.14386187986E+04  0.12699999809E+01 0.  1.
</event>
<event>
 5   0  0.1677971E-05  0.2593709E+04  0.7818609E-02  0.8370341E-01
       -2   -1    0    0    0  501  0.00000000000E+00  0.00000000000E+00  0.96179338485E+03  0.96179338486E+03  0.25500000920E-02 0.  1.
        2   -1    0    0  501    0  0.00000000000E+00  0.00000000000E+00 -0.17486407172E+04  0.17486407172E+04  0.25500000920E-02 0. -1.
    10030    2    1    2    0    0  0.00000000000E+00  0.00000000000E+00 -0.78684733231E+03  0.27104341020E+04  0.25937085991E+04 0.  0.
        4    1    3    3  502    0  0.15544382370E+03 -0.19125631346E+03  0.93709486137E+03  0.96896344197E+03  0.12699999809E+01 0.  1.
       -4    1    3    3    0  502 -0.15544382370E+03  0.19125631346E+03 -0.17239421937E+04  0.17414706600E+04  0.12699999809E+01 0. -1.
</event>
<event>
 5   0  0.1869956E-05  0.2592240E+04  0.7818609E-02  0.8370842E-01
        2   -1    0    0  501    0  0.00000000000E+00  0.00000000000E+00  0.20474844792E+04  0.20474844792E+04  0.25500000920E-02 0.  1.
       -2   -1    0    0    0  501  0.00000000000E+00  0.00000000000E+00 -0.82048366037E+03  0.82048366038E+03  0.25500000920E-02 0. -1.
    10030    2    1    2    0    0  0.00000000000E+00  0.00000000000E+00  0.12270008188E+04  0.28679681396E+04  0.25922403901E+04 0.  0.
        5    1    3    3  502    0 -0.11825156010E+04  0.30788058395E+03  0.10916400847E+04  0.16385462352E+04  0.46999998093E+01 0.  1.
       -5    1    3    3    0  502  0.11825156010E+04 -0.30788058395E+03  0.13536073416E+03  0.12294219043E+04  0.46999998093E+01 0. -1.
</event>
<event>
 5   0  0.6993678E-06  0.2376883E+04  0.7818609E-02  0.8448209E-01
        1   -1    0    0  501    0  0.00000000000E+00  0.00000000000E+00  0.19512336287E+04  0.19512336287E+04  0.50400001928E-02 0. -1.
       -1   -1    0    0    0  501  0.00000000000E+00  0.00000000000E+00 -0.72384631470E+03  0.72384631472E+03  0.50400001928E-02 0.  1.
    10030    2    1    2    0    0  0.00000000000E+00  0.00000000000E+00  0.12273873140E+04  0.26750799434E+04  0.23768830609E+04 0.  0.
        1    1    3    3  502    0 -0.10325309368E+04 -0.47142738529E+01  0.12759473858E+04  0.16413969938E+04  0.50400001928E-02 0. -1.
       -1    1    3    3    0  502  0.10325309368E+04  0.47142738529E+01 -0.48560071822E+02  0.10336829496E+04  0.50400001928E-02 0.  1.
</event>
<event>
 5   0  0.1720129E-05  0.2541330E+04  0.7818609E-02  0.8388408E-01
       -2   -1    0    0    0  501  0.00000000000E+00  0.00000000000E+00  0.83039194787E+03  0.83039194787E+03  0.25500000920E-02 0. -1.
        2   -1    0    0  501    0  0.00000000000E+00  0.00000000000E+00 -0.19443707151E+04  0.19443707151E+04  0.25500000920E-02 0.  1.
    10030    2    1    2    0    0  0.00000000000E+00  0.00000000000E+00 -0.11139787672E+04  0.27747626630E+04  0.25413301915E+04 0.  0.
        3    1    3    3  502    0  0.87722044313E+03  0.12447814753E+03  0.43748520222E+03  0.98813148286E+03  0.10100000352E+00 0. -1.
       -3    1    3    3    0  502 -0.87722044313E+03 -0.12447814753E+03 -0.15514639695E+04  0.17866311801E+04  0.10100000352E+00 0.  1.
</event>
<event>
 5   0  0.1702345E-05  0.2591439E+04  0.7818609E-02  0.8371115E-01
       -2   -1    0    0    0  501  0.00000000000E+00  0.00000000000E+00  0.58509885061E+03  0.58509885062E+03  0.25500000920E-02 0. -1.
        2   -1    0    0  501    0  0.00000000000E+00  0.00000000000E+00 -0.28694099996E+04  0.28694099996E+04  0.25500000920E-02 0.  1.
    10030    2    1    2    0    0  0.00000000000E+00  0.00000000000E+00 -0.22843111490E+04  0.34545088502E+04  0.25914385910E+04 0.  0.
        1    1    3    3  502    0  0.74215749962E+03  0.79599630632E+03 -0.20476620345E+03  0.11074010439E+04  0.50400001928E-02 0. -1.
       -1    1    3    3    0  502 -0.74215749962E+03 -0.79599630632E+03 -0.20795449455E+04  0.23471078063E+04  0.50400001928E-02 0.  1.
</event>
<event>
 5   0  0.1681731E-05  0.2487000E+04  0.7818609E-02  0.8407631E-01
       -2   -1    0    0    0  501  0.00000000000E+00  0.00000000000E+00  0.11022152362E+04  0.11022152362E+04  0.25500000920E-02 0. -1.
        2   -1    0    0  501    0  0.00000000000E+00  0.00000000000E+00 -0.14028953634E+04  0.14028953634E+04  0.25500000920E-02 0.  1.
    10030    2    1    2    0    0  0.00000000000E+00  0.00000000000E+00 -0.30068012716E+03  0.25051105996E+04  0.24870003172E+04 0.  0.
        2    1    3    3  502    0  0.35662775677E+03  0.67969375486E+03 -0.11357922328E+04  0.13708358594E+04  0.25500000920E-02 0.  1.
       -2    1    3    3    0  502 -0.35662775677E+03 -0.67969375486E+03  0.83511210566E+03  0.11342747402E+04  0.25500000920E-02 0. -1.
</event>
<event>
 5   0  0.7138294E-06  0.2699903E+04  0.7818609E-02  0.8335036E-01
       -1   -1    0    0    0  501  0.00000000000E+00  0.00000000000E+00  0.14142740238E+04  0.14142740238E+04  0.50400001928E-02 0. -1.
        1   -1    0    0  501    0  0.00000000000E+00  0.00000000000E+00 -0.12885546382E+04  0.12885546382E+04  0.50400001928E-02 0.  1.
    10030    2    1    2    0    0  0.00000000000E+00  0.00000000000E+00  0.12571938554E+03  0.27028286620E+04  0.26999032227E+04 0.  0.
        2    1    3    3  502    0  0.82053737922E+02  0.11423185818E+04 -0.65257878405E+03  0.13181364222E+04  0.25500000920E-02 0.  1.
       -2    1    3    3    0  502 -0.82053737922E+02 -0.11423185818E+04  0.77829816958E+03  0.13846922398E+04  0.25500000920E-02 0. -1.
</event>
<event>
 5   0  0.6918420E-06  0.2817003E+04  0.7818609E-02  0.8298009E-01
       -1   -1    0    0    0  501  0.00000000000E+00  0.00000000000E+00  0.13742317557E+04  0.13742317557E+04  0.50400001928E-02 0.  1.
        1   -1    0    0  501    0  0.00000000000E+00  0.00000000000E+00 -0.14436256337E+04  0.14436256337E+04  0.50400001928E-02 0. -1.
    10030    2    1    2    0    0  0.00000000000E+00  0.00000000000E+00 -0.69393878038E+02  0.28178573894E+04  0.28170027967E+04 0.  0.
        4    1    3    3  502    0 -0.26838696313E+03 -0.99962795242E+03  0.92088704842E+03  0.13853960351E+04  0.12699999809E+01 0.  1.
       -4    1    3    3    0  502  0.26838696313E+03  0.99962795242E+03 -0.99028092646E+03  0.14324613543E+04  0.12699999809E+01 0. -1.
</event>
<event>
 5   0  0.1869956E-05  0.2710576E+04  0.7818609E-02  0.8331582E-01
        2   -1    0    0  501    0  0.00000000000E+00  0.00000000000E+00  0.21929478421E+04  0.21929478421E+04  0.25500000920E-02 0.  1.
       -2   -1    0    0    0  501  0.00000000000E+00  0.00000000000E+00 -0.83759643178E+03  0.83759643178E+03  0.25500000920E-02 0. -1.
    10030    2    1    2    0    0  0.00000000000E+00  0.00000000000E+00  0.13553514103E+04  0.30305442739E+04  0.27105757968E+04 0.  0.
        5    1    3    3  502    0  0.10738925901E+04 -0.71192484882E+03  0.11476547267E+04  0.17254610245E+04  0.46999998093E+01 0.  1.
       -5    1    3    3    0  502 -0.10738925901E+04  0.71192484882E+03  0.20769668358E+03  0.13050832493E+04  0.46999998093E+01 0. -1.
</event>
<event>
 5   0  0.7138294E-06  0.2580038E+04  0.7818609E-02  0.8375013E-01
       -1   -1    0    0    0  501  0.00000000000E+00  0.00000000000E+00  0.74691759131E+03  0.74691759133E+03  0.50400001928E-02 0. -1.
        1   -1    0    0  501    0  0.00000000000E+00  0.00000000000E+00 -0.22280228164E+04  0.22280228164E+04  0.50400001928E-02 0.  1.
    10030    2    1    2    0    0  0.00000000000E+00  0.00000000000E+00 -0.14811052250E+04  0.29749404077E+04  0.25800383217E+04 0.  0.
        2    1    3    3  502    0  0.35233892469E+03  0.47829288041E+03  0.57981129842E+03  0.83011320860E+03  0.25500000920E-02 0. -1.
       -2    1    3    3    0  502 -0.35233892469E+03 -0.47829288041E+03 -0.20609165235E+04  0.21448271991E+04  0.25500000920E-02 0.  1.
</event>
<event>
 5   0  0.6706225E-06  0.2579376E+04  0.7818609E-02  0.8375241E-01
        1   -1    0    0  501    0  0.00000000000E+00  0.00000000000E+00  0.21444974483E+04  0.21444974483E+04  0.50400001928E-02 0. -1.
       -1   -1    0    0    0  501  0.00000000000E+00  0.00000000000E+00 -0.77561071988E+03  0.77561071990E+03  0.50400001928E-02 0.  1.
    10030    2    1    2    0    0  0.00000000000E+00  0.00000000000E+00  0.13688867284E+04  0.29201081682E+04  0.25793760561E+04 0.  0.
        5    1    3    3  502    0 -0.34278491728E+03  0.42812619725E+03 -0.63700219560E+03  0.84058754897E+03  0.46999998093E+01 0.  1.
       -5    1    3    3    0  502  0.34278491728E+03 -0.42812619725E+03  0.20058889240E+04  0.20795206192E+04  0.46999998093E+01 0. -1.
</event>
<event>
 5   0  0.6918420E-06  0.2249088E+04  0.7818609E-02  0.8498270E-01
        1   -1    0    0  501    0  0.00000000000E+00  0.00000000000E+00  0.11290536401E+04  0.11290536401E+04  0.50400001928E-02 0. -1.
       -1   -1    0    0    0  501  0.00000000000E+00  0.00000000000E+00 -0.11200526527E+04  0.11200526527E+04  0.50400001928E-02 0.  1.
    10030    2    1    2    0    0  0.00000000000E+00  0.00000000000E+00  0.90009874222E+01  0.22491062928E+04  0.22490882816E+04 0.  0.
        4    1    3    3  502    0 -0.55932859762E+03 -0.85778376314E+03 -0.46021437178E+03  0.11226933443E+04  0.12699999809E+01 0. -1.
       -4    1    3    3    0  502  0.55932859762E+03  0.85778376314E+03  0.46921535920E+03  0.11264129485E+04  0.12699999809E+01 0.  1.
</event>
<event>
 5   0  0.6984287E-06  0.2610947E+04  0.7818609E-02  0.8364492E-01
       -1   -1    0    0    0  501  0.00000000000E+00  0.00000000000E+00  0.12252873421E+04  0.12252873421E+04  0.50400001928E-02 0.  1.
        1   -1    0    0  501    0  0.00000000000E+00  0.00000000000E+00 -0.13909070691E+04  0.13909070691E+04  0.50400001928E-02 0. -1.
    10030    2    1    2    0    0  0.00000000000E+00  0.00000000000E+00 -0.16561972700E+03  0.26161944111E+04  0.26109468211E+04 0.  0.
        3    1    3    3  502    0 -0.12260085530E+04 -0.39676965993E+03  0.12674602107E+03  0.12948311469E+04  0.10100000352E+00 0.  1.
       -3    1    3    3    0  502  0.12260085530E+04  0.39676965993E+03 -0.29236574807E+03  0.13213632642E+04  0.10100000352E+00 0. -1.
</event>
<event>
 5   0  0.6706225E-06  0.2639890E+04  0.7818609E-02  0.8354776E-01
       -1   -1    0    0    0  501  0.00000000000E+00  0.00000000000E+00  0.12679606335E+04  0.12679606335E+04  0.50400001928E-02 0.  1.
        1   -1    0    0  501    0  0.00000000000E+00  0.00000000000E+00 -0.13740608803E+04  0.13740608804E+04  0.50400001928E-02 0. -1.
    10030    2    1    2    0    0  0.00000000000E+00  0.00000000000E+00 -0.10610024683E+03  0.26420215139E+04  0.26398902283E+04 0.  0.
        5    1    3    3  502    0 -0.28175124088E+03  0.46673864205E+03  0.11500036785E+04  0.12726976358E+04  0.46999998093E+01 0.  1.
       -5    1    3    3    0  502  0.28175124088E+03 -0.46673864205E+03 -0.12561039253E+04  0.13693238780E+04  0.46999998093E+01 0. -1.
</event>
<event>
 5   0  0.6993678E-06  0.2688571E+04  0.7818609E-02  0.8338723E-01
       -1   -1    0    0    0  501  0.00000000000E+00  0.00000000000E+00  0.14276285584E+04  0.14276285584E+04  0.50400001928E-02 0.  1.
        1   -1    0    0  501    0  0.00000000000E+00  0.00000000000E+00 -0.12658080717E+04  0.12658080717E+04  0.50400001928E-02 0. -1.
    10030    2    1    2    0    0  0.00000000000E+00  0.00000000000E+00  0.16182048669E+03  0.26934366302E+04  0.26885711839E+04 0.  0.
        1    1    3    3  502    0  0.82920915689E+02 -0.13249400516E+04 -0.13104232055E+03  0.13339842984E+04  0.50400001928E-02 0. -1.
       -1    1    3    3    0  502 -0.82920915689E+02  0.13249400516E+04  0.29286280724E+03  0.13594523318E+04  0.50400001928E-02 0.  1.
</event>
<event>
 5   0  0.5840500E-06  0.2597453E+04  0.7818609E-02  0.8369067E-01
        3   -1    0    0  501    0  0.00000000000E+00  0.00000000000E+00  0.58375135527E+03  0.58375136400E+03  0.10100000352E+00 0. -1.
       -3   -1    0    0    0  501  0.00000000000E+00  0.00000000000E+00 -0.28893990411E+04  0.28893990429E+04  0.10100000352E+00 0.  1.
    10030    2    1    2    0    0  0.00000000000E+00  0.00000000000E+00 -0.23056476858E+04  0.34731504069E+04  0.25974530790E+04 0.  0.
        5    1    3    3  502    0 -0.30200232097E+03  0.11762786726E+04 -0.17682433679E+04  0.21451208860E+04  0.46999998093E+01 0. -1.
       -5    1    3    3    0  502  0.30200232097E+03 -0.11762786726E+04 -0.53740431795E+03  0.13280295209E+04  0.46999998093E+01 0.  1.
</event>
<event>
 5   0  0.1702345E-05  0.2580978E+04  0.7818609E-02  0.8374691E-01
        2   -1    0    0  501    0  0.00000000000E+00  0.00000000000E+00  0.16244972865E+04  0.16244972865E+04  0.25500000920E-02 0. -1.
       -2   -1    0    0    0  501  0.00000000000E+00  0.00000000000E+00 -0.10251552684E+04  0.10251552684E+04  0.25500000920E-02 0.  1.
    10030    2    1    2    0    0  0.00000000000E+00  0.00000000000E+00  0.59934201804E+03  0.26496525549E+04  0.25809780718E+04 0.  0.
        1    1    3    3  502    0 -0.11954394462E+04 -0.28783868066E+03  0.70180183464E+03  0.14157868451E+04  0.50400001928E-02 0. -1.
       -1    1    3    3    0  502  0.11954394462E+04  0.28783868066E+03 -0.10245981660E+03  0.12338657098E+04  0.50400001928E-02 0.  1.
</event>
<event>
 5   0  0.6993678E-06  0.2550027E+04  0.7818609E-02  0.8385377E-01
        1   -1    0    0  501    0  0.00000000000E+00  0.00000000000E+00  0.18658946547E+04  0.18658946547E+04  0.50400001928E-02 0. -1.
       -1   -1    0    0    0  501  0.00000000000E+00  0.00000000000E+00 -0.87124951045E+03  0.87124951046E+03  0.50400001928E-02 0.  1.
    10030    2    1    2    0    0  0.00000000000E+00  0.00000000000E+00  0.99464514423E+03  0.27371441652E+04  0.25500272975E+04 0.  0.
        1    1    3    3  502    0 -0.16875363232E+03 -0.83133104770E+03  0.15190472600E+04  0.17398544989E+04  0.50400001928E-02 0. -1.
       -1    1    3    3    0  502  0.16875363232E+03  0.83133104770E+03 -0.52440211578E+03  0.99728966622E+03  0.50400001928E-02 0.  1.
</event>
<event>
 5   0  0.1677971E-05  0.2577647E+04  0.7818609E-02  0.8375834E-01
       -2   -1    0    0    0  501  0.00000000000E+00  0.00000000000E+00  0.77071238911E+03  0.77071238912E+03  0.25500000920E-02 0. -1.
        2   -1    0    0  501    0  0.00000000000E+00  0.00000000000E+00 -0.21552352241E+04  0.21552352241E+04  0.25500000920E-02 0.  1.
    10030    2    1    2    0    0  0.00000000000E+00  0.00000000000E+00 -0.13845228349E+04  0.29259476132E+04  0.25776473682E+04 0.  0.
        4    1    3    3  502    0  0.77092548665E+03 -0.78619715096E+03  0.68044827850E+02  0.11032061356E+04  0.12699999809E+01 0. -1.
       -4    1    3    3    0  502 -0.77092548665E+03  0.78619715096E+03 -0.14525676628E+04  0.18227414776E+04  0.12699999809E+01 0.  1.
</event>
<event>
 5   0  0.1869956E-05  0.2583763E+04  0.7818609E-02  0.8373737E-01
        2   -1    0    0  501    0  0.00000000000E+00  0.00000000000E+00  0.19840691748E+04  0.19840691748E+04  0.25500000920E-02 0. -1.
       -2   -1    0    0    0  501  0.00000000000E+00  0.00000000000E+00 -0.84117950819E+03  0.84117950820E+03  0.25500000920E-02 0.  1.
    10030    2    1    2    0    0  0.00000000000E+00  0.00000000000E+00  0.11428896666E+04  0.28252486830E+04  0.25837634046E+04 0.  0.
        5    1    3    3  502    0  0.56873921546E+03  0.11597673690E+04  0.54926081575E+03  0.14036503051E+04  0.46999998093E+01 0.  1.
       -5    1    3    3    0  502 -0.56873921546E+03 -0.11597673690E+04  0.59362885084E+03  0.14215983779E+04  0.46999998093E+01 0. -1.
</event>
<event>
 5   0  0.7138294E-06  0.2592583E+04  0.7818609E-02  0.8370725E-01
       -1   -1    0    0    0  501  0.00000000000E+00  0.00000000000E+00  0.12826454092E+04  0.12826454092E+04  0.50400001928E-02 0. -1.
        1   -1    0    0  501    0  0.00000000000E+00  0.00000000000E+00 -0.13100827669E+04  0.13100827670E+04  0.50400001928E-02 0.  1.
    10030    2    1    2    0    0  0.00000000000E+00  0.00000000000E+00 -0.27437357782E+02  0.25927281761E+04  0.25925829951E+04 0.  0.
        2    1    3    3  502    0  0.65957997750E+03  0.10397642701E+04 -0.41897730591E+03  0.13006527081E+04  0.25500000920E-02 0.  1.
       -2    1    3    3    0  502 -0.65957997750E+03 -0.10397642701E+04  0.39153994812E+03  0.12920754681E+04  0.25500000920E-02 0. -1.
</event>
<event>
 5   0  0.6993678E-06  0.2609237E+04  0.7818609E-02  0.8365070E-01
        1   -1    0    0  501    0  0.00000000000E+00  0.00000000000E+00  0.19249058789E+04  0.19249058789E+04  0.50400001928E-02 0.  1.
       -1   -1    0    0    0  501  0.00000000000E+00  0.00000000000E+00 -0.88421438739E+03  0.88421438740E+03  0.50400001928E-02 0. -1.
    10030    2    1    2    0    0  0.00000000000E+00  0.00000000000E+00  0.10406914915E+04  0.28091202663E+04  0.26092370321E+04 0.  0.
        1    1    3    3  502    0 -0.75810835114E+03 -0.61156525687E+03  0.14547561200E+04  0.17507300489E+04  0.50400001928E-02 0.  1.
       -1    1    3    3    0  502  0.75810835114E+03  0.61156525687E+03 -0.41406462856E+03  0.10583902173E+04  0.50400001928E-02 0. -1.
</event>
<event>
 5   0  0.1681731E-05  0.2504255E+04  0.7818609E-02  0.8401471E-01
        2   -1    0    0  501    0  0.00000000000E+00  0.00000000000E+00  0.75015109733E+03  0.75015109734E+03  0.25500000920E-02 0. -1.
       -2   -1    0    0    0  501  0.00000000000E+00  0.00000000000E+00 -0.20900095711E+04  0.20900095711E+04  0.25500000920E-02 0.  1.
    10030    2    1    2    0    0  0.00000000000E+00  0.00000000000E+00 -0.13398584738E+04  0.28401606685E+04  0.25042547580E+04 0.  0.
        2    1    3    3  502    0 -0.76459833275E+03  0.40252859477E+01  0.45463556972E+03  0.88956186667E+03  0.25500000920E-02 0. -1.
       -2    1    3    3    0  502  0.76459833275E+03 -0.40252859477E+01 -0.17944940435E+04  0.19505988018E+04  0.25500000920E-02 0.  1.
</event>
<event>
 5   0  0.6984287E-06  0.2595223E+04  0.7818609E-02  0.8369826E-01
        1   -1    0    0  501    0  0.00000000000E+00  0.00000000000E+00  0.11995467159E+04  0.11995467159E+04  0.50400001928E-02 0. -1.
       -1   -1    0    0    0  501  0.00000000000E+00  0.00000000000E+00 -0.14036928069E+04  0.14036928069E+04  0.50400001928E-02 0.  1.
    10030    2    1    2    0    0  0.00000000000E+00  0.00000000000E+00 -0.20414609108E+03  0.26032395228E+04  0.25952226083E+04 0.  0.
        3    1    3    3  502    0  0.11896320581E+04 -0.22341567611E+03  0.36697820769E+03  0.12648367535E+04  0.10100000352E+00 0. -1.
       -3    1    3    3    0  502 -0.11896320581E+04  0.22341567611E+03 -0.57112429877E+03  0.13384027693E+04  0.10100000352E+00 0.  1.
</event>
<event>
 5   0  0.6984287E-06  0.2626163E+04  0.7818609E-02  0.8359368E-01
        1   -1    0    0  501    0  0.00000000000E+00  0.00000000000E+00  0.16427063577E+04  0.16427063577E+04  0.50400001928E-02 0. -1.
       -1   -1    0    0    0  501  0.00000000000E+00  0.00000000000E+00 -0.10495988687E+04  0.10495988687E+04  0.50400001928E-02 0.  1.
    10030    2    1    2    0    0  0.00000000000E+00  0.00000000000E+00  0.59310748901E+03  0.26923052265E+04  0.26261627785E+04 0.  0.
        3    1    3    3  502    0  0.21274308143E+03 -0.81727387078E+03 -0.73424845465E+03  0.11190697038E+04  0.10100000352E+00 0.  1.
       -3    1    3    3    0  502 -0.21274308143E+03  0.81727387078E+03  0.13273559437E+04  0.15732355227E+04  0.10100000352E+00 0. -1.
</event>
<event>
 5   0  0.1681731E-05  0.2630360E+04  0.7818609E-02  0.8357961E-01
        2   -1    0    0  501    0  0.00000000000E+00  0.00000000000E+00  0.15064933231E+04  0.15064933231E+04  0.25500000920E-02 0.  1.
       -2   -1    0    0    0  501  0.00000000000E+00  0.00000000000E+00 -0.11481623097E+04  0.11481623097E+04  0.25500000920E-02 0. -1.
    10030    2    1    2    0    0  0.00000000000E+00  0.00000000000E+00  0.35833101331E+03  0.26546556328E+04  0.26303603201E+04 0.  0.
        2    1    3    3  502    0 -0.64304376498E+03 -0.63511202744E+03  0.11434096619E+04  0.14574835251E+04  0.25500000920E-02 0.  1.
       -2    1    3    3    0  502  0.64304376498E+03  0.63511202744E+03 -0.78507864855E+03  0.11971721077E+04  0.25500000920E-02 0. -1.
</event>
<event>
 5   0  0.6706225E-06  0.2580131E+04  0.7818609E-02  0.8374982E-01
       -1   -1    0    0    0  501  0.00000000000E+00  0.00000000000E+00  0.12162569248E+04  0.12162569248E+04  0.50400001928E-02 0.  1.
        1   -1    0    0  501    0  0.00000000000E+00  0.00000000000E+00 -0.13683530036E+04  0.13683530036E+04  0.50400001928E-02 0. -1.
    10030    2    1    2    0    0  0.00000000000E+00  0.00000000000E+00 -0.15209607882E+03  0.25846099285E+04  0.25801308620E+04 0.  0.
        5    1    3    3  502    0  0.94637871303E+03  0.20464653257E+03  0.77791872905E+03  0.12420517343E+04  0.46999998093E+01 0.  1.
       -5    1    3    3    0  502 -0.94637871303E+03 -0.20464653257E+03 -0.93001480787E+03  0.13425581941E+04  0.46999998093E+01 0. -1.
</event>
<event>
 5   0  0.1720129E-05  0.2243094E+04  0.7818609E-02  0.8500702E-01
        2   -1    0    0  501    0  0.00000000000E+00  0.00000000000E+00  0.18564924003E+04  0.18564924003E+04  0.25500000920E-02 0.  1.
       -2   -1    0    0    0  501  0.00000000000E+00  0.00000000000E+00 -0.67755092486E+03  0.67755092487E+03  0.25500000920E-02 0. -1.
    10030    2    1    2    0    0  0.00000000000E+00  0.00000000000E+00  0.11789414755E+04  0.25340433252E+04  0.22430944187E+04 0.  0.
        3    1    3    3  502    0 -0.58122567517E+03  0.74599871449E+03 -0.91670330908E+02  0.95012674274E+03  0.10100000352E+00 0. -1.
       -3    1    3    3    0  502  0.58122567517E+03 -0.74599871449E+03  0.12706118064E+04  0.15839165825E+04  0.10100000352E+00 0.  1.
</event>
<event>
 5   0  0.1720129E-05  0.2615970E+04  0.7818609E-02  0.8362797E-01
        2   -1    0    0  501    0  0.00000000000E+00  0.00000000000E+00  0.15786017101E+04  0.15786017101E+04  0.25500000920E-02 0. -1.
       -2   -1    0    0    0  501  0.00000000000E+00  0.00000000000E+00 -0.10837592544E+04  0.10837592544E+04  0.25500000920E-02 0.  1.
    10030    2    1    2    0    0  0.00000000000E+00  0.00000000000E+00  0.49484245566E+03  0.26623609645E+04  0.26159695812E+04 0.  0.
        3    1    3    3  502    0  0.11369263583E+04  0.58143617077E+03 -0.40715469523E+02  0.12776256590E+04  0.10100000352E+00 0.  1.
       -3    1    3    3    0  502 -0.11369263583E+04 -0.58143617077E+03  0.53555792519E+03  0.13847353055E+04  0.10100000352E+00 0. -1.
</event>
<event>
 5   0  0.1681731E-05  0.2612430E+04  0.7818609E-02  0.8363991E-01
       -2   -1    0    0    0  501  0.00000000000E+00  0.00000000000E+00  0.15541093376E+04  0.15541093376E+04  0.25500000920E-02 0. -1.
        2   -1    0    0  501    0  0.00000000000E+00  0.00000000000E+00 -0.10978622264E+04  0.10978622264E+04  0.25500000920E-02 0.  1.
    10030    2    1    2    0    0  0.00000000000E+00  0.00000000000E+00  0.45624711122E+03  0.26519715640E+04  0.26124302383E+04 0.  0.
        2    1    3    3  502    0 -0.29821913032E+03  0.89550361747E+03  0.11447504996E+04  0.14836829462E+04  0.25500000920E-02 0. -1.
       -2    1    3    3    0  502  0.29821913032E+03 -0.89550361747E+03 -0.68850338839E+03  0.11682886178E+04  0.25500000920E-02 0.  1.
</event>
<event>
 5   0  0.6918420E-06  0.2613790E+04  0.7818609E-02  0.8363532E-01
       -1   -1    0    0    0  501  0.00000000000E+00  0.00000000000E+00  0.87665250199E+03  0.87665250200E+03  0.50400001928E-02 0. -1.
        1   -1    0    0  501    0  0.00000000000E+00  0.00000000000E+00 -0.19482911423E+04  0.19482911423E+04  0.50400001928E-02 0.  1.
    10030    2    1    2    0    0  0.00000000000E+00  0.00000000000E+00 -0.10716386403E+04  0.28249436443E+04  0.26137898190E+04 0.  0.
        4    1    3    3  502    0 -0.60530873446E+03 -0.10029854507E+04 -0.11619231468E+04  0.16499834819E+04  0.12699999809E+01 0.  1.
       -4    1    3    3    0  502  0.60530873446E+03  0.10029854507E+04  0.90284506508E+02  0.11749601625E+04  0.12699999809E+01 0. -1.
</event>
<event>
 5   0  0.1702345E-05  0.2302461E+04  0.7818609E-02  0.8476951E-01
        2   -1    0    0  501    0  0.00000000000E+00  0.00000000000E+00  0.17893916568E+04  0.17893916568E+04  0.25500000920E-02 0. -1.
       -2   -1    0    0    0  501  0.00000000000E+00  0.00000000000E+00 -0.74066064572E+03  0.74066064572E+03  0.25500000920E-02 0.  1.
    10030    2    1    2    0    0  0.00000000000E+00  0.00000000000E+00  0.10487310111E+04  0.25300523026E+04  0.23024612744E+04 0.  0.
        1    1    3    3  502    0 -0.28071907641E+03 -0.42308984854E+02  0.17503254088E+04  0.17731983213E+04  0.50400001928E-02 0. -1.
       -1    1    3    3    0  502  0.28071907641E+03  0.42308984854E+02 -0.70159439767E+03  0.75685398124E+03  0.50400001928E-02 0.  1.
</event>
<event>
 5   0  0.1681731E-05  0.2571441E+04  0.7818609E-02  0.8377967E-01
        2   -1    0    0  501    0  0.00000000000E+00  0.00000000000E+00  0.24436262902E+04  0.24436262902E+04  0.25500000920E-02 0.  1.
       -2   -1    0    0    0  501  0.00000000000E+00  0.00000000000E+00 -0.67648521649E+03  0.67648521650E+03  0.25500000920E-02 0. -1.
    10030    2    1    2    0    0  0.00000000000E+00  0.00000000000E+00  0.17671410737E+04  0.31201115067E+04  0.25714408879E+04 0.  0.
        2    1    3    3  502    0  0.22289076757E+03 -0.59752818547E+03 -0.47104099809E+03  0.79284289023E+03  0.25500000920E-02 0. -1.
       -2    1    3    3    0  502 -0.22289076757E+03  0.59752818547E+03  0.22381820718E+04  0.23272686165E+04  0.25500000920E-02 0.  1.
</event>
<event>
 5   0  0.1677971E-05  0.2602795E+04  0.7818609E-02  0.8367252E-01
       -2   -1    0    0    0  501  0.00000000000E+00  0.00000000000E+00  0.12938528172E+04  0.12938528172E+04  0.25500000920E-02 0. -1.
        2   -1    0    0  501    0  0.00000000000E+00  0.00000000000E+00 -0.13089866660E+04  0.13089866660E+04  0.25500000920E-02 0.  1.
    10030    2    1    2    0    0  0.00000000000E+00  0.00000000000E+00 -0.15133848835E+02  0.26028394832E+04  0.26027954860E+04 0.  0.
        4    1    3    3  502    0  0.12111625850E+04  0.24140391900E+03 -0.41799293242E+03  0.13038061067E+04  0.12699999809E+01 0.  1.
       -4    1    3    3    0  502 -0.12111625850E+04 -0.24140391900E+03  0.40285908359E+03  0.12990333766E+04  0.12699999809E+01 0. -1.
</event>
<event>
 5   0  0.1720129E-05  0.2557386E+04  0.7818609E-02  0.8382822E-01
       -2   -1    0    0    0  501  0.00000000000E+00  0.00000000000E+00  0.61970280021E+03  0.61970280021E+03  0.25500000920E-02 0.  1.
        2   -1    0    0  501    0  0.00000000000E+00  0.00000000000E+00 -0.26384523819E+04  0.26384523819E+04  0.25500000920E-02 0. -1.
    10030    2    1    2    0    0  0.00000000000E+00  0.00000000000E+00 -0.20187495817E+04  0.32581551821E+04  0.25573864231E+04 0.  0.
        3    1    3    3  502    0 -0.11071783024E+04 -0.77972735559E+02 -0.18182834156E+04  0.21302765385E+04  0.10100000352E+00 0. -1.
       -3    1    3    3    0  502  0.11071783024E+04  0.77972735559E+02 -0.20046616609E+03  0.11278786436E+04  0.10100000352E+00 0.  1.
</event>
<event>
 5   0  0.7138294E-06  0.2534872E+04  0.7818609E-02  0.8390666E-01
       -1   -1    0    0    0  501  0.00000000000E+00  0.00000000000E+00  0.85874442085E+03  0.85874442087E+03  0.50400001928E-02 0. -1.
        1   -1    0    0  501    0  0.00000000000E+00  0.00000000000E+00 -0.18706318164E+04  0.18706318164E+04  0.50400001928E-02 0.  1.
    10030    2    1    2    0    0  0.00000000000E+00  0.00000000000E+00 -0.10118873955E+04  0.27293762372E+04  0.25348724905E+04 0.  0.
        2    1    3    3  502    0  0.51963700996E+03  0.46785084253E+02 -0.17496419292E+04  0.18257760943E+04  0.25500000920E-02 0.  1.
       -2    1    3    3    0  502 -0.51963700996E+03 -0.46785084253E+02  0.73775453370E+03  0.90360014289E+03  0.25500000920E-02 0. -1.
</event>
<event>
 5   0  0.1702345E-05  0.2596128E+04  0.7818609E-02  0.8369518E-01
       -2   -1    0    0    0  501  0.00000000000E+00  0.00000000000E+00  0.73311361427E+03  0.73311361427E+03  0.25500000920E-02 0. -1.
        2   -1    0    0  501    0  0.00000000000E+00  0.00000000000E+00 -0.22983747502E+04  0.22983747502E+04  0.25500000920E-02 0.  1.
    10030    2    1    2    0    0  0.00000000000E+00  0.00000000000E+00 -0.15652611359E+04  0.30314883644E+04  0.25961277473E+04 0.  0.
        1    1    3    3  502    0 -0.55173061928E+03  0.60848810476E+02 -0.21528017454E+04  0.22232104284E+04  0.50400001928E-02 0.  1.
       -1    1    3    3    0  502  0.55173061928E+03 -0.60848810476E+02  0.58754060951E+03  0.80827793601E+03  0.50400001928E-02 0. -1.
</event>
<event>
 5   0  0.1677971E-05  0.2627862E+04  0.7818609E-02  0.8358798E-01
        2   -1    0    0  501    0  0.00000000000E+00  0.00000000000E+00  0.16384032991E+04  0.16384032991E+04  0.25500000920E-02 0. -1.
       -2   -1    0    0    0  501  0.00000000000E+00  0.00000000000E+00 -0.10537181124E+04  0.10537181124E+04  0.25500000920E-02 0.  1.
    10030    2    1    2    0    0  0.00000000000E+00  0.00000000000E+00  0.58468518678E+03  0.26921214115E+04  0.26278624253E+04 0.  0.
        4    1    3    3  502    0 -0.64516351945E+03  0.11102056582E+04  0.57776086321E+03  0.14080489332E+04  0.12699999809E+01 0. -1.
       -4    1    3    3    0  502  0.64516351945E+03 -0.11102056582E+04  0.69243235652E+01  0.12840724783E+04  0.12699999809E+01 0.  1.
</event>
<event>
 5   0  0.6993678E-06  0.2601585E+04  0.7818609E-02  0.8367663E-01
        1   -1    0    0  501    0  0.00000000000E+00  0.00000000000E+00  0.23408224545E+04  0.23408224545E+04  0.50400001928E-02 0. -1.
       -1   -1    0    0    0  501  0.00000000000E+00  0.00000000000E+00 -0.72284911257E+03  0.72284911258E+03  0.50400001928E-02 0.  1.
    10030    2    1    2    0    0  0.00000000000E+00  0.00000000000E+00  0.16179733419E+04  0.30636715670E+04  0.26015852351E+04 0.  0.
        1    1    3    3  502    0 -0.10882604496E+04  0.61701838455E+03  0.12287191527E+04  0.17535031363E+04  0.50400001928E-02 0. -1.
       -1    1    3    3    0  502  0.10882604496E+04 -0.61701838455E+03  0.38925418920E+03  0.13101684307E+04  0.50400001928E-02 0.  1.
</event>
<event>
 5   0  0.7138294E-06  0.2288420E+04  0.7818609E-02  0.8482501E-01
        1   -1    0    0  501    0  0.00000000000E+00  0.00000000000E+00  0.12201387500E+04  0.12201387500E+04  0.50400001928E-02 0. -1.
       -1   -1    0    0    0  501  0.00000000000E+00  0.00000000000E+00 -0.10730058452E+04  0.10730058452E+04  0.50400001928E-02 0.  1.
    10030    2    1    2    0    0  0.00000000000E+00  0.00000000000E+00  0.14713290484E+03  0.22931445952E+04  0.22884195513E+04 0.  0.
        2    1    3    3  502    0  0.33928376508E+02  0.77624362986E+03  0.91524758893E+03  0.12005763019E+04  0.25500000920E-02 0. -1.
       -2    1    3    3    0  502 -0.33928376508E+02 -0.77624362986E+03 -0.76811468409E+03  0.10925682933E+04  0.25500000920E-02 0.  1.
</event>
<event>
 5   0  0.6706225E-06  0.2628910E+04  0.7818609E-02  0.8358447E-01
        1   -1    0    0  501    0  0.00000000000E+00  0.00000000000E+00  0.12099591788E+04  0.12099591788E+04  0.50400001928E-02 0.  1.
       -1   -1    0    0    0  501  0.00000000000E+00  0.00000000000E+00 -0.14279753543E+04  0.14279753543E+04  0.50400001928E-02 0. -1.
    10030    2    1    2    0    0  0.00000000000E+00  0.00000000000E+00 -0.21801617548E+03  0.26379345331E+04  0.26289099544E+04 0.  0.
        5    1    3    3  502    0 -0.57928937978E+03  0.88850696717E+03 -0.88804232523E+03  0.13833517548E+04  0.46999998093E+01 0.  1.
       -5    1    3    3    0  502  0.57928937978E+03 -0.88850696717E+03  0.67002614975E+03  0.12545827783E+04  0.46999998093E+01 0. -1.
</event>
<event>
 5   0  0.5840500E-06  0.2590673E+04  0.7818609E-02  0.8371376E-01
       -3   -1    0    0    0  501  0.00000000000E+00  0.00000000000E+00  0.16841043677E+04  0.16841043707E+04  0.10100000352E+00 0. -1.
        3   -1    0    0  501    0  0.00000000000E+00  0.00000000000E+00 -0.99631369894E+03  0.99631370406E+03  0.10100000352E+00 0.  1.
    10030    2    1    2    0    0  0.00000000000E+00  0.00000000000E+00  0.68779066875E+03  0.26804180748E+04  0.25906727025E+04 0.  0.
        3    1    3    3  502    0 -0.46828067227E+03 -0.47694989802E+03 -0.80410400707E+03  0.10456343805E+04  0.10100000352E+00 0.  1.
       -3    1    3    3    0  502  0.46828067227E+03  0.47694989802E+03  0.14918946758E+04  0.16347836943E+04  0.10100000352E+00 0. -1.
</event>
<event>
 5   0  0.6984287E-06  0.2591500E+04  0.7818609E-02  0.8371094E-01
        1   -1    0    0  501    0  0.00000000000E+00  0.00000000000E+00  0.22328388282E+04  0.22328388282E+04  0.50400001928E-02 0.  1.
       -1   -1    0    0    0  501  0.00000000000E+00  0.00000000000E+00 -0.75194345765E+03  0.75194345767E+03  0.50400001928E-02 0. -1.
    10030    2    1    2    0    0  0.00000000000E+00  0.00000000000E+00  0.14808953705E+04  0.29847822858E+04  0.25915003753E+04 0.  0.
        3    1    3    3  502    0  0.90924696044E+03  0.75319877252E+03  0.13552430117E+04  0.17974209459E+04  0.10100000352E+00 0.  1.
       -3    1    3    3    0  502 -0.90924696044E+03 -0.75319877252E+03  0.12565235882E+03  0.11873613399E+04  0.10100000352E+00 0. -1.
</event>
<event>
 5   0  0.1677971E-05  0.2608719E+04  0.7818609E-02  0.8365246E-01
        2   -1    0    0  501    0  0.00000000000E+00  0.00000000000E+00  0.15175339416E+04  0.15175339416E+04  0.25500000920E-02 0. -1.
       -2   -1    0    0    0  501  0.00000000000E+00  0.00000000000E+00 -0.11211306545E+04  0.11211306545E+04  0.25500000920E-02 0.  1.
    10030    2    1    2    0    0  0.00000000000E+00  0.00000000000E+00  0.39640328717E+03  0.26386645961E+04  0.26087190889E+04 0.  0.
        4    1    3    3  502    0 -0.16559218201E+03 -0.70384718476E+03 -0.89986146664E+03  0.11543716483E+04  0.12699999809E+01 0.  1.
       -4    1    3    3    0  502  0.16559218201E+03  0.70384718476E+03  0.12962647538E+04  0.14842929479E+04  0.12699999809E+01 0. -1.
</event>
<event>
 5   0  0.6993678E-06  0.2627336E+04  0.7818609E-02  0.8358975E-01
        1   -1    0    0  501    0  0.00000000000E+00  0.00000000000E+00  0.27757549796E+04  0.27757549796E+04  0.50400001928E-02 0. -1.
       -1   -1    0    0    0  501  0.00000000000E+00  0.00000000000E+00 -0.62171341924E+03  0.62171341926E+03  0.50400001928E-02 0.  1.
    10030    2    1    2    0    0  0.00000000000E+00  0.00000000000E+00  0.21540415603E+04  0.33974683988E+04  0.26273363845E+04 0.  0.
        1    1    3    3  502    0  0.37250932699E+03 -0.82776271348E+03 -0.15094875289E+03  0.92018467416E+03  0.50400001928E-02 0.  1.
       -1    1    3    3    0  502 -0.37250932699E+03  0.82776271348E+03  0.23049903132E+04  0.24772837247E+04  0.50400001928E-02 0. -1.
</event>
<event>
 5   0  0.1869956E-05  0.2499849E+04  0.7818609E-02  0.8403039E-01
       -2   -1    0    0    0  501  0.00000000000E+00  0.00000000000E+00  0.10792898931E+04  0.10792898931E+04  0.25500000920E-02 0.  1.
        2   -1    0    0  501    0  0.00000000000E+00  0.00000000000E+00 -0.14475361782E+04  0.14475361782E+04  0.25500000920E-02 0. -1.
    10030    2    1    2    0    0  0.00000000000E+00  0.00000000000E+00 -0.36824628510E+03  0.25268260714E+04  0.24998489291E+04 0.  0.
        5    1    3    3  502    0  0.27793269900E+03 -0.40042693724E+03 -0.13475001539E+04  0.14329574564E+04  0.46999998093E+01 0. -1.
       -5    1    3    3    0  502 -0.27793269900E+03  0.40042693724E+03  0.97925386876E+03  0.10938686149E+04  0.46999998093E+01 0.  1.
</event>
<event>
 5   0  0.1869956E-05  0.2604616E+04  0.7818609E-02  0.8366635E-01
       -2   -1    0    0    0  501  0.00000000000E+00  0.00000000000E+00  0.95208262313E+03  0.95208262313E+03  0.25500000920E-02 0.  1.
        2   -1    0    0  501    0  0.00000000000E+00  0.00000000000E+00 -0.17813643353E+04  0.17813643353E+04  0.25500000920E-02 0. -1.
    10030    2    1    2    0    0  0.00000000000E+00  0.00000000000E+00 -0.82928171219E+03  0.27334469585E+04  0.26046159250E+04 0.  0.
        5    1    3    3  502    0 -0.33011436953E+03 -0.59091738656E+03  0.75296589958E+03  0.10124912793E+04  0.46999998093E+01 0.  1.
       -5    1    3    3    0  502  0.33011436953E+03  0.59091738656E+03 -0.15822476118E+04  0.17209556792E+04  0.46999998093E+01 0. -1.
</event>
<event>
 5   0  0.1869956E-05  0.2566456E+04  0.7818609E-02  0.8379686E-01
        2   -1    0    0  501    0  0.00000000000E+00  0.00000000000E+00  0.23774867123E+04  0.23774867123E+04  0.25500000920E-02 0.  1.
       -2   -1    0    0    0  501  0.00000000000E+00  0.00000000000E+00 -0.69261108209E+03  0.69261108210E+03  0.25500000920E-02 0. -1.
    10030    2    1    2    0    0  0.00000000000E+00  0.00000000000E+00  0.16848756302E+04  0.30700977944E+04  0.25664556450E+04 0.  0.
        5    1    3    3  502    0  0.22928534820E+03 -0.71879770302E+03 -0.39923987039E+03  0.85361377266E+03  0.46999998093E+01 0. -1.
       -5    1    3    3    0  502 -0.22928534820E+03  0.71879770302E+03  0.20841155006E+04  0.22164840217E+04  0.46999998093E+01 0.  1.
</event>
<event>
 5   0  0.1681731E-05  0.2616714E+04  0.7818609E-02  0.8362546E-01
        2   -1    0    0  501    0  0.00000000000E+00  0.00000000000E+00  0.14449674732E+04  0.14449674732E+04  0.25500000920E-02 0. -1.
       -2   -1    0    0    0  501  0.00000000000E+00  0.00000000000E+00 -0.11846615950E+04  0.11846615950E+04  0.25500000920E-02 0.  1.
    10030    2    1    2    0    0  0.00000000000E+00  0.00000000000E+00  0.26030587824E+03  0.26296290683E+04  0.26167135660E+04 0.  0.
        2    1    3    3  502    0 -0.79327104215E+03  0.47624999550E+03  0.10597616947E+04  0.14068361148E+04  0.25500000920E-02 0. -1.
       -2    1    3    3    0  502  0.79327104215E+03 -0.47624999550E+03 -0.79945581642E+03  0.12227929534E+04  0.25500000920E-02 0.  1.
</event>
<event>
 5   0  0.6918420E-06  0.2611757E+04  0.7818609E-02  0.8364218E-01
        1   -1    0    0  501    0  0.00000000000E+00  0.00000000000E+00  0.17412350886E+04  0.17412350886E+04  0.50400001928E-02 0. -1.
       -1   -1    0    0    0  501  0.00000000000E+00  0.00000000000E+00 -0.97937332130E+03  0.97937332131E+03  0.50400001928E-02 0.  1.
    10030    2    1    2    0    0  0.00000000000E+00  0.00000000000E+00  0.76186176734E+03  0.27206084100E+04  0.26117574098E+04 0.  0.
        4    1    3    3  502    0 -0.11162150671E+04  0.67560290637E+03  0.43743374894E+03  0.13761269058E+04  0.12699999809E+01 0. -1.
       -4    1    3    3    0  502  0.11162150671E+04 -0.67560290637E+03  0.32442801840E+03  0.13444815042E+04  0.12699999809E+01 0.  1.
</event>
<event>
 5   0  0.1702345E-05  0.2589332E+04  0.7818609E-02  0.8371834E-01
       -2   -1    0    0    0  501  0.00000000000E+00  0.00000000000E+00  0.79948615507E+03  0.79948615508E+03  0.25500000920E-02 0.  1.
        2   -1    0    0  501    0  0.00000000000E+00  0.00000000000E+00 -0.20965465977E+04  0.20965465977E+04  0.25500000920E-02 0. -1.
    10030    2    1    2    0    0  0.00000000000E+00  0.00000000000E+00 -0.12970604426E+04  0.28960327527E+04  0.25893319434E+04 0.  0.
        1    1    3    3  502    0 -0.46975633554E+02  0.98473245666E+03  0.29007029526E+03  0.10276407434E+04  0.50400001928E-02 0.  1.
       -1    1    3    3    0  502  0.46975633554E+02 -0.98473245666E+03 -0.15871307379E+04  0.18683920093E+04  0.50400001928E-02 0. -1.
</event>
<event>
 5   0  0.1869956E-05  0.2571518E+04  0.7818609E-02  0.8377941E-01
        2   -1    0    0  501    0  0.00000000000E+00  0.00000000000E+00  0.28088788079E+04  0.28088788079E+04  0.25500000920E-02 0.  1.
       -2   -1    0    0    0  501  0.00000000000E+00  0.00000000000E+00 -0.58855393971E+03  0.58855393971E+03  0.25500000920E-02 0. -1.
    10030    2    1    2    0    0  0.00000000000E+00  0.00000000000E+00  0.22203248681E+04  0.33974327476E+04  0.25715183752E+04 0.  0.
        5    1    3    3  502    0 -0.18183331268E+03  0.70361086044E+03 -0.29117246417E+03  0.78290171185E+03  0.46999998093E+01 0. -1.
       -5    1    3    3    0  502  0.18183331268E+03 -0.70361086044E+03  0.25114973323E+04  0.26145310357E+04  0.46999998093E+01 0.  1.
</event>
<event>
 5   0  0.1677971E-05  0.2621092E+04  0.7818609E-02  0.8361072E-01
        2   -1    0    0  501    0  0.00000000000E+00  0.00000000000E+00  0.12402553564E+04  0.12402553564E+04  0.25500000920E-02 0. -1.
       -2   -1    0    0    0  501  0.00000000000E+00  0.00000000000E+00 -0.13848198448E+04  0.13848198448E+04  0.25500000920E-02 0.  1.
    10030    2    1    2    0    0  0.00000000000E+00  0.00000000000E+00 -0.14456448842E+03  0.26250752012E+04  0.26210915514E+04 0.  0.
        4    1    3    3  502    0  0.45023913962E+03 -0.94933124841E+03 -0.85678848049E+03  0.13557408363E+04  0.12699999809E+01 0.  1.
       -4    1    3    3    0  502 -0.45023913962E+03  0.94933124841E+03  0.71222399207E+03  0.12693343649E+04  0.12699999809E+01 0. -1.
</event>
<event>
 5   0  0.1720129E-05  0.2603499E+04  0.7818609E-02  0.8367013E-01
        2   -1    0    0  501    0  0.00000000000E+00  0.00000000000E+00  0.12894304637E+04  0.12894304637E+04  0.25500000920E-02 0. -1.
       -2   -1    0    0    0  501  0.00000000000E+00  0.00000000000E+00 -0.13141867247E+04  0.13141867247E+04  0.25500000920E-02 0.  1.
    10030    2    1    2    0    0  0.00000000000E+00  0.00000000000E+00 -0.24756261065E+02  0.26036171884E+04  0.26034994894E+04 0.  0.
        3    1    3    3  502    0  0.12876515225E+04 -0.13754096259E+03 -0.14500549657E+03  0.13030696697E+04  0.10100000352E+00 0. -1.
       -3    1    3    3    0  502 -0.12876515225E+04  0.13754096259E+03  0.12024923550E+03  0.13005475188E+04  0.10100000352E+00 0.  1.
</event>
<event>
 5   0  0.1869956E-05  0.2643801E+04  0.7818609E-02  0.8353474E-01
       -2   -1    0    0    0  501  0.00000000000E+00  0.00000000000E+00  0.15759062214E+04  0.15759062214E+04  0.25500000920E-02 0.  1.
        2   -1    0    0  501    0  0.00000000000E+00  0.00000000000E+00 -0.11088351978E+04  0.11088351978E+04  0.25500000920E-02 0. -1.
    10030    2    1    2    0    0  0.00000000000E+00  0.00000000000E+00  0.46707102362E+03  0.26847414192E+04  0.26438005120E+04 0.  0.
        5    1    3    3  502    0  0.12345885118E+04  0.44580727866E+03  0.74764493015E+02  0.13147489276E+04  0.46999998093E+01 0.  1.
       -5    1    3    3    0  502 -0.12345885118E+04 -0.44580727866E+03  0.39230653061E+03  0.13699924916E+04  0.46999998093E+01 0. -1.
</event>
<event>
 5   0  0.6918420E-06  0.2596784E+04  0.7818609E-02  0.8369295E-01
        1   -1    0    0  501    0  0.00000000000E+00  0.00000000000E+00  0.17884942652E+04  0.17884942652E+04  0.50400001928E-02 0.  1.
       -1   -1    0    0    0  501  0.00000000000E+00  0.00000000000E+00 -0.94259255412E+03  0.94259255413E+03  0.50400001928E-02 0. -1.
    10030    2    1    2    0    0  0.00000000000E+00  0.00000000000E+00  0.84590171111E+03  0.27310868194E+04  0.25967836857E+04 0.  0.
        4    1    3    3  502    0 -0.52483266670E+03 -0.15154372200E+03 -0.81584958185E+03  0.98184875659E+03  0.12699999809E+01 0. -1.
       -4    1    3    3    0  502  0.52483266670E+03  0.15154372200E+03  0.16617512930E+04  0.17492380628E+04  0.12699999809E+01 0.  1.
</event>
<event>
 5   0  0.6984287E-06  0.2345381E+04  0.7818609E-02  0.8460240E-01
       -1   -1    0    0    0  501  0.00000000000E+00  0.00000000000E+00  0.61628071556E+03  0.61628071558E+03  0.50400001928E-02 0. -1.
        1   -1    0    0  501    0  0.00000000000E+00  0.00000000000E+00 -0.22314547586E+04  0.22314547586E+04  0.50400001928E-02 0.  1.
    10030    2    1    2    0    0  0.00000000000E+00  0.00000000000E+00 -0.16151740430E+04  0.28477354742E+04  0.23453805963E+04 0.  0.
        3    1    3    3  502    0 -0.94750583663E+03 -0.11503700656E+03  0.19668513446E+02  0.95466626836E+03  0.10100000352E+00 0. -1.
       -3    1    3    3    0  502  0.94750583663E+03  0.11503700656E+03 -0.16348425565E+04  0.18930692058E+04  0.10100000352E+00 0.  1.
</event>
<event>
 5   0  0.6706225E-06  0.2620092E+04  0.7818609E-02  0.8361408E-01
        1   -1    0    0  501    0  0.00000000000E+00  0.00000000000E+00  0.16732640297E+04  0.16732640297E+04  0.50400001928E-02 0.  1.
       -1   -1    0    0    0  501  0.00000000000E+00  0.00000000000E+00 -0.10256721054E+04  0.10256721054E+04  0.50400001928E-02 0. -1.
    10030    2    1    2    0    0  0.00000000000E+00  0.00000000000E+00  0.64759192434E+03  0.26989361351E+04  0.26200917848E+04 0.  0.
        5    1    3    3  502    0 -0.44740583573E+03  0.76364720567E+03  0.13187120642E+04  0.15881916241E+04  0.46999998093E+01 0.  1.
       -5    1    3    3    0  502  0.44740583573E+03 -0.76364720567E+03 -0.67112013985E+03  0.11107445110E+04  0.46999998093E+01 0. -1.
</event>
<event>
 5   0  0.1702345E-05  0.2574049E+04  0.7818609E-02  0.8377070E-01
        2   -1    0    0  501    0  0.00000000000E+00  0.00000000000E+00  0.23576722997E+04  0.23576722997E+04  0.25500000920E-02 0. -1.
       -2   -1    0    0    0  501  0.00000000000E+00  0.00000000000E+00 -0.70257081516E+03  0.70257081517E+03  0.25500000920E-02 0.  1.
    10030    2    1    2    0    0  0.00000000000E+00  0.00000000000E+00  0.16551014845E+04  0.30602431148E+04  0.25740487559E+04 0.  0.
        1    1    3    3  502    0 -0.37406334080E+03  0.14199686802E+03 -0.62675281456E+03  0.74357621266E+03  0.50400001928E-02 0.  1.
       -1    1    3    3    0  502  0.37406334080E+03 -0.14199686802E+03  0.22818542991E+04  0.23166669022E+04  0.50400001928E-02 0. -1.
</event>
<event>
 5   0  0.1869956E-05  0.2580595E+04  0.7818609E-02  0.8374823E-01
        2   -1    0    0  501    0  0.00000000000E+00  0.00000000000E+00  0.13037726375E+04  0.13037726375E+04  0.25500000920E-02 0.  1.
       -2   -1    0    0    0  501  0.00000000000E+00  0.00000000000E+00 -0.12769612790E+04  0.12769612790E+04  0.25500000920E-02 0. -1.
    10030    2    1    2    0    0  0.00000000000E+00  0.00000000000E+00  0.26811358519E+02  0.25807339165E+04  0.25805946406E+04 0.  0.
        5    1    3    3  502    0 -0.32983038593E+03  0.44776941404E+02 -0.12332778320E+04  0.12774151083E+04  0.46999998093E+01 0. -1.
       -5    1    3    3    0  502  0.32983038593E+03 -0.44776941404E+02  0.12600891905E+04  0.13033188083E+04  0.46999998093E+01 0.  1.
</event>
<event>
 5   0  0.6706225E-06  0.2623554E+04  0.7818609E-02  0.8360244E-01
       -1   -1    0    0    0  501  0.00000000000E+00  0.00000000000E+00  0.78253454832E+03  0.78253454834E+03  0.50400001928E-02 0.  1.
        1   -1    0    0  501    0  0.00000000000E+00  0.00000000000E+00 -0.21989564103E+04  0.21989564103E+04  0.50400001928E-02 0. -1.
    10030    2    1    2    0    0  0.00000000000E+00  0.00000000000E+00 -0.14164218620E+04  0.29814909587E+04  0.26235543534E+04 0.  0.
        5    1    3    3  502    0  0.11436968318E+04  0.30241820076E+03 -0.64105549222E+02  0.11847492657E+04  0.46999998093E+01 0.  1.
       -5    1    3    3    0  502 -0.11436968318E+04 -0.30241820076E+03 -0.13523163128E+04  0.17967416929E+04  0.46999998093E+01 0. -1.
</event>
<event>
 5   0  0.6993678E-06  0.2601825E+04  0.7818609E-02  0.8367581E-01
       -1   -1    0    0    0  501  0.00000000000E+00  0.00000000000E+00  0.12928494846E+04  0.12928494846E+04  0.50400001928E-02 0. -1.
        1   -1    0    0  501    0  0.00000000000E+00  0.00000000000E+00 -0.13090260366E+04  0.13090260367E+04  0.50400001928E-02 0.  1.
    10030    2    1    2    0    0  0.00000000000E+00  0.00000000000E+00 -0.16176552042E+02  0.26018755213E+04  0.26018252338E+04 0.  0.
        1    1    3    3  502    0  0.94998167882E+03 -0.88867784556E+03  0.45663560766E+01  0.13008590834E+04  0.50400001928E-02 0. -1.
       -1    1    3    3    0  502 -0.94998167882E+03  0.88867784556E+03 -0.20742908119E+02  0.13010164378E+04  0.50400001928E-02 0.  1.
</event>
<event>
 5   0  0.1677971E-05  0.2601317E+04  0.7818609E-02  0.8367754E-01
       -2   -1    0    0    0  501  0.00000000000E+00  0.00000000000E+00  0.93788337658E+03  0.93788337659E+03  0.25500000920E-02 0. -1.
        2   -1    0    0  501    0  0.00000000000E+00  0.00000000000E+00 -0.18037556871E+04  0.18037556871E+04  0.25500000920E-02 0.  1.
    10030    2    1    2    0    0  0.00000000000E+00  0.00000000000E+00 -0.86587231049E+03  0.27416390637E+04  0.26013169544E+04 0.  0.
        4    1    3    3  502    0  0.10416508228E+04  0.72092759240E+03 -0.12217880540E+03  0.12726752545E+04  0.12699999809E+01 0. -1.
       -4    1    3    3    0  502 -0.10416508228E+04 -0.72092759240E+03 -0.74369350509E+03  0.14689638091E+04  0.12699999809E+01 0.  1.
</event>
<event>
 5   0  0.6993678E-06  0.2601623E+04  0.7818609E-02  0.8367650E-01
        1   -1    0    0  501    0  0.00000000000E+00  0.00000000000E+00  0.13081364416E+04  0.13081364416E+04  0.50400001928E-02 0.  1.
       -1   -1    0    0    0  501  0.00000000000E+00  0.00000000000E+00 -0.12935276255E+04  0.12935276256E+04  0.50400001928E-02 0. -1.
    10030    2    1    2    0    0  0.00000000000E+00  0.00000000000E+00  0.14608816069E+02  0.26016640672E+04  0.26016230513E+04 0.  0.
        1    1    3    3  502    0 -0.98063243639E+03 -0.30996399592E+02 -0.84682255880E+03  0.12960359556E+04  0.50400001928E-02 0. -1.
       -1    1    3    3    0  502  0.98063243639E+03  0.30996399592E+02  0.86143137487E+03  0.13056281116E+04  0.50400001928E-02 0.  1.
</event>
<event>
 5   0  0.1677971E-05  0.2599099E+04  0.7818609E-02  0.8368507E-01
       -2   -1    0    0    0  501  0.00000000000E+00  0.00000000000E+00  0.12841475291E+04  0.12841475291E+04  0.25500000920E-02 0.  1.
        2   -1    0    0  501    0  0.00000000000E+00  0.00000000000E+00 -0.13151358885E+04  0.13151358885E+04  0.25500000920E-02 0. -1.
    10030    2    1    2    0    0  0.00000000000E+00  0.00000000000E+00 -0.30988359372E+02  0.25992834176E+04  0.25990986912E+04 0.  0.
        4    1    3    3  502    0 -0.29289978032E+02 -0.11417683024E+04  0.60449675832E+03  0.12922502478E+04  0.12699999809E+01 0.  1.
       -4    1    3    3    0  502  0.29289978032E+02  0.11417683024E+04 -0.63548511770E+03  0.13070331698E+04  0.12699999809E+01 0. -1.
</event>
<event>
 5   0  0.1702345E-05  0.2547186E+04  0.7818609E-02  0.8386365E-01
       -2   -1    0    0    0  501  0.00000000000E+00  0.00000000000E+00  0.10753509527E+04  0.10753509527E+04  0.25500000920E-02 0.  1.
        2   -1    0    0  501    0  0.00000000000E+00  0.00000000000E+00 -0.15083814102E+04  0.15083814102E+04  0.25500000920E-02 0. -1.
    10030    2    1    2    0    0  0.00000000000E+00  0.00000000000E+00 -0.43303045751E+03  0.25837323629E+04  0.25471862017E+04 0.  0.
        1    1    3    3  502    0 -0.12933707191E+03 -0.21778325440E+03 -0.14825746176E+04  0.15040562226E+04  0.50400001928E-02 0. -1.
       -1    1    3    3    0  502  0.12933707191E+03  0.21778325440E+03  0.10495441601E+04  0.10796761403E+04  0.50400001928E-02 0.  1.
</event>
<event>
 5   0  0.5840500E-06  0.2570479E+04  0.7818609E-02  0.8378298E-01
       -4   -1    0    0    0  501  0.00000000000E+00  0.00000000000E+00  0.11431514235E+04  0.11431521289E+04  0.12699999809E+01 0. -1.
        4   -1    0    0  501    0  0.00000000000E+00  0.00000000000E+00 -0.14449872442E+04  0.14449878023E+04  0.12699999809E+01 0.  1.
    10030    2    1    2    0    0  0.00000000000E+00  0.00000000000E+00 -0.30183582072E+03  0.25881399312E+04  0.25704792240E+04 0.  0.
        5    1    3    3  502    0  0.10421032145E+04  0.23796963472E+03  0.56757446811E+03  0.12102774573E+04  0.46999998093E+01 0. -1.
       -5    1    3    3    0  502 -0.10421032145E+04 -0.23796963472E+03 -0.86941028882E+03  0.13778624739E+04  0.46999998093E+01 0.  1.
</event>
<event>
 5   0  0.6993678E-06  0.2599771E+04  0.7818609E-02  0.8368279E-01
       -1   -1    0    0    0  501  0.00000000000E+00  0.00000000000E+00  0.61372754694E+03  0.61372754696E+03  0.50400001928E-02 0. -1.
        1   -1    0    0  501    0  0.00000000000E+00  0.00000000000E+00 -0.27531790347E+04  0.27531790347E+04  0.50400001928E-02 0.  1.
    10030    2    1    2    0    0  0.00000000000E+00  0.00000000000E+00 -0.21394514878E+04  0.33669065817E+04  0.25997706170E+04 0.  0.
        1    1    3    3  502    0 -0.21087376656E+02 -0.25046879165E+03  0.58195488840E+03  0.63391701760E+03  0.50400001928E-02 0. -1.
       -1    1    3    3    0  502  0.21087376656E+02  0.25046879165E+03 -0.27214063762E+04  0.27329895641E+04  0.50400001928E-02 0.  1.
</event>
<event>
 5   0  0.5840500E-06  0.2587989E+04  0.7818609E-02  0.8372292E-01
        3   -1    0    0  501    0  0.00000000000E+00  0.00000000000E+00  0.15767920691E+04  0.15767920723E+04  0.10100000352E+00 0.  1.
       -3   -1    0    0    0  501  0.00000000000E+00  0.00000000000E+00 -0.10619170134E+04  0.10619170182E+04  0.10100000352E+00 0. -1.
    10030    2    1    2    0    0  0.00000000000E+00  0.00000000000E+00  0.51487505569E+03  0.26387090905E+04  0.25879894400E+04 0.  0.
        4    1    3    3  502    0 -0.91129059739E+03  0.89474726971E+03  0.45034191708E+02  0.12779095903E+04  0.12699999809E+01 0. -1.
       -4    1    3    3    0  502  0.91129059739E+03 -0.89474726971E+03  0.46984086398E+03  0.13607995003E+04  0.12699999809E+01 0.  1.
</event>
<event>
 5   0  0.1677971E-05  0.2328070E+04  0.7818609E-02  0.8466935E-01
       -2   -1    0    0    0  501  0.00000000000E+00  0.00000000000E+00  0.10931668829E+04  0.10931668829E+04  0.25500000920E-02 0.  1.
        2   -1    0    0  501    0  0.00000000000E+00  0.00000000000E+00 -0.12394976996E+04  0.12394976996E+04  0.25500000920E-02 0. -1.
    10030    2    1    2    0    0  0.00000000000E+00  0.00000000000E+00 -0.14633081667E+03  0.23326645825E+04  0.23280703053E+04 0.  0.
        4    1    3    3  502    0  0.74289965748E+03  0.70259325514E+03  0.48420480652E+03  0.11313677964E+04  0.12699999809E+01 0.  1.
       -4    1    3    3    0  502 -0.74289965748E+03 -0.70259325514E+03 -0.63053562319E+03  0.12012967861E+04  0.12699999809E+01 0. -1.
</event>
<event>
 5   0  0.6918420E-06  0.2595712E+04  0.7818609E-02  0.8369659E-01
       -1   -1    0    0    0  501  0.00000000000E+00  0.00000000000E+00  0.75374945232E+03  0.75374945234E+03  0.50400001928E-02 0. -1.
        1   -1    0    0  501    0  0.00000000000E+00  0.00000000000E+00 -0.22347351054E+04  0.22347351054E+04  0.50400001928E-02 0.  1.
    10030    2    1    2    0    0  0.00000000000E+00  0.00000000000E+00 -0.14809856530E+04  0.29884845577E+04  0.25957121272E+04 0.  0.
        4    1    3    3  502    0 -0.64403227698E+03  0.44202124409E+03 -0.19337962577E+04  0.20856006169E+04  0.12699999809E+01 0.  1.
       -4    1    3    3    0  502  0.64403227698E+03 -0.44202124409E+03  0.45281060464E+03  0.90288394082E+03  0.12699999809E+01 0. -1.
</event>
<event>
 5   0  0.1677971E-05  0.2632893E+04  0.7818609E-02  0.8357113E-01
       -2   -1    0    0    0  501  0.00000000000E+00  0.00000000000E+00  0.12352968546E+04  0.12352968546E+04  0.25500000920E-02 0. -1.
        2   -1    0    0  501    0  0.00000000000E+00  0.00000000000E+00 -0.14029272394E+04  0.14029272394E+04  0.25500000920E-02 0.  1.
    10030    2    1    2    0    0  0.00000000000E+00  0.00000000000E+00 -0.16763038485E+03  0.26382240940E+04  0.26328931661E+04 0.  0.
        4    1    3    3  502    0 -0.53236826827E+03  0.53200051079E+03  0.99845942302E+03  0.12503452919E+04  0.12699999809E+01 0. -1.
       -4    1    3    3    0  502  0.53236826827E+03 -0.53200051079E+03 -0.11660898079E+04  0.13878788021E+04  0.12699999809E+01 0.  1.
</event>
<event>
 5   0  0.7138294E-06  0.2572035E+04  0.7818609E-02  0.8377763E-01
        1   -1    0    0  501    0  0.00000000000E+00  0.00000000000E+00  0.19673660298E+04  0.19673660298E+04  0.50400001928E-02 0.  1.
       -1   -1    0    0    0  501  0.00000000000E+00  0.00000000000E+00 -0.84063736472E+03  0.84063736473E+03  0.50400001928E-02 0. -1.
    10030    2    1    2    0    0  0.00000000000E+00  0.00000000000E+00  0.11267286651E+04  0.28080033945E+04  0.25720352989E+04 0.  0.
        2    1    3    3  502    0  0.11976518529E+04 -0.43591168804E+03  0.75072624091E+03  0.14791818175E+04  0.25500000920E-02 0. -1.
       -2    1    3    3    0  502 -0.11976518529E+04  0.43591168804E+03  0.37600242417E+03  0.13288215770E+04  0.25500000920E-02 0.  1.
</event>
<event>
 5   0  0.1702345E-05  0.2572692E+04  0.7818609E-02  0.8377537E-01
       -2   -1    0    0    0  501  0.00000000000E+00  0.00000000000E+00  0.79390577065E+03  0.79390577066E+03  0.25500000920E-02 0.  1.
        2   -1    0    0  501    0  0.00000000000E+00  0.00000000000E+00 -0.20842349612E+04  0.20842349612E+04  0.25500000920E-02 0. -1.
    10030    2    1    2    0    0  0.00000000000E+00  0.00000000000E+00 -0.12903291905E+04  0.28781407318E+04  0.25726921021E+04 0.  0.
        1    1    3    3  502    0  0.30750695594E+02  0.28983580005E+03 -0.20468078436E+04  0.20674556210E+04  0.50400001928E-02 0. -1.
       -1    1    3    3    0  502 -0.30750695594E+02 -0.28983580005E+03  0.75647865309E+03  0.81068511080E+03  0.50400001928E-02 0.  1.
</event>
<event>
 5   0  0.6984287E-06  0.2613249E+04  0.7818609E-02  0.8363715E-01
       -1   -1    0    0    0  501  0.00000000000E+00  0.00000000000E+00  0.10632099303E+04  0.10632099303E+04  0.50400001928E-02 0. -1.
        1   -1    0    0  501    0  0.00000000000E+00  0.00000000000E+00 -0.16057676391E+04  0.16057676391E+04  0.50400001928E-02 0.  1.
    10030    2    1    2    0    0  0.00000000000E+00  0.00000000000E+00 -0.54255770884E+03  0.26689775694E+04  0.26132493946E+04 0.  0.
        3    1    3    3  502    0 -0.12763267797E+04 -0.26672280987E+03 -0.35744011553E+03  0.13520039024E+04  0.10100000352E+00 0.  1.
       -3    1    3    3    0  502  0.12763267797E+04  0.26672280987E+03 -0.18511759331E+03  0.13169736669E+04  0.10100000352E+00 0. -1.
</event>
<event>
 5   0  0.6993678E-06  0.2658091E+04  0.7818609E-02  0.8348732E-01
        1   -1    0    0  501    0  0.00000000000E+00  0.00000000000E+00  0.11998036598E+04  0.11998036598E+04  0.50400001928E-02 0. -1.
       -1   -1    0    0    0  501  0.00000000000E+00  0.00000000000E+00 -0.14722091700E+04  0.14722091700E+04  0.50400001928E-02 0.  1.
    10030    2    1    2    0    0  0.00000000000E+00  0.00000000000E+00 -0.27240551016E+03  0.26720128299E+04  0.26580910069E+04 0.  0.
        1    1    3    3  502    0  0.60047463483E+03 -0.59120159664E+03  0.89693146913E+03  0.12306807772E+04  0.50400001928E-02 0. -1.
       -1    1    3    3    0  502 -0.60047463483E+03  0.59120159664E+03 -0.11693369793E+04  0.14413320527E+04  0.50400001928E-02 0.  1.
</event>
<event>
 5   0  0.6984287E-06  0.2607039E+04  0.7818609E-02  0.8365814E-01
        1   -1    0    0  501    0  0.00000000000E+00  0.00000000000E+00  0.11457389913E+04  0.11457389913E+04  0.50400001928E-02 0. -1.
       -1   -1    0    0    0  501  0.00000000000E+00  0.00000000000E+00 -0.14830284017E+04  0.14830284017E+04  0.50400001928E-02 0.  1.
    10030    2    1    2    0    0  0.00000000000E+00  0.00000000000E+00 -0.33728941042E+03  0.26287673930E+04  0.26070392901E+04 0.  0.
        3    1    3    3  502    0  0.96313003432E+02  0.77454993163E+03 -0.12213572442E+04  0.14494541453E+04  0.10100000352E+00 0.  1.
       -3    1    3    3    0  502 -0.96313003432E+02 -0.77454993163E+03  0.88406783380E+03  0.11793132477E+04  0.10100000352E+00 0. -1.
</event>
<event>
 5   0  0.1720129E-05  0.2582145E+04  0.7818609E-02  0.8374292E-01
        2   -1    0    0  501    0  0.00000000000E+00  0.00000000000E+00  0.10917880225E+04  0.10917880225E+04  0.25500000920E-02 0. -1.
       -2   -1    0    0    0  501  0.00000000000E+00  0.00000000000E+00 -0.15267321832E+04  0.15267321832E+04  0.25500000920E-02 0.  1.
    10030    2    1    2    0    0  0.00000000000E+00  0.00000000000E+00 -0.43494416063E+03  0.26185202057E+04  0.25821447761E+04 0.  0.
        3    1    3    3  502    0  0.56828707386E+03 -0.98862295289E+03 -0.83142833269E+03  0.14112401014E+04  0.10100000352E+00 0.  1.
       -3    1    3    3    0  502 -0.56828707386E+03  0.98862295289E+03  0.39648417206E+03  0.12072801043E+04  0.10100000352E+00 0. -1.
</event>
<event>
 5   0  0.1681731E-05  0.2588634E+04  0.7818609E-02  0.8372072E-01
       -2   -1    0    0    0  501  0.00000000000E+00  0.00000000000E+00  0.16144223875E+04  0.16144223875E+04  0.25500000920E-02 0.  1.
        2   -1    0    0  501    0  0.00000000000E+00  0.00000000000E+00 -0.10376813764E+04  0.10376813764E+04  0.25500000920E-02 0. -1.
    10030    2    1    2    0    0  0.00000000000E+00  0.00000000000E+00  0.57674101111E+03  0.26521037638E+04  0.25886336512E+04 0.  0.
        2    1    3    3  502    0 -0.63944039616E+03 -0.76593437512E+03  0.11330342320E+04  0.15097370824E+04  0.25500000920E-02 0.  1.
       -2    1    3    3    0  502  0.63944039616E+03  0.76593437512E+03 -0.55629322084E+03  0.11423666814E+04  0.25500000920E-02 0. -1.
</event>
<event>
 5   0  0.6918420E-06  0.2584100E+04  0.7818609E-02  0.8373622E-01
       -1   -1    0    0    0  501  0.00000000000E+00  0.00000000000E+00  0.18225135346E+04  0.18225135346E+04  0.50400001928E-02 0. -1.
        1   -1    0    0  501    0  0.00000000000E+00  0.00000000000E+00 -0.91598408624E+03  0.91598408626E+03  0.50400001928E-02 0.  1.
    10030    2    1    2    0    0  0.00000000000E+00  0.00000000000E+00  0.90652944838E+03  0.27384976209E+04  0.25841001488E+04 0.  0.
        4    1    3    3  502    0  0.43428712252E+03  0.55815074740E+02  0.17414903223E+04  0.17956922851E+04  0.12699999809E+01 0. -1.
       -4    1    3    3    0  502 -0.43428712252E+03 -0.55815074740E+02 -0.83496087389E+03  0.94280533578E+03  0.12699999809E+01 0.  1.
</event>
<event>
 5   0  0.1677971E-05  0.2632881E+04  0.7818609E-02  0.8357117E-01
        2   -1    0    0  501    0  0.00000000000E+00  0.00000000000E+00  0.16936948623E+04  0.16936948623E+04  0.25500000920E-02 0.  1.
       -2   -1    0    0    0  501  0.00000000000E+00  0.00000000000E+00 -0.10232160301E+04  0.10232160301E+04  0.25500000920E-02 0. -1.
    10030    2    1    2    0    0  0.00000000000E+00  0.00000000000E+00  0.67047883223E+03  0.27169108923E+04  0.26328811087E+04 0.  0.
        4    1    3    3  502    0  0.96685387392E+03 -0.78403668182E+03  0.77727303745E+03  0.14675404320E+04  0.12699999809E+01 0.  1.
       -4    1    3    3    0  502 -0.96685387392E+03  0.78403668182E+03 -0.10679420522E+03  0.12493704603E+04  0.12699999809E+01 0. -1.
</event>
<event>
 5   0  0.1869956E-05  0.2605461E+04  0.7818609E-02  0.8366349E-01
        2   -1    0    0  501    0  0.00000000000E+00  0.00000000000E+00  0.77959514326E+03  0.77959514326E+03  0.25500000920E-02 0. -1.
       -2   -1    0    0    0  501  0.00000000000E+00  0.00000000000E+00 -0.21769071027E+04  0.21769071028E+04  0.25500000920E-02 0.  1.
    10030    2    1    2    0    0  0.00000000000E+00  0.00000000000E+00 -0.13973119595E+04  0.29565022460E+04  0.26054605770E+04 0.  0.
        5    1    3    3  502    0 -0.64756393169E+03 -0.65231541415E+01 -0.19813072105E+04  0.20844620288E+04  0.46999998093E+01 0.  1.
       -5    1    3    3    0  502  0.64756393169E+03  0.65231541415E+01  0.58399525103E+03  0.87204021719E+03  0.46999998093E+01 0. -1.
</event>
<event>
 5   0  0.6918420E-06  0.2614478E+04  0.7818609E-02  0.8363300E-01
       -1   -1    0    0    0  501  0.00000000000E+00  0.00000000000E+00  0.79036755366E+03  0.79036755368E+03  0.50400001928E-02 0.  1.
        1   -1    0    0  501    0  0.00000000000E+00  0.00000000000E+00 -0.21621255484E+04  0.21621255484E+04  0.50400001928E-02 0. -1.
    10030    2    1    2    0    0  0.00000000000E+00  0.00000000000E+00 -0.13717579947E+04  0.29524931021E+04  0.26144780591E+04 0.  0.
        4    1    3    3  502    0  0.21293751739E+03  0.15755488661E+03 -0.21315000256E+04  0.21478966224E+04  0.12699999809E+01 0. -1.
       -4    1    3    3    0  502 -0.21293751739E+03 -0.15755488661E+03  0.75974203090E+03  0.80459647962E+03  0.12699999809E+01 0.  1.
</event>
<event>
 5   0  0.1702345E-05  0.2624601E+04  0.7818609E-02  0.8359892E-01
        2   -1    0    0  501    0  0.00000000000E+00  0.00000000000E+00  0.94587693890E+03  0.94587693891E+03  0.25500000920E-02 0. -1.
       -2   -1    0    0    0  501  0.00000000000E+00  0.00000000000E+00 -0.18206736541E+04  0.18206736541E+04  0.25500000920E-02 0.  1.
    10030    2    1    2    0    0  0.00000000000E+00  0.00000000000E+00 -0.87479671516E+03  0.27665505930E+04  0.26246014727E+04 0.  0.
        1    1    3    3  502    0  0.15780795798E+03 -0.24306239627E+03  0.91172652896E+03  0.95667546416E+03  0.50400001928E-02 0. -1.
       -1    1    3    3    0  502 -0.15780795798E+03  0.24306239627E+03 -0.17865232441E+04  0.18098751288E+04  0.50400001928E-02 0.  1.
</event>
<event>
 5   0  0.6993678E-06  0.2636597E+04  0.7818609E-02  0.8355875E-01
       -1   -1    0    0    0  501  0.00000000000E+00  0.00000000000E+00  0.88207968269E+03  0.88207968270E+03  0.50400001928E-02 0. -1.
        1   -1    0    0  501    0  0.00000000000E+00  0.00000000000E+00 -0.19702421158E+04  0.19702421158E+04  0.50400001928E-02 0.  1.
    10030    2    1    2    0    0  0.00000000000E+00  0.00000000000E+00 -0.10881624331E+04  0.28523217985E+04  0.26365967006E+04 0.  0.
        1    1    3    3  502    0 -0.52346890129E+03  0.46032347076E+03 -0.17545561303E+04  0.18879577863E+04  0.50400001928E-02 0.  1.
       -1    1    3    3    0  502  0.52346890129E+03 -0.46032347076E+03  0.66639369721E+03  0.96436401221E+03  0.50400001928E-02 0. -1.
</event>
<event>
 5   0  0.1702345E-05  0.2586242E+04  0.7818609E-02  0.8372890E-01
       -2   -1    0    0    0  501  0.00000000000E+00  0.00000000000E+00  0.15045859494E+04  0.15045859494E+04  0.25500000920E-02 0.  1.
        2   -1    0    0  501    0  0.00000000000E+00  0.00000000000E+00 -0.11113768065E+04  0.11113768065E+04  0.25500000920E-02 0. -1.
    10030    2    1    2    0    0  0.00000000000E+00  0.00000000000E+00  0.39320914297E+03  0.26159627559E+04  0.25862420053E+04 0.  0.
        1    1    3    3  502    0  0.11329040302E+04  0.11319895016E+03 -0.42352853211E+03  0.12147682748E+04  0.50400001928E-02 0. -1.
       -1    1    3    3    0  502 -0.11329040302E+04 -0.11319895016E+03  0.81673767507E+03  0.14011944811E+04  0.50400001928E-02 0.  1.
</event>
<event>
 5   0  0.6918420E-06  0.2596330E+04  0.7818609E-02  0.8369449E-01
        1   -1    0    0  501    0  0.00000000000E+00  0.00000000000E+00  0.16703073038E+04  0.16703073038E+04  0.50400001928E-02 0. -1.
       -1   -1    0    0    0  501  0.00000000000E+00  0.00000000000E+00 -0.10089351641E+04  0.10089351641E+04  0.50400001928E-02 0.  1.
    10030    2    1    2    0    0  0.00000000000E+00  0.00000000000E+00  0.66137213967E+03  0.26792424679E+04  0.25963295428E+04 0.  0.
        4    1    3    3  502    0  0.98618014874E+03 -0.14605700985E+03 -0.52733904738E+03  0.11278173698E+04  0.12699999809E+01 0.  1.
       -4    1    3    3    0  502 -0.98618014874E+03  0.14605700985E+03  0.11887111871E+04  0.15514250981E+04  0.12699999809E+01 0. -1.
</event>
<event>
 5   0  0.1681731E-05  0.2554233E+04  0.7818609E-02  0.8383916E-01
       -2   -1    0    0    0  501  0.00000000000E+00  0.00000000000E+00  0.10154900710E+04  0.10154900710E+04  0.25500000920E-02 0.  1.
        2   -1    0    0  501    0  0.00000000000E+00  0.00000000000E+00 -0.16061470948E+04  0.16061470948E+04  0.25500000920E-02 0. -1.
    10030    2    1    2    0    0  0.00000000000E+00  0.00000000000E+00 -0.59065702379E+03  0.26216371658E+04  0.25542329004E+04 0.  0.
        2    1    3    3  502    0  0.96021337273E+03  0.73566285433E+03  0.12513653620E+03  0.12160874595E+04  0.25500000920E-02 0.  1.
       -2    1    3    3    0  502 -0.96021337273E+03 -0.73566285433E+03 -0.71579355999E+03  0.14055497063E+04  0.25500000920E-02 0. -1.
</event>
<event>
 5   0  0.1681731E-05  0.2592728E+04  0.7818609E-02  0.8370676E-01
        2   -1    0    0  501    0  0.00000000000E+00  0.00000000000E+00  0.19440429596E+04  0.19440429596E+04  0.25500000920E-02 0. -1.
       -2   -1    0    0    0  501  0.00000000000E+00  0.00000000000E+00 -0.86446611488E+03  0.86446611488E+03  0.25500000920E-02 0.  1.
    10030    2    1    2    0    0  0.00000000000E+00  0.00000000000E+00  0.10795768448E+04  0.28085090745E+04  0.25927277254E+04 0.  0.
        2    1    3    3  502    0  0.53380553303E+03  0.96958338884E+03 -0.19130378234E+03  0.11232263495E+04  0.25500000920E-02 0.  1.
       -2    1    3    3    0  502 -0.53380553303E+03 -0.96958338884E+03  0.12708806271E+04  0.16852827251E+04  0.25500000920E-02 0. -1.
</event>
<event>
 5   0  0.6918420E-06  0.2611136E+04  0.7818609E-02  0.8364428E-01
       -1   -1    0    0    0  501  0.00000000000E+00  0.00000000000E+00  0.16221078262E+04  0.16221078262E+04  0.50400001928E-02 0.  1.
        1   -1    0    0  501    0  0.00000000000E+00  0.00000000000E+00 -0.10507982097E+04  0.10507982097E+04  0.50400001928E-02 0. -1.
    10030    2    1    2    0    0  0.00000000000E+00  0.00000000000E+00  0.57130961644E+03  0.26729060359E+04  0.26111361510E+04 0.  0.
        4    1    3    3  502    0 -0.72885197785E+03 -0.36019951038E+03 -0.76004782828E+03  0.11129434878E+04  0.12699999809E+01 0. -1.
       -4    1    3    3    0  502  0.72885197785E+03  0.36019951038E+03  0.13313574447E+04  0.15599625481E+04  0.12699999809E+01 0.  1.
</event>
<event>
 5   0  0.6706225E-06  0.2536729E+04  0.7818609E-02  0.8390016E-01
        1   -1    0    0  501    0  0.00000000000E+00  0.00000000000E+00  0.25282681890E+04  0.25282681890E+04  0.50400001928E-02 0.  1.
       -1   -1    0    0    0  501  0.00000000000E+00  0.00000000000E+00 -0.63630460308E+03  0.63630460310E+03  0.50400001928E-02 0. -1.
    10030    2    1    2    0    0  0.00000000000E+00  0.00000000000E+00  0.18919635859E+04  0.31645727921E+04  0.25367291432E+04 0.  0.
        5    1    3    3  502    0  0.93990122626E+03 -0.22514867838E+03 -0.78656804921E+02  0.96969852297E+03  0.46999998093E+01 0. -1.
       -5    1    3    3    0  502 -0.93990122626E+03  0.22514867838E+03  0.19706203908E+04  0.21948742691E+04  0.46999998093E+01 0.  1.
</event>
<event>
 5   0  0.7138294E-06  0.2582501E+04  0.7818609E-02  0.8374169E-01
        1   -1    0    0  501    0  0.00000000000E+00  0.00000000000E+00  0.12477734474E+04  0.12477734474E+04  0.50400001928E-02 0.  1.
       -1   -1    0    0    0  501  0.00000000000E+00  0.00000000000E+00 -0.13362427404E+04  0.13362427404E+04  0.50400001928E-02 0. -1.
    10030    2    1    2    0    0  0.00000000000E+00  0.00000000000E+00 -0.88469293040E+02  0.25840161878E+04  0.25825012765E+04 0.  0.
        2    1    3    3  502    0  0.11153384414E+04 -0.13657140047E+03 -0.68076552475E+03  0.13138010831E+04  0.25500000920E-02 0. -1.
       -2    1    3    3    0  502 -0.11153384414E+04  0.13657140047E+03  0.59229623171E+03  0.12702151048E+04  0.25500000920E-02 0.  1.
</event>
<event>
 5   0  0.1720129E-05  0.2587584E+04  0.7818609E-02  0.8372431E-01
       -2   -1    0    0    0  501  0.00000000000E+00  0.00000000000E+00  0.69520469612E+03  0.69520469612E+03  0.25500000920E-02 0. -1.
        2   -1    0    0  501    0  0.00000000000E+00  0.00000000000E+00 -0.24077765735E+04  0.24077765735E+04  0.25500000920E-02 0.  1.
    10030    2    1    2    0    0  0.00000000000E+00  0.00000000000E+00 -0.17125718774E+04  0.31029812696E+04  0.25875838778E+04 0.  0.
        3    1    3    3  502    0 -0.29133465038E+03 -0.36865546967E+03 -0.23018411580E+04  0.23493095711E+04  0.10100000352E+00 0.  1.
       -3    1    3    3    0  502  0.29133465038E+03  0.36865546967E+03  0.58926928065E+03  0.75367169852E+03  0.10100000352E+00 0. -1.
</event>
<event>
 5   0  0.7138294E-06  0.2241535E+04  0.7818609E-02  0.8501337E-01
       -1   -1    0    0    0  501  0.00000000000E+00  0.00000000000E+00  0.71100700410E+03  0.71100700412E+03  0.50400001928E-02 0.  1.
        1   -1    0    0  501    0  0.00000000000E+00  0.00000000000E+00 -0.17666767072E+04  0.17666767072E+04  0.50400001928E-02 0. -1.
    10030    2    1    2    0    0  0.00000000000E+00  0.00000000000E+00 -0.10556697031E+04  0.24776837113E+04  0.22415347535E+04 0.  0.
        2    1    3    3  502    0  0.11203084371E+04 -0.67690879056E+01 -0.49318427761E+03  0.12240782436E+04  0.25500000920E-02 0.  1.
       -2    1    3    3    0  502 -0.11203084371E+04  0.67690879056E+01 -0.56248542549E+03  0.12536054677E+04  0.25500000920E-02 0. -1.
</event>
<event>
 5   0  0.6993678E-06  0.2592954E+04  0.7818609E-02  0.8370599E-01
        1   -1    0    0  501    0  0.00000000000E+00  0.00000000000E+00  0.13611632253E+04  0.13611632253E+04  0.50400001928E-02 0.  1.
       -1   -1    0    0    0  501  0.00000000000E+00  0.00000000000E+00 -0.12348644529E+04  0.12348644529E+04  0.50400001928E-02 0. -1.
    10030    2    1    2    0    0  0.00000000000E+00  0.00000000000E+00  0.12629877238E+03  0.25960276782E+04  0.25929535912E+04 0.  0.
        1    1    3    3  502    0  0.12189200925E+04  0.43401666507E+03 -0.18895458111E+02  0.12940222934E+04  0.50400001928E-02 0.  1.
       -1    1    3    3    0  502 -0.12189200925E+04 -0.43401666507E+03  0.14519423049E+03  0.13020053848E+04  0.50400001928E-02 0. -1.
</event>
<event>
 5   0  0.1702345E-05  0.2573560E+04  0.7818609E-02  0.8377238E-01
        2   -1    0    0  501    0  0.00000000000E+00  0.00000000000E+00  0.16192867984E+04  0.16192867984E+04  0.25500000920E-02 0.  1.
       -2   -1    0    0    0  501  0.00000000000E+00  0.00000000000E+00 -0.10225507683E+04  0.10225507683E+04  0.25500000920E-02 0. -1.
    10030    2    1    2    0    0  0.00000000000E+00  0.00000000000E+00  0.59673603007E+03  0.26418375667E+04  0.25735601487E+04 0.  0.
        1    1    3    3  502    0 -0.61355712299E+03 -0.10865711011E+04 -0.24155105647E+02  0.12480675342E+04  0.50400001928E-02 0. -1.
       -1    1    3    3    0  502  0.61355712299E+03  0.10865711011E+04  0.62089113571E+03  0.13937700324E+04  0.50400001928E-02 0.  1.
</event>
<event>
 5   0  0.6706225E-06  0.2609549E+04  0.7818609E-02  0.8364965E-01
       -1   -1    0    0    0  501  0.00000000000E+00  0.00000000000E+00  0.13469260134E+04  0.13469260134E+04  0.50400001928E-02 0.  1.
        1   -1    0    0  501    0  0.00000000000E+00  0.00000000000E+00 -0.12639419138E+04  0.12639419138E+04  0.50400001928E-02 0. -1.
    10030    2    1    2    0    0  0.00000000000E+00  0.00000000000E+00  0.82984099594E+02  0.26108679271E+04  0.26095488063E+04 0.  0.
        5    1    3    3  502    0  0.11809901605E+04 -0.25781930693E+03 -0.44988307997E+03  0.12898160450E+04  0.46999998093E+01 0. -1.
       -5    1    3    3    0  502 -0.11809901605E+04  0.25781930693E+03  0.53286717956E+03  0.13210518822E+04  0.46999998093E+01 0.  1.
</event>
<event>
 5   0  0.6706225E-06  0.2620220E+04  0.7818609E-02  0.8361365E-01
       -1   -1    0    0    0  501  0.00000000000E+00  0.00000000000E+00  0.92637770603E+03  0.92637770604E+03  0.50400001928E-02 0. -1.
        1   -1    0    0  501    0  0.00000000000E+00  0.00000000000E+00 -0.18527952054E+04  0.18527952054E+04  0.50400001928E-02 0.  1.
    10030    2    1    2    0    0  0.00000000000E+00  0.00000000000E+00 -0.92641749939E+03  0.27791729115E+04  0.26202199695E+04 0.  0.
        5    1    3    3  502    0 -0.53096850451E+03  0.64670064628E+03  0.60602092106E+03  0.10331663590E+04  0.46999998093E+01 0. -1.
       -5    1    3    3    0  502  0.53096850451E+03 -0.64670064628E+03 -0.15324384205E+04  0.17460065524E+04  0.46999998093E+01 0.  1.
</event>
<event>
 5   0  0.1681731E-05  0.2641943E+04  0.7818609E-02  0.8354092E-01
       -2   -1    0    0    0  501  0.00000000000E+00  0.00000000000E+00  0.13250941588E+04  0.13250941588E+04  0.25500000920E-02 0. -1.
        2   -1    0    0  501    0  0.00000000000E+00  0.00000000000E+00 -0.13168613570E+04  0.13168613570E+04  0.25500000920E-02 0.  1.
    10030    2    1    2    0    0  0.00000000000E+00  0.00000000000E+00  0.82328018233E+01  0.26419555158E+04  0.26419426884E+04 0.  0.
        2    1    3    3  502    0  0.36338210314E+03  0.44983123073E+03  0.11917966191E+04  0.13246787801E+04  0.25500000920E-02 0. -1.
       -2    1    3    3    0  502 -0.36338210314E+03 -0.44983123073E+03 -0.11835638173E+04  0.13172767358E+04  0.25500000920E-02 0.  1.
</event>
<event>
 5   0  0.1681731E-05  0.2599051E+04  0.7818609E-02  0.8368524E-01
       -2   -1    0    0    0  501  0.00000000000E+00  0.00000000000E+00  0.17274256988E+04  0.17274256988E+04  0.25500000920E-02 0. -1.
        2   -1    0    0  501    0  0.00000000000E+00  0.00000000000E+00 -0.97762062565E+03  0.97762062565E+03  0.25500000920E-02 0.  1.
    10030    2    1    2    0    0  0.00000000000E+00  0.00000000000E+00  0.74980507317E+03  0.27050463245E+04  0.25990513596E+04 0.  0.
        2    1    3    3  502    0 -0.26783998741E+03 -0.29209673851E+03  0.16629974583E+04  0.17095669948E+04  0.25500000920E-02 0. -1.
       -2    1    3    3    0  502  0.26783998741E+03  0.29209673851E+03 -0.91319238512E+03  0.99547932964E+03  0.25500000920E-02 0.  1.
</event>
<event>
 5   0  0.6984287E-06  0.2529367E+04  0.7818609E-02  0.8392597E-01
       -1   -1    0    0    0  501  0.00000000000E+00  0.00000000000E+00  0.15494162619E+04  0.15494162619E+04  0.50400001928E-02 0. -1.
        1   -1    0    0  501    0  0.00000000000E+00  0.00000000000E+00 -0.10322754619E+04  0.10322754619E+04  0.50400001928E-02 0.  1.
    10030    2    1    2    0    0  0.00000000000E+00  0.00000000000E+00  0.51714080000E+03  0.25816917237E+04  0.25293670254E+04 0.  0.
        3    1    3    3  502    0  0.58653749943E+03  0.22852736283E+03  0.13781542830E+04  0.15151106335E+04  0.10100000352E+00 0. -1.
       -3    1    3    3    0  502 -0.58653749943E+03 -0.22852736283E+03 -0.86101348303E+03  0.10665810902E+04  0.10100000352E+00 0.  1.
</event>
<event>
 5   0  0.1869956E-05  0.2605873E+04  0.7818609E-02  0.8366209E-01
       -2   -1    0    0    0  501  0.00000000000E+00  0.00000000000E+00  0.15893632854E+04  0.15893632855E+04  0.25500000920E-02 0.  1.
        2   -1    0    0  501    0  0.00000000000E+00  0.00000000000E+00 -0.10681282135E+04  0.10681282135E+04  0.25500000920E-02 0. -1.
    10030    2    1    2    0    0  0.00000000000E+00  0.00000000000E+00  0.52123507193E+03  0.26574914990E+04  0.26058731870E+04 0.  0.
        5    1    3    3  502    0  0.57453359410E+03 -0.23027557125E+03  0.14298473772E+04  0.15580761540E+04  0.46999998093E+01 0.  1.
       -5    1    3    3    0  502 -0.57453359410E+03  0.23027557125E+03 -0.90861230530E+03  0.10994153450E+04  0.46999998093E+01 0. -1.
</event>
<event>
 5   0  0.6918420E-06  0.2517525E+04  0.7818609E-02  0.8396769E-01
        1   -1    0    0  501    0  0.00000000000E+00  0.00000000000E+00  0.14456940054E+04  0.14456940054E+04  0.50400001928E-02 0.  1.
       -1   -1    0    0    0  501  0.00000000000E+00  0.00000000000E+00 -0.10960018470E+04  0.10960018470E+04  0.50400001928E-02 0. -1.
    10030    2    1    2    0    0  0.00000000000E+00  0.00000000000E+00  0.34969215834E+03  0.25416958524E+04  0.25175252135E+04 0.  0.
        4    1    3    3  502    0  0.59376009453E+03 -0.58228494925E+03  0.11288387818E+04  0.14021003602E+04  0.12699999809E+01 0.  1.
       -4    1    3    3    0  502 -0.59376009453E+03  0.58228494925E+03 -0.77914662345E+03  0.11395954921E+04  0.12699999809E+01 0. -1.
</event>
<event>
 5   0  0.1681731E-05  0.2599746E+04  0.7818609E-02  0.8368288E-01
        2   -1    0    0  501    0  0.00000000000E+00  0.00000000000E+00  0.20616923079E+04  0.20616923079E+04  0.25500000920E-02 0.  1.
       -2   -1    0    0    0  501  0.00000000000E+00  0.00000000000E+00 -0.81955468413E+03  0.81955468413E+03  0.25500000920E-02 0. -1.
    10030    2    1    2    0    0  0.00000000000E+00  0.00000000000E+00  0.12421376237E+04  0.28812469920E+04  0.25997458246E+04 0.  0.
        2    1    3    3  502    0 -0.42337050188E+03  0.62929713158E+03  0.17910328548E+04  0.19450080074E+04  0.25500000920E-02 0.  1.
       -2    1    3    3    0  502  0.42337050188E+03 -0.62929713158E+03 -0.54889523107E+03  0.93623898465E+03  0.25500000920E-02 0. -1.
</event>
<event>
 5   0  0.6706225E-06  0.2616886E+04  0.7818609E-02  0.8362488E-01
       -1   -1    0    0    0  501  0.00000000000E+00  0.00000000000E+00  0.12352193518E+04  0.12352193519E+04  0.50400001928E-02 0. -1.
        1   -1    0    0  501    0  0.00000000000E+00  0.00000000000E+00 -0.13860073411E+04  0.13860073411E+04  0.50400001928E-02 0.  1.
    10030    2    1    2    0    0  0.00000000000E+00  0.00000000000E+00 -0.15078798924E+03  0.26212266929E+04  0.26168860040E+04 0.  0.
        5    1    3    3  502    0 -0.35050867517E+01  0.12996245330E+04  0.76398741495E+02  0.13018813579E+04  0.46999998093E+01 0. -1.
       -5    1    3    3    0  502  0.35050867517E+01 -0.12996245330E+04 -0.22718673073E+03  0.13193453350E+04  0.46999998093E+01 0.  1.
</event>
<event>
 5   0  0.6706225E-06  0.2436921E+04  0.7818609E-02  0.8425809E-01
        1   -1    0    0  501    0  0.00000000000E+00  0.00000000000E+00  0.22068335369E+04  0.22068335369E+04  0.50400001928E-02 0.  1.
       -1   -1    0    0    0  501  0.00000000000E+00  0.00000000000E+00 -0.67274931234E+03  0.67274931236E+03  0.50400001928E-02 0. -1.
    10030    2    1    2    0    0  0.00000000000E+00  0.00000000000E+00  0.15340842246E+04  0.28795828493E+04  0.24369207984E+04 0.  0.
        5    1    3    3  502    0 -0.14015802414E+03  0.99337375628E+02  0.21924406060E+04  0.21991657706E+04  0.46999998093E+01 0.  1.
       -5    1    3    3    0  502  0.14015802414E+03 -0.99337375628E+02 -0.65835638143E+03  0.68041707864E+03  0.46999998093E+01 0. -1.
</event>
<event>
 5   0  0.7138294E-06  0.2519353E+04  0.7818609E-02  0.8396123E-01
       -1   -1    0    0    0  501  0.00000000000E+00  0.00000000000E+00  0.13553383148E+04  0.13553383148E+04  0.50400001928E-02 0.  1.
        1   -1    0    0  501    0  0.00000000000E+00  0.00000000000E+00 -0.11707668242E+04  0.11707668242E+04  0.50400001928E-02 0. -1.
    10030    2    1    2    0    0  0.00000000000E+00  0.00000000000E+00  0.18457149060E+03  0.25261051391E+04  0.25193531984E+04 0.  0.
        2    1    3    3  502    0  0.11694171667E+04 -0.45900900970E+03 -0.47897825450E+00  0.12562746556E+04  0.25500000920E-02 0. -1.
       -2    1    3    3    0  502 -0.11694171667E+04  0.45900900970E+03  0.18505046885E+03  0.12698304835E+04  0.25500000920E-02 0.  1.
</event>
<event>
 5   0  0.6706225E-06  0.2527483E+04  0.7818609E-02  0.8393259E-01
        1   -1    0    0  501    0  0.00000000000E+00  0.00000000000E+00  0.10522950555E+04  0.10522950555E+04  0.50400001928E-02 0. -1.
       -1   -1    0    0    0  501  0.00000000000E+00  0.00000000000E+00 -0.15176759061E+04  0.15176759061E+04  0.50400001928E-02 0.  1.
    10030    2    1    2    0    0  0.00000000000E+00  0.00000000000E+00 -0.46538085060E+03  0.25699709616E+04  0.25274832160E+04 0.  0.
        5    1    3    3  502    0  0.28984712317E+03 -0.15008024114E+03 -0.14740676940E+04  0.15097791527E+04  0.46999998093E+01 0.  1.
       -5    1    3    3    0  502 -0.28984712317E+03  0.15008024114E+03  0.10086868434E+04  0.10601918089E+04  0.46999998093E+01 0. -1.
</event>
<event>
 5   0  0.1681731E-05  0.2624887E+04  0.7818609E-02  0.8359797E-01
       -2   -1    0    0    0  501  0.00000000000E+00  0.00000000000E+00  0.10774558899E+04  0.10774558899E+04  0.25500000920E-02 0. -1.
        2   -1    0    0  501    0  0.00000000000E+00  0.00000000000E+00 -0.15986805171E+04  0.15986805171E+04  0.25500000920E-02 0.  1.
    10030    2    1    2    0    0  0.00000000000E+00  0.00000000000E+00 -0.52122462722E+03  0.26761364070E+04  0.26248868465E+04 0.  0.
        2    1    3    3  502    0  0.16541113195E+03 -0.36649800478E+03  0.10131104790E+04  0.10899882902E+04  0.25500000920E-02 0. -1.
       -2    1    3    3    0  502 -0.16541113195E+03  0.36649800478E+03 -0.15343351063E+04  0.15861481168E+04  0.25500000920E-02 0.  1.
</event>
<event>
 5   0  0.1681731E-05  0.2600364E+04  0.7818609E-02  0.8368078E-01
       -2   -1    0    0    0  501  0.00000000000E+00  0.00000000000E+00  0.20321161693E+04  0.20321161693E+04  0.25500000920E-02 0.  1.
        2   -1    0    0  501    0  0.00000000000E+00  0.00000000000E+00 -0.83187807127E+03  0.83187807128E+03  0.25500000920E-02 0. -1.
    10030    2    1    2    0    0  0.00000000000E+00  0.00000000000E+00  0.12002380980E+04  0.28639942406E+04  0.26003637281E+04 0.  0.
        2    1    3    3  502    0  0.15219783927E+03  0.12647436430E+04  0.31347978541E+03  0.13118727989E+04  0.25500000920E-02 0. -1.
       -2    1    3    3    0  502 -0.15219783927E+03 -0.12647436430E+04  0.88675831264E+03  0.15521214417E+04  0.25500000920E-02 0.  1.
</event>
<event>
 5   0  0.6918420E-06  0.2588854E+04  0.7818609E-02  0.8371997E-01
       -1   -1    0    0    0  501  0.00000000000E+00  0.00000000000E+00  0.12424144557E+04  0.12424144557E+04  0.50400001928E-02 0. -1.
        1   -1    0    0  501    0  0.00000000000E+00  0.00000000000E+00 -0.13486173037E+04  0.13486173037E+04  0.50400001928E-02 0.  1.
    10030    2    1    2    0    0  0.00000000000E+00  0.00000000000E+00 -0.10620284801E+03  0.25910317594E+04  0.25888542897E+04 0.  0.
        4    1    3    3  502    0 -0.60761891266E+03 -0.94900036671E+03 -0.69061251823E+03  0.13216465875E+04  0.12699999809E+01 0.  1.
       -4    1    3    3    0  502  0.60761891266E+03  0.94900036671E+03  0.58440967022E+03  0.12693851719E+04  0.12699999809E+01 0. -1.
</event>
<event>
 5   0  0.1677971E-05  0.2597561E+04  0.7818609E-02  0.8369030E-01
        2   -1    0    0  501    0  0.00000000000E+00  0.00000000000E+00  0.15209648909E+04  0.15209648909E+04  0.25500000920E-02 0. -1.
       -2   -1    0    0    0  501  0.00000000000E+00  0.00000000000E+00 -0.11090532599E+04  0.11090532599E+04  0.25500000920E-02 0.  1.
    10030    2    1    2    0    0  0.00000000000E+00  0.00000000000E+00  0.41191163100E+03  0.26300181507E+04  0.25975612180E+04 0.  0.
        4    1    3    3  502    0  0.34693362307E+03  0.61433449335E+03 -0.89810952097E+03  0.11420911229E+04  0.12699999809E+01 0.  1.
       -4    1    3    3    0  502 -0.34693362307E+03 -0.61433449335E+03  0.13100211520E+04  0.14879270278E+04  0.12699999809E+01 0. -1.
</event>
<event>
 5   0  0.5840500E-06  0.2593459E+04  0.7818609E-02  0.8370426E-01
       -3   -1    0    0    0  501  0.00000000000E+00  0.00000000000E+00  0.76746603158E+03  0.76746603823E+03  0.10100000352E+00 0.  1.
        3   -1    0    0  501    0  0.00000000000E+00  0.00000000000E+00 -0.21909865930E+04  0.21909865953E+04  0.10100000352E+00 0. -1.
    10030    2    1    2    0    0  0.00000000000E+00  0.00000000000E+00 -0.14235205614E+04  0.29584526335E+04  0.25934593107E+04 0.  0.
        1    1    3    3  502    0  0.89818196927E+02  0.67389073384E+03 -0.19713890311E+04  0.20853226949E+04  0.50400001928E-02 0. -1.
       -1    1    3    3    0  502 -0.89818196927E+02 -0.67389073384E+03  0.54786846973E+03  0.87312993867E+03  0.50400001928E-02 0.  1.
</event>
<event>
 5   0  0.6706225E-06  0.2603052E+04  0.7818609E-02  0.8367165E-01
        1   -1    0    0  501    0  0.00000000000E+00  0.00000000000E+00  0.12814648468E+04  0.12814648468E+04  0.50400001928E-02 0. -1.
       -1   -1    0    0    0  501  0.00000000000E+00  0.00000000000E+00 -0.13219010147E+04  0.13219010147E+04  0.50400001928E-02 0.  1.
    10030    2    1    2    0    0  0.00000000000E+00  0.00000000000E+00 -0.40436167869E+02  0.26033658615E+04  0.26030518100E+04 0.  0.
        5    1    3    3  502    0 -0.12952964596E+04 -0.38557818664E+02  0.10090791341E+03  0.12998015697E+04  0.46999998093E+01 0. -1.
       -5    1    3    3    0  502  0.12952964596E+04  0.38557818664E+02 -0.14134408128E+03  0.13035642918E+04  0.46999998093E+01 0.  1.
</event>
<event>
 5   0  0.6984287E-06  0.2601188E+04  0.7818609E-02  0.8367798E-01
        1   -1    0    0  501    0  0.00000000000E+00  0.00000000000E+00  0.18563263935E+04  0.18563263935E+04  0.50400001928E-02 0. -1.
       -1   -1    0    0    0  501  0.00000000000E+00  0.00000000000E+00 -0.91123223793E+03  0.91123223795E+03  0.50400001928E-02 0.  1.
    10030    2    1    2    0    0  0.00000000000E+00  0.00000000000E+00  0.94509415559E+03  0.27675586315E+04  0.26011877702E+04 0.  0.
        3    1    3    3  502    0  0.67583056334E+03 -0.45082075273E+03  0.15531645433E+04  0.17527995921E+04  0.10100000352E+00 0. -1.
       -3    1    3    3    0  502 -0.67583056334E+03  0.45082075273E+03 -0.60807038767E+03  0.10147590394E+04  0.10100000352E+00 0.  1.
</event>
<event>
 5   0  0.1681731E-05  0.2554350E+04  0.7818609E-02  0.8383875E-01
        2   -1    0    0  501    0  0.00000000000E+00  0.00000000000E+00  0.32076557522E+04  0.32076557522E+04  0.25500000920E-02 0.  1.
       -2   -1    0    0    0  501  0.00000000000E+00  0.00000000000E+00 -0.50852589783E+03  0.50852589784E+03  0.25500000920E-02 0. -1.
    10030    2    1    2    0    0  0.00000000000E+00  0.00000000000E+00  0.26991298544E+04  0.37161816501E+04  0.25543500319E+04 0.  0.
        2    1    3    3  502    0  0.30743231514E+03  0.12343542859E+04  0.15156396593E+04  0.19787139026E+04  0.25500000920E-02 0.  1.
       -2    1    3    3    0  502 -0.30743231514E+03 -0.12343542859E+04  0.11834901951E+04  0.17374677475E+04  0.25500000920E-02 0. -1.
</event>
<event>
 5   0  0.6993678E-06  0.2597548E+04  0.7818609E-02  0.8369034E-01
       -1   -1    0    0    0  501  0.00000000000E+00  0.00000000000E+00  0.77716710904E+03  0.77716710906E+03  0.50400001928E-02 0. -1.
        1   -1    0    0  501    0  0.00000000000E+00  0.00000000000E+00 -0.21704652369E+04  0.21704652370E+04  0.50400001928E-02 0.  1.
    10030    2    1    2    0    0  0.00000000000E+00  0.00000000000E+00 -0.13932981279E+04  0.29476323460E+04  0.25975482236E+04 0.  0.
        1    1    3    3  502    0 -0.54794232655E+03  0.78108557178E+03 -0.16965902954E+04  0.19464722177E+04  0.50400001928E-02 0.  1.
       -1    1    3    3    0  502  0.54794232655E+03 -0.78108557178E+03  0.30329216751E+03  0.10011601283E+04  0.50400001928E-02 0. -1.
</event>
<event>
 5   0  0.1681731E-05  0.2504032E+04  0.7818609E-02  0.8401550E-01
        2   -1    0    0  501    0  0.00000000000E+00  0.00000000000E+00  0.14216889551E+04  0.14216889551E+04  0.25500000920E-02 0.  1.
       -2   -1    0    0    0  501  0.00000000000E+00  0.00000000000E+00 -0.11025929218E+04  0.11025929218E+04  0.25500000920E-02 0. -1.
    10030    2    1    2    0    0  0.00000000000E+00  0.00000000000E+00  0.31909603325E+03  0.25242818769E+04  0.25040320916E+04 0.  0.
        2    1    3    3  502    0 -0.84733074471E+03 -0.31859318912E+03 -0.71235864856E+03  0.11519226776E+04  0.25500000920E-02 0. -1.
       -2    1    3    3    0  502  0.84733074471E+03  0.31859318912E+03  0.10314546818E+04  0.13723591992E+04  0.25500000920E-02 0.  1.
</event>
<event>
 5   0  0.1681731E-05  0.2545195E+04  0.7818609E-02  0.8387059E-01
       -2   -1    0    0    0  501  0.00000000000E+00  0.00000000000E+00  0.66101938818E+03  0.66101938819E+03  0.25500000920E-02 0.  1.
        2   -1    0    0  501    0  0.00000000000E+00  0.00000000000E+00 -0.24500099366E+04  0.24500099366E+04  0.25500000920E-02 0. -1.
    10030    2    1    2    0    0  0.00000000000E+00  0.00000000000E+00 -0.17889905484E+04  0.31110293248E+04  0.25451947425E+04 0.  0.
        2    1    3    3  502    0  0.24673706766E+03 -0.97237855572E+02  0.62686679002E+03  0.68065876440E+03  0.25500000920E-02 0.  1.
       -2    1    3    3    0  502 -0.24673706766E+03  0.97237855572E+02 -0.24158573385E+04  0.24303705604E+04  0.25500000920E-02 0. -1.
</event>
<event>
 5   0  0.6984287E-06  0.2729962E+04  0.7818609E-02  0.8325348E-01
        1   -1    0    0  501    0  0.00000000000E+00  0.00000000000E+00  0.83081342621E+03  0.83081342623E+03  0.50400001928E-02 0.  1.
       -1   -1    0    0    0  501  0.00000000000E+00  0.00000000000E+00 -0.22425893642E+04  0.22425893642E+04  0.50400001928E-02 0. -1.
    10030    2    1    2    0    0  0.00000000000E+00  0.00000000000E+00 -0.14117759380E+04  0.30734027905E+04  0.27299621633E+04 0.  0.
        3    1    3    3  502    0 -0.45652189478E+03  0.46344885221E+03 -0.20568418401E+04  0.21572657334E+04  0.10100000352E+00 0. -1.
       -3    1    3    3    0  502  0.45652189478E+03 -0.46344885221E+03  0.64506590212E+03  0.91613705705E+03  0.10100000352E+00 0.  1.
</event>
<event>
 5   0  0.6993678E-06  0.2629577E+04  0.7818609E-02  0.8358223E-01
        1   -1    0    0  501    0  0.00000000000E+00  0.00000000000E+00  0.89114570418E+03  0.89114570420E+03  0.50400001928E-02 0.  1.
       -1   -1    0    0    0  501  0.00000000000E+00  0.00000000000E+00 -0.19398272270E+04  0.19398272270E+04  0.50400001928E-02 0. -1.
    10030    2    1    2    0    0  0.00000000000E+00  0.00000000000E+00 -0.10486815228E+04  0.28309729312E+04  0.26295769243E+04 0.  0.
        1    1    3    3  502    0  0.23934918922E+03 -0.79271906602E+03  0.57513898442E+03  0.10082045444E+04  0.50400001928E-02 0.  1.
       -1    1    3    3    0  502 -0.23934918922E+03  0.79271906602E+03 -0.16238205073E+04  0.18227683868E+04  0.50400001928E-02 0. -1.
</event>
<event>
 5   0  0.6984287E-06  0.2587742E+04  0.7818609E-02  0.8372377E-01
        1   -1    0    0  501    0  0.00000000000E+00  0.00000000000E+00  0.16338565346E+04  0.16338565346E+04  0.50400001928E-02 0.  1.
       -1   -1    0    0    0  501  0.00000000000E+00  0.00000000000E+00 -0.10246319927E+04  0.10246319927E+04  0.50400001928E-02 0. -1.
    10030    2    1    2    0    0  0.00000000000E+00  0.00000000000E+00  0.60922454192E+03  0.26584885273E+04  0.25877416230E+04 0.  0.
        3    1    3    3  502    0  0.11619025872E+04  0.33860086756E+03  0.77476282402E+03  0.14369849036E+04  0.10100000352E+00 0. -1.
       -3    1    3    3    0  502 -0.11619025872E+04 -0.33860086756E+03 -0.16553828209E+03  0.12215036237E+04  0.10100000352E+00 0.  1.
</event>
<event>
 5   0  0.5840500E-06  0.2354933E+04  0.7818609E-02  0.8456571E-01
       -3   -1    0    0    0  501  0.00000000000E+00  0.00000000000E+00  0.56956358580E+03  0.56956359476E+03  0.10100000352E+00 0.  1.
        3   -1    0    0  501    0  0.00000000000E+00  0.00000000000E+00 -0.24341929883E+04  0.24341929904E+04  0.10100000352E+00 0. -1.
    10030    2    1    2    0    0  0.00000000000E+00  0.00000000000E+00 -0.18646294025E+04  0.30037565851E+04  0.23549332929E+04 0.  0.
        4    1    3    3  502    0  0.31972335501E+03 -0.45092573115E+03 -0.22584036853E+04  0.23250690006E+04  0.12699999809E+01 0. -1.
       -4    1    3    3    0  502 -0.31972335501E+03  0.45092573115E+03  0.39377428281E+03  0.67868758457E+03  0.12699999809E+01 0.  1.
</event>
<event>
 5   0  0.6918420E-06  0.2616580E+04  0.7818609E-02  0.8362591E-01
       -1   -1    0    0    0  501  0.00000000000E+00  0.00000000000E+00  0.10298976939E+04  0.10298976939E+04  0.50400001928E-02 0.  1.
        1   -1    0    0  501    0  0.00000000000E+00  0.00000000000E+00 -0.16619352955E+04  0.16619352955E+04  0.50400001928E-02 0. -1.
    10030    2    1    2    0    0  0.00000000000E+00  0.00000000000E+00 -0.63203760161E+03  0.26918329895E+04  0.26165804618E+04 0.  0.
        4    1    3    3  502    0 -0.85616782894E+03 -0.76083527014E+03 -0.96644246356E+03  0.14986348147E+04  0.12699999809E+01 0. -1.
       -4    1    3    3    0  502  0.85616782894E+03  0.76083527014E+03  0.33440486195E+03  0.11931981747E+04  0.12699999809E+01 0.  1.
</event>
<event>
 5   0  0.6918420E-06  0.2540919E+04  0.7818609E-02  0.8388551E-01
       -1   -1    0    0    0  501  0.00000000000E+00  0.00000000000E+00  0.83986677188E+03  0.83986677190E+03  0.50400001928E-02 0. -1.
        1   -1    0    0  501    0  0.00000000000E+00  0.00000000000E+00 -0.19218130116E+04  0.19218130116E+04  0.50400001928E-02 0.  1.
    10030    2    1    2    0    0  0.00000000000E+00  0.00000000000E+00 -0.10819462398E+04  0.27616797835E+04  0.25409186451E+04 0.  0.
        4    1    3    3  502    0 -0.69871735958E+03 -0.89513046825E+03 -0.11602107444E+04  0.16234392776E+04  0.12699999809E+01 0.  1.
       -4    1    3    3    0  502  0.69871735958E+03  0.89513046825E+03  0.78264504645E+02  0.11382405059E+04  0.12699999809E+01 0. -1.
</event>
<event>
 5   0  0.1702345E-05  0.2599676E+04  0.7818609E-02  0.8368311E-01
       -2   -1    0    0    0  501  0.00000000000E+00  0.00000000000E+00  0.84079986815E+03  0.84079986816E+03  0.25500000920E-02 0. -1.
        2   -1    0    0  501    0  0.00000000000E+00  0.00000000000E+00 -0.20094902109E+04  0.20094902109E+04  0.25500000920E-02 0.  1.
    10030    2    1    2    0    0  0.00000000000E+00  0.00000000000E+00 -0.11686903428E+04  0.28502900791E+04  0.25996762140E+04 0.  0.
        1    1    3    3  502    0 -0.33112568613E+03  0.63873443734E+03  0.60258436086E+03  0.93847419433E+03  0.50400001928E-02 0. -1.
       -1    1    3    3    0  502  0.33112568613E+03 -0.63873443734E+03 -0.17712747036E+04  0.19118158847E+04  0.50400001928E-02 0.  1.
</event>
<event>
 5   0  0.1720129E-05  0.2671048E+04  0.7818609E-02  0.8344460E-01
       -2   -1    0    0    0  501  0.00000000000E+00  0.00000000000E+00  0.13027658547E+04  0.13027658547E+04  0.25500000920E-02 0.  1.
        2   -1    0    0  501    0  0.00000000000E+00  0.00000000000E+00 -0.13691060684E+04  0.13691060684E+04  0.25500000920E-02 0. -1.
    10030    2    1    2    0    0  0.00000000000E+00  0.00000000000E+00 -0.66340213756E+02  0.26718719231E+04  0.26710482117E+04 0.  0.
        3    1    3    3  502    0  0.82944077366E+03 -0.41816107724E+03  0.92670590042E+03  0.13121030903E+04  0.10100000352E+00 0.  1.
       -3    1    3    3    0  502 -0.82944077366E+03  0.41816107724E+03 -0.99304611418E+03  0.13597688328E+04  0.10100000352E+00 0. -1.
</event>
<event>
 5   0  0.6706225E-06  0.2570032E+04  0.7818609E-02  0.8378452E-01
       -1   -1    0    0    0  501  0.00000000000E+00  0.00000000000E+00  0.75074364016E+03  0.75074364017E+03  0.50400001928E-02 0.  1.
        1   -1    0    0  501    0  0.00000000000E+00  0.00000000000E+00 -0.21995073387E+04  0.21995073387E+04  0.50400001928E-02 0. -1.
    10030    2    1    2    0    0  0.00000000000E+00  0.00000000000E+00 -0.14487636985E+04  0.29502509789E+04  0.25700320201E+04 0.  0.
        5    1    3    3  502    0 -0.71736411130E+03  0.10150970855E+04 -0.10984963605E+04  0.16588398673E+04  0.46999998093E+01 0. -1.
       -5    1    3    3    0  502  0.71736411130E+03 -0.10150970855E+04 -0.35026733800E+03  0.12914111116E+04  0.46999998093E+01 0.  1.
</event>
<event>
 5   0  0.1681731E-05  0.2614138E+04  0.7818609E-02  0.8363415E-01
       -2   -1    0    0    0  501  0.00000000000E+00  0.00000000000E+00  0.12617729156E+04  0.12617729156E+04  0.25500000920E-02 0.  1.
        2   -1    0    0  501    0  0.00000000000E+00  0.00000000000E+00 -0.13539913378E+04  0.13539913378E+04  0.25500000920E-02 0. -1.
    10030    2    1    2    0    0  0.00000000000E+00  0.00000000000E+00 -0.92218422130E+02  0.26157642534E+04  0.26141381739E+04 0.  0.
        2    1    3    3  502    0 -0.52658766395E+02 -0.86330531954E+02  0.12578528379E+04  0.12619111175E+04  0.25500000920E-02 0.  1.
       -2    1    3    3    0  502  0.52658766395E+02  0.86330531954E+02 -0.13500712601E+04  0.13538531360E+04  0.25500000920E-02 0. -1.
</event>
<event>
 5   0  0.1677971E-05  0.2604650E+04  0.7818609E-02  0.8366623E-01
        2   -1    0    0  501    0  0.00000000000E+00  0.00000000000E+00  0.19669977768E+04  0.19669977768E+04  0.25500000920E-02 0.  1.
       -2   -1    0    0    0  501  0.00000000000E+00  0.00000000000E+00 -0.86225348515E+03  0.86225348515E+03  0.25500000920E-02 0. -1.
    10030    2    1    2    0    0  0.00000000000E+00  0.00000000000E+00  0.11047442916E+04  0.28292512619E+04  0.26046502171E+04 0.  0.
        4    1    3    3  502    0 -0.11080035840E+04 -0.12747716815E+03 -0.17801343123E+03  0.11294302834E+04  0.12699999809E+01 0. -1.
       -4    1    3    3    0  502  0.11080035840E+04  0.12747716815E+03  0.12827577229E+04  0.16998209785E+04  0.12699999809E+01 0.  1.
</event>
<event>
 5   0  0.6918420E-06  0.2576270E+04  0.7818609E-02  0.8376307E-01
       -1   -1    0    0    0  501  0.00000000000E+00  0.00000000000E+00  0.98110714823E+03  0.98110714824E+03  0.50400001928E-02 0. -1.
        1   -1    0    0  501    0  0.00000000000E+00  0.00000000000E+00 -0.16912446957E+04  0.16912446957E+04  0.50400001928E-02 0.  1.
    10030    2    1    2    0    0  0.00000000000E+00  0.00000000000E+00 -0.71013754746E+03  0.26723518439E+04  0.25762703743E+04 0.  0.
        4    1    3    3  502    0  0.88545510652E+03  0.12896767877E+03  0.60611079091E+03  0.10807568235E+04  0.12699999809E+01 0. -1.
       -4    1    3    3    0  502 -0.88545510652E+03 -0.12896767877E+03 -0.13162483384E+04  0.15915950204E+04  0.12699999809E+01 0.  1.
</event>
<event>
 5   0  0.1869956E-05  0.2660092E+04  0.7818609E-02  0.8348071E-01
        2   -1    0    0  501    0  0.00000000000E+00  0.00000000000E+00  0.19253539026E+04  0.19253539026E+04  0.25500000920E-02 0.  1.
       -2   -1    0    0    0  501  0.00000000000E+00  0.00000000000E+00 -0.91880376672E+03  0.91880376672E+03  0.25500000920E-02 0. -1.
    10030    2    1    2    0    0  0.00000000000E+00  0.00000000000E+00  0.10065501359E+04  0.28441576693E+04  0.26600920420E+04 0.  0.
        5    1    3    3  502    0 -0.35417510720E+03  0.42301315261E+03  0.17972310817E+04  0.18800111130E+04  0.46999998093E+01 0.  1.
       -5    1    3    3    0  502  0.35417510720E+03 -0.42301315261E+03 -0.79068094588E+03  0.96414655630E+03  0.46999998093E+01 0. -1.
</event>
<event>
 5   0  0.1702345E-05  0.2608021E+04  0.7818609E-02  0.8365482E-01
       -2   -1    0    0    0  501  0.00000000000E+00  0.00000000000E+00  0.21860396468E+04  0.21860396468E+04  0.25500000920E-02 0. -1.
        2   -1    0    0  501    0  0.00000000000E+00  0.00000000000E+00 -0.77786493748E+03  0.77786493748E+03  0.25500000920E-02 0.  1.
    10030    2    1    2    0    0  0.00000000000E+00  0.00000000000E+00  0.14081747094E+04  0.29639045843E+04  0.26080211604E+04 0.  0.
        1    1    3    3  502    0 -0.83868473657E+03  0.99837447012E+03  0.72376885381E+03  0.14913031294E+04  0.50400001928E-02 0.  1.
       -1    1    3    3    0  502  0.83868473657E+03 -0.99837447012E+03  0.68440585555E+03  0.14726014549E+04  0.50400001928E-02 0. -1.
</event>
<event>
 5   0  0.6918420E-06  0.2595751E+04  0.7818609E-02  0.8369646E-01
       -1   -1    0    0    0  501  0.00000000000E+00  0.00000000000E+00  0.11756628423E+04  0.11756628423E+04  0.50400001928E-02 0. -1.
        1   -1    0    0  501    0  0.00000000000E+00  0.00000000000E+00 -0.14327927928E+04  0.14327927928E+04  0.50400001928E-02 0.  1.
    10030    2    1    2    0    0  0.00000000000E+00  0.00000000000E+00 -0.25712995048E+03  0.26084556351E+04  0.25957513342E+04 0.  0.
        4    1    3    3  502    0  0.99962555046E+03  0.21545128131E+03  0.67460215922E+03  0.12250551750E+04  0.12699999809E+01 0. -1.
       -4    1    3    3    0  502 -0.99962555046E+03 -0.21545128131E+03 -0.93173210970E+03  0.13834004601E+04  0.12699999809E+01 0.  1.
</event>
<event>
 5   0  0.6984287E-06  0.2588371E+04  0.7818609E-02  0.8372162E-01
       -1   -1    0    0    0  501  0.00000000000E+00  0.00000000000E+00  0.87619281086E+03  0.87619281087E+03  0.50400001928E-02 0. -1.
        1   -1    0    0  501    0  0.00000000000E+00  0.00000000000E+00 -0.19115842235E+04  0.19115842235E+04  0.50400001928E-02 0.  1.
    10030    2    1    2    0    0  0.00000000000E+00  0.00000000000E+00 -0.10353914127E+04  0.27877770344E+04  0.25883711898E+04 0.  0.
        3    1    3    3  502    0  0.12451576736E+04  0.23105176669E+02 -0.89690657851E+03  0.15347289344E+04  0.10100000352E+00 0.  1.
       -3    1    3    3    0  502 -0.12451576736E+04 -0.23105176669E+02 -0.13848483418E+03  0.12530481000E+04  0.10100000352E+00 0. -1.
</event>
<event>
 5   0  0.1677971E-05  0.2649055E+04  0.7818609E-02  0.8351727E-01
       -2   -1    0    0    0  501  0.00000000000E+00  0.00000000000E+00  0.96272919175E+03  0.96272919175E+03  0.25500000920E-02 0.  1.
        2   -1    0    0  501    0  0.00000000000E+00  0.00000000000E+00 -0.18222907064E+04  0.18222907064E+04  0.25500000920E-02 0. -1.
    10030    2    1    2    0    0  0.00000000000E+00  0.00000000000E+00 -0.85956151465E+03  0.27850198981E+04  0.26490545173E+04 0.  0.
        4    1    3    3  502    0 -0.58702352143E+03 -0.68083658179E+03 -0.14524544619E+04  0.17081453810E+04  0.12699999809E+01 0. -1.
       -4    1    3    3    0  502  0.58702352143E+03  0.68083658179E+03  0.59289294728E+03  0.10768745171E+04  0.12699999809E+01 0.  1.
</event>
<event>
 5   0  0.1720129E-05  0.2560879E+04  0.7818609E-02  0.8381612E-01
        2   -1    0    0  501    0  0.00000000000E+00  0.00000000000E+00  0.81123082090E+03  0.81123082091E+03  0.25500000920E-02 0. -1.
       -2   -1    0    0    0  501  0.00000000000E+00  0.00000000000E+00 -0.20210341457E+04  0.20210341457E+04  0.25500000920E-02 0.  1.
    10030    2    1    2    0    0  0.00000000000E+00  0.00000000000E+00 -0.12098033248E+04  0.28322649666E+04  0.25608789031E+04 0.  0.
        3    1    3    3  502    0  0.98503752684E+02  0.10084938973E+03  0.80262178696E+03  0.81490817384E+03  0.10100000352E+00 0. -1.
       -3    1    3    3    0  502 -0.98503752684E+02 -0.10084938973E+03 -0.20124251118E+04  0.20173567928E+04  0.10100000352E+00 0.  1.
</event>
<event>
 5   0  0.1681731E-05  0.2593184E+04  0.7818609E-02  0.8370520E-01
        2   -1    0    0  501    0  0.00000000000E+00  0.00000000000E+00  0.21073530756E+04  0.21073530756E+04  0.25500000920E-02 0. -1.
       -2   -1    0    0    0  501  0.00000000000E+00  0.00000000000E+00 -0.79775450497E+03  0.79775450498E+03  0.25500000920E-02 0.  1.
    10030    2    1    2    0    0  0.00000000000E+00  0.00000000000E+00  0.13095985706E+04  0.29051075806E+04  0.25931836878E+04 0.  0.
        2    1    3    3  502    0 -0.22254091608E+03 -0.82587844388E+03 -0.43686230044E+03  0.96044173844E+03  0.25500000920E-02 0.  1.
       -2    1    3    3    0  502  0.22254091608E+03  0.82587844388E+03  0.17464608711E+04  0.19446658421E+04  0.25500000920E-02 0. -1.
</event>
<event>
 5   0  0.1681731E-05  0.2619420E+04  0.7818609E-02  0.8361634E-01
       -2   -1    0    0    0  501  0.00000000000E+00  0.00000000000E+00  0.80614301413E+03  0.80614301413E+03  0.25500000920E-02 0.  1.
        2   -1    0    0  501    0  0.00000000000E+00  0.00000000000E+00 -0.21278361801E+04  0.21278361801E+04  0.25500000920E-02 0. -1.
    10030    2    1    2    0    0  0.00000000000E+00  0.00000000000E+00 -0.13216931660E+04  0.29339791942E+04  0.26194199906E+04 0.  0.
        2    1    3    3  502    0 -0.47717891990E+03 -0.18770412721E+03 -0.20107296985E+04  0.20750822830E+04  0.25500000920E-02 0. -1.
       -2    1    3    3    0  502  0.47717891990E+03  0.18770412721E+03  0.68903653250E+03  0.85889691122E+03  0.25500000920E-02 0.  1.
</event>
<event>
 5   0  0.1677971E-05  0.2624261E+04  0.7818609E-02  0.8360007E-01
       -2   -1    0    0    0  501  0.00000000000E+00  0.00000000000E+00  0.12529188681E+04  0.12529188681E+04  0.25500000920E-02 0. -1.
        2   -1    0    0  501    0  0.00000000000E+00  0.00000000000E+00 -0.13741402153E+04  0.13741402153E+04  0.25500000920E-02 0.  1.
    10030    2    1    2    0    0  0.00000000000E+00  0.00000000000E+00 -0.12122134724E+03  0.26270590834E+04  0.26242608126E+04 0.  0.
        4    1    3    3  502    0 -0.10632947606E+04  0.72515178585E+03  0.19509021388E+03  0.13017306422E+04  0.12699999809E+01 0. -1.
       -4    1    3    3    0  502  0.10632947606E+04 -0.72515178585E+03 -0.31631156112E+03  0.13253284412E+04  0.12699999809E+01 0.  1.
</event>
<event>
 5   0  0.1869956E-05  0.2658732E+04  0.7818609E-02  0.8348520E-01
        2   -1    0    0  501    0  0.00000000000E+00  0.00000000000E+00  0.20435617235E+04  0.20435617235E+04  0.25500000920E-02 0. -1.
       -2   -1    0    0    0  501  0.00000000000E+00  0.00000000000E+00 -0.86477167198E+03  0.86477167198E+03  0.25500000920E-02 0.  1.
    10030    2    1    2    0    0  0.00000000000E+00  0.00000000000E+00  0.11787900515E+04  0.29083333954E+04  0.26587322456E+04 0.  0.
        5    1    3    3  502    0  0.12122735896E+04 -0.28644965362E+02 -0.65078678459E+01  0.12126385415E+04  0.46999998093E+01 0.  1.
       -5    1    3    3    0  502 -0.12122735896E+04  0.28644965362E+02  0.11852979193E+04  0.16956948539E+04  0.46999998093E+01 0. -1.
</event>
<event>
 5   0  0.1869956E-05  0.2590146E+04  0.7818609E-02  0.8371556E-01
       -2   -1    0    0    0  501  0.00000000000E+00  0.00000000000E+00  0.78981621030E+03  0.78981621030E+03  0.25500000920E-02 0. -1.
        2   -1    0    0  501    0  0.00000000000E+00  0.00000000000E+00 -0.21235494841E+04  0.21235494841E+04  0.25500000920E-02 0.  1.
    10030    2    1    2    0    0  0.00000000000E+00  0.00000000000E+00 -0.13337332738E+04  0.29133656944E+04  0.25901457920E+04 0.  0.
        5    1    3    3  502    0 -0.96917473394E+03 -0.79808035197E+03 -0.10242588113E+04  0.16202963049E+04  0.46999998093E+01 0. -1.
       -5    1    3    3    0  502  0.96917473394E+03  0.79808035197E+03 -0.30947446247E+03  0.12930693895E+04  0.46999998093E+01 0.  1.
</event>
<event>
 5   0  0.1720129E-05  0.2555159E+04  0.7818609E-02  0.8383594E-01
       -2   -1    0    0    0  501  0.00000000000E+00  0.00000000000E+00  0.74951326154E+03  0.74951326155E+03  0.25500000920E-02 0. -1.
        2   -1    0    0  501    0  0.00000000000E+00  0.00000000000E+00 -0.21776922965E+04  0.21776922965E+04  0.25500000920E-02 0.  1.
    10030    2    1    2    0    0  0.00000000000E+00  0.00000000000E+00 -0.14281790350E+04  0.29272055581E+04  0.25551589037E+04 0.  0.
        3    1    3    3  502    0  0.62759559913E+03  0.70185618738E+03  0.27520676526E+03  0.98092666273E+03  0.10100000352E+00 0. -1.
       -3    1    3    3    0  502 -0.62759559913E+03 -0.70185618738E+03 -0.17033858002E+04  0.19462788953E+04  0.10100000352E+00 0.  1.
</event>
<event>
 5   0  0.6993678E-06  0.2576350E+04  0.7818609E-02  0.8376279E-01
       -1   -1    0    0    0  501  0.00000000000E+00  0.00000000000E+00  0.80870935735E+03  0.80870935737E+03  0.50400001928E-02 0. -1.
        1   -1    0    0  501    0  0.00000000000E+00  0.00000000000E+00 -0.20519046097E+04  0.20519046097E+04  0.50400001928E-02 0.  1.
    10030    2    1    2    0    0  0.00000000000E+00  0.00000000000E+00 -0.12431952524E+04  0.28606139671E+04  0.25763497110E+04 0.  0.
        1    1    3    3  502    0 -0.25998989775E+03 -0.69718278526E+03  0.54596488409E+03  0.92289557246E+03  0.50400001928E-02 0. -1.
       -1    1    3    3    0  502  0.25998989775E+03  0.69718278526E+03 -0.17891601365E+04  0.19377183946E+04  0.50400001928E-02 0.  1.
</event>
<event>
 5   0  0.6993678E-06  0.2617706E+04  0.7818609E-02  0.8362212E-01
        1   -1    0    0  501    0  0.00000000000E+00  0.00000000000E+00  0.14222746366E+04  0.14222746366E+04  0.50400001928E-02 0. -1.
       -1   -1    0    0    0  501  0.00000000000E+00  0.00000000000E+00 -0.12044759629E+04  0.12044759629E+04  0.50400001928E-02 0.  1.
    10030    2    1    2    0    0  0.00000000000E+00  0.00000000000E+00  0.21779867365E+03  0.26267505995E+04  0.26177055697E+04 0.  0.
        1    1    3    3  502    0 -0.12623611341E+03  0.97074792105E+03 -0.76289981603E+03  0.12410895261E+04  0.50400001928E-02 0.  1.
       -1    1    3    3    0  502  0.12623611341E+03 -0.97074792105E+03  0.98069848968E+03  0.13856610734E+04  0.50400001928E-02 0. -1.
</event>
<event>
 5   0  0.1681731E-05  0.2552090E+04  0.7818609E-02  0.8384660E-01
        2   -1    0    0  501    0  0.00000000000E+00  0.00000000000E+00  0.12108778534E+04  0.12108778534E+04  0.25500000920E-02 0.  1.
       -2   -1    0    0    0  501  0.00000000000E+00  0.00000000000E+00 -0.13447195535E+04  0.13447195535E+04  0.25500000920E-02 0. -1.
    10030    2    1    2    0    0  0.00000000000E+00  0.00000000000E+00 -0.13384170008E+03  0.25555974068E+04  0.25520902228E+04 0.  0.
        2    1    3    3  502    0 -0.13949942955E+03  0.23474948968E+03 -0.13151183604E+04  0.13431692803E+04  0.25500000920E-02 0. -1.
       -2    1    3    3    0  502  0.13949942955E+03 -0.23474948968E+03  0.11812766603E+04  0.12124281265E+04  0.25500000920E-02 0.  1.
</event>
<event>
 5   0  0.1677971E-05  0.2571003E+04  0.7818609E-02  0.8378118E-01
       -2   -1    0    0    0  501  0.00000000000E+00  0.00000000000E+00  0.15075554910E+04  0.15075554910E+04  0.25500000920E-02 0.  1.
        2   -1    0    0  501    0  0.00000000000E+00  0.00000000000E+00 -0.10961545607E+04  0.10961545607E+04  0.25500000920E-02 0. -1.
    10030    2    1    2    0    0  0.00000000000E+00  0.00000000000E+00  0.41140093030E+03  0.26037100516E+04  0.25710027825E+04 0.  0.
        4    1    3    3  502    0  0.86982085246E+03  0.84707390197E+03  0.63343563854E+03  0.13694396050E+04  0.12699999809E+01 0.  1.
       -4    1    3    3    0  502 -0.86982085246E+03 -0.84707390197E+03 -0.22203470824E+03  0.12342704466E+04  0.12699999809E+01 0. -1.
</event>
<event>
 5   0  0.6706225E-06  0.2623601E+04  0.7818609E-02  0.8360229E-01
       -1   -1    0    0    0  501  0.00000000000E+00  0.00000000000E+00  0.14293250251E+04  0.14293250251E+04  0.50400001928E-02 0. -1.
        1   -1    0    0  501    0  0.00000000000E+00  0.00000000000E+00 -0.12039388473E+04  0.12039388473E+04  0.50400001928E-02 0.  1.
    10030    2    1    2    0    0  0.00000000000E+00  0.00000000000E+00  0.22538617777E+03  0.26332638725E+04  0.26236005208E+04 0.  0.
        5    1    3    3  502    0  0.21290161536E+03 -0.97394562332E+03  0.96841805603E+03  0.13898751010E+04  0.46999998093E+01 0. -1.
       -5    1    3    3    0  502 -0.21290161536E+03  0.97394562332E+03 -0.74303187826E+03  0.12433887715E+04  0.46999998093E+01 0.  1.
</event>
<event>
 5   0  0.1677971E-05  0.2572540E+04  0.7818609E-02  0.8377589E-01
       -2   -1    0    0    0  501  0.00000000000E+00  0.00000000000E+00  0.11457168891E+04  0.11457168891E+04  0.25500000920E-02 0.  1.
        2   -1    0    0  501    0  0.00000000000E+00  0.00000000000E+00 -0.14440654055E+04  0.14440654055E+04  0.25500000920E-02 0. -1.
    10030    2    1    2    0    0  0.00000000000E+00  0.00000000000E+00 -0.29834851634E+03  0.25897822946E+04  0.25725396977E+04 0.  0.
        4    1    3    3  502    0 -0.33982946524E+03  0.11903018873E+04  0.20271957173E+03  0.12543522177E+04  0.12699999809E+01 0. -1.
       -4    1    3    3    0  502  0.33982946524E+03 -0.11903018873E+04 -0.50106808807E+03  0.13354300769E+04  0.12699999809E+01 0.  1.
</event>
<event>
 5   0  0.6706225E-06  0.2845563E+04  0.7818609E-02  0.8289261E-01
        1   -1    0    0  501    0  0.00000000000E+00  0.00000000000E+00  0.18733107457E+04  0.18733107457E+04  0.50400001928E-02 0. -1.
       -1   -1    0    0    0  501  0.00000000000E+00  0.00000000000E+00 -0.10806041979E+04  0.10806041979E+04  0.50400001928E-02 0.  1.
    10030    2    1    2    0    0  0.00000000000E+00  0.00000000000E+00  0.79270654777E+03  0.29539149436E+04  0.28455631821E+04 0.  0.
        5    1    3    3  502    0 -0.74253076467E+03  0.91250515284E+03  0.12269889400E+04  0.16998651533E+04  0.46999998093E+01 0. -1.
       -5    1    3    3    0  502  0.74253076467E+03 -0.91250515284E+03 -0.43428239221E+03  0.12540497903E+04  0.46999998093E+01 0.  1.
</event>
<event>
 5   0  0.6918420E-06  0.2591988E+04  0.7818609E-02  0.8370928E-01
        1   -1    0    0  501    0  0.00000000000E+00  0.00000000000E+00  0.76241262916E+03  0.76241262917E+03  0.50400001928E-02 0.  1.
       -1   -1    0    0    0  501  0.00000000000E+00  0.00000000000E+00 -0.22030074310E+04  0.22030074310E+04  0.50400001928E-02 0. -1.
    10030    2    1    2    0    0  0.00000000000E+00  0.00000000000E+00 -0.14405948018E+04  0.29654200602E+04  0.25919881848E+04 0.  0.
        4    1    3    3  502    0  0.26347216988E+03  0.61091329265E+03  0.55212750707E+03  0.86456869733E+03  0.12699999809E+01 0.  1.
       -4    1    3    3    0  502 -0.26347216988E+03 -0.61091329265E+03 -0.19927223089E+04  0.21008513628E+04  0.12699999809E+01 0. -1.
</event>
<event>
 5   0  0.6993678E-06  0.2579177E+04  0.7818609E-02  0.8375309E-01
       -1   -1    0    0    0  501  0.00000000000E+00  0.00000000000E+00  0.18842159453E+04  0.18842159453E+04  0.50400001928E-02 0.  1.
        1   -1    0    0  501    0  0.00000000000E+00  0.00000000000E+00 -0.88261560491E+03  0.88261560493E+03  0.50400001928E-02 0. -1.
    10030    2    1    2    0    0  0.00000000000E+00  0.00000000000E+00  0.10016003404E+04  0.27668315502E+04  0.25791769201E+04 0.  0.
        1    1    3    3  502    0  0.22925082053E+03  0.12464964968E+04  0.75630782991E+03  0.14759102238E+04  0.50400001928E-02 0.  1.
       -1    1    3    3    0  502 -0.22925082053E+03 -0.12464964968E+04  0.24529251045E+03  0.12909213264E+04  0.50400001928E-02 0. -1.
</event>
<event>
 5   0  0.6993678E-06  0.2608203E+04  0.7818609E-02  0.8365420E-01
        1   -1    0    0  501    0  0.00000000000E+00  0.00000000000E+00  0.13488596691E+04  0.13488596691E+04  0.50400001928E-02 0.  1.
       -1   -1    0    0    0  501  0.00000000000E+00  0.00000000000E+00 -0.12608281946E+04  0.12608281946E+04  0.50400001928E-02 0. -1.
    10030    2    1    2    0    0  0.00000000000E+00  0.00000000000E+00  0.88031474475E+02  0.26096878638E+04  0.26082026773E+04 0.  0.
        1    1    3    3  502    0 -0.70166616006E+03  0.64761760366E+02 -0.10539471779E+04  0.12678068227E+04  0.50400001928E-02 0. -1.
       -1    1    3    3    0  502  0.70166616006E+03 -0.64761760366E+02  0.11419786524E+04  0.13418810411E+04  0.50400001928E-02 0.  1.
</event>
<event>
 5   0  0.6993678E-06  0.2588206E+04  0.7818609E-02  0.8372218E-01
       -1   -1    0    0    0  501  0.00000000000E+00  0.00000000000E+00  0.10129333191E+04  0.10129333191E+04  0.50400001928E-02 0. -1.
        1   -1    0    0  501    0  0.00000000000E+00  0.00000000000E+00 -0.16533198451E+04  0.16533198451E+04  0.50400001928E-02 0.  1.
    10030    2    1    2    0    0  0.00000000000E+00  0.00000000000E+00 -0.64038652595E+03  0.26662531642E+04  0.25882061419E+04 0.  0.
        1    1    3    3  502    0 -0.10815632133E+04 -0.64387869554E+03 -0.10556743929E+02  0.12587574046E+04  0.50400001928E-02 0. -1.
       -1    1    3    3    0  502  0.10815632133E+04  0.64387869554E+03 -0.62982978202E+03  0.14074957596E+04  0.50400001928E-02 0.  1.
</event>
<event>
 5   0  0.7138294E-06  0.2647758E+04  0.7818609E-02  0.8352157E-01
        1   -1    0    0  501    0  0.00000000000E+00  0.00000000000E+00  0.90605116805E+03  0.90605116807E+03  0.50400001928E-02 0.  1.
       -1   -1    0    0    0  501  0.00000000000E+00  0.00000000000E+00 -0.19343899144E+04  0.19343899144E+04  0.50400001928E-02 0. -1.
    10030    2    1    2    0    0  0.00000000000E+00  0.00000000000E+00 -0.10283387463E+04  0.28404410825E+04  0.26477584795E+04 0.  0.
        2    1    3    3  502    0 -0.77218796229E+02 -0.84264000994E+02  0.90074856706E+03  0.90797089458E+03  0.25500000920E-02 0.  1.
       -2    1    3    3    0  502  0.77218796229E+02  0.84264000994E+02 -0.19290873134E+04  0.19324701879E+04  0.25500000920E-02 0. -1.
</event>
<event>
 5   0  0.6706225E-06  0.2564937E+04  0.7818609E-02  0.8380210E-01
        1   -1    0    0  501    0  0.00000000000E+00  0.00000000000E+00  0.22065101431E+04  0.22065101431E+04  0.50400001928E-02 0. -1.
       -1   -1    0    0    0  501  0.00000000000E+00  0.00000000000E+00 -0.74539674077E+03  0.74539674079E+03  0.50400001928E-02 0.  1.
    10030    2    1    2    0    0  0.00000000000E+00  0.00000000000E+00  0.14611134023E+04  0.29519068839E+04  0.25649370122E+04 0.  0.
        5    1    3    3  502    0 -0.36860307106E+03  0.58412846621E+03  0.19741500840E+04  0.20914982509E+04  0.46999998093E+01 0. -1.
       -5    1    3    3    0  502  0.36860307106E+03 -0.58412846621E+03 -0.51303668171E+03  0.86040863304E+03  0.46999998093E+01 0.  1.
</event>
<event>
 5   0  0.1720129E-05  0.2556648E+04  0.7818609E-02  0.8383078E-01
       -2   -1    0    0    0  501  0.00000000000E+00  0.00000000000E+00  0.14284467691E+04  0.14284467691E+04  0.25500000920E-02 0.  1.
        2   -1    0    0  501    0  0.00000000000E+00  0.00000000000E+00 -0.11439780847E+04  0.11439780847E+04  0.25500000920E-02 0. -1.
    10030    2    1    2    0    0  0.00000000000E+00  0.00000000000E+00  0.28446868440E+03  0.25724248537E+04  0.25566476479E+04 0.  0.
        3    1    3    3  502    0 -0.10816885046E+04 -0.14867272506E+03 -0.52666752882E+03  0.12122426722E+04  0.10100000352E+00 0. -1.
       -3    1    3    3    0  502  0.10816885046E+04  0.14867272506E+03  0.81113621322E+03  0.13601821815E+04  0.10100000352E+00 0.  1.
</event>
<event>
 5   0  0.6984287E-06  0.2559213E+04  0.7818609E-02  0.8382189E-01
        1   -1    0    0  501    0  0.00000000000E+00  0.00000000000E+00  0.12608030541E+04  0.12608030541E+04  0.50400001928E-02 0. -1.
       -1   -1    0    0    0  501  0.00000000000E+00  0.00000000000E+00 -0.12986905064E+04  0.12986905064E+04  0.50400001928E-02 0.  1.
    10030    2    1    2    0    0  0.00000000000E+00  0.00000000000E+00 -0.37887452277E+02  0.25594935605E+04  0.25592131266E+04 0.  0.
        3    1    3    3  502    0 -0.11615646555E+04  0.40818670941E+03 -0.36761369409E+03  0.12849080422E+04  0.10100000352E+00 0.  1.
       -3    1    3    3    0  502  0.11615646555E+04 -0.40818670941E+03  0.32972624181E+03  0.12745855183E+04  0.10100000352E+00 0. -1.
</event>
<event>
 5   0  0.7138294E-06  0.2529719E+04  0.7818609E-02  0.8392474E-01
       -1   -1    0    0    0  501  0.00000000000E+00  0.00000000000E+00  0.13272743065E+04  0.13272743065E+04  0.50400001928E-02 0. -1.
        1   -1    0    0  501    0  0.00000000000E+00  0.00000000000E+00 -0.12053796044E+04  0.12053796044E+04  0.50400001928E-02 0.  1.
    10030    2    1    2    0    0  0.00000000000E+00  0.00000000000E+00  0.12189470215E+03  0.25326539109E+04  0.25297188606E+04 0.  0.
        2    1    3    3  502    0 -0.20953977940E+03 -0.12433221460E+04 -0.39730251771E+02  0.12614814192E+04  0.25500000920E-02 0.  1.
       -2    1    3    3    0  502  0.20953977940E+03  0.12433221460E+04  0.16162495392E+03  0.12711724917E+04  0.25500000920E-02 0. -1.
</event>
<event>
 5   0  0.1869956E-05  0.2584811E+04  0.7818609E-02  0.8373379E-01
       -2   -1    0    0    0  501  0.00000000000E+00  0.00000000000E+00  0.12310895711E+04  0.12310895711E+04  0.25500000920E-02 0. -1.
        2   -1    0    0  501    0  0.00000000000E+00  0.00000000000E+00 -0.13567752702E+04  0.13567752702E+04  0.25500000920E-02 0.  1.
    10030    2    1    2    0    0  0.00000000000E+00  0.00000000000E+00 -0.12568569911E+03  0.25878648413E+04  0.25848109296E+04 0.  0.
        5    1    3    3  502    0  0.49434525869E+03 -0.24101258733E+03  0.11080796626E+04  0.12370638346E+04  0.46999998093E+01 0. -1.
       -5    1    3    3    0  502 -0.49434525869E+03  0.24101258733E+03 -0.12337653617E+04  0.13508010068E+04  0.46999998093E+01 0.  1.
</event>
<event>
 5   0  0.1720129E-05  0.2593647E+04  0.7818609E-02  0.8370362E-01
       -2   -1    0    0    0  501  0.00000000000E+00  0.00000000000E+00  0.13957492808E+04  0.13957492808E+04  0.25500000920E-02 0.  1.
        2   -1    0    0  501    0  0.00000000000E+00  0.00000000000E+00 -0.12049094903E+04  0.12049094903E+04  0.25500000920E-02 0. -1.
    10030    2    1    2    0    0  0.00000000000E+00  0.00000000000E+00  0.19083979049E+03  0.26006587711E+04  0.25936472810E+04 0.  0.
        3    1    3    3  502    0  0.11335596140E+04 -0.39187130971E+03 -0.39909791894E+03  0.12640410124E+04  0.10100000352E+00 0. -1.
       -3    1    3    3    0  502 -0.11335596140E+04  0.39187130971E+03  0.58993770943E+03  0.13366177588E+04  0.10100000352E+00 0.  1.
</event>
<event>
 5   0  0.6993678E-06  0.2615813E+04  0.7818609E-02  0.8362850E-01
       -1   -1    0    0    0  501  0.00000000000E+00  0.00000000000E+00  0.11511782573E+04  0.11511782573E+04  0.50400001928E-02 0.  1.
        1   -1    0    0  501    0  0.00000000000E+00  0.00000000000E+00 -0.14859725794E+04  0.14859725794E+04  0.50400001928E-02 0. -1.
    10030    2    1    2    0    0  0.00000000000E+00  0.00000000000E+00 -0.33479432211E+03  0.26371508367E+04  0.26158129324E+04 0.  0.
        1    1    3    3  502    0 -0.42618652012E+03 -0.77621558840E+03  0.80298955803E+03  0.11953818720E+04  0.50400001928E-02 0.  1.
       -1    1    3    3    0  502  0.42618652012E+03  0.77621558840E+03 -0.11377838801E+04  0.14417689647E+04  0.50400001928E-02 0. -1.
</event>
<event>
 5   0  0.1677971E-05  0.2599057E+04  0.7818609E-02  0.8368521E-01
        2   -1    0    0  501    0  0.00000000000E+00  0.00000000000E+00  0.14892484924E+04  0.14892484924E+04  0.25500000920E-02 0. -1.
       -2   -1    0    0    0  501  0.00000000000E+00  0.00000000000E+00 -0.11339779210E+04  0.11339779210E+04  0.25500000920E-02 0.  1.
    10030    2    1    2    0    0  0.00000000000E+00  0.00000000000E+00  0.35527057141E+03  0.26232264133E+04  0.25990574516E+04 0.  0.
        4    1    3    3  502    0  0.11755846996E+04 -0.52950043075E+03  0.13633637242E+02  0.12894020246E+04  0.12699999809E+01 0.  1.
       -4    1    3    3    0  502 -0.11755846996E+04  0.52950043075E+03  0.34163693417E+03  0.13338243887E+04  0.12699999809E+01 0. -1.
</event>
<event>
 5   0  0.1702345E-05  0.2605369E+04  0.7818609E-02  0.8366380E-01
       -2   -1    0    0    0  501  0.00000000000E+00  0.00000000000E+00  0.78872792980E+03  0.78872792980E+03  0.25500000920E-02 0.  1.
        2   -1    0    0  501    0  0.00000000000E+00  0.00000000000E+00 -0.21515499037E+04  0.21515499037E+04  0.25500000920E-02 0. -1.
    10030    2    1    2    0    0  0.00000000000E+00  0.00000000000E+00 -0.13628219739E+04  0.29402778335E+04  0.26053694566E+04 0.  0.
        1    1    3    3  502    0 -0.19983298405E+03  0.98481980757E+03 -0.16169365164E+04  0.19037560172E+04  0.50400001928E-02 0. -1.
       -1    1    3    3    0  502  0.19983298405E+03 -0.98481980757E+03  0.25411454251E+03  0.10365218163E+04  0.50400001928E-02 0.  1.
</event>
<event>
 5   0  0.1720129E-05  0.2593355E+04  0.7818609E-02  0.8370462E-01
        2   -1    0    0  501    0  0.00000000000E+00  0.00000000000E+00  0.13423753226E+04  0.13423753226E+04  0.25500000920E-02 0.  1.
       -2   -1    0    0    0  501  0.00000000000E+00  0.00000000000E+00 -0.12525352280E+04  0.12525352280E+04  0.25500000920E-02 0. -1.
    10030    2    1    2    0    0  0.00000000000E+00  0.00000000000E+00  0.89840094526E+02  0.25949105506E+04  0.25933548779E+04 0.  0.
        3    1    3    3  502    0 -0.47484491167E+03 -0.12036189675E+04 -0.39960442524E+02  0.12945165724E+04  0.10100000352E+00 0.  1.
       -3    1    3    3    0  502  0.47484491167E+03  0.12036189675E+04  0.12980053705E+03  0.13003939782E+04  0.10100000352E+00 0. -1.
</event>
<event>
 5   0  0.6706225E-06  0.2617268E+04  0.7818609E-02  0.8362359E-01
       -1   -1    0    0    0  501  0.00000000000E+00  0.00000000000E+00  0.94759039914E+03  0.94759039916E+03  0.50400001928E-02 0.  1.
        1   -1    0    0  501    0  0.00000000000E+00  0.00000000000E+00 -0.18072402789E+04  0.18072402789E+04  0.50400001928E-02 0. -1.
    10030    2    1    2    0    0  0.00000000000E+00  0.00000000000E+00 -0.85964987979E+03  0.27548306781E+04  0.26172684519E+04 0.  0.
        5    1    3    3  502    0 -0.41042239554E+03  0.81889376655E+03  0.55389192255E+03  0.10704447186E+04  0.46999998093E+01 0.  1.
       -5    1    3    3    0  502  0.41042239554E+03 -0.81889376655E+03 -0.14135418023E+04  0.16843859595E+04  0.46999998093E+01 0. -1.
</event>
<event>
 5   0  0.7138294E-06  0.2623833E+04  0.7818609E-02  0.8360151E-01
       -1   -1    0    0    0  501  0.00000000000E+00  0.00000000000E+00  0.10347973178E+04  0.10347973178E+04  0.50400001928E-02 0.  1.
        1   -1    0    0  501    0  0.00000000000E+00  0.00000000000E+00 -0.16632481245E+04  0.16632481245E+04  0.50400001928E-02 0. -1.
    10030    2    1    2    0    0  0.00000000000E+00  0.00000000000E+00 -0.62845080667E+03  0.26980454423E+04  0.26238328439E+04 0.  0.
        2    1    3    3  502    0  0.12140361684E+04 -0.56322493345E+02 -0.82223170728E+03  0.14673517035E+04  0.25500000920E-02 0. -1.
       -2    1    3    3    0  502 -0.12140361684E+04  0.56322493345E+02  0.19378090062E+03  0.12306937388E+04  0.25500000920E-02 0.  1.
</event>
<event>
 5   0  0.6984287E-06  0.2235277E+04  0.7818609E-02  0.8503887E-01
        1   -1    0    0  501    0  0.00000000000E+00  0.00000000000E+00  0.13769046690E+04  0.13769046690E+04  0.50400001928E-02 0. -1.
       -1   -1    0    0    0  501  0.00000000000E+00  0.00000000000E+00 -0.90719083872E+03  0.90719083874E+03  0.50400001928E-02 0.  1.
    10030    2    1    2    0    0  0.00000000000E+00  0.00000000000E+00  0.46971383032E+03  0.22840955078E+04  0.22352765391E+04 0.  0.
        3    1    3    3  502    0  0.61883485966E+03 -0.11230684371E+03 -0.70919621191E+03  0.94790753128E+03  0.10100000352E+00 0.  1.
       -3    1    3    3    0  502 -0.61883485966E+03  0.11230684371E+03  0.11789100422E+04  0.13361879765E+04  0.10100000352E+00 0. -1.
</event>
<event>
 5   0  0.1681731E-05  0.2629304E+04  0.7818609E-02  0.8358315E-01
       -2   -1    0    0    0  501  0.00000000000E+00  0.00000000000E+00  0.10751997953E+04  0.10751997953E+04  0.25500000920E-02 0. -1.
        2   -1    0    0  501    0  0.00000000000E+00  0.00000000000E+00 -0.16074316220E+04  0.16074316220E+04  0.25500000920E-02 0.  1.
    10030    2    1    2    0    0  0.00000000000E+00  0.00000000000E+00 -0.53223182670E+03  0.26826314173E+04  0.26293042053E+04 0.  0.
        2    1    3    3  502    0  0.21175744100E+03 -0.40584341513E+03  0.99125889280E+03  0.10918536001E+04  0.25500000920E-02 0. -1.
       -2    1    3    3    0  502 -0.21175744100E+03  0.40584341513E+03 -0.15234907195E+04  0.15907778172E+04  0.25500000920E-02 0.  1.
</event>
<event>
 5   0  0.1677971E-05  0.2596582E+04  0.7818609E-02  0.8369363E-01
        2   -1    0    0  501    0  0.00000000000E+00  0.00000000000E+00  0.96320666462E+03  0.96320666462E+03  0.25500000920E-02 0.  1.
       -2   -1    0    0    0  501  0.00000000000E+00  0.00000000000E+00 -0.17499465171E+04  0.17499465171E+04  0.25500000920E-02 0. -1.
    10030    2    1    2    0    0  0.00000000000E+00  0.00000000000E+00 -0.78673985250E+03  0.27131531817E+04  0.25965824832E+04 0.  0.
        4    1    3    3  502    0 -0.42624341929E+03 -0.12188822386E+04 -0.53433835430E+03  0.13974535605E+04  0.12699999809E+01 0.  1.
       -4    1    3    3    0  502  0.42624341929E+03  0.12188822386E+04 -0.25240149820E+03  0.13156996212E+04  0.12699999809E+01 0. -1.
</event>
<event>
 5   0  0.7138294E-06  0.2673592E+04  0.7818609E-02  0.8343625E-01
       -1   -1    0    0    0  501  0.00000000000E+00  0.00000000000E+00  0.19381900278E+04  0.19381900278E+04  0.50400001928E-02 0. -1.
        1   -1    0    0  501    0  0.00000000000E+00  0.00000000000E+00 -0.92200603522E+03  0.92200603523E+03  0.50400001928E-02 0.  1.
    10030    2    1    2    0    0  0.00000000000E+00  0.00000000000E+00  0.10161839926E+04  0.28601960631E+04  0.26735915193E+04 0.  0.
        2    1    3    3  502    0 -0.43782189987E+03  0.12613987966E+04  0.43869563343E+03  0.14054425633E+04  0.25500000920E-02 0.  1.
       -2    1    3    3    0  502  0.43782189987E+03 -0.12613987966E+04  0.57748835918E+03  0.14547534997E+04  0.25500000920E-02 0. -1.
</event>
<event>
 5   0  0.6706225E-06  0.2606702E+04  0.7818609E-02  0.8365928E-01
        1   -1    0    0  501    0  0.00000000000E+00  0.00000000000E+00  0.13939126751E+04  0.13939126752E+04  0.50400001928E-02 0.  1.
       -1   -1    0    0    0  501  0.00000000000E+00  0.00000000000E+00 -0.12186731988E+04  0.12186731988E+04  0.50400001928E-02 0. -1.
    10030    2    1    2    0    0  0.00000000000E+00  0.00000000000E+00  0.17523947635E+03  0.26125858740E+04  0.26067021454E+04 0.  0.
        5    1    3    3  502    0  0.68664209615E+03 -0.15057831899E+02  0.11978193238E+04  0.13807596927E+04  0.46999998093E+01 0.  1.
       -5    1    3    3    0  502 -0.68664209615E+03  0.15057831899E+02 -0.10225798474E+04  0.12318261813E+04  0.46999998093E+01 0. -1.
</event>
<event>
 5   0  0.7138294E-06  0.2577965E+04  0.7818609E-02  0.8375725E-01
       -1   -1    0    0    0  501  0.00000000000E+00  0.00000000000E+00  0.86541043373E+03  0.86541043375E+03  0.50400001928E-02 0. -1.
        1   -1    0    0  501    0  0.00000000000E+00  0.00000000000E+00 -0.19198696954E+04  0.19198696955E+04  0.50400001928E-02 0.  1.
    10030    2    1    2    0    0  0.00000000000E+00  0.00000000000E+00 -0.10544592617E+04  0.27852801292E+04  0.25779645194E+04 0.  0.
        2    1    3    3  502    0  0.68947426535E+03 -0.10579903930E+04 -0.24807823542E+03  0.12869581365E+04  0.25500000920E-02 0. -1.
       -2    1    3    3    0  502 -0.68947426535E+03  0.10579903930E+04 -0.80638102629E+03  0.14983219927E+04  0.25500000920E-02 0.  1.
</event>
<event>
 5   0  0.1681731E-05  0.2588400E+04  0.7818609E-02  0.8372152E-01
        2   -1    0    0  501    0  0.00000000000E+00  0.00000000000E+00  0.15752126260E+04  0.15752126260E+04  0.25500000920E-02 0.  1.
       -2   -1    0    0    0  501  0.00000000000E+00  0.00000000000E+00 -0.10633193407E+04  0.10633193407E+04  0.25500000920E-02 0. -1.
    10030    2    1    2    0    0  0.00000000000E+00  0.00000000000E+00  0.51189328523E+03  0.26385319667E+04  0.25884003175E+04 0.  0.
        2    1    3    3  502    0  0.11473958296E+04 -0.42388828857E+02  0.86470644979E+03  0.14373695582E+04  0.25500000920E-02 0.  1.
       -2    1    3    3    0  502 -0.11473958296E+04  0.42388828857E+02 -0.35281316456E+03  0.12011624085E+04  0.25500000920E-02 0. -1.
</event>
<event>
 5   0  0.1720129E-05  0.2607613E+04  0.7818609E-02  0.8365620E-01
        2   -1    0    0  501    0  0.00000000000E+00  0.00000000000E+00  0.11367231323E+04  0.11367231323E+04  0.25500000920E-02 0.  1.
       -2   -1    0    0    0  501  0.00000000000E+00  0.00000000000E+00 -0.14954489223E+04  0.14954489223E+04  0.25500000920E-02 0. -1.
    10030    2    1    2    0    0  0.00000000000E+00  0.00000000000E+00 -0.35872579000E+03  0.26321720547E+04  0.26076129953E+04 0.  0.
        3    1    3    3  502    0 -0.22552564682E+03 -0.16874125417E+03 -0.14643708947E+04  0.14912134507E+04  0.10100000352E+00 0. -1.
       -3    1    3    3    0  502  0.22552564682E+03  0.16874125417E+03  0.11056451047E+04  0.11409586040E+04  0.10100000352E+00 0.  1.
</event>
<event>
 5   0  0.1681731E-05  0.2585222E+04  0.7818609E-02  0.8373238E-01
        2   -1    0    0  501    0  0.00000000000E+00  0.00000000000E+00  0.19860246247E+04  0.19860246247E+04  0.25500000920E-02 0. -1.
       -2   -1    0    0    0  501  0.00000000000E+00  0.00000000000E+00 -0.84130028238E+03  0.84130028238E+03  0.25500000920E-02 0.  1.
    10030    2    1    2    0    0  0.00000000000E+00  0.00000000000E+00  0.11447243423E+04  0.28273249071E+04  0.25852219074E+04 0.  0.
        2    1    3    3  502    0 -0.27666383193E+03  0.53421128499E+03  0.18235836625E+04  0.19202556983E+04  0.25500000920E-02 0. -1.
       -2    1    3    3    0  502  0.27666383193E+03 -0.53421128499E+03 -0.67885932016E+03  0.90706920876E+03  0.25500000920E-02 0.  1.
</event>
<event>
 5   0  0.6984287E-06  0.2587264E+04  0.7818609E-02  0.8372540E-01
       -1   -1    0    0    0  501  0.00000000000E+00  0.00000000000E+00  0.95277407990E+03  0.95277407992E+03  0.50400001928E-02 0. -1.
        1   -1    0    0  501    0  0.00000000000E+00  0.00000000000E+00 -0.17564323888E+04  0.17564323888E+04  0.50400001928E-02 0.  1.
    10030    2    1    2    0    0  0.00000000000E+00  0.00000000000E+00 -0.80365830893E+03  0.27092064688E+04  0.25872636149E+04 0.  0.
        3    1    3    3  502    0 -0.98333151223E+03 -0.99219590940E+02 -0.12758537597E+04  0.16138736681E+04  0.10100000352E+00 0. -1.
       -3    1    3    3    0  502  0.98333151223E+03  0.99219590940E+02  0.47219545082E+03  0.10953328006E+04  0.10100000352E+00 0.  1.
</event>
<event>
 5   0  0.6706225E-06  0.2606260E+04  0.7818609E-02  0.8366078E-01
        1   -1    0    0  501    0  0.00000000000E+00  0.00000000000E+00  0.21960762991E+04  0.21960762991E+04  0.50400001928E-02 0.  1.
       -1   -1    0    0    0  501  0.00000000000E+00  0.00000000000E+00 -0.77326466666E+03  0.77326466667E+03  0.50400001928E-02 0. -1.
    10030    2    1    2    0    0  0.00000000000E+00  0.00000000000E+00  0.14228116325E+04  0.29693409658E+04  0.26062603150E+04 0.  0.
        5    1    3    3  502    0  0.94659720674E+03 -0.41886550838E+03 -0.19047344619E+03  0.10525192681E+04  0.46999998093E+01 0.  1.
       -5    1    3    3    0  502 -0.94659720674E+03  0.41886550838E+03  0.16132850787E+04  0.19168216978E+04  0.46999998093E+01 0. -1.
</event>
<event>
 5   0  0.1869956E-05  0.2597550E+04  0.7818609E-02  0.8369034E-01
        2   -1    0    0  501    0  0.00000000000E+00  0.00000000000E+00  0.13229793116E+04  0.13229793116E+04  0.25500000920E-02 0. -1.
       -2   -1    0    0    0  501  0.00000000000E+00  0.00000000000E+00 -0.12750139437E+04  0.12750139437E+04  0.25500000920E-02 0.  1.
    10030    2    1    2    0    0  0.00000000000E+00  0.00000000000E+00  0.47965367903E+02  0.25979932554E+04  0.25975504381E+04 0.  0.
        5    1    3    3  502    0  0.35236302719E+03 -0.11083324033E+04  0.60221146861E+03  0.13096721582E+04  0.46999998093E+01 0. -1.
       -5    1    3    3    0  502 -0.35236302719E+03  0.11083324033E+04 -0.55424610071E+03  0.12883210971E+04  0.46999998093E+01 0.  1.
</event>
<event>
 5   0  0.6706225E-06  0.2607644E+04  0.7818609E-02  0.8365609E-01
        1   -1    0    0  501    0  0.00000000000E+00  0.00000000000E+00  0.94304773635E+03  0.94304773636E+03  0.50400001928E-02 0.  1.
       -1   -1    0    0    0  501  0.00000000000E+00  0.00000000000E+00 -0.18026154147E+04  0.18026154147E+04  0.50400001928E-02 0. -1.
    10030    2    1    2    0    0  0.00000000000E+00  0.00000000000E+00 -0.85956767836E+03  0.27456631511E+04  0.26076444438E+04 0.  0.
        5    1    3    3  502    0  0.12227733913E+04 -0.32248510630E+03 -0.76401009187E+03  0.14774657088E+04  0.46999998093E+01 0. -1.
       -5    1    3    3    0  502 -0.12227733913E+04  0.32248510630E+03 -0.95557586485E+02  0.12681974423E+04  0.46999998093E+01 0.  1.
</event>
<event>
 5   0  0.7138294E-06  0.2402746E+04  0.7818609E-02  0.8438476E-01
       -1   -1    0    0    0  501  0.00000000000E+00  0.00000000000E+00  0.71909860478E+03  0.71909860480E+03  0.50400001928E-02 0.  1.
        1   -1    0    0  501    0  0.00000000000E+00  0.00000000000E+00 -0.20070919938E+04  0.20070919938E+04  0.50400001928E-02 0. -1.
    10030    2    1    2    0    0  0.00000000000E+00  0.00000000000E+00 -0.12879933890E+04  0.27261905986E+04  0.24027459728E+04 0.  0.
        2    1    3    3  502    0  0.81574780665E+03  0.56348588298E+03 -0.14138109253E+04  0.17267953431E+04  0.25500000920E-02 0. -1.
       -2    1    3    3    0  502 -0.81574780665E+03 -0.56348588298E+03  0.12581753626E+03  0.99939525555E+03  0.25500000920E-02 0.  1.
</event>
<event>
 5   0  0.1869956E-05  0.2606570E+04  0.7818609E-02  0.8365973E-01
        2   -1    0    0  501    0  0.00000000000E+00  0.00000000000E+00  0.19644137828E+04  0.19644137828E+04  0.25500000920E-02 0.  1.
       -2   -1    0    0    0  501  0.00000000000E+00  0.00000000000E+00 -0.86466092522E+03  0.86466092522E+03  0.25500000920E-02 0. -1.
    10030    2    1    2    0    0  0.00000000000E+00  0.00000000000E+00  0.10997528576E+04  0.28290747080E+04  0.26065700366E+04 0.  0.
        5    1    3    3  502    0  0.84104874983E+03 -0.78759281281E+03  0.12108476314E+04  0.16714782424E+04  0.46999998093E+01 0.  1.
       -5    1    3    3    0  502 -0.84104874983E+03  0.78759281281E+03 -0.11109477384E+03  0.11575964656E+04  0.46999998093E+01 0. -1.
</event>
<event>
 5   0  0.6993678E-06  0.2573305E+04  0.7818609E-02  0.8377326E-01
       -1   -1    0    0    0  501  0.00000000000E+00  0.00000000000E+00  0.16297645544E+04  0.16297645544E+04  0.50400001928E-02 0.  1.
        1   -1    0    0  501    0  0.00000000000E+00  0.00000000000E+00 -0.10157750385E+04  0.10157750385E+04  0.50400001928E-02 0. -1.
    10030    2    1    2    0    0  0.00000000000E+00  0.00000000000E+00  0.61398951588E+03  0.26455395929E+04  0.25733046092E+04 0.  0.
        1    1    3    3  502    0 -0.63862044664E+03 -0.93219983849E+03  0.93960642331E+03  0.14695893455E+04  0.50400001928E-02 0.  1.
       -1    1    3    3    0  502  0.63862044664E+03  0.93219983849E+03 -0.32561690744E+03  0.11759502473E+04  0.50400001928E-02 0. -1.
</event>
<event>
 5   0  0.1720129E-05  0.2622596E+04  0.7818609E-02  0.8360566E-01
        2   -1    0    0  501    0  0.00000000000E+00  0.00000000000E+00  0.11256162465E+04  0.11256162465E+04  0.25500000920E-02 0. -1.
       -2   -1    0    0    0  501  0.00000000000E+00  0.00000000000E+00 -0.15276094248E+04  0.15276094248E+04  0.25500000920E-02 0.  1.
    10030    2    1    2    0    0  0.00000000000E+00  0.00000000000E+00 -0.40199317833E+03  0.26532256713E+04  0.26225956507E+04 0.  0.
        3    1    3    3  502    0  0.61701114998E+03  0.62782143157E+03 -0.11842736270E+04  0.14755902354E+04  0.10100000352E+00 0.  1.
       -3    1    3    3    0  502 -0.61701114998E+03 -0.62782143157E+03  0.78228044866E+03  0.11776354358E+04  0.10100000352E+00 0. -1.
</event>
<event>
 5   0  0.1702345E-05  0.2627990E+04  0.7818609E-02  0.8358755E-01
       -2   -1    0    0    0  501  0.00000000000E+00  0.00000000000E+00  0.91823044486E+03  0.91823044487E+03  0.25500000920E-02 0. -1.
        2   -1    0    0  501    0  0.00000000000E+00  0.00000000000E+00 -0.18803375291E+04  0.18803375291E+04  0.25500000920E-02 0.  1.
    10030    2    1    2    0    0  0.00000000000E+00  0.00000000000E+00 -0.96210708420E+03  0.27985679739E+04  0.26279902327E+04 0.  0.
        1    1    3    3  502    0  0.53020595663E+03 -0.47305983588E+03 -0.16580921360E+04  0.18039327860E+04  0.50400001928E-02 0.  1.
       -1    1    3    3    0  502 -0.53020595663E+03  0.47305983588E+03  0.69598505180E+03  0.99463518796E+03  0.50400001928E-02 0. -1.
</event>
<event>
 5   0  0.1720129E-05  0.2571346E+04  0.7818609E-02  0.8378000E-01
        2   -1    0    0  501    0  0.00000000000E+00  0.00000000000E+00  0.13591016349E+04  0.13591016349E+04  0.25500000920E-02 0. -1.
       -2   -1    0    0    0  501  0.00000000000E+00  0.00000000000E+00 -0.12162115053E+04  0.12162115053E+04  0.25500000920E-02 0.  1.
    10030    2    1    2    0    0  0.00000000000E+00  0.00000000000E+00  0.14289012963E+03  0.25753131402E+04  0.25713459863E+04 0.  0.
        3    1    3    3  502    0  0.53229986589E+01 -0.29353641370E+03 -0.11821901721E+04  0.12180991642E+04  0.10100000352E+00 0.  1.
       -3    1    3    3    0  502 -0.53229986589E+01  0.29353641370E+03  0.13250803018E+04  0.13572139761E+04  0.10100000352E+00 0. -1.
</event>
<event>
 5   0  0.7138294E-06  0.2598383E+04  0.7818609E-02  0.8368751E-01
        1   -1    0    0  501    0  0.00000000000E+00  0.00000000000E+00  0.84892921982E+03  0.84892921983E+03  0.50400001928E-02 0. -1.
       -1   -1    0    0    0  501  0.00000000000E+00  0.00000000000E+00 -0.19882670390E+04  0.19882670390E+04  0.50400001928E-02 0.  1.
    10030    2    1    2    0    0  0.00000000000E+00  0.00000000000E+00 -0.11393378192E+04  0.28371962589E+04  0.25983825633E+04 0.  0.
        2    1    3    3  502    0 -0.65430918092E+03  0.35370268311E+03  0.59344281620E+03  0.95152533775E+03  0.25500000920E-02 0. -1.
       -2    1    3    3    0  502  0.65430918092E+03 -0.35370268311E+03 -0.17327806354E+04  0.18856709211E+04  0.25500000920E-02 0.  1.
</event>
<event>
 5   0  0.1677971E-05  0.2412807E+04  0.7818609E-02  0.8434724E-01
        2   -1    0    0  501    0  0.00000000000E+00  0.00000000000E+00  0.17299818698E+04  0.17299818698E+04  0.25500000920E-02 0. -1.
       -2   -1    0    0    0  501  0.00000000000E+00  0.00000000000E+00 -0.84128592876E+03  0.84128592876E+03  0.25500000920E-02 0.  1.
    10030    2    1    2    0    0  0.00000000000E+00  0.00000000000E+00  0.88869594109E+03  0.25712677986E+04  0.24128069994E+04 0.  0.
        4    1    3    3  502    0  0.36666310970E+03 -0.52761195692E+03  0.15324805990E+04  0.16617203773E+04  0.12699999809E+01 0. -1.
       -4    1    3    3    0  502 -0.36666310970E+03  0.52761195692E+03 -0.64378465787E+03  0.90954742136E+03  0.12699999809E+01 0.  1.
</event>
<event>
 5   0  0.6706225E-06  0.2585012E+04  0.7818609E-02  0.8373310E-01
        1   -1    0    0  501    0  0.00000000000E+00  0.00000000000E+00  0.18085800323E+04  0.18085800323E+04  0.50400001928E-02 0. -1.
       -1   -1    0    0    0  501  0.00000000000E+00  0.00000000000E+00 -0.92369213186E+03  0.92369213188E+03  0.50400001928E-02 0.  1.
    10030    2    1    2    0    0  0.00000000000E+00  0.00000000000E+00  0.88488790045E+03  0.27322721642E+04  0.25850115247E+04 0.  0.
        5    1    3    3  502    0 -0.14794728121E+03  0.23480650886E+03  0.17767059808E+04  0.17982571359E+04  0.46999998093E+01 0. -1.
       -5    1    3    3    0  502  0.14794728121E+03 -0.23480650886E+03 -0.89181808036E+03  0.93401502829E+03  0.46999998093E+01 0.  1.
</event>
<event>
 5   0  0.7138294E-06  0.2625033E+04  0.7818609E-02  0.8359748E-01
        1   -1    0    0  501    0  0.00000000000E+00  0.00000000000E+00  0.19964802245E+04  0.19964802245E+04  0.50400001928E-02 0. -1.
       -1   -1    0    0    0  501  0.00000000000E+00  0.00000000000E+00 -0.86286801171E+03  0.86286801173E+03  0.50400001928E-02 0.  1.
    10030    2    1    2    0    0  0.00000000000E+00  0.00000000000E+00  0.11336122127E+04  0.28593482362E+04  0.26250325116E+04 0.  0.
        2    1    3    3  502    0  0.75703146115E+03 -0.10610539707E+04  0.73473187791E+03  0.14962496765E+04  0.25500000920E-02 0.  1.
       -2    1    3    3    0  502 -0.75703146115E+03  0.10610539707E+04  0.39888033484E+03  0.13630985597E+04  0.25500000920E-02 0. -1.
</event>
<event>
 5   0  0.5840500E-06  0.2586507E+04  0.7818609E-02  0.8372799E-01
       -3   -1    0    0    0  501  0.00000000000E+00  0.00000000000E+00  0.14199538194E+04  0.14199538230E+04  0.10100000352E+00 0. -1.
        3   -1    0    0  501    0  0.00000000000E+00  0.00000000000E+00 -0.11778581043E+04  0.11778581086E+04  0.10100000352E+00 0.  1.
    10030    2    1    2    0    0  0.00000000000E+00  0.00000000000E+00  0.24209571512E+03  0.25978119316E+04  0.25865066203E+04 0.  0.
        5    1    3    3  502    0 -0.25054168247E+03 -0.66460192501E+03  0.12065191860E+04  0.14000633877E+04  0.46999998093E+01 0. -1.
       -5    1    3    3    0  502  0.25054168247E+03  0.66460192501E+03 -0.96442347086E+03  0.11977485439E+04  0.46999998093E+01 0.  1.
</event>
<event>
 5   0  0.7138294E-06  0.2610864E+04  0.7818609E-02  0.8364520E-01
        1   -1    0    0  501    0  0.00000000000E+00  0.00000000000E+00  0.26029313468E+04  0.26029313468E+04  0.50400001928E-02 0.  1.
       -1   -1    0    0    0  501  0.00000000000E+00  0.00000000000E+00 -0.65470521637E+03  0.65470521639E+03  0.50400001928E-02 0. -1.
    10030    2    1    2    0    0  0.00000000000E+00  0.00000000000E+00  0.19482261305E+04  0.32576365632E+04  0.26108640184E+04 0.  0.
        2    1    3    3  502    0  0.89848493586E+03 -0.91851415184E+03  0.68629889972E+03  0.14566913217E+04  0.25500000920E-02 0. -1.
       -2    1    3    3    0  502 -0.89848493586E+03  0.91851415184E+03  0.12619272307E+04  0.18009452415E+04  0.25500000920E-02 0.  1.
</event>
<event>
 5   0  0.6984287E-06  0.2465908E+04  0.7818609E-02  0.8415233E-01
        1   -1    0    0  501    0  0.00000000000E+00  0.00000000000E+00  0.17551724206E+04  0.17551724206E+04  0.50400001928E-02 0.  1.
       -1   -1    0    0    0  501  0.00000000000E+00  0.00000000000E+00 -0.86611160297E+03  0.86611160299E+03  0.50400001928E-02 0. -1.
    10030    2    1    2    0    0  0.00000000000E+00  0.00000000000E+00  0.88906081759E+03  0.26212840236E+04  0.24659077020E+04 0.  0.
        3    1    3    3  502    0  0.13189988867E+03  0.16935893752E+03  0.17351552601E+04  0.17483832009E+04  0.10100000352E+00 0.  1.
       -3    1    3    3    0  502 -0.13189988867E+03 -0.16935893752E+03 -0.84609444251E+03  0.87290082266E+03  0.10100000352E+00 0. -1.
</event>
<event>
 5   0  0.6706225E-06  0.2588681E+04  0.7818609E-02  0.8372056E-01
       -1   -1    0    0    0  501  0.00000000000E+00  0.00000000000E+00  0.14980361525E+04  0.14980361525E+04  0.50400001928E-02 0.  1.
        1   -1    0    0  501    0  0.00000000000E+00  0.00000000000E+00 -0.11183423644E+04  0.11183423644E+04  0.50400001928E-02 0. -1.
    10030    2    1    2    0    0  0.00000000000E+00  0.00000000000E+00  0.37969378805E+03  0.26163785169E+04  0.25886809713E+04 0.  0.
        5    1    3    3  502    0 -0.22925968611E+03 -0.40479372498E+03  0.14106100618E+04  0.14853487132E+04  0.46999998093E+01 0.  1.
       -5    1    3    3    0  502  0.22925968611E+03  0.40479372498E+03 -0.10309162737E+04  0.11310298037E+04  0.46999998093E+01 0. -1.
</event>
<event>
 5   0  0.1869956E-05  0.2641136E+04  0.7818609E-02  0.8354361E-01
       -2   -1    0    0    0  501  0.00000000000E+00  0.00000000000E+00  0.90240042692E+03  0.90240042693E+03  0.25500000920E-02 0.  1.
        2   -1    0    0  501    0  0.00000000000E+00  0.00000000000E+00 -0.19325115622E+04  0.19325115622E+04  0.25500000920E-02 0. -1.
    10030    2    1    2    0    0  0.00000000000E+00  0.00000000000E+00 -0.10301111352E+04  0.28349119891E+04  0.26411355578E+04 0.  0.
        5    1    3    3  502    0  0.96363040045E+03  0.40660835857E+03 -0.13804085474E+04  0.17318959997E+04  0.46999998093E+01 0. -1.
       -5    1    3    3    0  502 -0.96363040045E+03 -0.40660835857E+03  0.35029741217E+03  0.11030159894E+04  0.46999998093E+01 0.  1.
</event>
<event>
 5   0  0.6993678E-06  0.2560679E+04  0.7818609E-02  0.8381682E-01
        1   -1    0    0  501    0  0.00000000000E+00  0.00000000000E+00  0.87550987013E+03  0.87550987014E+03  0.50400001928E-02 0.  1.
       -1   -1    0    0    0  501  0.00000000000E+00  0.00000000000E+00 -0.18723594167E+04  0.18723594168E+04  0.50400001928E-02 0. -1.
    10030    2    1    2    0    0  0.00000000000E+00  0.00000000000E+00 -0.99684954662E+03  0.27478692869E+04  0.25606789333E+04 0.  0.
        1    1    3    3  502    0 -0.58115750058E+03 -0.11084011251E+04 -0.20854412060E+03  0.12687741110E+04  0.50400001928E-02 0.  1.
       -1    1    3    3    0  502  0.58115750058E+03  0.11084011251E+04 -0.78830542601E+03  0.14790951759E+04  0.50400001928E-02 0. -1.
</event>
<event>
 5   0  0.6706225E-06  0.2586842E+04  0.7818609E-02  0.8372684E-01
       -1   -1    0    0    0  501  0.00000000000E+00  0.00000000000E+00  0.76885960677E+03  0.76885960679E+03  0.50400001928E-02 0.  1.
        1   -1    0    0  501    0  0.00000000000E+00  0.00000000000E+00 -0.21758693218E+04  0.21758693218E+04  0.50400001928E-02 0. -1.
    10030    2    1    2    0    0  0.00000000000E+00  0.00000000000E+00 -0.14070097151E+04  0.29447289286E+04  0.25868421144E+04 0.  0.
        5    1    3    3  502    0  0.11685751008E+04 -0.51678681509E+03 -0.93196885627E+03  0.15815259775E+04  0.46999998093E+01 0. -1.
       -5    1    3    3    0  502 -0.11685751008E+04  0.51678681509E+03 -0.47504085879E+03  0.13632029511E+04  0.46999998093E+01 0.  1.
</event>
<event>
 5   0  0.6918420E-06  0.2600965E+04  0.7818609E-02  0.8367873E-01
        1   -1    0    0  501    0  0.00000000000E+00  0.00000000000E+00  0.20270478118E+04  0.20270478118E+04  0.50400001928E-02 0.  1.
       -1   -1    0    0    0  501  0.00000000000E+00  0.00000000000E+00 -0.83434399693E+03  0.83434399695E+03  0.50400001928E-02 0. -1.
    10030    2    1    2    0    0  0.00000000000E+00  0.00000000000E+00  0.11927038148E+04  0.28613918087E+04  0.26009653387E+04 0.  0.
        4    1    3    3  502    0 -0.12672472726E+04 -0.18019951924E+03  0.34340395388E+03  0.13252605046E+04  0.12699999809E+01 0. -1.
       -4    1    3    3    0  502  0.12672472726E+04  0.18019951924E+03  0.84929986096E+03  0.15361313041E+04  0.12699999809E+01 0.  1.
</event>
<event>
 5   0  0.7138294E-06  0.2597388E+04  0.7818609E-02  0.8369089E-01
        1   -1    0    0  501    0  0.00000000000E+00  0.00000000000E+00  0.18716827003E+04  0.18716827003E+04  0.50400001928E-02 0. -1.
       -1   -1    0    0    0  501  0.00000000000E+00  0.00000000000E+00 -0.90111746379E+03  0.90111746380E+03  0.50400001928E-02 0.  1.
    10030    2    1    2    0    0  0.00000000000E+00  0.00000000000E+00  0.97056523651E+03  0.27728001641E+04  0.25973878940E+04 0.  0.
        2    1    3    3  502    0  0.69856952674E+03  0.36003184178E+03 -0.61845867798E+03  0.10000567220E+04  0.25500000920E-02 0.  1.
       -2    1    3    3    0  502 -0.69856952674E+03 -0.36003184178E+03  0.15890239145E+04  0.17727434421E+04  0.25500000920E-02 0. -1.
</event>
<event>
 5   0  0.1681731E-05  0.2573867E+04  0.7818609E-02  0.8377133E-01
       -2   -1    0    0    0  501  0.00000000000E+00  0.00000000000E+00  0.85620659945E+03  0.85620659946E+03  0.25500000920E-02 0. -1.
        2   -1    0    0  501    0  0.00000000000E+00  0.00000000000E+00 -0.19343431767E+04  0.19343431767E+04  0.25500000920E-02 0.  1.
    10030    2    1    2    0    0  0.00000000000E+00  0.00000000000E+00 -0.10781365772E+04  0.27905497761E+04  0.25738666582E+04 0.  0.
        2    1    3    3  502    0  0.95476245794E+03  0.77774920213E+03 -0.13379123928E+03  0.12386949860E+04  0.25500000920E-02 0. -1.
       -2    1    3    3    0  502 -0.95476245794E+03 -0.77774920213E+03 -0.94434533794E+03  0.15518547902E+04  0.25500000920E-02 0.  1.
</event>
<event>
 5   0  0.1720129E-05  0.2606815E+04  0.7818609E-02  0.8365890E-01
        2   -1    0    0  501    0  0.00000000000E+00  0.00000000000E+00  0.23540122349E+04  0.23540122349E+04  0.25500000920E-02 0.  1.
       -2   -1    0    0    0  501  0.00000000000E+00  0.00000000000E+00 -0.72169193092E+03  0.72169193092E+03  0.25500000920E-02 0. -1.
    10030    2    1    2    0    0  0.00000000000E+00  0.00000000000E+00  0.16323203040E+04  0.30757041659E+04  0.26068154022E+04 0.  0.
        3    1    3    3  502    0 -0.27209821640E+03 -0.42768692779E+03  0.22329471932E+04  0.22897612813E+04  0.10100000352E+00 0.  1.
       -3    1    3    3    0  502  0.27209821640E+03  0.42768692779E+03 -0.60062688918E+03  0.78594288455E+03  0.10100000352E+00 0. -1.
</event>
<event>
 5   0  0.1677971E-05  0.2593918E+04  0.7818609E-02  0.8370270E-01
       -2   -1    0    0    0  501  0.00000000000E+00  0.00000000000E+00  0.79622700027E+03  0.79622700027E+03  0.25500000920E-02 0.  1.
        2   -1    0    0  501    0  0.00000000000E+00  0.00000000000E+00 -0.21125914515E+04  0.21125914515E+04  0.25500000920E-02 0. -1.
    10030    2    1    2    0    0  0.00000000000E+00  0.00000000000E+00 -0.13163644513E+04  0.29088184518E+04  0.25939177738E+04 0.  0.
        4    1    3    3  502    0  0.79885778200E+03 -0.59586509509E+03  0.27256040560E+03  0.10332084761E+04  0.12699999809E+01 0.  1.
       -4    1    3    3    0  502 -0.79885778200E+03  0.59586509509E+03 -0.15889248569E+04  0.18756099757E+04  0.12699999809E+01 0. -1.
</event>
<event>
 5   0  0.6706225E-06  0.2612362E+04  0.7818609E-02  0.8364014E-01
        1   -1    0    0  501    0  0.00000000000E+00  0.00000000000E+00  0.94901374886E+03  0.94901374888E+03  0.50400001928E-02 0. -1.
       -1   -1    0    0    0  501  0.00000000000E+00  0.00000000000E+00 -0.17977697357E+04  0.17977697358E+04  0.50400001928E-02 0.  1.
    10030    2    1    2    0    0  0.00000000000E+00  0.00000000000E+00 -0.84875598688E+03  0.27467834846E+04  0.26123615344E+04 0.  0.
        5    1    3    3  502    0  0.59911665258E+03 -0.10307793947E+04 -0.98534651140E+03  0.15467309919E+04  0.46999998093E+01 0.  1.
       -5    1    3    3    0  502 -0.59911665258E+03  0.10307793947E+04  0.13659052452E+03  0.12000524927E+04  0.46999998093E+01 0. -1.
</event>
<event>
 5   0  0.1702345E-05  0.2614145E+04  0.7818609E-02  0.8363412E-01
       -2   -1    0    0    0  501  0.00000000000E+00  0.00000000000E+00  0.15227424310E+04  0.15227424310E+04  0.25500000920E-02 0. -1.
        2   -1    0    0  501    0  0.00000000000E+00  0.00000000000E+00 -0.11219488507E+04  0.11219488507E+04  0.25500000920E-02 0.  1.
    10030    2    1    2    0    0  0.00000000000E+00  0.00000000000E+00  0.40079358024E+03  0.26446912817E+04  0.26141454592E+04 0.  0.
        1    1    3    3  502    0  0.32655583193E+03 -0.25942822084E+03 -0.10528260855E+04  0.11324241606E+04  0.50400001928E-02 0.  1.
       -1    1    3    3    0  502 -0.32655583193E+03  0.25942822084E+03  0.14536196657E+04  0.15122671212E+04  0.50400001928E-02 0. -1.
</event>
<event>
 5   0  0.1869956E-05  0.2568277E+04  0.7818609E-02  0.8379057E-01
        2   -1    0    0  501    0  0.00000000000E+00  0.00000000000E+00  0.19667603584E+04  0.19667603584E+04  0.25500000920E-02 0. -1.
       -2   -1    0    0    0  501  0.00000000000E+00  0.00000000000E+00 -0.83844073148E+03  0.83844073149E+03  0.25500000920E-02 0.  1.
    10030    2    1    2    0    0  0.00000000000E+00  0.00000000000E+00  0.11283196269E+04  0.28052010899E+04  0.25682772386E+04 0.  0.
        5    1    3    3  502    0  0.57795519334E+03  0.80988043143E+03 -0.32255044844E+03  0.10459442626E+04  0.46999998093E+01 0.  1.
       -5    1    3    3    0  502 -0.57795519334E+03 -0.80988043143E+03  0.14508700753E+04  0.17592568273E+04  0.46999998093E+01 0. -1.
</event>
<event>
 5   0  0.6918420E-06  0.2589997E+04  0.7818609E-02  0.8371607E-01
        1   -1    0    0  501    0  0.00000000000E+00  0.00000000000E+00  0.14678501142E+04  0.14678501142E+04  0.50400001928E-02 0.  1.
       -1   -1    0    0    0  501  0.00000000000E+00  0.00000000000E+00 -0.11425014633E+04  0.11425014633E+04  0.50400001928E-02 0. -1.
    10030    2    1    2    0    0  0.00000000000E+00  0.00000000000E+00  0.32534865089E+03  0.26103515775E+04  0.25899968366E+04 0.  0.
        4    1    3    3  502    0 -0.47303005148E+03 -0.52439951603E+03  0.12566851769E+04  0.14415309670E+04  0.12699999809E+01 0.  1.
       -4    1    3    3    0  502  0.47303005148E+03  0.52439951603E+03 -0.93133652602E+03  0.11688206105E+04  0.12699999809E+01 0. -1.
</event>
<event>
 5   0  0.7138294E-06  0.2610226E+04  0.7818609E-02  0.8364736E-01
       -1   -1    0    0    0  501  0.00000000000E+00  0.00000000000E+00  0.10556340329E+04  0.10556340329E+04  0.50400001928E-02 0.  1.
        1   -1    0    0  501    0  0.00000000000E+00  0.00000000000E+00 -0.16135516948E+04  0.16135516948E+04  0.50400001928E-02 0. -1.
    10030    2    1    2    0    0  0.00000000000E+00  0.00000000000E+00 -0.55791766195E+03  0.26691857277E+04  0.26102261073E+04 0.  0.
        2    1    3    3  502    0  0.98632649561E+03  0.63280525297E+03  0.30850671438E+03  0.12117998337E+04  0.25500000920E-02 0.  1.
       -2    1    3    3    0  502 -0.98632649561E+03 -0.63280525297E+03 -0.86642437634E+03  0.14573858940E+04  0.25500000920E-02 0. -1.
</event>
<event>
 5   0  0.7138294E-06  0.2587115E+04  0.7818609E-02  0.8372591E-01
        1   -1    0    0  501    0  0.00000000000E+00  0.00000000000E+00  0.12027642439E+04  0.12027642439E+04  0.50400001928E-02 0. -1.
       -1   -1    0    0    0  501  0.00000000000E+00  0.00000000000E+00 -0.13912042298E+04  0.13912042298E+04  0.50400001928E-02 0.  1.
    10030    2    1    2    0    0  0.00000000000E+00  0.00000000000E+00 -0.18843998591E+03  0.25939684738E+04  0.25871147664E+04 0.  0.
        2    1    3    3  502    0  0.69806429334E+03 -0.10878861851E+04 -0.44081577105E+02  0.12933419095E+04  0.25500000920E-02 0. -1.
       -2    1    3    3    0  502 -0.69806429334E+03  0.10878861851E+04 -0.14435840881E+03  0.13006265643E+04  0.25500000920E-02 0.  1.
</event>
<event>
 5   0  0.6706225E-06  0.2584576E+04  0.7818609E-02  0.8373459E-01
       -1   -1    0    0    0  501  0.00000000000E+00  0.00000000000E+00  0.12853141571E+04  0.12853141571E+04  0.50400001928E-02 0. -1.
        1   -1    0    0  501    0  0.00000000000E+00  0.00000000000E+00 -0.12992995160E+04  0.12992995160E+04  0.50400001928E-02 0.  1.
    10030    2    1    2    0    0  0.00000000000E+00  0.00000000000E+00 -0.13985358858E+02  0.25846136731E+04  0.25845758354E+04 0.  0.
        5    1    3    3  502    0  0.13863239813E+03 -0.12646553376E+04  0.21975699088E+03  0.12910798928E+04  0.46999998093E+01 0.  1.
       -5    1    3    3    0  502 -0.13863239813E+03  0.12646553376E+04 -0.23374234974E+03  0.12935337803E+04  0.46999998093E+01 0. -1.
</event>
<event>
 5   0  0.7138294E-06  0.2611982E+04  0.7818609E-02  0.8364142E-01
        1   -1    0    0  501    0  0.00000000000E+00  0.00000000000E+00  0.25822116442E+04  0.25822116442E+04  0.50400001928E-02 0.  1.
       -1   -1    0    0    0  501  0.00000000000E+00  0.00000000000E+00 -0.66052413808E+03  0.66052413810E+03  0.50400001928E-02 0. -1.
    10030    2    1    2    0    0  0.00000000000E+00  0.00000000000E+00  0.19216875062E+04  0.32427357823E+04  0.26119824813E+04 0.  0.
        2    1    3    3  502    0  0.76894950222E+03  0.16854372743E+03 -0.33287769750E+03  0.85469169092E+03  0.25500000920E-02 0.  1.
       -2    1    3    3    0  502 -0.76894950222E+03 -0.16854372743E+03  0.22545652037E+04  0.23880440914E+04  0.25500000920E-02 0. -1.
</event>
<event>
 5   0  0.1681731E-05  0.2506287E+04  0.7818609E-02  0.8400749E-01
        2   -1    0    0  501    0  0.00000000000E+00  0.00000000000E+00  0.11821412091E+04  0.11821412091E+04  0.25500000920E-02 0.  1.
       -2   -1    0    0    0  501  0.00000000000E+00  0.00000000000E+00 -0.13284104768E+04  0.13284104768E+04  0.25500000920E-02 0. -1.
    10030    2    1    2    0    0  0.00000000000E+00  0.00000000000E+00 -0.14626926768E+03  0.25105516860E+04  0.25062871083E+04 0.  0.
        2    1    3    3  502    0  0.38834384750E+03 -0.92213622455E+03  0.68261755999E+03  0.12112443576E+04  0.25500000920E-02 0. -1.
       -2    1    3    3    0  502 -0.38834384750E+03  0.92213622455E+03 -0.82888682767E+03  0.12993073284E+04  0.25500000920E-02 0.  1.
</event>
<event>
 5   0  0.1681731E-05  0.2605644E+04  0.7818609E-02  0.8366287E-01
        2   -1    0    0  501    0  0.00000000000E+00  0.00000000000E+00  0.72134644405E+03  0.72134644405E+03  0.25500000920E-02 0.  1.
       -2   -1    0    0    0  501  0.00000000000E+00  0.00000000000E+00 -0.23530227370E+04  0.23530227370E+04  0.25500000920E-02 0. -1.
    10030    2    1    2    0    0  0.00000000000E+00  0.00000000000E+00 -0.16316762930E+04  0.30743691811E+04  0.26056435551E+04 0.  0.
        2    1    3    3  502    0  0.53771433580E+03  0.66710167022E+03  0.34212695515E+03  0.92261161860E+03  0.25500000920E-02 0.  1.
       -2    1    3    3    0  502 -0.53771433580E+03 -0.66710167022E+03 -0.19738032481E+04  0.21517575625E+04  0.25500000920E-02 0. -1.
</event>
<event>
 5   0  0.1720129E-05  0.2366245E+04  0.7818609E-02  0.8452250E-01
        2   -1    0    0  501    0  0.00000000000E+00  0.00000000000E+00  0.15125683381E+04  0.15125683381E+04  0.25500000920E-02 0. -1.
       -2   -1    0    0    0  501  0.00000000000E+00  0.00000000000E+00 -0.92543200360E+03  0.92543200360E+03  0.25500000920E-02 0.  1.
    10030    2    1    2    0    0  0.00000000000E+00  0.00000000000E+00  0.58713633454E+03  0.24380003417E+04  0.23662452517E+04 0.  0.
        3    1    3    3  502    0  0.13873044833E+03  0.11167561541E+04 -0.82731222978E+02  0.11283771136E+04  0.10100000352E+00 0. -1.
       -3    1    3    3    0  502 -0.13873044833E+03 -0.11167561541E+04  0.66986755752E+03  0.13096232282E+04  0.10100000352E+00 0.  1.
</event>
<event>
 5   0  0.6993678E-06  0.2588348E+04  0.7818609E-02  0.8372170E-01
       -1   -1    0    0    0  501  0.00000000000E+00  0.00000000000E+00  0.10577739160E+04  0.10577739160E+04  0.50400001928E-02 0. -1.
        1   -1    0    0  501    0  0.00000000000E+00  0.00000000000E+00 -0.15834063612E+04  0.15834063613E+04  0.50400001928E-02 0.  1.
    10030    2    1    2    0    0  0.00000000000E+00  0.00000000000E+00 -0.52563244529E+03  0.26411802772E+04  0.25883476948E+04 0.  0.
        1    1    3    3  502    0  0.11285378485E+04  0.50125453574E+03  0.13242989684E+03  0.12419305386E+04  0.50400001928E-02 0. -1.
       -1    1    3    3    0  502 -0.11285378485E+04 -0.50125453574E+03 -0.65806234213E+03  0.13992497387E+04  0.50400001928E-02 0.  1.
</event>
<event>
 5   0  0.7138294E-06  0.2604057E+04  0.7818609E-02  0.8366825E-01
        1   -1    0    0  501    0  0.00000000000E+00  0.00000000000E+00  0.18053638038E+04  0.18053638038E+04  0.50400001928E-02 0.  1.
       -1   -1    0    0    0  501  0.00000000000E+00  0.00000000000E+00 -0.93902280218E+03  0.93902280219E+03  0.50400001928E-02 0. -1.
    10030    2    1    2    0    0  0.00000000000E+00  0.00000000000E+00  0.86634100166E+03  0.27443866060E+04  0.26040566646E+04 0.  0.
        2    1    3    3  502    0 -0.83623529763E+03 -0.33413414997E+02 -0.61801274868E+03  0.10403584415E+04  0.25500000920E-02 0. -1.
       -2    1    3    3    0  502  0.83623529763E+03  0.33413414997E+02  0.14843537503E+04  0.17040281645E+04  0.25500000920E-02 0.  1.
</event>
<event>
 5   0  0.7138294E-06  0.2386691E+04  0.7818609E-02  0.8444503E-01
       -1   -1    0    0    0  501  0.00000000000E+00  0.00000000000E+00  0.60128862549E+03  0.60128862551E+03  0.50400001928E-02 0.  1.
        1   -1    0    0  501    0  0.00000000000E+00  0.00000000000E+00 -0.23683700259E+04  0.23683700259E+04  0.50400001928E-02 0. -1.
    10030    2    1    2    0    0  0.00000000000E+00  0.00000000000E+00 -0.17670814004E+04  0.29696586514E+04  0.23866913982E+04 0.  0.
        2    1    3    3  502    0 -0.11673739179E+04  0.10920308009E+03 -0.60702765670E+03  0.13202915409E+04  0.25500000920E-02 0.  1.
       -2    1    3    3    0  502  0.11673739179E+04 -0.10920308009E+03 -0.11600537437E+04  0.16493671105E+04  0.25500000920E-02 0. -1.
</event>
<event>
 5   0  0.1720129E-05  0.2594121E+04  0.7818609E-02  0.8370201E-01
       -2   -1    0    0    0  501  0.00000000000E+00  0.00000000000E+00  0.11537390287E+04  0.11537390287E+04  0.25500000920E-02 0. -1.
        2   -1    0    0  501    0  0.00000000000E+00  0.00000000000E+00 -0.14581861087E+04  0.14581861087E+04  0.25500000920E-02 0.  1.
    10030    2    1    2    0    0  0.00000000000E+00  0.00000000000E+00 -0.30444707996E+03  0.26119251374E+04  0.25941212190E+04 0.  0.
        3    1    3    3  502    0 -0.35352893552E+03  0.72520880450E+03 -0.11747998996E+04  0.14251544943E+04  0.10100000352E+00 0.  1.
       -3    1    3    3    0  502  0.35352893552E+03 -0.72520880450E+03  0.87035281965E+03  0.11867706431E+04  0.10100000352E+00 0. -1.
</event>
<event>
 5   0  0.1681731E-05  0.2188665E+04  0.7818609E-02  0.8523161E-01
       -2   -1    0    0    0  501  0.00000000000E+00  0.00000000000E+00  0.39221239947E+03  0.39221239948E+03  0.25500000920E-02 0. -1.
        2   -1    0    0  501    0  0.00000000000E+00  0.00000000000E+00 -0.30533556776E+04  0.30533556776E+04  0.25500000920E-02 0.  1.
    10030    2    1    2    0    0  0.00000000000E+00  0.00000000000E+00 -0.26611432782E+04  0.34455680771E+04  0.21886653072E+04 0.  0.
        2    1    3    3  502    0 -0.16571044525E+03 -0.76371152953E+03 -0.12457927963E+03  0.79135026943E+03  0.25500000920E-02 0. -1.
       -2    1    3    3    0  502  0.16571044525E+03  0.76371152953E+03 -0.25365639985E+04  0.26542178077E+04  0.25500000920E-02 0.  1.
</event>
<event>
 5   0  0.1681731E-05  0.2465113E+04  0.7818609E-02  0.8415521E-01
       -2   -1    0    0    0  501  0.00000000000E+00  0.00000000000E+00  0.15841469222E+04  0.15841469222E+04  0.25500000920E-02 0. -1.
        2   -1    0    0  501    0  0.00000000000E+00  0.00000000000E+00 -0.95899920974E+03  0.95899920974E+03  0.25500000920E-02 0.  1.
    10030    2    1    2    0    0  0.00000000000E+00  0.00000000000E+00  0.62514771247E+03  0.25431461320E+04  0.24651130980E+04 0.  0.
        2    1    3    3  502    0  0.38612267410E+03  0.10742810119E+04 -0.16692404355E+03  0.11537044892E+04  0.25500000920E-02 0.  1.
       -2    1    3    3    0  502 -0.38612267410E+03 -0.10742810119E+04  0.79207175602E+03  0.13894416428E+04  0.25500000920E-02 0. -1.
</event>
<event>
 5   0  0.6918420E-06  0.3047294E+04  0.7818609E-02  0.8230353E-01
        1   -1    0    0  501    0  0.00000000000E+00  0.00000000000E+00  0.13909430693E+04  0.13909430693E+04  0.50400001928E-02 0.  1.
       -1   -1    0    0    0  501  0.00000000000E+00  0.00000000000E+00 -0.16690117499E+04  0.16690117499E+04  0.50400001928E-02 0. -1.
    10030    2    1    2    0    0  0.00000000000E+00  0.00000000000E+00 -0.27806868061E+03  0.30599548192E+04  0.30472940955E+04 0.  0.
        4    1    3    3  502    0 -0.11295404295E+04 -0.39412145463E+03  0.80844587527E+03  0.14438766045E+04  0.12699999809E+01 0.  1.
       -4    1    3    3    0  502  0.11295404295E+04  0.39412145463E+03 -0.10865145559E+04  0.16160782147E+04  0.12699999809E+01 0. -1.
</event>
<event>
 5   0  0.5840500E-06  0.2593445E+04  0.7818609E-02  0.8370431E-01
       -3   -1    0    0    0  501  0.00000000000E+00  0.00000000000E+00  0.93914809883E+03  0.93914810426E+03  0.10100000352E+00 0. -1.
        3   -1    0    0  501    0  0.00000000000E+00  0.00000000000E+00 -0.17904408067E+04  0.17904408095E+04  0.10100000352E+00 0.  1.
    10030    2    1    2    0    0  0.00000000000E+00  0.00000000000E+00 -0.85129270785E+03  0.27295889138E+04  0.25934448835E+04 0.  0.
        4    1    3    3  502    0 -0.77951773831E+03 -0.65378930248E+03  0.42054893228E+03  0.11008866307E+04  0.12699999809E+01 0. -1.
       -4    1    3    3    0  502  0.77951773831E+03  0.65378930248E+03 -0.12718416401E+04  0.16287022831E+04  0.12699999809E+01 0.  1.
</event>
<event>
 5   0  0.1702345E-05  0.2592667E+04  0.7818609E-02  0.8370696E-01
        2   -1    0    0  501    0  0.00000000000E+00  0.00000000000E+00  0.16494150795E+04  0.16494150795E+04  0.25500000920E-02 0.  1.
       -2   -1    0    0    0  501  0.00000000000E+00  0.00000000000E+00 -0.10188342100E+04  0.10188342100E+04  0.25500000920E-02 0. -1.
    10030    2    1    2    0    0  0.00000000000E+00  0.00000000000E+00  0.63058086943E+03  0.26682492895E+04  0.25926669740E+04 0.  0.
        1    1    3    3  502    0  0.53238614883E+03 -0.10245406947E+04  0.92184619933E+03  0.14774704944E+04  0.50400001928E-02 0.  1.
       -1    1    3    3    0  502 -0.53238614883E+03  0.10245406947E+04 -0.29126532990E+03  0.11907787951E+04  0.50400001928E-02 0. -1.
</event>
<event>
 5   0  0.1720129E-05  0.2564116E+04  0.7818609E-02  0.8380493E-01
       -2   -1    0    0    0  501  0.00000000000E+00  0.00000000000E+00  0.12783445690E+04  0.12783445690E+04  0.25500000920E-02 0. -1.
        2   -1    0    0  501    0  0.00000000000E+00  0.00000000000E+00 -0.12857825443E+04  0.12857825443E+04  0.25500000920E-02 0.  1.
    10030    2    1    2    0    0  0.00000000000E+00  0.00000000000E+00 -0.74379753234E+01  0.25641271133E+04  0.25641163253E+04 0.  0.
        3    1    3    3  502    0 -0.11604978471E+04  0.25188349289E+03 -0.48691101960E+03  0.12834651917E+04  0.10100000352E+00 0.  1.
       -3    1    3    3    0  502  0.11604978471E+04 -0.25188349289E+03  0.47947304427E+03  0.12806619216E+04  0.10100000352E+00 0. -1.
</event>
<event>
 5   0  0.7138294E-06  0.2604502E+04  0.7818609E-02  0.8366674E-01
       -1   -1    0    0    0  501  0.00000000000E+00  0.00000000000E+00  0.11430358294E+04  0.11430358294E+04  0.50400001928E-02 0. -1.
        1   -1    0    0  501    0  0.00000000000E+00  0.00000000000E+00 -0.14836436350E+04  0.14836436350E+04  0.50400001928E-02 0.  1.
    10030    2    1    2    0    0  0.00000000000E+00  0.00000000000E+00 -0.34060780562E+03  0.26266794644E+04  0.26045021274E+04 0.  0.
        2    1    3    3  502    0  0.49266518200E+03  0.25898293022E+02  0.10451420956E+04  0.11557299439E+04  0.25500000920E-02 0. -1.
       -2    1    3    3    0  502 -0.49266518200E+03 -0.25898293022E+02 -0.13857499013E+04  0.14709495205E+04  0.25500000920E-02 0.  1.
</event>
<event>
 5   0  0.1720129E-05  0.2633324E+04  0.7818609E-02  0.8356969E-01
        2   -1    0    0  501    0  0.00000000000E+00  0.00000000000E+00  0.27079790097E+04  0.27079790097E+04  0.25500000920E-02 0.  1.
       -2   -1    0    0    0  501  0.00000000000E+00  0.00000000000E+00 -0.64018178961E+03  0.64018178961E+03  0.25500000920E-02 0. -1.
    10030    2    1    2    0    0  0.00000000000E+00  0.00000000000E+00  0.20677972201E+04  0.33481607993E+04  0.26333240201E+04 0.  0.
        3    1    3    3  502    0  0.12597236756E+04 -0.35117855730E+03  0.83953297905E+03  0.15540417469E+04  0.10100000352E+00 0. -1.
       -3    1    3    3    0  502 -0.12597236756E+04  0.35117855730E+03  0.12282642410E+04  0.17941190524E+04  0.10100000352E+00 0.  1.
</event>
<event>
 5   0  0.1681731E-05  0.2635768E+04  0.7818609E-02  0.8356152E-01
        2   -1    0    0  501    0  0.00000000000E+00  0.00000000000E+00  0.19477069178E+04  0.19477069178E+04  0.25500000920E-02 0.  1.
       -2   -1    0    0    0  501  0.00000000000E+00  0.00000000000E+00 -0.89172479350E+03  0.89172479350E+03  0.25500000920E-02 0. -1.
    10030    2    1    2    0    0  0.00000000000E+00  0.00000000000E+00  0.10559821243E+04  0.28394317113E+04  0.26357682365E+04 0.  0.
        2    1    3    3  502    0  0.12376563664E+04  0.35038544601E+03  0.83695384778E+03  0.15346188404E+04  0.25500000920E-02 0. -1.
       -2    1    3    3    0  502 -0.12376563664E+04 -0.35038544601E+03  0.21902827653E+03  0.13048128709E+04  0.25500000920E-02 0.  1.
</event>
<event>
 5   0  0.1720129E-05  0.2585027E+04  0.7818609E-02  0.8373305E-01
       -2   -1    0    0    0  501  0.00000000000E+00  0.00000000000E+00  0.97100808631E+03  0.97100808632E+03  0.25500000920E-02 0. -1.
        2   -1    0    0  501    0  0.00000000000E+00  0.00000000000E+00 -0.17204713554E+04  0.17204713554E+04  0.25500000920E-02 0.  1.
    10030    2    1    2    0    0  0.00000000000E+00  0.00000000000E+00 -0.74946326905E+03  0.26914794417E+04  0.25850273487E+04 0.  0.
        3    1    3    3  502    0 -0.52841773072E+02  0.55116303408E+03 -0.15907386434E+04  0.16843462783E+04  0.10100000352E+00 0.  1.
       -3    1    3    3    0  502  0.52841773072E+02 -0.55116303408E+03  0.84127537439E+03  0.10071331634E+04  0.10100000352E+00 0. -1.
</event>
<event>
 5   0  0.6706225E-06  0.2601911E+04  0.7818609E-02  0.8367552E-01
        1   -1    0    0  501    0  0.00000000000E+00  0.00000000000E+00  0.17898597288E+04  0.17898597288E+04  0.50400001928E-02 0. -1.
       -1   -1    0    0    0  501  0.00000000000E+00  0.00000000000E+00 -0.94559658827E+03  0.94559658828E+03  0.50400001928E-02 0.  1.
    10030    2    1    2    0    0  0.00000000000E+00  0.00000000000E+00  0.84426314052E+03  0.27354563171E+04  0.26019110308E+04 0.  0.
        5    1    3    3  502    0  0.11408037498E+04 -0.46501696446E+03  0.86166774757E+03  0.15033853032E+04  0.46999998093E+01 0. -1.
       -5    1    3    3    0  502 -0.11408037498E+04  0.46501696446E+03 -0.17404607050E+02  0.12320710138E+04  0.46999998093E+01 0.  1.
</event>
<event>
 5   0  0.6706225E-06  0.2601021E+04  0.7818609E-02  0.8367854E-01
       -1   -1    0    0    0  501  0.00000000000E+00  0.00000000000E+00  0.11293781288E+04  0.11293781288E+04  0.50400001928E-02 0. -1.
        1   -1    0    0  501    0  0.00000000000E+00  0.00000000000E+00 -0.14975743672E+04  0.14975743672E+04  0.50400001928E-02 0.  1.
    10030    2    1    2    0    0  0.00000000000E+00  0.00000000000E+00 -0.36819623842E+03  0.26269524961E+04  0.26010211354E+04 0.  0.
        5    1    3    3  502    0 -0.73086799821E+03  0.10735885956E+04 -0.25218792950E+03  0.13230197826E+04  0.46999998093E+01 0. -1.
       -5    1    3    3    0  502  0.73086799821E+03 -0.10735885956E+04 -0.11600830892E+03  0.13039327134E+04  0.46999998093E+01 0.  1.
</event>
<event>
 5   0  0.1702345E-05  0.2604608E+04  0.7818609E-02  0.8366638E-01
        2   -1    0    0  501    0  0.00000000000E+00  0.00000000000E+00  0.18236794536E+04  0.18236794536E+04  0.25500000920E-02 0.  1.
       -2   -1    0    0    0  501  0.00000000000E+00  0.00000000000E+00 -0.92998569740E+03  0.92998569740E+03  0.25500000920E-02 0. -1.
    10030    2    1    2    0    0  0.00000000000E+00  0.00000000000E+00  0.89369375616E+03  0.27536651510E+04  0.26046080768E+04 0.  0.
        1    1    3    3  502    0 -0.27025346467E+02 -0.68148842625E+03  0.16197695025E+04  0.17575010912E+04  0.50400001928E-02 0.  1.
       -1    1    3    3    0  502  0.27025346467E+02  0.68148842625E+03 -0.72607574633E+03  0.99616405973E+03  0.50400001928E-02 0. -1.
</event>
<event>
 5   0  0.6918420E-06  0.2348544E+04  0.7818609E-02  0.8459023E-01
       -1   -1    0    0    0  501  0.00000000000E+00  0.00000000000E+00  0.22589421411E+04  0.22589421411E+04  0.50400001928E-02 0. -1.
        1   -1    0    0  501    0  0.00000000000E+00  0.00000000000E+00 -0.61042503907E+03  0.61042503909E+03  0.50400001928E-02 0.  1.
    10030    2    1    2    0    0  0.00000000000E+00  0.00000000000E+00  0.16485171020E+04  0.28693671802E+04  0.23485440977E+04 0.  0.
        4    1    3    3  502    0  0.14889767178E+03 -0.23742218840E+03  0.22174841617E+04  0.22351235833E+04  0.12699999809E+01 0. -1.
       -4    1    3    3    0  502 -0.14889767178E+03  0.23742218840E+03 -0.56896705973E+03  0.63424359687E+03  0.12699999809E+01 0.  1.
</event>
<event>
 5   0  0.1681731E-05  0.2584039E+04  0.7818609E-02  0.8373643E-01
        2   -1    0    0  501    0  0.00000000000E+00  0.00000000000E+00  0.14258488966E+04  0.14258488966E+04  0.25500000920E-02 0.  1.
       -2   -1    0    0    0  501  0.00000000000E+00  0.00000000000E+00 -0.11707511113E+04  0.11707511113E+04  0.25500000920E-02 0. -1.
    10030    2    1    2    0    0  0.00000000000E+00  0.00000000000E+00  0.25509778529E+03  0.25966000080E+04  0.25840388390E+04 0.  0.
        2    1    3    3  502    0  0.87710892029E+01 -0.78087141580E+03  0.11618614566E+04  0.13999139775E+04  0.25500000920E-02 0.  1.
       -2    1    3    3    0  502 -0.87710892029E+01  0.78087141580E+03 -0.90676367129E+03  0.11966860305E+04  0.25500000920E-02 0. -1.
</event>
<event>
 5   0  0.6993678E-06  0.2609211E+04  0.7818609E-02  0.8365079E-01
        1   -1    0    0  501    0  0.00000000000E+00  0.00000000000E+00  0.75371925993E+03  0.75371925994E+03  0.50400001928E-02 0. -1.
       -1   -1    0    0    0  501  0.00000000000E+00  0.00000000000E+00 -0.22581285564E+04  0.22581285564E+04  0.50400001928E-02 0.  1.
    10030    2    1    2    0    0  0.00000000000E+00  0.00000000000E+00 -0.15044092965E+04  0.30118478164E+04  0.26092105966E+04 0.  0.
        1    1    3    3  502    0 -0.45725942240E+03 -0.11058021437E+04 -0.13521263363E+04  0.18055830609E+04  0.50400001928E-02 0.  1.
       -1    1    3    3    0  502  0.45725942240E+03  0.11058021437E+04 -0.15228296022E+03  0.12062647555E+04  0.50400001928E-02 0. -1.
</event>
<event>
 5   0  0.1677971E-05  0.2587928E+04  0.7818609E-02  0.8372313E-01
        2   -1    0    0  501    0  0.00000000000E+00  0.00000000000E+00  0.22295417558E+04  0.22295417558E+04  0.25500000920E-02 0.  1.
       -2   -1    0    0    0  501  0.00000000000E+00  0.00000000000E+00 -0.75098052410E+03  0.75098052411E+03  0.25500000920E-02 0. -1.
    10030    2    1    2    0    0  0.00000000000E+00  0.00000000000E+00  0.14785612317E+04  0.29805222799E+04  0.25879276932E+04 0.  0.
        4    1    3    3  502    0  0.16453797218E+03  0.85167352916E+03 -0.36654569437E+03  0.94168885707E+03  0.12699999809E+01 0. -1.
       -4    1    3    3    0  502 -0.16453797218E+03 -0.85167352916E+03  0.18451069260E+04  0.20388334228E+04  0.12699999809E+01 0.  1.
</event>
<event>
 5   0  0.6918420E-06  0.2601912E+04  0.7818609E-02  0.8367552E-01
       -1   -1    0    0    0  501  0.00000000000E+00  0.00000000000E+00  0.95000361423E+03  0.95000361424E+03  0.50400001928E-02 0.  1.
        1   -1    0    0  501    0  0.00000000000E+00  0.00000000000E+00 -0.17815583406E+04  0.17815583406E+04  0.50400001928E-02 0. -1.
    10030    2    1    2    0    0  0.00000000000E+00  0.00000000000E+00 -0.83155472633E+03  0.27315619548E+04  0.26019122679E+04 0.  0.
        4    1    3    3  502    0 -0.23073240648E+03  0.12155366572E+04 -0.83795787284E+03  0.14943031211E+04  0.12699999809E+01 0. -1.
       -4    1    3    3    0  502  0.23073240648E+03 -0.12155366572E+04  0.64031465080E+01  0.12372588337E+04  0.12699999809E+01 0.  1.
</event>
<event>
 5   0  0.1869956E-05  0.2572548E+04  0.7818609E-02  0.8377586E-01
       -2   -1    0    0    0  501  0.00000000000E+00  0.00000000000E+00  0.11598068505E+04  0.11598068505E+04  0.25500000920E-02 0. -1.
        2   -1    0    0  501    0  0.00000000000E+00  0.00000000000E+00 -0.14265314432E+04  0.14265314432E+04  0.25500000920E-02 0.  1.
    10030    2    1    2    0    0  0.00000000000E+00  0.00000000000E+00 -0.26672459269E+03  0.25863382937E+04  0.25725481066E+04 0.  0.
        5    1    3    3  502    0 -0.70593208020E+03  0.87297519389E+03  0.49773915224E+03  0.12280847465E+04  0.46999998093E+01 0.  1.
       -5    1    3    3    0  502  0.70593208020E+03 -0.87297519389E+03 -0.76446374493E+03  0.13582535471E+04  0.46999998093E+01 0. -1.
</event>
<event>
 5   0  0.6918420E-06  0.2598775E+04  0.7818609E-02  0.8368618E-01
        1   -1    0    0  501    0  0.00000000000E+00  0.00000000000E+00  0.18434321903E+04  0.18434321903E+04  0.50400001928E-02 0. -1.
       -1   -1    0    0    0  501  0.00000000000E+00  0.00000000000E+00 -0.91590432624E+03  0.91590432625E+03  0.50400001928E-02 0.  1.
    10030    2    1    2    0    0  0.00000000000E+00  0.00000000000E+00  0.92752786407E+03  0.27593365166E+04  0.25987747253E+04 0.  0.
        4    1    3    3  502    0 -0.56077132949E+03 -0.53082898398E+03  0.15733974512E+04  0.17526622740E+04  0.12699999809E+01 0. -1.
       -4    1    3    3    0  502  0.56077132949E+03  0.53082898398E+03 -0.64586958715E+03  0.10066742426E+04  0.12699999809E+01 0.  1.
</event>
<event>
 5   0  0.6706225E-06  0.2579629E+04  0.7818609E-02  0.8375154E-01
        1   -1    0    0  501    0  0.00000000000E+00  0.00000000000E+00  0.19744990486E+04  0.19744990486E+04  0.50400001928E-02 0. -1.
       -1   -1    0    0    0  501  0.00000000000E+00  0.00000000000E+00 -0.84255397950E+03  0.84255397951E+03  0.50400001928E-02 0.  1.
    10030    2    1    2    0    0  0.00000000000E+00  0.00000000000E+00  0.11319450691E+04  0.28170530281E+04  0.25796294547E+04 0.  0.
        5    1    3    3  502    0  0.32282035721E+03  0.71172685125E+02  0.19274426384E+04  0.19555908949E+04  0.46999998093E+01 0. -1.
       -5    1    3    3    0  502 -0.32282035721E+03 -0.71172685125E+02 -0.79549756929E+03  0.86146213317E+03  0.46999998093E+01 0.  1.
</event>
<event>
 5   0  0.1702345E-05  0.2628075E+04  0.7818609E-02  0.8358727E-01
       -2   -1    0    0    0  501  0.00000000000E+00  0.00000000000E+00  0.10388557661E+04  0.10388557661E+04  0.25500000920E-02 0. -1.
        2   -1    0    0  501    0  0.00000000000E+00  0.00000000000E+00 -0.16621124614E+04  0.16621124614E+04  0.25500000920E-02 0.  1.
    10030    2    1    2    0    0  0.00000000000E+00  0.00000000000E+00 -0.62325669534E+03  0.27009682275E+04  0.26280754284E+04 0.  0.
        1    1    3    3  502    0 -0.10718323834E+04 -0.68385545702E+03  0.29561756840E+02  0.12717534516E+04  0.50400001928E-02 0. -1.
       -1    1    3    3    0  502  0.10718323834E+04  0.68385545702E+03 -0.65281845218E+03  0.14292147759E+04  0.50400001928E-02 0.  1.
</event>
<event>
 5   0  0.6706225E-06  0.2582756E+04  0.7818609E-02  0.8374082E-01
       -1   -1    0    0    0  501  0.00000000000E+00  0.00000000000E+00  0.97927721818E+03  0.97927721819E+03  0.50400001928E-02 0.  1.
        1   -1    0    0  501    0  0.00000000000E+00  0.00000000000E+00 -0.17029473435E+04  0.17029473435E+04  0.50400001928E-02 0. -1.
    10030    2    1    2    0    0  0.00000000000E+00  0.00000000000E+00 -0.72367012530E+03  0.26822245617E+04  0.25827563085E+04 0.  0.
        5    1    3    3  502    0 -0.42252774132E+03  0.26653668834E+03  0.87485141534E+03  0.10074515310E+04  0.46999998093E+01 0.  1.
       -5    1    3    3    0  502  0.42252774132E+03 -0.26653668834E+03 -0.15985215406E+04  0.16747730307E+04  0.46999998093E+01 0. -1.
</event>
<event>
 5   0  0.1702345E-05  0.2573602E+04  0.7818609E-02  0.8377224E-01
       -2   -1    0    0    0  501  0.00000000000E+00  0.00000000000E+00  0.14137876374E+04  0.14137876374E+04  0.25500000920E-02 0. -1.
        2   -1    0    0  501    0  0.00000000000E+00  0.00000000000E+00 -0.11712200918E+04  0.11712200918E+04  0.25500000920E-02 0.  1.
    10030    2    1    2    0    0  0.00000000000E+00  0.00000000000E+00  0.24256754566E+03  0.25850077292E+04  0.25736017457E+04 0.  0.
        1    1    3    3  502    0 -0.26124916745E+03  0.73543597319E+03  0.11489208521E+04  0.13889335198E+04  0.50400001928E-02 0. -1.
       -1    1    3    3    0  502  0.26124916745E+03 -0.73543597319E+03 -0.90635330642E+03  0.11960742093E+04  0.50400001928E-02 0.  1.
</event>
<event>
 5   0  0.6984287E-06  0.2629241E+04  0.7818609E-02  0.8358336E-01
       -1   -1    0    0    0  501  0.00000000000E+00  0.00000000000E+00  0.12956032887E+04  0.12956032887E+04  0.50400001928E-02 0.  1.
        1   -1    0    0  501    0  0.00000000000E+00  0.00000000000E+00 -0.13339164825E+04  0.13339164825E+04  0.50400001928E-02 0. -1.
    10030    2    1    2    0    0  0.00000000000E+00  0.00000000000E+00 -0.38313193759E+02  0.26295197712E+04  0.26292406368E+04 0.  0.
        3    1    3    3  502    0  0.14520808189E+03  0.15232833031E+03 -0.13169604475E+04  0.13336694260E+04  0.10100000352E+00 0. -1.
       -3    1    3    3    0  502 -0.14520808189E+03 -0.15232833031E+03  0.12786472538E+04  0.12958503452E+04  0.10100000352E+00 0.  1.
</event>
<event>
 5   0  0.6706225E-06  0.2602468E+04  0.7818609E-02  0.8367363E-01
       -1   -1    0    0    0  501  0.00000000000E+00  0.00000000000E+00  0.26843272243E+04  0.26843272243E+04  0.50400001928E-02 0. -1.
        1   -1    0    0  501    0  0.00000000000E+00  0.00000000000E+00 -0.63077624727E+03  0.63077624729E+03  0.50400001928E-02 0.  1.
    10030    2    1    2    0    0  0.00000000000E+00  0.00000000000E+00  0.20535509770E+04  0.33151034715E+04  0.26024679464E+04 0.  0.
        5    1    3    3  502    0  0.11930826676E+04 -0.48777951126E+03  0.79957372973E+03  0.15168109119E+04  0.46999998093E+01 0.  1.
       -5    1    3    3    0  502 -0.11930826676E+04  0.48777951126E+03  0.12539772473E+04  0.17982925596E+04  0.46999998093E+01 0. -1.
</event>
<event>
 5   0  0.1677971E-05  0.2607380E+04  0.7818609E-02  0.8365699E-01
        2   -1    0    0  501    0  0.00000000000E+00  0.00000000000E+00  0.21241767219E+04  0.21241767219E+04  0.25500000920E-02 0.  1.
       -2   -1    0    0    0  501  0.00000000000E+00  0.00000000000E+00 -0.80012537194E+03  0.80012537195E+03  0.25500000920E-02 0. -1.
    10030    2    1    2    0    0  0.00000000000E+00  0.00000000000E+00  0.13240513499E+04  0.29243020938E+04  0.26073800564E+04 0.  0.
        4    1    3    3  502    0 -0.37183487680E+03  0.12883566498E+03  0.20559733565E+04  0.20932959322E+04  0.12699999809E+01 0.  1.
       -4    1    3    3    0  502  0.37183487680E+03 -0.12883566498E+03 -0.73192200654E+03  0.83100616167E+03  0.12699999809E+01 0. -1.
</event>
<event>
 5   0  0.1681731E-05  0.2568127E+04  0.7818609E-02  0.8379109E-01
        2   -1    0    0  501    0  0.00000000000E+00  0.00000000000E+00  0.25148984353E+04  0.25148984353E+04  0.25500000920E-02 0. -1.
       -2   -1    0    0    0  501  0.00000000000E+00  0.00000000000E+00 -0.65562072379E+03  0.65562072380E+03  0.25500000920E-02 0.  1.
    10030    2    1    2    0    0  0.00000000000E+00  0.00000000000E+00  0.18592777115E+04  0.31705191591E+04  0.25681273585E+04 0.  0.
        2    1    3    3  502    0 -0.50127907178E+03  0.11134197813E+04  0.43916509587E+03  0.12976325746E+04  0.25500000920E-02 0.  1.
       -2    1    3    3    0  502  0.50127907178E+03 -0.11134197813E+04  0.14201126156E+04  0.18728865844E+04  0.25500000920E-02 0. -1.
</event>
<event>
 5   0  0.6918420E-06  0.2603618E+04  0.7818609E-02  0.8366973E-01
        1   -1    0    0  501    0  0.00000000000E+00  0.00000000000E+00  0.15693050355E+04  0.15693050355E+04  0.50400001928E-02 0. -1.
       -1   -1    0    0    0  501  0.00000000000E+00  0.00000000000E+00 -0.10799086594E+04  0.10799086594E+04  0.50400001928E-02 0.  1.
    10030    2    1    2    0    0  0.00000000000E+00  0.00000000000E+00  0.48939637604E+03  0.26492136949E+04  0.26036175580E+04 0.  0.
        4    1    3    3  502    0  0.19338850651E+03 -0.38497448441E+03 -0.10052695724E+04  0.10936969389E+04  0.12699999809E+01 0.  1.
       -4    1    3    3    0  502 -0.19338850651E+03  0.38497448441E+03  0.14946659484E+04  0.15555167560E+04  0.12699999809E+01 0. -1.
</event>
<event>
 5   0  0.1869956E-05  0.2576343E+04  0.7818609E-02  0.8376282E-01
        2   -1    0    0  501    0  0.00000000000E+00  0.00000000000E+00  0.12606398974E+04  0.12606398974E+04  0.25500000920E-02 0. -1.
       -2   -1    0    0    0  501  0.00000000000E+00  0.00000000000E+00 -0.13163039808E+04  0.13163039808E+04  0.25500000920E-02 0.  1.
    10030    2    1    2    0    0  0.00000000000E+00  0.00000000000E+00 -0.55664083396E+02  0.25769438781E+04  0.25763426132E+04 0.  0.
        5    1    3    3  502    0  0.24330768317E+03 -0.58532850915E+03  0.10938373284E+04  0.12642429685E+04  0.46999998093E+01 0. -1.
       -5    1    3    3    0  502 -0.24330768317E+03  0.58532850915E+03 -0.11495014118E+04  0.13127009096E+04  0.46999998093E+01 0.  1.
</event>
<event>
 5   0  0.6993678E-06  0.2577911E+04  0.7818609E-02  0.8375743E-01
        1   -1    0    0  501    0  0.00000000000E+00  0.00000000000E+00  0.19148052239E+04  0.19148052239E+04  0.50400001928E-02 0. -1.
       -1   -1    0    0    0  501  0.00000000000E+00  0.00000000000E+00 -0.86766343155E+03  0.86766343156E+03  0.50400001928E-02 0.  1.
    10030    2    1    2    0    0  0.00000000000E+00  0.00000000000E+00  0.10471417923E+04  0.27824686554E+04  0.25779111477E+04 0.  0.
        1    1    3    3  502    0  0.83762568138E+03 -0.96881077215E+02  0.15758147698E+04  0.17872310746E+04  0.50400001928E-02 0. -1.
       -1    1    3    3    0  502 -0.83762568138E+03  0.96881077215E+02 -0.52867297747E+03  0.99523758086E+03  0.50400001928E-02 0.  1.
</event>
<event>
 5   0  0.1677971E-05  0.2627589E+04  0.7818609E-02  0.8358890E-01
        2   -1    0    0  501    0  0.00000000000E+00  0.00000000000E+00  0.30250870776E+04  0.30250870776E+04  0.25500000920E-02 0. -1.
       -2   -1    0    0    0  501  0.00000000000E+00  0.00000000000E+00 -0.57058077451E+03  0.57058077452E+03  0.25500000920E-02 0.  1.
    10030    2    1    2    0    0  0.00000000000E+00  0.00000000000E+00  0.24545063031E+04  0.35956678522E+04  0.26275894107E+04 0.  0.
        4    1    3    3  502    0 -0.10047676647E+04  0.37489582996E+03  0.22657721476E+04  0.25067568651E+04  0.12699999809E+01 0. -1.
       -4    1    3    3    0  502  0.10047676647E+04 -0.37489582996E+03  0.18873415556E+03  0.10889109870E+04  0.12699999809E+01 0.  1.
</event>
<event>
 5   0  0.7138294E-06  0.2588260E+04  0.7818609E-02  0.8372200E-01
        1   -1    0    0  501    0  0.00000000000E+00  0.00000000000E+00  0.12035963363E+04  0.12035963363E+04  0.50400001928E-02 0.  1.
       -1   -1    0    0    0  501  0.00000000000E+00  0.00000000000E+00 -0.13914740225E+04  0.13914740225E+04  0.50400001928E-02 0. -1.
    10030    2    1    2    0    0  0.00000000000E+00  0.00000000000E+00 -0.18787768623E+03  0.25950703588E+04  0.25882604471E+04 0.  0.
        2    1    3    3  502    0 -0.38744602623E+03 -0.12019033909E+04  0.18980194495E+03  0.12769929376E+04  0.25500000920E-02 0.  1.
       -2    1    3    3    0  502  0.38744602623E+03  0.12019033909E+04 -0.37767963117E+03  0.13180774212E+04  0.25500000920E-02 0. -1.
</event>
<event>
 5   0  0.7138294E-06  0.2627647E+04  0.7818609E-02  0.8358870E-01
       -1   -1    0    0    0  501  0.00000000000E+00  0.00000000000E+00  0.84246381954E+03  0.84246381955E+03  0.50400001928E-02 0. -1.
        1   -1    0    0  501    0  0.00000000000E+00  0.00000000000E+00 -0.20489100123E+04  0.20489100123E+04  0.50400001928E-02 0.  1.
    10030    2    1    2    0    0  0.00000000000E+00  0.00000000000E+00 -0.12064461928E+04  0.28913738319E+04  0.26276472784E+04 0.  0.
        2    1    3    3  502    0 -0.53500673018E+03 -0.79671545950E+02 -0.19207030784E+04  0.19954147619E+04  0.25500000920E-02 0.  1.
       -2    1    3    3    0  502  0.53500673018E+03  0.79671545950E+02  0.71425688558E+03  0.89595907003E+03  0.25500000920E-02 0. -1.
</event>
<event>
 5   0  0.1681731E-05  0.2610837E+04  0.7818609E-02  0.8364529E-01
        2   -1    0    0  501    0  0.00000000000E+00  0.00000000000E+00  0.13542423704E+04  0.13542423704E+04  0.25500000920E-02 0. -1.
       -2   -1    0    0    0  501  0.00000000000E+00  0.00000000000E+00 -0.12583551688E+04  0.12583551688E+04  0.25500000920E-02 0.  1.
    10030    2    1    2    0    0  0.00000000000E+00  0.00000000000E+00  0.95887201617E+02  0.26125975392E+04  0.26108373267E+04 0.  0.
        2    1    3    3  502    0  0.33484065089E+03 -0.25673149291E+03  0.12841260391E+04  0.13516689703E+04  0.25500000920E-02 0. -1.
       -2    1    3    3    0  502 -0.33484065089E+03  0.25673149291E+03 -0.11882388375E+04  0.12609285689E+04  0.25500000920E-02 0.  1.
</event>
<event>
 5   0  0.6706225E-06  0.2602883E+04  0.7818609E-02  0.8367223E-01
        1   -1    0    0  501    0  0.00000000000E+00  0.00000000000E+00  0.13896412994E+04  0.13896412994E+04  0.50400001928E-02 0.  1.
       -1   -1    0    0    0  501  0.00000000000E+00  0.00000000000E+00 -0.12188397750E+04  0.12188397750E+04  0.50400001928E-02 0. -1.
    10030    2    1    2    0    0  0.00000000000E+00  0.00000000000E+00  0.17080152436E+03  0.26084810744E+04  0.26028830851E+04 0.  0.
        5    1    3    3  502    0 -0.98478135850E+03  0.17332326638E+03 -0.74939299859E+03  0.12495788231E+04  0.46999998093E+01 0. -1.
       -5    1    3    3    0  502  0.98478135850E+03 -0.17332326638E+03  0.92019452295E+03  0.13589022514E+04  0.46999998093E+01 0.  1.
</event>
<event>
 5   0  0.6993678E-06  0.2555420E+04  0.7818609E-02  0.8383504E-01
       -1   -1    0    0    0  501  0.00000000000E+00  0.00000000000E+00  0.16321994106E+04  0.16321994106E+04  0.50400001928E-02 0. -1.
        1   -1    0    0  501    0  0.00000000000E+00  0.00000000000E+00 -0.10002102316E+04  0.10002102316E+04  0.50400001928E-02 0.  1.
    10030    2    1    2    0    0  0.00000000000E+00  0.00000000000E+00  0.63198917898E+03  0.26324096422E+04  0.25554197702E+04 0.  0.
        1    1    3    3  502    0  0.63481234464E+03 -0.64944335085E+03 -0.60984883796E+03  0.10939282353E+04  0.50400001928E-02 0.  1.
       -1    1    3    3    0  502 -0.63481234464E+03  0.64944335085E+03  0.12418380169E+04  0.15384814068E+04  0.50400001928E-02 0. -1.
</event>
<event>
 5   0  0.6706225E-06  0.2559569E+04  0.7818609E-02  0.8382066E-01
        1   -1    0    0  501    0  0.00000000000E+00  0.00000000000E+00  0.49348597268E+03  0.49348597270E+03  0.50400001928E-02 0.  1.
       -1   -1    0    0    0  501  0.00000000000E+00  0.00000000000E+00 -0.33189357982E+04  0.33189357982E+04  0.50400001928E-02 0. -1.
    10030    2    1    2    0    0  0.00000000000E+00  0.00000000000E+00 -0.28254498255E+04  0.38124217709E+04  0.25595689173E+04 0.  0.
        5    1    3    3  502    0  0.52650644029E+03 -0.83405792185E+03 -0.19812470576E+03  0.10060502660E+04  0.46999998093E+01 0.  1.
       -5    1    3    3    0  502 -0.52650644029E+03  0.83405792185E+03 -0.26273251197E+04  0.28063715049E+04  0.46999998093E+01 0. -1.
</event>
<event>
 5   0  0.1681731E-05  0.2609974E+04  0.7818609E-02  0.8364821E-01
        2   -1    0    0  501    0  0.00000000000E+00  0.00000000000E+00  0.14249027317E+04  0.14249027317E+04  0.25500000920E-02 0.  1.
       -2   -1    0    0    0  501  0.00000000000E+00  0.00000000000E+00 -0.11951628048E+04  0.11951628048E+04  0.25500000920E-02 0. -1.
    10030    2    1    2    0    0  0.00000000000E+00  0.00000000000E+00  0.22973992696E+03  0.26200655365E+04  0.26099737511E+04 0.  0.
        2    1    3    3  502    0  0.22510885676E+03 -0.78407303337E+03  0.11374086372E+04  0.13996938691E+04  0.25500000920E-02 0.  1.
       -2    1    3    3    0  502 -0.22510885676E+03  0.78407303337E+03 -0.90766871026E+03  0.12203716674E+04  0.25500000920E-02 0. -1.
</event>
<event>
 5   0  0.1681731E-05  0.2608135E+04  0.7818609E-02  0.8365443E-01
        2   -1    0    0  501    0  0.00000000000E+00  0.00000000000E+00  0.71801806338E+03  0.71801806339E+03  0.25500000920E-02 0. -1.
       -2   -1    0    0    0  501  0.00000000000E+00  0.00000000000E+00 -0.23684525190E+04  0.23684525190E+04  0.25500000920E-02 0.  1.
    10030    2    1    2    0    0  0.00000000000E+00  0.00000000000E+00 -0.16504344556E+04  0.30864705824E+04  0.26081347288E+04 0.  0.
        2    1    3    3  502    0 -0.77023461287E+03  0.93311989219E+03 -0.24957102874E+03  0.12354188725E+04  0.25500000920E-02 0. -1.
       -2    1    3    3    0  502  0.77023461287E+03 -0.93311989219E+03 -0.14008634269E+04  0.18510517099E+04  0.25500000920E-02 0.  1.
</event>
<event>
 5   0  0.6993678E-06  0.2629179E+04  0.7818609E-02  0.8358357E-01
       -1   -1    0    0    0  501  0.00000000000E+00  0.00000000000E+00  0.13407171991E+04  0.13407171991E+04  0.50400001928E-02 0.  1.
        1   -1    0    0  501    0  0.00000000000E+00  0.00000000000E+00 -0.12889713690E+04  0.12889713690E+04  0.50400001928E-02 0. -1.
    10030    2    1    2    0    0  0.00000000000E+00  0.00000000000E+00  0.51745830103E+02  0.26296885682E+04  0.26291794033E+04 0.  0.
        1    1    3    3  502    0  0.11305777215E+04 -0.24600392750E+03  0.65003075717E+03  0.13271261817E+04  0.50400001928E-02 0.  1.
       -1    1    3    3    0  502 -0.11305777215E+04  0.24600392750E+03 -0.59828492707E+03  0.13025623865E+04  0.50400001928E-02 0. -1.
</event>
<event>
 5   0  0.1720129E-05  0.2572528E+04  0.7818609E-02  0.8377593E-01
       -2   -1    0    0    0  501  0.00000000000E+00  0.00000000000E+00  0.68932776605E+03  0.68932776606E+03  0.25500000920E-02 0.  1.
        2   -1    0    0  501    0  0.00000000000E+00  0.00000000000E+00 -0.24001280466E+04  0.24001280466E+04  0.25500000920E-02 0. -1.
    10030    2    1    2    0    0  0.00000000000E+00  0.00000000000E+00 -0.17108002805E+04  0.30894558127E+04  0.25725278654E+04 0.  0.
        3    1    3    3  502    0  0.12217075679E+04  0.10344828086E+03 -0.13223857434E+04  0.18033233190E+04  0.10100000352E+00 0.  1.
       -3    1    3    3    0  502 -0.12217075679E+04 -0.10344828086E+03 -0.38841453713E+03  0.12861324936E+04  0.10100000352E+00 0. -1.
</event>
<event>
 5   0  0.1720129E-05  0.2541091E+04  0.7818609E-02  0.8388491E-01
       -2   -1    0    0    0  501  0.00000000000E+00  0.00000000000E+00  0.82192174536E+03  0.82192174537E+03  0.25500000920E-02 0.  1.
        2   -1    0    0  501    0  0.00000000000E+00  0.00000000000E+00 -0.19640379535E+04  0.19640379535E+04  0.25500000920E-02 0. -1.
    10030    2    1    2    0    0  0.00000000000E+00  0.00000000000E+00 -0.11421162081E+04  0.27859596989E+04  0.25410907128E+04 0.  0.
        3    1    3    3  502    0  0.85744563024E+03  0.56691389895E+03  0.24768495213E+03  0.10573325983E+04  0.10100000352E+00 0.  1.
       -3    1    3    3    0  502 -0.85744563024E+03 -0.56691389895E+03 -0.13898011603E+04  0.17286271006E+04  0.10100000352E+00 0. -1.
</event>
<event>
 5   0  0.1677971E-05  0.2617208E+04  0.7818609E-02  0.8362379E-01
       -2   -1    0    0    0  501  0.00000000000E+00  0.00000000000E+00  0.98785747022E+03  0.98785747022E+03  0.25500000920E-02 0. -1.
        2   -1    0    0  501    0  0.00000000000E+00  0.00000000000E+00 -0.17334932073E+04  0.17334932073E+04  0.25500000920E-02 0.  1.
    10030    2    1    2    0    0  0.00000000000E+00  0.00000000000E+00 -0.74563573706E+03  0.27213506775E+04  0.26172078361E+04 0.  0.
        4    1    3    3  502    0  0.35263502248E+03  0.58179644639E+03 -0.15351560582E+04  0.16791498742E+04  0.12699999809E+01 0.  1.
       -4    1    3    3    0  502 -0.35263502248E+03 -0.58179644639E+03  0.78952032111E+03  0.10422008033E+04  0.12699999809E+01 0. -1.
</event>
<event>
 5   0  0.6918420E-06  0.2612392E+04  0.7818609E-02  0.8364004E-01
       -1   -1    0    0    0  501  0.00000000000E+00  0.00000000000E+00  0.77857182025E+03  0.77857182026E+03  0.50400001928E-02 0. -1.
        1   -1    0    0  501    0  0.00000000000E+00  0.00000000000E+00 -0.21913823476E+04  0.21913823476E+04  0.50400001928E-02 0.  1.
    10030    2    1    2    0    0  0.00000000000E+00  0.00000000000E+00 -0.14128105274E+04  0.29699541679E+04  0.26123924233E+04 0.  0.
        4    1    3    3  502    0 -0.45055211929E+03  0.91362145609E+03 -0.16358944705E+04  0.19271361417E+04  0.12699999809E+01 0.  1.
       -4    1    3    3    0  502  0.45055211929E+03 -0.91362145609E+03  0.22308394308E+03  0.10428180262E+04  0.12699999809E+01 0. -1.
</event>
<event>
 5   0  0.6918420E-06  0.2616060E+04  0.7818609E-02  0.8362766E-01
       -1   -1    0    0    0  501  0.00000000000E+00  0.00000000000E+00  0.10327750167E+04  0.10327750167E+04  0.50400001928E-02 0. -1.
        1   -1    0    0  501    0  0.00000000000E+00  0.00000000000E+00 -0.16566463166E+04  0.16566463166E+04  0.50400001928E-02 0.  1.
    10030    2    1    2    0    0  0.00000000000E+00  0.00000000000E+00 -0.62387129987E+03  0.26894213333E+04  0.26160603412E+04 0.  0.
        4    1    3    3  502    0  0.85246423009E+03 -0.13313375868E+03  0.69875171752E+03  0.11102591756E+04  0.12699999809E+01 0. -1.
       -4    1    3    3    0  502 -0.85246423009E+03  0.13313375868E+03 -0.13226230174E+04  0.15791621577E+04  0.12699999809E+01 0.  1.
</event>
<event>
 5   0  0.1869956E-05  0.2653353E+04  0.7818609E-02  0.8350301E-01
        2   -1    0    0  501    0  0.00000000000E+00  0.00000000000E+00  0.18161759083E+04  0.18161759083E+04  0.25500000920E-02 0. -1.
       -2   -1    0    0    0  501  0.00000000000E+00  0.00000000000E+00 -0.96910818088E+03  0.96910818088E+03  0.25500000920E-02 0.  1.
    10030    2    1    2    0    0  0.00000000000E+00  0.00000000000E+00  0.84706772738E+03  0.27852840891E+04  0.26533532977E+04 0.  0.
        5    1    3    3  502    0  0.41832799355E+03 -0.74616723324E+02 -0.89573064275E+03  0.99142394562E+03  0.46999998093E+01 0.  1.
       -5    1    3    3    0  502 -0.41832799355E+03  0.74616723324E+02  0.17427983701E+04  0.17938601435E+04  0.46999998093E+01 0. -1.
</event>
<event>
 5   0  0.6918420E-06  0.2655751E+04  0.7818609E-02  0.8349507E-01
        1   -1    0    0  501    0  0.00000000000E+00  0.00000000000E+00  0.21859944395E+04  0.21859944396E+04  0.50400001928E-02 0. -1.
       -1   -1    0    0    0  501  0.00000000000E+00  0.00000000000E+00 -0.80661378114E+03  0.80661378116E+03  0.50400001928E-02 0.  1.
    10030    2    1    2    0    0  0.00000000000E+00  0.00000000000E+00  0.13793806584E+04  0.29926082207E+04  0.26557509224E+04 0.  0.
        4    1    3    3  502    0  0.69863157892E+03 -0.71292391075E+03  0.16764998255E+04  0.19511534699E+04  0.12699999809E+01 0. -1.
       -4    1    3    3    0  502 -0.69863157892E+03  0.71292391075E+03 -0.29711916705E+03  0.10414547508E+04  0.12699999809E+01 0.  1.
</event>
<event>
 5   0  0.1720129E-05  0.2592925E+04  0.7818609E-02  0.8370608E-01
        2   -1    0    0  501    0  0.00000000000E+00  0.00000000000E+00  0.15780275691E+04  0.15780275691E+04  0.25500000920E-02 0.  1.
       -2   -1    0    0    0  501  0.00000000000E+00  0.00000000000E+00 -0.10651366423E+04  0.10651366423E+04  0.25500000920E-02 0. -1.
    10030    2    1    2    0    0  0.00000000000E+00  0.00000000000E+00  0.51289092685E+03  0.26431642114E+04  0.25929249788E+04 0.  0.
        3    1    3    3  502    0 -0.11639207396E+04 -0.22385313581E+03 -0.27908407876E+03  0.12176656551E+04  0.10100000352E+00 0. -1.
       -3    1    3    3    0  502  0.11639207396E+04  0.22385313581E+03  0.79197500561E+03  0.14254985563E+04  0.10100000352E+00 0.  1.
</event>
<event>
 5   0  0.1720129E-05  0.2584526E+04  0.7818609E-02  0.8373476E-01
        2   -1    0    0  501    0  0.00000000000E+00  0.00000000000E+00  0.28952969097E+04  0.28952969097E+04  0.25500000920E-02 0. -1.
       -2   -1    0    0    0  501  0.00000000000E+00  0.00000000000E+00 -0.57677799666E+03  0.57677799667E+03  0.25500000920E-02 0.  1.
    10030    2    1    2    0    0  0.00000000000E+00  0.00000000000E+00  0.23185189130E+04  0.34720749064E+04  0.25845259150E+04 0.  0.
        3    1    3    3  502    0  0.84998652101E+03 -0.56166359276E+03  0.22272487363E+04  0.24491998736E+04  0.10100000352E+00 0. -1.
       -3    1    3    3    0  502 -0.84998652101E+03  0.56166359276E+03  0.91270176761E+02  0.10228750328E+04  0.10100000352E+00 0.  1.
</event>
<event>
 5   0  0.6918420E-06  0.2564678E+04  0.7818609E-02  0.8380299E-01
       -1   -1    0    0    0  501  0.00000000000E+00  0.00000000000E+00  0.15486808956E+04  0.15486808956E+04  0.50400001928E-02 0. -1.
        1   -1    0    0  501    0  0.00000000000E+00  0.00000000000E+00 -0.10618026898E+04  0.10618026898E+04  0.50400001928E-02 0.  1.
    10030    2    1    2    0    0  0.00000000000E+00  0.00000000000E+00  0.48687820585E+03  0.26104835854E+04  0.25646781791E+04 0.  0.
        4    1    3    3  502    0  0.10623572570E+04  0.13223844591E+03 -0.47507351011E+03  0.11712328551E+04  0.12699999809E+01 0. -1.
       -4    1    3    3    0  502 -0.10623572570E+04 -0.13223844591E+03  0.96195171596E+03  0.14392507303E+04  0.12699999809E+01 0.  1.
</event>
<event>
 5   0  0.6984287E-06  0.2602887E+04  0.7818609E-02  0.8367221E-01
       -1   -1    0    0    0  501  0.00000000000E+00  0.00000000000E+00  0.13607909689E+04  0.13607909689E+04  0.50400001928E-02 0. -1.
        1   -1    0    0  501    0  0.00000000000E+00  0.00000000000E+00 -0.12446846610E+04  0.12446846610E+04  0.50400001928E-02 0.  1.
    10030    2    1    2    0    0  0.00000000000E+00  0.00000000000E+00  0.11610630785E+03  0.26054756299E+04  0.26028873551E+04 0.  0.
        3    1    3    3  502    0 -0.28492911022E+03 -0.63023708131E+03  0.11615886356E+04  0.13519140302E+04  0.10100000352E+00 0. -1.
       -3    1    3    3    0  502  0.28492911022E+03  0.63023708131E+03 -0.10454823277E+04  0.12535615997E+04  0.10100000352E+00 0.  1.
</event>
<event>
 5   0  0.6918420E-06  0.2602463E+04  0.7818609E-02  0.8367365E-01
        1   -1    0    0  501    0  0.00000000000E+00  0.00000000000E+00  0.60988644851E+03  0.60988644853E+03  0.50400001928E-02 0.  1.
       -1   -1    0    0    0  501  0.00000000000E+00  0.00000000000E+00 -0.27762596670E+04  0.27762596670E+04  0.50400001928E-02 0. -1.
    10030    2    1    2    0    0  0.00000000000E+00  0.00000000000E+00 -0.21663732185E+04  0.33861461155E+04  0.26024627940E+04 0.  0.
        4    1    3    3  502    0  0.87112699496E+03 -0.60316397740E+03 -0.20659780454E+04  0.23218389096E+04  0.12699999809E+01 0. -1.
       -4    1    3    3    0  502 -0.87112699496E+03  0.60316397740E+03 -0.10039517306E+03  0.10643072060E+04  0.12699999809E+01 0.  1.
</event>
<event>
 5   0  0.1869956E-05  0.2605752E+04  0.7818609E-02  0.8366250E-01
        2   -1    0    0  501    0  0.00000000000E+00  0.00000000000E+00  0.88449154042E+03  0.88449154042E+03  0.25500000920E-02 0.  1.
       -2   -1    0    0    0  501  0.00000000000E+00  0.00000000000E+00 -0.19191662576E+04  0.19191662576E+04  0.25500000920E-02 0. -1.
    10030    2    1    2    0    0  0.00000000000E+00  0.00000000000E+00 -0.10346747172E+04  0.28036577980E+04  0.26057523440E+04 0.  0.
        5    1    3    3  502    0  0.91357000447E+03  0.71195921217E+03  0.12460708213E+03  0.11649227819E+04  0.46999998093E+01 0.  1.
       -5    1    3    3    0  502 -0.91357000447E+03 -0.71195921217E+03 -0.11592817993E+04  0.16387350161E+04  0.46999998093E+01 0. -1.
</event>
<event>
 5   0  0.6918420E-06  0.2676079E+04  0.7818609E-02  0.8342808E-01
       -1   -1    0    0    0  501  0.00000000000E+00  0.00000000000E+00  0.92756620403E+03  0.92756620405E+03  0.50400001928E-02 0.  1.
        1   -1    0    0  501    0  0.00000000000E+00  0.00000000000E+00 -0.19301590872E+04  0.19301590872E+04  0.50400001928E-02 0. -1.
    10030    2    1    2    0    0  0.00000000000E+00  0.00000000000E+00 -0.10025928832E+04  0.28577252912E+04  0.26760794739E+04 0.  0.
        4    1    3    3  502    0  0.50117122991E+03  0.12011078744E+04 -0.83305422649E+03  0.15452552167E+04  0.12699999809E+01 0.  1.
       -4    1    3    3    0  502 -0.50117122991E+03 -0.12011078744E+04 -0.16953865666E+03  0.13124700745E+04  0.12699999809E+01 0. -1.
</event>
<event>
 5   0  0.7138294E-06  0.2572903E+04  0.7818609E-02  0.8377464E-01
       -1   -1    0    0    0  501  0.00000000000E+00  0.00000000000E+00  0.17131675900E+04  0.17131675900E+04  0.50400001928E-02 0.  1.
        1   -1    0    0  501    0  0.00000000000E+00  0.00000000000E+00 -0.96602161685E+03  0.96602161687E+03  0.50400001928E-02 0. -1.
    10030    2    1    2    0    0  0.00000000000E+00  0.00000000000E+00  0.74714597316E+03  0.26791892069E+04  0.25729025829E+04 0.  0.
        2    1    3    3  502    0  0.57533982663E+03  0.92249622387E+03 -0.34254380640E+03  0.11398909853E+04  0.25500000920E-02 0. -1.
       -2    1    3    3    0  502 -0.57533982663E+03 -0.92249622387E+03  0.10896897796E+04  0.15392982215E+04  0.25500000920E-02 0.  1.
</event>
<event>
 5   0  0.6706225E-06  0.2579276E+04  0.7818609E-02  0.8375275E-01
        1   -1    0    0  501    0  0.00000000000E+00  0.00000000000E+00  0.85704884222E+03  0.85704884223E+03  0.50400001928E-02 0. -1.
       -1   -1    0    0    0  501  0.00000000000E+00  0.00000000000E+00 -0.19405740602E+04  0.19405740602E+04  0.50400001928E-02 0.  1.
    10030    2    1    2    0    0  0.00000000000E+00  0.00000000000E+00 -0.10835252180E+04  0.27976229025E+04  0.25792764502E+04 0.  0.
        5    1    3    3  502    0 -0.49279987693E+02  0.68154519160E+03 -0.17280650196E+04  0.18582688631E+04  0.46999998093E+01 0.  1.
       -5    1    3    3    0  502  0.49279987693E+02 -0.68154519160E+03  0.64453980165E+03  0.93935403937E+03  0.46999998093E+01 0. -1.
</event>
<event>
 5   0  0.1681731E-05  0.2567038E+04  0.7818609E-02  0.8379484E-01
        2   -1    0    0  501    0  0.00000000000E+00  0.00000000000E+00  0.12067884661E+04  0.12067884661E+04  0.25500000920E-02 0.  1.
       -2   -1    0    0    0  501  0.00000000000E+00  0.00000000000E+00 -0.13651286230E+04  0.13651286230E+04  0.25500000920E-02 0. -1.
    10030    2    1    2    0    0  0.00000000000E+00  0.00000000000E+00 -0.15834015696E+03  0.25719170891E+04  0.25670383534E+04 0.  0.
        2    1    3    3  502    0 -0.23060995009E+03 -0.22371735600E+03  0.11658464740E+04  0.12093090611E+04  0.25500000920E-02 0.  1.
       -2    1    3    3    0  502  0.23060995009E+03  0.22371735600E+03 -0.13241866309E+04  0.13626080280E+04  0.25500000920E-02 0. -1.
</event>
<event>
 5   0  0.1677971E-05  0.2590401E+04  0.7818609E-02  0.8371469E-01
        2   -1    0    0  501    0  0.00000000000E+00  0.00000000000E+00  0.14940134798E+04  0.14940134798E+04  0.25500000920E-02 0.  1.
       -2   -1    0    0    0  501  0.00000000000E+00  0.00000000000E+00 -0.11228439255E+04  0.11228439255E+04  0.25500000920E-02 0. -1.
    10030    2    1    2    0    0  0.00000000000E+00  0.00000000000E+00  0.37116955432E+03  0.26168574053E+04  0.25904007107E+04 0.  0.
        4    1    3    3  502    0  0.81974120980E+03  0.80888274430E+03 -0.41315343706E+03  0.12235049328E+04  0.12699999809E+01 0. -1.
       -4    1    3    3    0  502 -0.81974120980E+03 -0.80888274430E+03  0.78432299139E+03  0.13933524726E+04  0.12699999809E+01 0.  1.
</event>
<event>
 5   0  0.1720129E-05  0.2583984E+04  0.7818609E-02  0.8373662E-01
        2   -1    0    0  501    0  0.00000000000E+00  0.00000000000E+00  0.13275766425E+04  0.13275766425E+04  0.25500000920E-02 0. -1.
       -2   -1    0    0    0  501  0.00000000000E+00  0.00000000000E+00 -0.12573616478E+04  0.12573616478E+04  0.25500000920E-02 0.  1.
    10030    2    1    2    0    0  0.00000000000E+00  0.00000000000E+00  0.70214994676E+02  0.25849382903E+04  0.25839844851E+04 0.  0.
        3    1    3    3  502    0 -0.97275232751E+02  0.12155118701E+04 -0.39203063394E+03  0.12808667399E+04  0.10100000352E+00 0. -1.
       -3    1    3    3    0  502  0.97275232751E+02 -0.12155118701E+04  0.46224562861E+03  0.13040715504E+04  0.10100000352E+00 0.  1.
</event>
<event>
 5   0  0.6993678E-06  0.2567496E+04  0.7818609E-02  0.8379327E-01
        1   -1    0    0  501    0  0.00000000000E+00  0.00000000000E+00  0.20030590354E+04  0.20030590354E+04  0.50400001928E-02 0. -1.
       -1   -1    0    0    0  501  0.00000000000E+00  0.00000000000E+00 -0.82274595871E+03  0.82274595873E+03  0.50400001928E-02 0.  1.
    10030    2    1    2    0    0  0.00000000000E+00  0.00000000000E+00  0.11803130767E+04  0.28258049941E+04  0.25674958434E+04 0.  0.
        1    1    3    3  502    0  0.82143569688E+02  0.12602799874E+04  0.84342903513E+03  0.15186921183E+04  0.50400001928E-02 0.  1.
       -1    1    3    3    0  502 -0.82143569688E+02 -0.12602799874E+04  0.33688404154E+03  0.13071128759E+04  0.50400001928E-02 0. -1.
</event>
<event>
 5   0  0.6984287E-06  0.2598259E+04  0.7818609E-02  0.8368793E-01
        1   -1    0    0  501    0  0.00000000000E+00  0.00000000000E+00  0.12421039645E+04  0.12421039645E+04  0.50400001928E-02 0.  1.
       -1   -1    0    0    0  501  0.00000000000E+00  0.00000000000E+00 -0.13587735544E+04  0.13587735544E+04  0.50400001928E-02 0. -1.
    10030    2    1    2    0    0  0.00000000000E+00  0.00000000000E+00 -0.11666958991E+03  0.26008775189E+04  0.25982594319E+04 0.  0.
        3    1    3    3  502    0 -0.79112105194E+02 -0.42762178718E+03 -0.12837492237E+04  0.13554081295E+04  0.10100000352E+00 0. -1.
       -3    1    3    3    0  502  0.79112105194E+02  0.42762178718E+03  0.11670796338E+04  0.12454693894E+04  0.10100000352E+00 0.  1.
</event>
<event>
 5   0  0.6706225E-06  0.2653338E+04  0.7818609E-02  0.8350306E-01
       -1   -1    0    0    0  501  0.00000000000E+00  0.00000000000E+00  0.11385571246E+04  0.11385571246E+04  0.50400001928E-02 0. -1.
        1   -1    0    0  501    0  0.00000000000E+00  0.00000000000E+00 -0.15458610900E+04  0.15458610900E+04  0.50400001928E-02 0.  1.
    10030    2    1    2    0    0  0.00000000000E+00  0.00000000000E+00 -0.40730396542E+03  0.26844182146E+04  0.26533383935E+04 0.  0.
        5    1    3    3  502    0 -0.52379612063E+03  0.25061665346E+03  0.10031563866E+04  0.11591013368E+04  0.46999998093E+01 0. -1.
       -5    1    3    3    0  502  0.52379612063E+03 -0.25061665346E+03 -0.14104603520E+04  0.15253168778E+04  0.46999998093E+01 0.  1.
</event>
<event>
 5   0  0.6706225E-06  0.2484727E+04  0.7818609E-02  0.8408447E-01
        1   -1    0    0  501    0  0.00000000000E+00  0.00000000000E+00  0.16890510232E+04  0.16890510232E+04  0.50400001928E-02 0.  1.
       -1   -1    0    0    0  501  0.00000000000E+00  0.00000000000E+00 -0.91380729408E+03  0.91380729409E+03  0.50400001928E-02 0. -1.
    10030    2    1    2    0    0  0.00000000000E+00  0.00000000000E+00  0.77524372914E+03  0.26028583173E+04  0.24847270636E+04 0.  0.
        5    1    3    3  502    0  0.11089447372E+04  0.21319687051E+02  0.97390171246E+03  0.14760486424E+04  0.46999998093E+01 0.  1.
       -5    1    3    3    0  502 -0.11089447372E+04 -0.21319687051E+02 -0.19865798332E+03  0.11268096749E+04  0.46999998093E+01 0. -1.
</event>
<event>
 5   0  0.1681731E-05  0.2585203E+04  0.7818609E-02  0.8373245E-01
       -2   -1    0    0    0  501  0.00000000000E+00  0.00000000000E+00  0.22470938637E+04  0.22470938637E+04  0.25500000920E-02 0.  1.
        2   -1    0    0  501    0  0.00000000000E+00  0.00000000000E+00 -0.74354626502E+03  0.74354626503E+03  0.25500000920E-02 0. -1.
    10030    2    1    2    0    0  0.00000000000E+00  0.00000000000E+00  0.15035475986E+04  0.29906401287E+04  0.25852026996E+04 0.  0.
        2    1    3    3  502    0  0.90465353567E+03  0.66751701073E+03  0.14896475425E+04  0.18662868965E+04  0.25500000920E-02 0.  1.
       -2    1    3    3    0  502 -0.90465353567E+03 -0.66751701073E+03  0.13900056180E+02  0.11243532322E+04  0.25500000920E-02 0. -1.
</event>
<event>
 5   0  0.1681731E-05  0.2595476E+04  0.7818609E-02  0.8369740E-01
       -2   -1    0    0    0  501  0.00000000000E+00  0.00000000000E+00  0.11688051143E+04  0.11688051143E+04  0.25500000920E-02 0. -1.
        2   -1    0    0  501    0  0.00000000000E+00  0.00000000000E+00 -0.14408935084E+04  0.14408935084E+04  0.25500000920E-02 0.  1.
    10030    2    1    2    0    0  0.00000000000E+00  0.00000000000E+00 -0.27208839402E+03  0.26096986227E+04  0.25954758344E+04 0.  0.
        2    1    3    3  502    0 -0.38548440651E+03 -0.27092905667E+03 -0.13518530721E+04  0.14316101110E+04  0.25500000920E-02 0.  1.
       -2    1    3    3    0  502  0.38548440651E+03  0.27092905667E+03  0.10797646781E+04  0.11780885117E+04  0.25500000920E-02 0. -1.
</event>
<event>
 5   0  0.6984287E-06  0.2790580E+04  0.7818609E-02  0.8306199E-01
       -1   -1    0    0    0  501  0.00000000000E+00  0.00000000000E+00  0.15810124485E+04  0.15810124485E+04  0.50400001928E-02 0.  1.
        1   -1    0    0  501    0  0.00000000000E+00  0.00000000000E+00 -0.12313849038E+04  0.12313849038E+04  0.50400001928E-02 0. -1.
    10030    2    1    2    0    0  0.00000000000E+00  0.00000000000E+00  0.34962754474E+03  0.28123973523E+04  0.27905804857E+04 0.  0.
        3    1    3    3  502    0  0.23254489160E+03  0.80174868378E+03  0.13015691113E+04  0.15462730160E+04  0.10100000352E+00 0.  1.
       -3    1    3    3    0  502 -0.23254489160E+03 -0.80174868378E+03 -0.95194156652E+03  0.12661243362E+04  0.10100000352E+00 0. -1.
</event>
<event>
 5   0  0.6993678E-06  0.2616872E+04  0.7818609E-02  0.8362493E-01
        1   -1    0    0  501    0  0.00000000000E+00  0.00000000000E+00  0.14063385274E+04  0.14063385274E+04  0.50400001928E-02 0.  1.
       -1   -1    0    0    0  501  0.00000000000E+00  0.00000000000E+00 -0.12173488895E+04  0.12173488895E+04  0.50400001928E-02 0. -1.
    10030    2    1    2    0    0  0.00000000000E+00  0.00000000000E+00  0.18898963795E+03  0.26236874169E+04  0.26168719071E+04 0.  0.
        1    1    3    3  502    0  0.98543542242E+03 -0.79970683452E+01 -0.76847783270E+03  0.12496820012E+04  0.50400001928E-02 0. -1.
       -1    1    3    3    0  502 -0.98543542242E+03  0.79970683452E+01  0.95746747065E+03  0.13740054156E+04  0.50400001928E-02 0.  1.
</event>
<event>
 5   0  0.1702345E-05  0.2609888E+04  0.7818609E-02  0.8364850E-01
        2   -1    0    0  501    0  0.00000000000E+00  0.00000000000E+00  0.21691572219E+04  0.21691572219E+04  0.25500000920E-02 0.  1.
       -2   -1    0    0    0  501  0.00000000000E+00  0.00000000000E+00 -0.78504167771E+03  0.78504167772E+03  0.25500000920E-02 0. -1.
    10030    2    1    2    0    0  0.00000000000E+00  0.00000000000E+00  0.13841155442E+04  0.29541988997E+04  0.26098879859E+04 0.  0.
        1    1    3    3  502    0 -0.17482452071E+03  0.47133794804E+03 -0.67103428894E+03  0.83845697043E+03  0.50400001928E-02 0. -1.
       -1    1    3    3    0  502  0.17482452071E+03 -0.47133794804E+03  0.20551498332E+04  0.21157419292E+04  0.50400001928E-02 0.  1.
</event>
<event>
 5   0  0.1869956E-05  0.2608613E+04  0.7818609E-02  0.8365281E-01
        2   -1    0    0  501    0  0.00000000000E+00  0.00000000000E+00  0.19468146282E+04  0.19468146282E+04  0.25500000920E-02 0. -1.
       -2   -1    0    0    0  501  0.00000000000E+00  0.00000000000E+00 -0.87384566651E+03  0.87384566651E+03  0.25500000920E-02 0.  1.
    10030    2    1    2    0    0  0.00000000000E+00  0.00000000000E+00  0.10729689617E+04  0.28206602947E+04  0.26086130616E+04 0.  0.
        5    1    3    3  502    0 -0.48182037219E+03 -0.10898979088E+04  0.11098371484E+04  0.16284314258E+04  0.46999998093E+01 0. -1.
       -5    1    3    3    0  502  0.48182037219E+03  0.10898979088E+04 -0.36868186760E+02  0.11922288689E+04  0.46999998093E+01 0.  1.
</event>
<event>
 5   0  0.7138294E-06  0.2593922E+04  0.7818609E-02  0.8370269E-01
       -1   -1    0    0    0  501  0.00000000000E+00  0.00000000000E+00  0.80605116857E+03  0.80605116859E+03  0.50400001928E-02 0. -1.
        1   -1    0    0  501    0  0.00000000000E+00  0.00000000000E+00 -0.20868494655E+04  0.20868494655E+04  0.50400001928E-02 0.  1.
    10030    2    1    2    0    0  0.00000000000E+00  0.00000000000E+00 -0.12807982969E+04  0.28929006341E+04  0.25939217030E+04 0.  0.
        2    1    3    3  502    0 -0.39274194928E+03  0.23349874160E+03  0.71331845762E+03  0.84710750383E+03  0.25500000920E-02 0. -1.
       -2    1    3    3    0  502  0.39274194928E+03 -0.23349874160E+03 -0.19941167546E+04  0.20457931303E+04  0.25500000920E-02 0.  1.
</event>
<event>
 5   0  0.7138294E-06  0.2477302E+04  0.7818609E-02  0.8411117E-01
       -1   -1    0    0    0  501  0.00000000000E+00  0.00000000000E+00  0.13191070663E+04  0.13191070663E+04  0.50400001928E-02 0. -1.
        1   -1    0    0  501    0  0.00000000000E+00  0.00000000000E+00 -0.11631022323E+04  0.11631022324E+04  0.50400001928E-02 0.  1.
    10030    2    1    2    0    0  0.00000000000E+00  0.00000000000E+00  0.15600483393E+03  0.24822092986E+04  0.24773020595E+04 0.  0.
        2    1    3    3  502    0 -0.42902072978E+02  0.71344397106E+03  0.10916453625E+04  0.13048112833E+04  0.25500000920E-02 0. -1.
       -2    1    3    3    0  502  0.42902072978E+02 -0.71344397106E+03 -0.93564052856E+03  0.11773980153E+04  0.25500000920E-02 0.  1.
</event>
<event>
 5   0  0.6984287E-06  0.2584060E+04  0.7818609E-02  0.8373636E-01
       -1   -1    0    0    0  501  0.00000000000E+00  0.00000000000E+00  0.88977708890E+03  0.88977708892E+03  0.50400001928E-02 0.  1.
        1   -1    0    0  501    0  0.00000000000E+00  0.00000000000E+00 -0.18761351253E+04  0.18761351253E+04  0.50400001928E-02 0. -1.
    10030    2    1    2    0    0  0.00000000000E+00  0.00000000000E+00 -0.98635803636E+03  0.27659122142E+04  0.25840604096E+04 0.  0.
        3    1    3    3  502    0 -0.19452903656E+03  0.54577709721E+02 -0.18591218199E+04  0.18700679730E+04  0.10100000352E+00 0. -1.
       -3    1    3    3    0  502  0.19452903656E+03 -0.54577709721E+02  0.87276378349E+03  0.89584424117E+03  0.10100000352E+00 0.  1.
</event>
<event>
 5   0  0.1720129E-05  0.2606241E+04  0.7818609E-02  0.8366084E-01
        2   -1    0    0  501    0  0.00000000000E+00  0.00000000000E+00  0.16598229357E+04  0.16598229357E+04  0.25500000920E-02 0. -1.
       -2   -1    0    0    0  501  0.00000000000E+00  0.00000000000E+00 -0.10230748332E+04  0.10230748332E+04  0.25500000920E-02 0.  1.
    10030    2    1    2    0    0  0.00000000000E+00  0.00000000000E+00  0.63674810247E+03  0.26828977689E+04  0.26062410273E+04 0.  0.
        3    1    3    3  502    0  0.88118387575E+03  0.33559407674E+03 -0.60753374676E+03  0.11216976736E+04  0.10100000352E+00 0.  1.
       -3    1    3    3    0  502 -0.88118387575E+03 -0.33559407674E+03  0.12442818492E+04  0.15612000954E+04  0.10100000352E+00 0. -1.
</event>
<event>
 5   0  0.6706225E-06  0.2627629E+04  0.7818609E-02  0.8358876E-01
        1   -1    0    0  501    0  0.00000000000E+00  0.00000000000E+00  0.13690291961E+04  0.13690291961E+04  0.50400001928E-02 0.  1.
       -1   -1    0    0    0  501  0.00000000000E+00  0.00000000000E+00 -0.12608264510E+04  0.12608264510E+04  0.50400001928E-02 0. -1.
    10030    2    1    2    0    0  0.00000000000E+00  0.00000000000E+00  0.10820274513E+03  0.26298556472E+04  0.26276287582E+04 0.  0.
        5    1    3    3  502    0  0.75669863490E+03 -0.51032166591E+03  0.99992348841E+03  0.13538427159E+04  0.46999998093E+01 0.  1.
       -5    1    3    3    0  502 -0.75669863490E+03  0.51032166591E+03 -0.89172074328E+03  0.12760129313E+04  0.46999998093E+01 0. -1.
</event>
<event>
 5   0  0.6918420E-06  0.2582967E+04  0.7818609E-02  0.8374010E-01
        1   -1    0    0  501    0  0.00000000000E+00  0.00000000000E+00  0.11228377383E+04  0.11228377383E+04  0.50400001928E-02 0. -1.
       -1   -1    0    0    0  501  0.00000000000E+00  0.00000000000E+00 -0.14854591130E+04  0.14854591130E+04  0.50400001928E-02 0.  1.
    10030    2    1    2    0    0  0.00000000000E+00  0.00000000000E+00 -0.36262137472E+03  0.26082968512E+04  0.25829669380E+04 0.  0.
        4    1    3    3  502    0 -0.20831420383E+03 -0.99900132313E+03 -0.98060905763E+03  0.14152717718E+04  0.12699999809E+01 0.  1.
       -4    1    3    3    0  502  0.20831420383E+03  0.99900132313E+03  0.61798768291E+03  0.11930250795E+04  0.12699999809E+01 0. -1.
</event>
<event>
 5   0  0.1702345E-05  0.2599022E+04  0.7818609E-02  0.8368533E-01
       -2   -1    0    0    0  501  0.00000000000E+00  0.00000000000E+00  0.58673934157E+03  0.58673934158E+03  0.25500000920E-02 0. -1.
        2   -1    0    0  501    0  0.00000000000E+00  0.00000000000E+00 -0.28781593492E+04  0.28781593492E+04  0.25500000920E-02 0.  1.
    10030    2    1    2    0    0  0.00000000000E+00  0.00000000000E+00 -0.22914200076E+04  0.34648986907E+04  0.25990223712E+04 0.  0.
        1    1    3    3  502    0  0.10600098338E+04 -0.14894795689E+03 -0.21280224240E+04  0.23820759389E+04  0.50400001928E-02 0. -1.
       -1    1    3    3    0  502 -0.10600098338E+04  0.14894795689E+03 -0.16339758355E+03  0.10828227518E+04  0.50400001928E-02 0.  1.
</event>
<event>
 5   0  0.1869956E-05  0.2638991E+04  0.7818609E-02  0.8355076E-01
        2   -1    0    0  501    0  0.00000000000E+00  0.00000000000E+00  0.12777133462E+04  0.12777133463E+04  0.25500000920E-02 0. -1.
       -2   -1    0    0    0  501  0.00000000000E+00  0.00000000000E+00 -0.13626441460E+04  0.13626441460E+04  0.25500000920E-02 0.  1.
    10030    2    1    2    0    0  0.00000000000E+00  0.00000000000E+00 -0.84930799774E+02  0.26403574923E+04  0.26389911797E+04 0.  0.
        5    1    3    3  502    0  0.42839215893E+03  0.26029756392E+03  0.11787286419E+04  0.12808973280E+04  0.46999998093E+01 0. -1.
       -5    1    3    3    0  502 -0.42839215893E+03 -0.26029756392E+03 -0.12636594417E+04  0.13594601643E+04  0.46999998093E+01 0.  1.
</event>
<event>
 5   0  0.1869956E-05  0.2160912E+04  0.7818609E-02  0.8534876E-01
        2   -1    0    0  501    0  0.00000000000E+00  0.00000000000E+00  0.25273451619E+04  0.25273451619E+04  0.25500000920E-02 0.  1.
       -2   -1    0    0    0  501  0.00000000000E+00  0.00000000000E+00 -0.46190167905E+03  0.46190167905E+03  0.25500000920E-02 0. -1.
    10030    2    1    2    0    0  0.00000000000E+00  0.00000000000E+00  0.20654434829E+04  0.29892468410E+04  0.21609118204E+04 0.  0.
        5    1    3    3  502    0 -0.50020966389E+03  0.46417070875E+03 -0.12605582500E+03  0.69395699847E+03  0.46999998093E+01 0. -1.
       -5    1    3    3    0  502  0.50020966389E+03 -0.46417070875E+03  0.21914993079E+04  0.22952898425E+04  0.46999998093E+01 0.  1.
</event>
<event>
 5   0  0.1869956E-05  0.2622087E+04  0.7818609E-02  0.8360737E-01
        2   -1    0    0  501    0  0.00000000000E+00  0.00000000000E+00  0.10676635073E+04  0.10676635073E+04  0.25500000920E-02 0.  1.
       -2   -1    0    0    0  501  0.00000000000E+00  0.00000000000E+00 -0.16099031816E+04  0.16099031816E+04  0.25500000920E-02 0. -1.
    10030    2    1    2    0    0  0.00000000000E+00  0.00000000000E+00 -0.54223967433E+03  0.26775666890E+04  0.26220868615E+04 0.  0.
        5    1    3    3  502    0  0.93845920487E+03 -0.49144047315E+03  0.51761756043E+03  0.11790544715E+04  0.46999998093E+01 0.  1.
       -5    1    3    3    0  502 -0.93845920487E+03  0.49144047315E+03 -0.10598572348E+04  0.14985122175E+04  0.46999998093E+01 0. -1.
</event>
<event>
 5   0  0.1681731E-05  0.2108177E+04  0.7818609E-02  0.8557650E-01
       -2   -1    0    0    0  501  0.00000000000E+00  0.00000000000E+00  0.70626867685E+03  0.70626867686E+03  0.25500000920E-02 0.  1.
        2   -1    0    0  501    0  0.00000000000E+00  0.00000000000E+00 -0.15732009744E+04  0.15732009744E+04  0.25500000920E-02 0. -1.
    10030    2    1    2    0    0  0.00000000000E+00  0.00000000000E+00 -0.86693229753E+03  0.22794696512E+04  0.21081770045E+04 0.  0.
        2    1    3    3  502    0 -0.43795760894E+03 -0.93336578720E+03 -0.19626999108E+03  0.10495239251E+04  0.25500000920E-02 0.  1.
       -2    1    3    3    0  502  0.43795760894E+03  0.93336578720E+03 -0.67066230645E+03  0.12299457261E+04  0.25500000920E-02 0. -1.
</event>
<event>
 5   0  0.1677971E-05  0.2592189E+04  0.7818609E-02  0.8370859E-01
        2   -1    0    0  501    0  0.00000000000E+00  0.00000000000E+00  0.85245989200E+03  0.85245989201E+03  0.25500000920E-02 0.  1.
       -2   -1    0    0    0  501  0.00000000000E+00  0.00000000000E+00 -0.19706047683E+04  0.19706047683E+04  0.25500000920E-02 0. -1.
    10030    2    1    2    0    0  0.00000000000E+00  0.00000000000E+00 -0.11181448763E+04  0.28230646603E+04  0.25921894437E+04 0.  0.
        4    1    3    3  502    0  0.10665704403E+04 -0.72339923882E+03 -0.40903035459E+03  0.13521044363E+04  0.12699999809E+01 0.  1.
       -4    1    3    3    0  502 -0.10665704403E+04  0.72339923882E+03 -0.70911452172E+03  0.14709602240E+04  0.12699999809E+01 0. -1.
</event>
<event>
 5   0  0.1720129E-05  0.2602796E+04  0.7818609E-02  0.8367252E-01
        2   -1    0    0  501    0  0.00000000000E+00  0.00000000000E+00  0.20331700058E+04  0.20331700058E+04  0.25500000920E-02 0.  1.
       -2   -1    0    0    0  501  0.00000000000E+00  0.00000000000E+00 -0.83300294374E+03  0.83300294375E+03  0.25500000920E-02 0. -1.
    10030    2    1    2    0    0  0.00000000000E+00  0.00000000000E+00  0.12001670620E+04  0.28661729495E+04  0.26027958813E+04 0.  0.
        3    1    3    3  502    0 -0.49371071757E+03 -0.45004007566E+03  0.18299458364E+04  0.19480729239E+04  0.10100000352E+00 0.  1.
       -3    1    3    3    0  502  0.49371071757E+03  0.45004007566E+03 -0.62977877434E+03  0.91810002568E+03  0.10100000352E+00 0. -1.
</event>
<event>
 5   0  0.1869956E-05  0.2575594E+04  0.7818609E-02  0.8376539E-01
        2   -1    0    0  501    0  0.00000000000E+00  0.00000000000E+00  0.17723325753E+04  0.17723325753E+04  0.25500000920E-02 0.  1.
       -2   -1    0    0    0  501  0.00000000000E+00  0.00000000000E+00 -0.93572830444E+03  0.93572830444E+03  0.25500000920E-02 0. -1.
    10030    2    1    2    0    0  0.00000000000E+00  0.00000000000E+00  0.83660427089E+03  0.27080608798E+04  0.25755944988E+04 0.  0.
        5    1    3    3  502    0  0.91546257688E+03 -0.41900650373E+03  0.12625704264E+04  0.16148511856E+04  0.46999998093E+01 0. -1.
       -5    1    3    3    0  502 -0.91546257688E+03  0.41900650373E+03 -0.42596615554E+03  0.10932096942E+04  0.46999998093E+01 0.  1.
</event>
<event>
 5   0  0.1677971E-05  0.2601053E+04  0.7818609E-02  0.8367844E-01
        2   -1    0    0  501    0  0.00000000000E+00  0.00000000000E+00  0.10814558070E+04  0.10814558070E+04  0.25500000920E-02 0. -1.
       -2   -1    0    0    0  501  0.00000000000E+00  0.00000000000E+00 -0.15639740584E+04  0.15639740584E+04  0.25500000920E-02 0.  1.
    10030    2    1    2    0    0  0.00000000000E+00  0.00000000000E+00 -0.48251825143E+03  0.26454298654E+04  0.26010527311E+04 0.  0.
        4    1    3    3  502    0  0.10725666796E+04  0.57487767876E+03  0.22535320745E+03  0.12376062817E+04  0.12699999809E+01 0.  1.
       -4    1    3    3    0  502 -0.10725666796E+04 -0.57487767876E+03 -0.70787145888E+03  0.14078235837E+04  0.12699999809E+01 0. -1.
</event>
<event>
 5   0  0.5840500E-06  0.2438301E+04  0.7818609E-02  0.8425302E-01
        3   -1    0    0  501    0  0.00000000000E+00  0.00000000000E+00  0.20685483811E+04  0.20685483836E+04  0.10100000352E+00 0. -1.
       -3   -1    0    0    0  501  0.00000000000E+00  0.00000000000E+00 -0.71853688360E+03  0.71853689070E+03  0.10100000352E+00 0.  1.
    10030    2    1    2    0    0  0.00000000000E+00  0.00000000000E+00  0.13500114975E+04  0.27870852743E+04  0.24383013109E+04 0.  0.
        5    1    3    3  502    0  0.23413874778E+03  0.26106188017E+03  0.20096443892E+04  0.20400164018E+04  0.46999998093E+01 0. -1.
       -5    1    3    3    0  502 -0.23413874778E+03 -0.26106188017E+03 -0.65963289167E+03  0.74706887251E+03  0.46999998093E+01 0.  1.
</event>
<event>
 5   0  0.1702345E-05  0.2404005E+04  0.7818609E-02  0.8438006E-01
        2   -1    0    0  501    0  0.00000000000E+00  0.00000000000E+00  0.12813234066E+04  0.12813234066E+04  0.25500000920E-02 0. -1.
       -2   -1    0    0    0  501  0.00000000000E+00  0.00000000000E+00 -0.11275915484E+04  0.11275915484E+04  0.25500000920E-02 0.  1.
    10030    2    1    2    0    0  0.00000000000E+00  0.00000000000E+00  0.15373185815E+03  0.24089149550E+04  0.24040045291E+04 0.  0.
        1    1    3    3  502    0  0.10672974285E+04  0.10297792398E+03 -0.46745740190E+03  0.11697199136E+04  0.50400001928E-02 0.  1.
       -1    1    3    3    0  502 -0.10672974285E+04 -0.10297792398E+03  0.62118926005E+03  0.12391950414E+04  0.50400001928E-02 0. -1.
</event>
<event>
 5   0  0.7138294E-06  0.2612288E+04  0.7818609E-02  0.8364039E-01
       -1   -1    0    0    0  501  0.00000000000E+00  0.00000000000E+00  0.81012611257E+03  0.81012611259E+03  0.50400001928E-02 0. -1.
        1   -1    0    0  501    0  0.00000000000E+00  0.00000000000E+00 -0.21058600457E+04  0.21058600457E+04  0.50400001928E-02 0.  1.
    10030    2    1    2    0    0  0.00000000000E+00  0.00000000000E+00 -0.12957339331E+04  0.29159861583E+04  0.26122880488E+04 0.  0.
        2    1    3    3  502    0 -0.13410469671E+03 -0.12959655155E+04 -0.75079005889E+03  0.15037275017E+04  0.25500000920E-02 0. -1.
       -2    1    3    3    0  502  0.13410469671E+03  0.12959655155E+04 -0.54494387422E+03  0.14122586565E+04  0.25500000920E-02 0.  1.
</event>
<event>
 5   0  0.1720129E-05  0.2578585E+04  0.7818609E-02  0.8375512E-01
       -2   -1    0    0    0  501  0.00000000000E+00  0.00000000000E+00  0.13616135683E+04  0.13616135683E+04  0.25500000920E-02 0. -1.
        2   -1    0    0  501    0  0.00000000000E+00  0.00000000000E+00 -0.12208129321E+04  0.12208129321E+04  0.25500000920E-02 0.  1.
    10030    2    1    2    0    0  0.00000000000E+00  0.00000000000E+00  0.14080063624E+03  0.25824265004E+04  0.25785852344E+04 0.  0.
        3    1    3    3  502    0 -0.30293022155E+03 -0.63810352896E+02 -0.11830379201E+04  0.12228725244E+04  0.10100000352E+00 0.  1.
       -3    1    3    3    0  502  0.30293022155E+03  0.63810352896E+02  0.13238385564E+04  0.13595539760E+04  0.10100000352E+00 0. -1.
</event>
<event>
 5   0  0.6918420E-06  0.2600941E+04  0.7818609E-02  0.8367882E-01
        1   -1    0    0  501    0  0.00000000000E+00  0.00000000000E+00  0.15113783924E+04  0.15113783924E+04  0.50400001928E-02 0. -1.
       -1   -1    0    0    0  501  0.00000000000E+00  0.00000000000E+00 -0.11189943142E+04  0.11189943142E+04  0.50400001928E-02 0.  1.
    10030    2    1    2    0    0  0.00000000000E+00  0.00000000000E+00  0.39238407827E+03  0.26303727066E+04  0.26009412356E+04 0.  0.
        4    1    3    3  502    0  0.66112730213E+03  0.64218490449E+03 -0.73164889261E+03  0.11767763068E+04  0.12699999809E+01 0.  1.
       -4    1    3    3    0  502 -0.66112730213E+03 -0.64218490449E+03  0.11240329709E+04  0.14535963999E+04  0.12699999809E+01 0. -1.
</event>
<event>
 5   0  0.6993678E-06  0.2563558E+04  0.7818609E-02  0.8380686E-01
        1   -1    0    0  501    0  0.00000000000E+00  0.00000000000E+00  0.83209298158E+03  0.83209298160E+03  0.50400001928E-02 0.  1.
       -1   -1    0    0    0  501  0.00000000000E+00  0.00000000000E+00 -0.19744882176E+04  0.19744882176E+04  0.50400001928E-02 0. -1.
    10030    2    1    2    0    0  0.00000000000E+00  0.00000000000E+00 -0.11423952360E+04  0.28065811992E+04  0.25635582990E+04 0.  0.
        1    1    3    3  502    0 -0.35086354450E+03  0.21672888102E+03  0.75747585926E+03  0.86246525270E+03  0.50400001928E-02 0.  1.
       -1    1    3    3    0  502  0.35086354450E+03 -0.21672888102E+03 -0.18998710953E+04  0.19441159465E+04  0.50400001928E-02 0. -1.
</event>
<event>
 5   0  0.6706225E-06  0.2602772E+04  0.7818609E-02  0.8367260E-01
        1   -1    0    0  501    0  0.00000000000E+00  0.00000000000E+00  0.19276419312E+04  0.19276419312E+04  0.50400001928E-02 0. -1.
       -1   -1    0    0    0  501  0.00000000000E+00  0.00000000000E+00 -0.87858958242E+03  0.87858958243E+03  0.50400001928E-02 0.  1.
    10030    2    1    2    0    0  0.00000000000E+00  0.00000000000E+00  0.10490523487E+04  0.28062315136E+04  0.26027724598E+04 0.  0.
        5    1    3    3  502    0  0.64931452449E+03  0.24141746796E+01  0.17405036559E+04  0.18576841083E+04  0.46999998093E+01 0. -1.
       -5    1    3    3    0  502 -0.64931452449E+03 -0.24141746796E+01 -0.69145130717E+03  0.94854740531E+03  0.46999998093E+01 0.  1.
</event>
<event>
 5   0  0.1677971E-05  0.2576563E+04  0.7818609E-02  0.8376206E-01
       -2   -1    0    0    0  501  0.00000000000E+00  0.00000000000E+00  0.69306910034E+03  0.69306910034E+03  0.25500000920E-02 0. -1.
        2   -1    0    0  501    0  0.00000000000E+00  0.00000000000E+00 -0.23946657854E+04  0.23946657854E+04  0.25500000920E-02 0.  1.
    10030    2    1    2    0    0  0.00000000000E+00  0.00000000000E+00 -0.17015966850E+04  0.30877348857E+04  0.25765627192E+04 0.  0.
        4    1    3    3  502    0  0.11744678553E+04  0.42351873952E+03 -0.12315110183E+04  0.17536715391E+04  0.12699999809E+01 0.  1.
       -4    1    3    3    0  502 -0.11744678553E+04 -0.42351873952E+03 -0.47008566676E+03  0.13340633467E+04  0.12699999809E+01 0. -1.
</event>
<event>
 5   0  0.7138294E-06  0.2618814E+04  0.7818609E-02  0.8361838E-01
       -1   -1    0    0    0  501  0.00000000000E+00  0.00000000000E+00  0.77382125006E+03  0.77382125008E+03  0.50400001928E-02 0. -1.
        1   -1    0    0  501    0  0.00000000000E+00  0.00000000000E+00 -0.22156885385E+04  0.22156885385E+04  0.50400001928E-02 0.  1.
    10030    2    1    2    0    0  0.00000000000E+00  0.00000000000E+00 -0.14418672884E+04  0.29895097886E+04  0.26188141397E+04 0.  0.
        2    1    3    3  502    0  0.66292868652E+03  0.79276210467E+03 -0.16388717102E+04  0.19374846272E+04  0.25500000920E-02 0.  1.
       -2    1    3    3    0  502 -0.66292868652E+03 -0.79276210467E+03  0.19700442178E+03  0.10520251614E+04  0.25500000920E-02 0. -1.
</event>
<event>
 5   0  0.1681731E-05  0.2589344E+04  0.7818609E-02  0.8371830E-01
       -2   -1    0    0    0  501  0.00000000000E+00  0.00000000000E+00  0.77521990828E+03  0.77521990828E+03  0.25500000920E-02 0. -1.
        2   -1    0    0  501    0  0.00000000000E+00  0.00000000000E+00 -0.21621943915E+04  0.21621943915E+04  0.25500000920E-02 0.  1.
    10030    2    1    2    0    0  0.00000000000E+00  0.00000000000E+00 -0.13869744832E+04  0.29374142998E+04  0.25893444250E+04 0.  0.
        2    1    3    3  502    0  0.87314500587E+02  0.23906699365E+03  0.74656075060E+03  0.78875205471E+03  0.25500000920E-02 0. -1.
       -2    1    3    3    0  502 -0.87314500587E+02 -0.23906699365E+03 -0.21335352338E+04  0.21486622451E+04  0.25500000920E-02 0.  1.
</event>
<event>
 5   0  0.1702345E-05  0.2608583E+04  0.7818609E-02  0.8365291E-01
       -2   -1    0    0    0  501  0.00000000000E+00  0.00000000000E+00  0.97149918350E+03  0.97149918350E+03  0.25500000920E-02 0.  1.
        2   -1    0    0  501    0  0.00000000000E+00  0.00000000000E+00 -0.17510842127E+04  0.17510842127E+04  0.25500000920E-02 0. -1.
    10030    2    1    2    0    0  0.00000000000E+00  0.00000000000E+00 -0.77958502917E+03  0.27225833962E+04  0.26085834339E+04 0.  0.
        1    1    3    3  502    0  0.56768894608E+03 -0.71415098921E+03 -0.13626741058E+04  0.16398667914E+04  0.50400001928E-02 0. -1.
       -1    1    3    3    0  502 -0.56768894608E+03  0.71415098921E+03  0.58308907664E+03  0.10827166048E+04  0.50400001928E-02 0.  1.
</event>
<event>
 5   0  0.1869956E-05  0.2583037E+04  0.7818609E-02  0.8373986E-01
        2   -1    0    0  501    0  0.00000000000E+00  0.00000000000E+00  0.76895320995E+03  0.76895320996E+03  0.25500000920E-02 0.  1.
       -2   -1    0    0    0  501  0.00000000000E+00  0.00000000000E+00 -0.21692082090E+04  0.21692082090E+04  0.25500000920E-02 0. -1.
    10030    2    1    2    0    0  0.00000000000E+00  0.00000000000E+00 -0.14002549991E+04  0.29381614190E+04  0.25830366745E+04 0.  0.
        5    1    3    3  502    0  0.37724112024E+03 -0.91022345795E+03  0.24964045911E+03  0.10164448116E+04  0.46999998093E+01 0.  1.
       -5    1    3    3    0  502 -0.37724112024E+03  0.91022345795E+03 -0.16498954582E+04  0.19217166074E+04  0.46999998093E+01 0. -1.
</event>
<event>
 5   0  0.7138294E-06  0.2607806E+04  0.7818609E-02  0.8365555E-01
        1   -1    0    0  501    0  0.00000000000E+00  0.00000000000E+00  0.12740611280E+04  0.12740611280E+04  0.50400001928E-02 0. -1.
       -1   -1    0    0    0  501  0.00000000000E+00  0.00000000000E+00 -0.13344436355E+04  0.13344436355E+04  0.50400001928E-02 0.  1.
    10030    2    1    2    0    0  0.00000000000E+00  0.00000000000E+00 -0.60382507506E+02  0.26085047635E+04  0.26078057930E+04 0.  0.
        2    1    3    3  502    0 -0.52062893483E+03  0.53332569083E+03  0.10399889547E+04  0.12794795060E+04  0.25500000920E-02 0. -1.
       -2    1    3    3    0  502  0.52062893483E+03 -0.53332569083E+03 -0.11003714622E+04  0.13290252575E+04  0.25500000920E-02 0.  1.
</event>
<event>
 5   0  0.6918420E-06  0.2527400E+04  0.7818609E-02  0.8393289E-01
       -1   -1    0    0    0  501  0.00000000000E+00  0.00000000000E+00  0.98051172086E+03  0.98051172087E+03  0.50400001928E-02 0.  1.
        1   -1    0    0  501    0  0.00000000000E+00  0.00000000000E+00 -0.16286782329E+04  0.16286782330E+04  0.50400001928E-02 0. -1.
    10030    2    1    2    0    0  0.00000000000E+00  0.00000000000E+00 -0.64816651209E+03  0.26091899538E+04  0.25274003220E+04 0.  0.
        4    1    3    3  502    0 -0.60856566111E+03 -0.10227051177E+04 -0.76287751453E+03  0.14135988245E+04  0.12699999809E+01 0.  1.
       -4    1    3    3    0  502  0.60856566111E+03  0.10227051177E+04  0.11471100244E+03  0.11955911293E+04  0.12699999809E+01 0. -1.
</event>
<event>
 5   0  0.1677971E-05  0.2586482E+04  0.7818609E-02  0.8372808E-01
        2   -1    0    0  501    0  0.00000000000E+00  0.00000000000E+00  0.12589688292E+04  0.12589688292E+04  0.25500000920E-02 0.  1.
       -2   -1    0    0    0  501  0.00000000000E+00  0.00000000000E+00 -0.13284457657E+04  0.13284457657E+04  0.25500000920E-02 0. -1.
    10030    2    1    2    0    0  0.00000000000E+00  0.00000000000E+00 -0.69476936522E+02  0.25874145949E+04  0.25864816336E+04 0.  0.
        4    1    3    3  502    0  0.57805280721E+02  0.47483961963E+02 -0.13262789215E+04  0.13283875819E+04  0.12699999809E+01 0. -1.
       -4    1    3    3    0  502 -0.57805280721E+02 -0.47483961963E+02  0.12568019850E+04  0.12590270130E+04  0.12699999809E+01 0.  1.
</event>
<event>
 5   0  0.1720129E-05  0.2630319E+04  0.7818609E-02  0.8357975E-01
       -2   -1    0    0    0  501  0.00000000000E+00  0.00000000000E+00  0.10322796322E+04  0.10322796322E+04  0.25500000920E-02 0.  1.
        2   -1    0    0  501    0  0.00000000000E+00  0.00000000000E+00 -0.16755585761E+04  0.16755585761E+04  0.25500000920E-02 0. -1.
    10030    2    1    2    0    0  0.00000000000E+00  0.00000000000E+00 -0.64327894387E+03  0.27078382083E+04  0.26303193651E+04 0.  0.
        3    1    3    3  502    0 -0.62713220036E+03 -0.11436015065E+04 -0.49551280467E+03  0.13952247676E+04  0.10100000352E+00 0.  1.
       -3    1    3    3    0  502  0.62713220036E+03  0.11436015065E+04 -0.14776613920E+03  0.13126134406E+04  0.10100000352E+00 0. -1.
</event>
<event>
 5   0  0.6993678E-06  0.2596107E+04  0.7818609E-02  0.8369525E-01
       -1   -1    0    0    0  501  0.00000000000E+00  0.00000000000E+00  0.10149984359E+04  0.10149984359E+04  0.50400001928E-02 0.  1.
        1   -1    0    0  501    0  0.00000000000E+00  0.00000000000E+00 -0.16600442207E+04  0.16600442207E+04  0.50400001928E-02 0. -1.
    10030    2    1    2    0    0  0.00000000000E+00  0.00000000000E+00 -0.64504578482E+03  0.26750426566E+04  0.25961065367E+04 0.  0.
        1    1    3    3  502    0  0.22853807791E+03 -0.93496142806E+03  0.57491231220E+03  0.11211185003E+04  0.50400001928E-02 0.  1.
       -1    1    3    3    0  502 -0.22853807791E+03  0.93496142806E+03 -0.12199580970E+04  0.15539241563E+04  0.50400001928E-02 0. -1.
</event>
<event>
 5   0  0.6984287E-06  0.2611660E+04  0.7818609E-02  0.8364251E-01
        1   -1    0    0  501    0  0.00000000000E+00  0.00000000000E+00  0.27447136805E+04  0.27447136805E+04  0.50400001928E-02 0. -1.
       -1   -1    0    0    0  501  0.00000000000E+00  0.00000000000E+00 -0.62126418164E+03  0.62126418166E+03  0.50400001928E-02 0.  1.
    10030    2    1    2    0    0  0.00000000000E+00  0.00000000000E+00  0.21234494989E+04  0.33659778622E+04  0.26116602372E+04 0.  0.
        3    1    3    3  502    0  0.78582745668E+02  0.11874863156E+04  0.17544536494E+04  0.21200015603E+04  0.10100000352E+00 0. -1.
       -3    1    3    3    0  502 -0.78582745668E+02 -0.11874863156E+04  0.36899584952E+03  0.12459763019E+04  0.10100000352E+00 0.  1.
</event>
<event>
 5   0  0.7138294E-06  0.2597246E+04  0.7818609E-02  0.8369137E-01
        1   -1    0    0  501    0  0.00000000000E+00  0.00000000000E+00  0.18826729001E+04  0.18826729001E+04  0.50400001928E-02 0. -1.
       -1   -1    0    0    0  501  0.00000000000E+00  0.00000000000E+00 -0.89575916914E+03  0.89575916916E+03  0.50400001928E-02 0.  1.
    10030    2    1    2    0    0  0.00000000000E+00  0.00000000000E+00  0.98691373098E+03  0.27784320693E+04  0.25972458588E+04 0.  0.
        2    1    3    3  502    0  0.60409784938E+03  0.55424460496E+03 -0.58392579134E+03  0.10065240303E+04  0.25500000920E-02 0.  1.
       -2    1    3    3    0  502 -0.60409784938E+03 -0.55424460496E+03  0.15708395223E+04  0.17719080390E+04  0.25500000920E-02 0. -1.
</event>
<event>
 5   0  0.7138294E-06  0.2592424E+04  0.7818609E-02  0.8370779E-01
       -1   -1    0    0    0  501  0.00000000000E+00  0.00000000000E+00  0.49817397673E+03  0.49817397675E+03  0.50400001928E-02 0. -1.
        1   -1    0    0  501    0  0.00000000000E+00  0.00000000000E+00 -0.33726494307E+04  0.33726494307E+04  0.50400001928E-02 0.  1.
    10030    2    1    2    0    0  0.00000000000E+00  0.00000000000E+00 -0.28744754540E+04  0.38708234075E+04  0.25924244861E+04 0.  0.
        2    1    3    3  502    0  0.28571118496E+03  0.54933493213E+03 -0.31375477834E+04  0.31980628264E+04  0.25500000920E-02 0.  1.
       -2    1    3    3    0  502 -0.28571118496E+03 -0.54933493213E+03  0.26307232940E+03  0.67276058102E+03  0.25500000920E-02 0. -1.
</event>
<event>
 5   0  0.1869956E-05  0.2470653E+04  0.7818609E-02  0.8413516E-01
        2   -1    0    0  501    0  0.00000000000E+00  0.00000000000E+00  0.15181762231E+04  0.15181762231E+04  0.25500000920E-02 0.  1.
       -2   -1    0    0    0  501  0.00000000000E+00  0.00000000000E+00 -0.10051744195E+04  0.10051744195E+04  0.25500000920E-02 0. -1.
    10030    2    1    2    0    0  0.00000000000E+00  0.00000000000E+00  0.51300180364E+03  0.25233506426E+04  0.24706532769E+04 0.  0.
        5    1    3    3  502    0 -0.30345169719E+03  0.36172043057E+03 -0.90937468837E+03  0.10246506801E+04  0.46999998093E+01 0. -1.
       -5    1    3    3    0  502  0.30345169719E+03 -0.36172043057E+03  0.14223764920E+04  0.14986999624E+04  0.46999998093E+01 0.  1.
</event>
<event>
 5   0  0.6706225E-06  0.2569815E+04  0.7818609E-02  0.8378527E-01
        1   -1    0    0  501    0  0.00000000000E+00  0.00000000000E+00  0.15507758996E+04  0.15507758996E+04  0.50400001928E-02 0. -1.
       -1   -1    0    0    0  501  0.00000000000E+00  0.00000000000E+00 -0.10646205208E+04  0.10646205208E+04  0.50400001928E-02 0.  1.
    10030    2    1    2    0    0  0.00000000000E+00  0.00000000000E+00  0.48615537883E+03  0.26153964204E+04  0.25698154376E+04 0.  0.
        5    1    3    3  502    0  0.29427338934E+03 -0.30125282298E+03  0.14785348932E+04  0.15373475896E+04  0.46999998093E+01 0. -1.
       -5    1    3    3    0  502 -0.29427338934E+03  0.30125282298E+03 -0.99237951434E+03  0.10780488308E+04  0.46999998093E+01 0.  1.
</event>
<event>
 5   0  0.6984287E-06  0.2641916E+04  0.7818609E-02  0.8354101E-01
       -1   -1    0    0    0  501  0.00000000000E+00  0.00000000000E+00  0.13142741789E+04  0.13142741789E+04  0.50400001928E-02 0. -1.
        1   -1    0    0  501    0  0.00000000000E+00  0.00000000000E+00 -0.13276758554E+04  0.13276758554E+04  0.50400001928E-02 0.  1.
    10030    2    1    2    0    0  0.00000000000E+00  0.00000000000E+00 -0.13401676472E+02  0.26419500343E+04  0.26419160431E+04 0.  0.
        3    1    3    3  502    0 -0.42203631110E+03 -0.18748798238E+03 -0.12443207744E+04  0.13272530246E+04  0.10100000352E+00 0.  1.
       -3    1    3    3    0  502  0.42203631110E+03  0.18748798238E+03  0.12309190979E+04  0.13146970097E+04  0.10100000352E+00 0. -1.
</event>
<event>
 5   0  0.6706225E-06  0.2693573E+04  0.7818609E-02  0.8337093E-01
        1   -1    0    0  501    0  0.00000000000E+00  0.00000000000E+00  0.32638717428E+04  0.32638717428E+04  0.50400001928E-02 0. -1.
       -1   -1    0    0    0  501  0.00000000000E+00  0.00000000000E+00 -0.55573062846E+03  0.55573062848E+03  0.50400001928E-02 0.  1.
    10030    2    1    2    0    0  0.00000000000E+00  0.00000000000E+00  0.27081411143E+04  0.38196023713E+04  0.26935727166E+04 0.  0.
        5    1    3    3  502    0  0.11493944453E+04  0.18392618936E+03  0.23146574022E+04  0.25908680811E+04  0.46999998093E+01 0. -1.
       -5    1    3    3    0  502 -0.11493944453E+04 -0.18392618936E+03  0.39348371207E+03  0.12287342901E+04  0.46999998093E+01 0.  1.
</event>
<event>
 5   0  0.6993678E-06  0.2579711E+04  0.7818609E-02  0.8375126E-01
       -1   -1    0    0    0  501  0.00000000000E+00  0.00000000000E+00  0.10829032856E+04  0.10829032856E+04  0.50400001928E-02 0.  1.
        1   -1    0    0  501    0  0.00000000000E+00  0.00000000000E+00 -0.15363575217E+04  0.15363575217E+04  0.50400001928E-02 0. -1.
    10030    2    1    2    0    0  0.00000000000E+00  0.00000000000E+00 -0.45345423613E+03  0.26192608073E+04  0.25797105327E+04 0.  0.
        1    1    3    3  502    0 -0.37923275903E+03  0.88973304838E+03 -0.10932064725E+04  0.14596378915E+04  0.50400001928E-02 0. -1.
       -1    1    3    3    0  502  0.37923275903E+03 -0.88973304838E+03  0.63975223635E+03  0.11596229158E+04  0.50400001928E-02 0.  1.
</event>
<event>
 5   0  0.1681731E-05  0.2613473E+04  0.7818609E-02  0.8363639E-01
        2   -1    0    0  501    0  0.00000000000E+00  0.00000000000E+00  0.13024357092E+04  0.13024357092E+04  0.25500000920E-02 0.  1.
       -2   -1    0    0    0  501  0.00000000000E+00  0.00000000000E+00 -0.13110516774E+04  0.13110516774E+04  0.25500000920E-02 0. -1.
    10030    2    1    2    0    0  0.00000000000E+00  0.00000000000E+00 -0.86159682145E+01  0.26134873867E+04  0.26134731844E+04 0.  0.
        2    1    3    3  502    0 -0.86409357737E+03 -0.90517277278E+03 -0.38056135742E+03  0.13079841000E+04  0.25500000920E-02 0. -1.
       -2    1    3    3    0  502  0.86409357737E+03  0.90517277278E+03  0.37194538920E+03  0.13055032867E+04  0.25500000920E-02 0.  1.
</event>
<event>
 5   0  0.1702345E-05  0.2613781E+04  0.7818609E-02  0.8363535E-01
       -2   -1    0    0    0  501  0.00000000000E+00  0.00000000000E+00  0.12630617479E+04  0.12630617479E+04  0.25500000920E-02 0. -1.
        2   -1    0    0  501    0  0.00000000000E+00  0.00000000000E+00 -0.13522400379E+04  0.13522400379E+04  0.25500000920E-02 0.  1.
    10030    2    1    2    0    0  0.00000000000E+00  0.00000000000E+00 -0.89178290021E+02  0.26153017858E+04  0.26137809134E+04 0.  0.
        1    1    3    3  502    0 -0.81068408542E+03 -0.83634442191E+03  0.54844618700E+03  0.12874291819E+04  0.50400001928E-02 0. -1.
       -1    1    3    3    0  502  0.81068408542E+03  0.83634442191E+03 -0.63762447702E+03  0.13278726039E+04  0.50400001928E-02 0.  1.
</event>
<event>
 5   0  0.6706225E-06  0.2616274E+04  0.7818609E-02  0.8362694E-01
        1   -1    0    0  501    0  0.00000000000E+00  0.00000000000E+00  0.23022837115E+04  0.23022837115E+04  0.50400001928E-02 0.  1.
       -1   -1    0    0    0  501  0.00000000000E+00  0.00000000000E+00 -0.74327156842E+03  0.74327156844E+03  0.50400001928E-02 0. -1.
    10030    2    1    2    0    0  0.00000000000E+00  0.00000000000E+00  0.15590121431E+04  0.30455552799E+04  0.26162737053E+04 0.  0.
        5    1    3    3  502    0 -0.45959656878E+03  0.44998791530E+02  0.22042322187E+04  0.22520913972E+04  0.46999998093E+01 0.  1.
       -5    1    3    3    0  502  0.45959656878E+03 -0.44998791530E+02 -0.64522007562E+03  0.79346388277E+03  0.46999998093E+01 0. -1.
</event>
<event>
 5   0  0.7138294E-06  0.2579239E+04  0.7818609E-02  0.8375287E-01
       -1   -1    0    0    0  501  0.00000000000E+00  0.00000000000E+00  0.14705890357E+04  0.14705890357E+04  0.50400001928E-02 0.  1.
        1   -1    0    0  501    0  0.00000000000E+00  0.00000000000E+00 -0.11309202229E+04  0.11309202229E+04  0.50400001928E-02 0. -1.
    10030    2    1    2    0    0  0.00000000000E+00  0.00000000000E+00  0.33966881273E+03  0.26015092586E+04  0.25792393298E+04 0.  0.
        2    1    3    3  502    0  0.10122435055E+04 -0.15658912650E+03 -0.62048821433E+03  0.11975653190E+04  0.25500000920E-02 0. -1.
       -2    1    3    3    0  502 -0.10122435055E+04  0.15658912650E+03  0.96015702706E+03  0.14039439396E+04  0.25500000920E-02 0.  1.
</event>
<event>
 5   0  0.6984287E-06  0.2593004E+04  0.7818609E-02  0.8370582E-01
       -1   -1    0    0    0  501  0.00000000000E+00  0.00000000000E+00  0.79259665179E+03  0.79259665180E+03  0.50400001928E-02 0.  1.
        1   -1    0    0  501    0  0.00000000000E+00  0.00000000000E+00 -0.21207725880E+04  0.21207725880E+04  0.50400001928E-02 0. -1.
    10030    2    1    2    0    0  0.00000000000E+00  0.00000000000E+00 -0.13281759362E+04  0.29133692398E+04  0.25930038584E+04 0.  0.
        3    1    3    3  502    0 -0.19626655043E+03 -0.10693422402E+04  0.12951045846E+03  0.10948910241E+04  0.10100000352E+00 0.  1.
       -3    1    3    3    0  502  0.19626655043E+03  0.10693422402E+04 -0.14576863946E+04  0.18184782157E+04  0.10100000352E+00 0. -1.
</event>
<event>
 5   0  0.1681731E-05  0.2628865E+04  0.7818609E-02  0.8358462E-01
        2   -1    0    0  501    0  0.00000000000E+00  0.00000000000E+00  0.75993742487E+03  0.75993742488E+03  0.25500000920E-02 0. -1.
       -2   -1    0    0    0  501  0.00000000000E+00  0.00000000000E+00 -0.22735204937E+04  0.22735204937E+04  0.25500000920E-02 0.  1.
    10030    2    1    2    0    0  0.00000000000E+00  0.00000000000E+00 -0.15135830689E+04  0.30334579186E+04  0.26288653898E+04 0.  0.
        2    1    3    3  502    0  0.40317166101E+02 -0.12661774957E+04 -0.11613206464E+04  0.17185739927E+04  0.25500000920E-02 0.  1.
       -2    1    3    3    0  502 -0.40317166101E+02  0.12661774957E+04 -0.35226242243E+03  0.13148839259E+04  0.25500000920E-02 0. -1.
</event>
<event>
 5   0  0.1702345E-05  0.2662169E+04  0.7818609E-02  0.8347385E-01
       -2   -1    0    0    0  501  0.00000000000E+00  0.00000000000E+00  0.94190906020E+03  0.94190906021E+03  0.25500000920E-02 0. -1.
        2   -1    0    0  501    0  0.00000000000E+00  0.00000000000E+00 -0.18810587480E+04  0.18810587480E+04  0.25500000920E-02 0.  1.
    10030    2    1    2    0    0  0.00000000000E+00  0.00000000000E+00 -0.93914968775E+03  0.28229678082E+04  0.26621692489E+04 0.  0.
        1    1    3    3  502    0  0.91494634338E+02 -0.42453038750E+03 -0.18038230865E+04  0.18553638579E+04  0.50400001928E-02 0.  1.
       -1    1    3    3    0  502 -0.91494634338E+02  0.42453038750E+03  0.86467339872E+03  0.96760395023E+03  0.50400001928E-02 0. -1.
</event>
<event>
 5   0  0.6993678E-06  0.2593564E+04  0.7818609E-02  0.8370391E-01
        1   -1    0    0  501    0  0.00000000000E+00  0.00000000000E+00  0.13349700844E+04  0.13349700844E+04  0.50400001928E-02 0.  1.
       -1   -1    0    0    0  501  0.00000000000E+00  0.00000000000E+00 -0.12596860096E+04  0.12596860096E+04  0.50400001928E-02 0. -1.
    10030    2    1    2    0    0  0.00000000000E+00  0.00000000000E+00  0.75284074810E+02  0.25946560940E+04  0.25935636784E+04 0.  0.
        1    1    3    3  502    0 -0.41001017033E+02 -0.15919082890E+03  0.13245043024E+04  0.13346664192E+04  0.50400001928E-02 0.  1.
       -1    1    3    3    0  502  0.41001017033E+02  0.15919082890E+03 -0.12492202276E+04  0.12599896748E+04  0.50400001928E-02 0. -1.
</event>
<event>
 5   0  0.1681731E-05  0.2576076E+04  0.7818609E-02  0.8376373E-01
       -2   -1    0    0    0  501  0.00000000000E+00  0.00000000000E+00  0.21074951444E+04  0.21074951444E+04  0.25500000920E-02 0.  1.
        2   -1    0    0  501    0  0.00000000000E+00  0.00000000000E+00 -0.78721045872E+03  0.78721045872E+03  0.25500000920E-02 0. -1.
    10030    2    1    2    0    0  0.00000000000E+00  0.00000000000E+00  0.13202846856E+04  0.28947056031E+04  0.25760762561E+04 0.  0.
        2    1    3    3  502    0  0.69937219137E+03  0.85280071083E+03 -0.87470507564E+02  0.11063641372E+04  0.25500000920E-02 0. -1.
       -2    1    3    3    0  502 -0.69937219137E+03 -0.85280071083E+03  0.14077551932E+04  0.17883414658E+04  0.25500000920E-02 0.  1.
</event>
<event>
 5   0  0.6918420E-06  0.2602239E+04  0.7818609E-02  0.8367441E-01
        1   -1    0    0  501    0  0.00000000000E+00  0.00000000000E+00  0.24266013711E+04  0.24266013711E+04  0.50400001928E-02 0. -1.
       -1   -1    0    0    0  501  0.00000000000E+00  0.00000000000E+00 -0.69764741303E+03  0.69764741305E+03  0.50400001928E-02 0.  1.
    10030    2    1    2    0    0  0.00000000000E+00  0.00000000000E+00  0.17289539580E+04  0.31242487841E+04  0.26022391658E+04 0.  0.
        4    1    3    3  502    0 -0.85996547816E+01  0.62968537471E+02  0.24247360362E+04  0.24255690979E+04  0.12699999809E+01 0. -1.
       -4    1    3    3    0  502  0.85996547816E+01 -0.62968537471E+02 -0.69578207813E+03  0.69867968621E+03  0.12699999809E+01 0.  1.
</event>
<event>
 5   0  0.6984287E-06  0.2590524E+04  0.7818609E-02  0.8371427E-01
        1   -1    0    0  501    0  0.00000000000E+00  0.00000000000E+00  0.24163492277E+04  0.24163492277E+04  0.50400001928E-02 0.  1.
       -1   -1    0    0    0  501  0.00000000000E+00  0.00000000000E+00 -0.69431358381E+03  0.69431358383E+03  0.50400001928E-02 0. -1.
    10030    2    1    2    0    0  0.00000000000E+00  0.00000000000E+00  0.17220356439E+04  0.31106628115E+04  0.25905243423E+04 0.  0.
        3    1    3    3  502    0  0.72634562242E+03  0.50943575508E+03  0.19942187703E+04  0.21826615097E+04  0.10100000352E+00 0.  1.
       -3    1    3    3    0  502 -0.72634562242E+03 -0.50943575508E+03 -0.27218312642E+03  0.92800130187E+03  0.10100000352E+00 0. -1.
</event>
<event>
 5   0  0.1869956E-05  0.2598127E+04  0.7818609E-02  0.8368838E-01
       -2   -1    0    0    0  501  0.00000000000E+00  0.00000000000E+00  0.15120244673E+04  0.15120244673E+04  0.25500000920E-02 0.  1.
        2   -1    0    0  501    0  0.00000000000E+00  0.00000000000E+00 -0.11160966700E+04  0.11160966700E+04  0.25500000920E-02 0. -1.
    10030    2    1    2    0    0  0.00000000000E+00  0.00000000000E+00  0.39592779730E+03  0.26281211374E+04  0.25981266120E+04 0.  0.
        5    1    3    3  502    0 -0.12597299964E+04  0.12386130322E+03 -0.97438489956E+02  0.12695580473E+04  0.46999998093E+01 0. -1.
       -5    1    3    3    0  502  0.12597299964E+04 -0.12386130322E+03  0.49336628726E+03  0.13585630900E+04  0.46999998093E+01 0.  1.
</event>
<event>
 5   0  0.1681731E-05  0.2677660E+04  0.7818609E-02  0.8342290E-01
       -2   -1    0    0    0  501  0.00000000000E+00  0.00000000000E+00  0.98572073601E+03  0.98572073601E+03  0.25500000920E-02 0.  1.
        2   -1    0    0  501    0  0.00000000000E+00  0.00000000000E+00 -0.18184310403E+04  0.18184310403E+04  0.25500000920E-02 0. -1.
    10030    2    1    2    0    0  0.00000000000E+00  0.00000000000E+00 -0.83271030425E+03  0.28041517763E+04  0.26776595627E+04 0.  0.
        2    1    3    3  502    0 -0.20763766127E+03 -0.64106698342E+03  0.79518181931E+03  0.10423024520E+04  0.25500000920E-02 0.  1.
       -2    1    3    3    0  502  0.20763766127E+03  0.64106698342E+03 -0.16278921236E+04  0.17618493243E+04  0.25500000920E-02 0. -1.
</event>
<event>
 5   0  0.5840500E-06  0.2546564E+04  0.7818609E-02  0.8386582E-01
       -3   -1    0    0    0  501  0.00000000000E+00  0.00000000000E+00  0.18162722643E+04  0.18162722671E+04  0.10100000352E+00 0. -1.
        3   -1    0    0  501    0  0.00000000000E+00  0.00000000000E+00 -0.89262319422E+03  0.89262319993E+03  0.10100000352E+00 0.  1.
    10030    2    1    2    0    0  0.00000000000E+00  0.00000000000E+00  0.92364907008E+03  0.27088954670E+04  0.25465637724E+04 0.  0.
        1    1    3    3  502    0 -0.42986349641E+03 -0.40032773305E+03  0.16635281665E+04  0.17641912822E+04  0.50400001928E-02 0. -1.
       -1    1    3    3    0  502  0.42986349641E+03  0.40032773305E+03 -0.73987909646E+03  0.94470418481E+03  0.50400001928E-02 0.  1.
</event>
<event>
 5   0  0.6706225E-06  0.2118417E+04  0.7818609E-02  0.8553174E-01
       -1   -1    0    0    0  501  0.00000000000E+00  0.00000000000E+00  0.11236676932E+04  0.11236676932E+04  0.50400001928E-02 0. -1.
        1   -1    0    0  501    0  0.00000000000E+00  0.00000000000E+00 -0.99844657245E+03  0.99844657247E+03  0.50400001928E-02 0.  1.
    10030    2    1    2    0    0  0.00000000000E+00  0.00000000000E+00  0.12522112073E+03  0.21221142657E+04  0.21184165378E+04 0.  0.
        5    1    3    3  502    0  0.73556376670E+03  0.35569349555E+03  0.73782579027E+03  0.11009000429E+04  0.46999998093E+01 0. -1.
       -5    1    3    3    0  502 -0.73556376670E+03 -0.35569349555E+03 -0.61260466954E+03  0.10212142228E+04  0.46999998093E+01 0.  1.
</event>
<event>
 5   0  0.7138294E-06  0.2578283E+04  0.7818609E-02  0.8375616E-01
       -1   -1    0    0    0  501  0.00000000000E+00  0.00000000000E+00  0.88742170964E+03  0.88742170966E+03  0.50400001928E-02 0. -1.
        1   -1    0    0  501    0  0.00000000000E+00  0.00000000000E+00 -0.18727124279E+04  0.18727124279E+04  0.50400001928E-02 0.  1.
    10030    2    1    2    0    0  0.00000000000E+00  0.00000000000E+00 -0.98529071826E+03  0.27601341376E+04  0.25782828894E+04 0.  0.
        2    1    3    3  502    0 -0.97063709190E+03  0.59406466873E+03  0.15574399366E+03  0.11486101977E+04  0.25500000920E-02 0. -1.
       -2    1    3    3    0  502  0.97063709190E+03 -0.59406466873E+03 -0.11410347119E+04  0.16115239398E+04  0.25500000920E-02 0.  1.
</event>
<event>
 5   0  0.6993678E-06  0.2616996E+04  0.7818609E-02  0.8362451E-01
        1   -1    0    0  501    0  0.00000000000E+00  0.00000000000E+00  0.11774905494E+04  0.11774905494E+04  0.50400001928E-02 0. -1.
       -1   -1    0    0    0  501  0.00000000000E+00  0.00000000000E+00 -0.14540812931E+04  0.14540812932E+04  0.50400001928E-02 0.  1.
    10030    2    1    2    0    0  0.00000000000E+00  0.00000000000E+00 -0.27659074371E+03  0.26315718426E+04  0.26169959731E+04 0.  0.
        1    1    3    3  502    0  0.64849735487E+02 -0.87923693759E+03 -0.11105850208E+04  0.14179781977E+04  0.50400001928E-02 0.  1.
       -1    1    3    3    0  502 -0.64849735487E+02  0.87923693759E+03  0.83399427714E+03  0.12135936449E+04  0.50400001928E-02 0. -1.
</event>
<event>
 5   0  0.1681731E-05  0.2601103E+04  0.7818609E-02  0.8367826E-01
        2   -1    0    0  501    0  0.00000000000E+00  0.00000000000E+00  0.13918847389E+04  0.13918847389E+04  0.25500000920E-02 0. -1.
       -2   -1    0    0    0  501  0.00000000000E+00  0.00000000000E+00 -0.12152117704E+04  0.12152117704E+04  0.25500000920E-02 0.  1.
    10030    2    1    2    0    0  0.00000000000E+00  0.00000000000E+00  0.17667296851E+03  0.26070965094E+04  0.26011033950E+04 0.  0.
        2    1    3    3  502    0  0.35477146306E+03 -0.11980149078E+04 -0.27351084192E+03  0.12790272440E+04  0.25500000920E-02 0.  1.
       -2    1    3    3    0  502 -0.35477146306E+03  0.11980149078E+04  0.45018381043E+03  0.13280692653E+04  0.25500000920E-02 0. -1.
</event>
<event>
 5   0  0.6993678E-06  0.2613488E+04  0.7818609E-02  0.8363634E-01
        1   -1    0    0  501    0  0.00000000000E+00  0.00000000000E+00  0.26876449812E+04  0.26876449812E+04  0.50400001928E-02 0.  1.
       -1   -1    0    0    0  501  0.00000000000E+00  0.00000000000E+00 -0.63534451866E+03  0.63534451868E+03  0.50400001928E-02 0. -1.
    10030    2    1    2    0    0  0.00000000000E+00  0.00000000000E+00  0.20523004626E+04  0.33229894999E+04  0.26134884786E+04 0.  0.
        1    1    3    3  502    0  0.55891888054E+03  0.95955484512E+03  0.15035782591E+03  0.11205995233E+04  0.50400001928E-02 0. -1.
       -1    1    3    3    0  502 -0.55891888054E+03 -0.95955484512E+03  0.19019426366E+04  0.22023899766E+04  0.50400001928E-02 0.  1.
</event>
<event>
 5   0  0.1869956E-05  0.2556200E+04  0.7818609E-02  0.8383233E-01
        2   -1    0    0  501    0  0.00000000000E+00  0.00000000000E+00  0.96488837643E+03  0.96488837643E+03  0.25500000920E-02 0. -1.
       -2   -1    0    0    0  501  0.00000000000E+00  0.00000000000E+00 -0.16929833629E+04  0.16929833629E+04  0.25500000920E-02 0.  1.
    10030    2    1    2    0    0  0.00000000000E+00  0.00000000000E+00 -0.72809498648E+03  0.26578717393E+04  0.25562002804E+04 0.  0.
        5    1    3    3  502    0  0.21701762469E+03 -0.41047781656E+03 -0.16021779673E+04  0.16681082147E+04  0.46999998093E+01 0.  1.
       -5    1    3    3    0  502 -0.21701762469E+03  0.41047781656E+03  0.87408298079E+03  0.98976352459E+03  0.46999998093E+01 0. -1.
</event>
<event>
 5   0  0.6984287E-06  0.2525610E+04  0.7818609E-02  0.8393918E-01
        1   -1    0    0  501    0  0.00000000000E+00  0.00000000000E+00  0.11243596860E+04  0.11243596860E+04  0.50400001928E-02 0.  1.
       -1   -1    0    0    0  501  0.00000000000E+00  0.00000000000E+00 -0.14182969969E+04  0.14182969969E+04  0.50400001928E-02 0. -1.
    10030    2    1    2    0    0  0.00000000000E+00  0.00000000000E+00 -0.29393731090E+03  0.25426566830E+04  0.25256096026E+04 0.  0.
        3    1    3    3  502    0  0.24198623005E+02  0.29353247428E+03  0.10892974460E+04  0.11284129665E+04  0.10100000352E+00 0.  1.
       -3    1    3    3    0  502 -0.24198623005E+02 -0.29353247428E+03 -0.13832347569E+04  0.14142437165E+04  0.10100000352E+00 0. -1.
</event>
<event>
 5   0  0.5840500E-06  0.2877679E+04  0.7818609E-02  0.8279550E-01
        3   -1    0    0  501    0  0.00000000000E+00  0.00000000000E+00  0.11366648880E+04  0.11366648925E+04  0.10100000352E+00 0. -1.
       -3   -1    0    0    0  501  0.00000000000E+00  0.00000000000E+00 -0.18213454704E+04  0.18213454732E+04  0.10100000352E+00 0.  1.
    10030    2    1    2    0    0  0.00000000000E+00  0.00000000000E+00 -0.68468058244E+03  0.29580103657E+04  0.28776792427E+04 0.  0.
        4    1    3    3  502    0  0.12282997009E+04 -0.28064352045E+03  0.37187731090E+03  0.13136876676E+04  0.12699999809E+01 0. -1.
       -4    1    3    3    0  502 -0.12282997009E+04  0.28064352045E+03 -0.10565578933E+04  0.16443226981E+04  0.12699999809E+01 0.  1.
</event>
<event>
 5   0  0.6706225E-06  0.2603707E+04  0.7818609E-02  0.8366943E-01
        1   -1    0    0  501    0  0.00000000000E+00  0.00000000000E+00  0.21235989014E+04  0.21235989014E+04  0.50400001928E-02 0.  1.
       -1   -1    0    0    0  501  0.00000000000E+00  0.00000000000E+00 -0.79808975977E+03  0.79808975979E+03  0.50400001928E-02 0. -1.
    10030    2    1    2    0    0  0.00000000000E+00  0.00000000000E+00  0.13255091416E+04  0.29216886612E+04  0.26037070012E+04 0.  0.
        5    1    3    3  502    0  0.81332146558E+03  0.84909256523E+03  0.12898922531E+04  0.17453636026E+04  0.46999998093E+01 0.  1.
       -5    1    3    3    0  502 -0.81332146558E+03 -0.84909256523E+03  0.35616888526E+02  0.11763250586E+04  0.46999998093E+01 0. -1.
</event>
<event>
 5   0  0.1681731E-05  0.2590852E+04  0.7818609E-02  0.8371315E-01
       -2   -1    0    0    0  501  0.00000000000E+00  0.00000000000E+00  0.12658091767E+04  0.12658091767E+04  0.25500000920E-02 0.  1.
        2   -1    0    0  501    0  0.00000000000E+00  0.00000000000E+00 -0.13257362593E+04  0.13257362593E+04  0.25500000920E-02 0. -1.
    10030    2    1    2    0    0  0.00000000000E+00  0.00000000000E+00 -0.59927082585E+02  0.25915454360E+04  0.25908524643E+04 0.  0.
        2    1    3    3  502    0 -0.99408891635E+03 -0.45840659071E+02  0.79960440065E+03  0.12765897294E+04  0.25500000920E-02 0.  1.
       -2    1    3    3    0  502  0.99408891635E+03  0.45840659071E+02 -0.85953148323E+03  0.13149557066E+04  0.25500000920E-02 0. -1.
</event>
<event>
 5   0  0.5840500E-06  0.2620242E+04  0.7818609E-02  0.8361358E-01
        3   -1    0    0  501    0  0.00000000000E+00  0.00000000000E+00  0.14244817087E+04  0.14244817123E+04  0.10100000352E+00 0. -1.
       -3   -1    0    0    0  501  0.00000000000E+00  0.00000000000E+00 -0.12049417010E+04  0.12049417053E+04  0.10100000352E+00 0.  1.
    10030    2    1    2    0    0  0.00000000000E+00  0.00000000000E+00  0.21954000767E+03  0.26294234175E+04  0.26202422967E+04 0.  0.
        1    1    3    3  502    0 -0.10983052382E+04 -0.69172502885E+03  0.28832465978E+03  0.13296198785E+04  0.50400001928E-02 0. -1.
       -1    1    3    3    0  502  0.10983052382E+04  0.69172502885E+03 -0.68784652117E+02  0.12998035391E+04  0.50400001928E-02 0.  1.
</event>
<event>
 5   0  0.6993678E-06  0.2594925E+04  0.7818609E-02  0.8369927E-01
       -1   -1    0    0    0  501  0.00000000000E+00  0.00000000000E+00  0.94979232648E+03  0.94979232650E+03  0.50400001928E-02 0. -1.
        1   -1    0    0  501    0  0.00000000000E+00  0.00000000000E+00 -0.17723974856E+04  0.17723974856E+04  0.50400001928E-02 0.  1.
    10030    2    1    2    0    0  0.00000000000E+00  0.00000000000E+00 -0.82260515915E+03  0.27221898121E+04  0.25949254566E+04 0.  0.
        1    1    3    3  502    0 -0.12793689307E+04  0.20673313745E+03 -0.34590684779E+03  0.13413332913E+04  0.50400001928E-02 0. -1.
       -1    1    3    3    0  502  0.12793689307E+04 -0.20673313745E+03 -0.47669831136E+03  0.13808565208E+04  0.50400001928E-02 0.  1.
</event>
<event>
 5   0  0.1681731E-05  0.2600992E+04  0.7818609E-02  0.8367864E-01
        2   -1    0    0  501    0  0.00000000000E+00  0.00000000000E+00  0.19786476571E+04  0.19786476571E+04  0.25500000920E-02 0. -1.
       -2   -1    0    0    0  501  0.00000000000E+00  0.00000000000E+00 -0.85477032297E+03  0.85477032297E+03  0.25500000920E-02 0.  1.
    10030    2    1    2    0    0  0.00000000000E+00  0.00000000000E+00  0.11238773342E+04  0.28334179801E+04  0.26009915778E+04 0.  0.
        2    1    3    3  502    0  0.19035584603E+03  0.12793045055E+04  0.41403440833E+03  0.13580426566E+04  0.25500000920E-02 0.  1.
       -2    1    3    3    0  502 -0.19035584603E+03 -0.12793045055E+04  0.70984292583E+03  0.14753753235E+04  0.25500000920E-02 0. -1.
</event>
<event>
 5   0  0.7138294E-06  0.2568144E+04  0.7818609E-02  0.8379103E-01
        1   -1    0    0  501    0  0.00000000000E+00  0.00000000000E+00  0.12708305324E+04  0.12708305324E+04  0.50400001928E-02 0.  1.
       -1   -1    0    0    0  501  0.00000000000E+00  0.00000000000E+00 -0.12974515601E+04  0.12974515601E+04  0.50400001928E-02 0. -1.
    10030    2    1    2    0    0  0.00000000000E+00  0.00000000000E+00 -0.26621027767E+02  0.25682820925E+04  0.25681441213E+04 0.  0.
        2    1    3    3  502    0 -0.16235628014E+03  0.10884180116E+04  0.64841055440E+03  0.12772821054E+04  0.25500000920E-02 0.  1.
       -2    1    3    3    0  502  0.16235628014E+03 -0.10884180116E+04 -0.67503158217E+03  0.12909999871E+04  0.25500000920E-02 0. -1.
</event>
<event>
 5   0  0.7138294E-06  0.2629413E+04  0.7818609E-02  0.8358279E-01
        1   -1    0    0  501    0  0.00000000000E+00  0.00000000000E+00  0.20982098623E+04  0.20982098623E+04  0.50400001928E-02 0.  1.
       -1   -1    0    0    0  501  0.00000000000E+00  0.00000000000E+00 -0.82377488856E+03  0.82377488858E+03  0.50400001928E-02 0. -1.
    10030    2    1    2    0    0  0.00000000000E+00  0.00000000000E+00  0.12744349738E+04  0.29219847509E+04  0.26294125546E+04 0.  0.
        2    1    3    3  502    0 -0.84895631014E+03  0.26597563265E+03 -0.43846725600E+03  0.99182830585E+03  0.25500000920E-02 0. -1.
       -2    1    3    3    0  502  0.84895631014E+03 -0.26597563265E+03  0.17129022298E+04  0.19301564451E+04  0.25500000920E-02 0.  1.
</event>
<event>
 5   0  0.6918420E-06  0.2590930E+04  0.7818609E-02  0.8371288E-01
        1   -1    0    0  501    0  0.00000000000E+00  0.00000000000E+00  0.17174404543E+04  0.17174404543E+04  0.50400001928E-02 0.  1.
       -1   -1    0    0    0  501  0.00000000000E+00  0.00000000000E+00 -0.97716922835E+03  0.97716922836E+03  0.50400001928E-02 0. -1.
    10030    2    1    2    0    0  0.00000000000E+00  0.00000000000E+00  0.74027122599E+03  0.26946096827E+04  0.25909303067E+04 0.  0.
        4    1    3    3  502    0  0.29275313437E+03 -0.52347600894E+03 -0.82407156830E+03  0.10192286751E+04  0.12699999809E+01 0. -1.
       -4    1    3    3    0  502 -0.29275313437E+03  0.52347600894E+03  0.15643427943E+04  0.16753810076E+04  0.12699999809E+01 0.  1.
</event>
<event>
 5   0  0.6918420E-06  0.2594451E+04  0.7818609E-02  0.8370089E-01
       -1   -1    0    0    0  501  0.00000000000E+00  0.00000000000E+00  0.12077250317E+04  0.12077250317E+04  0.50400001928E-02 0.  1.
        1   -1    0    0  501    0  0.00000000000E+00  0.00000000000E+00 -0.13933582761E+04  0.13933582761E+04  0.50400001928E-02 0. -1.
    10030    2    1    2    0    0  0.00000000000E+00  0.00000000000E+00 -0.18563324438E+03  0.26010833078E+04  0.25944507459E+04 0.  0.
        4    1    3    3  502    0  0.10064217401E+03 -0.77106133569E+03  0.94816705273E+03  0.12262490788E+04  0.12699999809E+01 0.  1.
       -4    1    3    3    0  502 -0.10064217401E+03  0.77106133569E+03 -0.11338002971E+04  0.13748342290E+04  0.12699999809E+01 0. -1.
</event>
<event>
 5   0  0.6706225E-06  0.2590918E+04  0.7818609E-02  0.8371293E-01
        1   -1    0    0  501    0  0.00000000000E+00  0.00000000000E+00  0.24060078660E+04  0.24060078660E+04  0.50400001928E-02 0.  1.
       -1   -1    0    0    0  501  0.00000000000E+00  0.00000000000E+00 -0.69750957565E+03  0.69750957567E+03  0.50400001928E-02 0. -1.
    10030    2    1    2    0    0  0.00000000000E+00  0.00000000000E+00  0.17084982903E+04  0.31035174416E+04  0.25909176179E+04 0.  0.
        5    1    3    3  502    0  0.80215217445E+03 -0.96905629852E+03  0.12247555930E+04  0.17557239456E+04  0.46999998093E+01 0.  1.
       -5    1    3    3    0  502 -0.80215217445E+03  0.96905629852E+03  0.48374269733E+03  0.13477934960E+04  0.46999998093E+01 0. -1.
</event>
<event>
 5   0  0.6984287E-06  0.2594234E+04  0.7818609E-02  0.8370162E-01
       -1   -1    0    0    0  501  0.00000000000E+00  0.00000000000E+00  0.95898228759E+03  0.95898228761E+03  0.50400001928E-02 0.  1.
        1   -1    0    0  501    0  0.00000000000E+00  0.00000000000E+00 -0.17544774124E+04  0.17544774124E+04  0.50400001928E-02 0. -1.
    10030    2    1    2    0    0  0.00000000000E+00  0.00000000000E+00 -0.79549512476E+03  0.27134597000E+04  0.25942341933E+04 0.  0.
        3    1    3    3  502    0 -0.12475971255E+04 -0.92986847754E+02 -0.75608181907E+03  0.14617814025E+04  0.10100000352E+00 0. -1.
       -3    1    3    3    0  502  0.12475971255E+04  0.92986847754E+02 -0.39413305693E+02  0.12516782974E+04  0.10100000352E+00 0.  1.
</event>
<event>
 5   0  0.1869956E-05  0.2582115E+04  0.7818609E-02  0.8374302E-01
       -2   -1    0    0    0  501  0.00000000000E+00  0.00000000000E+00  0.13277481840E+04  0.13277481840E+04  0.25500000920E-02 0. -1.
        2   -1    0    0  501    0  0.00000000000E+00  0.00000000000E+00 -0.12553805058E+04  0.12553805058E+04  0.25500000920E-02 0.  1.
    10030    2    1    2    0    0  0.00000000000E+00  0.00000000000E+00  0.72367678193E+02  0.25831286899E+04  0.25821147820E+04 0.  0.
        5    1    3    3  502    0  0.21113193743E+03  0.21307061627E+03 -0.12200286798E+04  0.12563709054E+04  0.46999998093E+01 0.  1.
       -5    1    3    3    0  502 -0.21113193743E+03 -0.21307061627E+03  0.12923963580E+04  0.13267577844E+04  0.46999998093E+01 0. -1.
</event>
<event>
 5   0  0.6706225E-06  0.2611281E+04  0.7818609E-02  0.8364379E-01
        1   -1    0    0  501    0  0.00000000000E+00  0.00000000000E+00  0.11775530610E+04  0.11775530610E+04  0.50400001928E-02 0. -1.
       -1   -1    0    0    0  501  0.00000000000E+00  0.00000000000E+00 -0.14476610503E+04  0.14476610503E+04  0.50400001928E-02 0.  1.
    10030    2    1    2    0    0  0.00000000000E+00  0.00000000000E+00 -0.27010798932E+03  0.26252141114E+04  0.26112814488E+04 0.  0.
        5    1    3    3  502    0 -0.30608102392E+03  0.36316691212E+03  0.10876175011E+04  0.11868065208E+04  0.46999998093E+01 0. -1.
       -5    1    3    3    0  502  0.30608102392E+03 -0.36316691212E+03 -0.13577254904E+04  0.14384075905E+04  0.46999998093E+01 0.  1.
</event>
<event>
 5   0  0.1702345E-05  0.2578014E+04  0.7818609E-02  0.8375708E-01
        2   -1    0    0  501    0  0.00000000000E+00  0.00000000000E+00  0.14912807675E+04  0.14912807675E+04  0.25500000920E-02 0. -1.
       -2   -1    0    0    0  501  0.00000000000E+00  0.00000000000E+00 -0.11141690913E+04  0.11141690913E+04  0.25500000920E-02 0.  1.
    10030    2    1    2    0    0  0.00000000000E+00  0.00000000000E+00  0.37711167620E+03  0.26054498587E+04  0.25780139158E+04 0.  0.
        1    1    3    3  502    0 -0.52160381469E+03 -0.10132712131E+04 -0.42014104952E+03  0.12146224073E+04  0.50400001928E-02 0.  1.
       -1    1    3    3    0  502  0.52160381469E+03  0.10132712131E+04  0.79725272571E+03  0.13908274514E+04  0.50400001928E-02 0. -1.
</event>
<event>
 5   0  0.6984287E-06  0.2591433E+04  0.7818609E-02  0.8371117E-01
       -1   -1    0    0    0  501  0.00000000000E+00  0.00000000000E+00  0.12805350392E+04  0.12805350393E+04  0.50400001928E-02 0. -1.
        1   -1    0    0  501    0  0.00000000000E+00  0.00000000000E+00 -0.13110783207E+04  0.13110783207E+04  0.50400001928E-02 0.  1.
    10030    2    1    2    0    0  0.00000000000E+00  0.00000000000E+00 -0.30543281458E+02  0.25916133600E+04  0.25914333709E+04 0.  0.
        3    1    3    3  502    0  0.11714229320E+04 -0.44396409877E+03 -0.34627183676E+03  0.12997076601E+04  0.10100000352E+00 0. -1.
       -3    1    3    3    0  502 -0.11714229320E+04  0.44396409877E+03  0.31572855531E+03  0.12919056999E+04  0.10100000352E+00 0.  1.
</event>
<event>
 5   0  0.6918420E-06  0.2464500E+04  0.7818609E-02  0.8415743E-01
        1   -1    0    0  501    0  0.00000000000E+00  0.00000000000E+00  0.19673867589E+04  0.19673867589E+04  0.50400001928E-02 0. -1.
       -1   -1    0    0    0  501  0.00000000000E+00  0.00000000000E+00 -0.77180526682E+03  0.77180526684E+03  0.50400001928E-02 0.  1.
    10030    2    1    2    0    0  0.00000000000E+00  0.00000000000E+00  0.11955814921E+04  0.27391920258E+04  0.24644995130E+04 0.  0.
        4    1    3    3  502    0 -0.13850225569E+03  0.67987098573E+03  0.17296423471E+04  0.18636179045E+04  0.12699999809E+01 0. -1.
       -4    1    3    3    0  502  0.13850225569E+03 -0.67987098573E+03 -0.53406085503E+03  0.87557412127E+03  0.12699999809E+01 0.  1.
</event>
<event>
 5   0  0.1702345E-05  0.2600455E+04  0.7818609E-02  0.8368047E-01
       -2   -1    0    0    0  501  0.00000000000E+00  0.00000000000E+00  0.11007276955E+04  0.11007276955E+04  0.25500000920E-02 0.  1.
        2   -1    0    0  501    0  0.00000000000E+00  0.00000000000E+00 -0.15358857035E+04  0.15358857035E+04  0.25500000920E-02 0. -1.
    10030    2    1    2    0    0  0.00000000000E+00  0.00000000000E+00 -0.43515800800E+03  0.26366133990E+04  0.26004552916E+04 0.  0.
        1    1    3    3  502    0 -0.71850799936E+03  0.10178749511E+04  0.15943641522E+03  0.12560824542E+04  0.50400001928E-02 0. -1.
       -1    1    3    3    0  502  0.71850799936E+03 -0.10178749511E+04 -0.59459442322E+03  0.13805309448E+04  0.50400001928E-02 0.  1.
</event>
<event>
 5   0  0.1720129E-05  0.2627823E+04  0.7818609E-02  0.8358811E-01
       -2   -1    0    0    0  501  0.00000000000E+00  0.00000000000E+00  0.84057103436E+03  0.84057103437E+03  0.25500000920E-02 0.  1.
        2   -1    0    0  501    0  0.00000000000E+00  0.00000000000E+00 -0.20537990111E+04  0.20537990111E+04  0.25500000920E-02 0. -1.
    10030    2    1    2    0    0  0.00000000000E+00  0.00000000000E+00 -0.12132279767E+04  0.28943700455E+04  0.26278234028E+04 0.  0.
        3    1    3    3  502    0  0.12871162284E+04  0.25672451882E+03 -0.53882187156E+03  0.14187687209E+04  0.10100000352E+00 0. -1.
       -3    1    3    3    0  502 -0.12871162284E+04 -0.25672451882E+03 -0.67440610517E+03  0.14756013245E+04  0.10100000352E+00 0.  1.
</event>
<event>
 5   0  0.1702345E-05  0.2605663E+04  0.7818609E-02  0.8366280E-01
        2   -1    0    0  501    0  0.00000000000E+00  0.00000000000E+00  0.12384486156E+04  0.12384486156E+04  0.25500000920E-02 0.  1.
       -2   -1    0    0    0  501  0.00000000000E+00  0.00000000000E+00 -0.13705619334E+04  0.13705619334E+04  0.25500000920E-02 0. -1.
    10030    2    1    2    0    0  0.00000000000E+00  0.00000000000E+00 -0.13211331775E+03  0.26090105490E+04  0.26056634695E+04 0.  0.
        1    1    3    3  502    0 -0.40990205623E+03  0.51407043912E+02 -0.13032441565E+04  0.13671531412E+04  0.50400001928E-02 0. -1.
       -1    1    3    3    0  502  0.40990205623E+03 -0.51407043912E+02  0.11711308388E+04  0.12418574079E+04  0.50400001928E-02 0.  1.
</event>
<event>
 5   0  0.1720129E-05  0.2596115E+04  0.7818609E-02  0.8369522E-01
        2   -1    0    0  501    0  0.00000000000E+00  0.00000000000E+00  0.16680013463E+04  0.16680013463E+04  0.25500000920E-02 0.  1.
       -2   -1    0    0    0  501  0.00000000000E+00  0.00000000000E+00 -0.10101626561E+04  0.10101626561E+04  0.25500000920E-02 0. -1.
    10030    2    1    2    0    0  0.00000000000E+00  0.00000000000E+00  0.65783869021E+03  0.26781640024E+04  0.25961145355E+04 0.  0.
        3    1    3    3  502    0 -0.10267436150E+04  0.74446874297E+03  0.61427788080E+03  0.14091747533E+04  0.10100000352E+00 0.  1.
       -3    1    3    3    0  502  0.10267436150E+04 -0.74446874297E+03  0.43560809414E+02  0.12689892492E+04  0.10100000352E+00 0. -1.
</event>
<event>
 5   0  0.1681731E-05  0.2609970E+04  0.7818609E-02  0.8364823E-01
        2   -1    0    0  501    0  0.00000000000E+00  0.00000000000E+00  0.11312525357E+04  0.11312525357E+04  0.25500000920E-02 0.  1.
       -2   -1    0    0    0  501  0.00000000000E+00  0.00000000000E+00 -0.15053980836E+04  0.15053980836E+04  0.25500000920E-02 0. -1.
    10030    2    1    2    0    0  0.00000000000E+00  0.00000000000E+00 -0.37414554790E+03  0.26366506193E+04  0.26099696545E+04 0.  0.
        2    1    3    3  502    0  0.10096165397E+04 -0.71322089148E+03 -0.60965003522E+03  0.13782897963E+04  0.25500000920E-02 0. -1.
       -2    1    3    3    0  502 -0.10096165397E+04  0.71322089148E+03  0.23550448731E+03  0.12583608230E+04  0.25500000920E-02 0.  1.
</event>
<event>
 5   0  0.1702345E-05  0.2616477E+04  0.7818609E-02  0.8362626E-01
       -2   -1    0    0    0  501  0.00000000000E+00  0.00000000000E+00  0.26417572552E+04  0.26417572552E+04  0.25500000920E-02 0. -1.
        2   -1    0    0  501    0  0.00000000000E+00  0.00000000000E+00 -0.64785963970E+03  0.64785963971E+03  0.25500000920E-02 0.  1.
    10030    2    1    2    0    0  0.00000000000E+00  0.00000000000E+00  0.19938976155E+04  0.32896168949E+04  0.26164769470E+04 0.  0.
        1    1    3    3  502    0 -0.30517457877E+03 -0.98787383374E+02  0.25915500440E+04  0.26113257363E+04  0.50400001928E-02 0. -1.
       -1    1    3    3    0  502  0.30517457877E+03  0.98787383374E+02 -0.59765242844E+03  0.67829115864E+03  0.50400001928E-02 0.  1.
</event>
<event>
 5   0  0.6706225E-06  0.2630811E+04  0.7818609E-02  0.8357810E-01
        1   -1    0    0  501    0  0.00000000000E+00  0.00000000000E+00  0.22217370322E+04  0.22217370322E+04  0.50400001928E-02 0.  1.
       -1   -1    0    0    0  501  0.00000000000E+00  0.00000000000E+00 -0.77880150063E+03  0.77880150065E+03  0.50400001928E-02 0. -1.
    10030    2    1    2    0    0  0.00000000000E+00  0.00000000000E+00  0.14429355316E+04  0.30005385328E+04  0.26308113841E+04 0.  0.
        5    1    3    3  502    0 -0.82295513762E+03 -0.10055804466E+04  0.95471489979E+03  0.16124359904E+04  0.46999998093E+01 0.  1.
       -5    1    3    3    0  502  0.82295513762E+03  0.10055804466E+04  0.48822063176E+03  0.13881025425E+04  0.46999998093E+01 0. -1.
</event>
<event>
 5   0  0.6706225E-06  0.2621035E+04  0.7818609E-02  0.8361091E-01
       -1   -1    0    0    0  501  0.00000000000E+00  0.00000000000E+00  0.11687439541E+04  0.11687439541E+04  0.50400001928E-02 0. -1.
        1   -1    0    0  501    0  0.00000000000E+00  0.00000000000E+00 -0.14694890594E+04  0.14694890594E+04  0.50400001928E-02 0.  1.
    10030    2    1    2    0    0  0.00000000000E+00  0.00000000000E+00 -0.30074510534E+03  0.26382330135E+04  0.26210352563E+04 0.  0.
        5    1    3    3  502    0  0.12229825106E+04  0.60493620678E+02 -0.62043638187E+03  0.13727013854E+04  0.46999998093E+01 0.  1.
       -5    1    3    3    0  502 -0.12229825106E+04 -0.60493620678E+02  0.31969127653E+03  0.12655316281E+04  0.46999998093E+01 0. -1.
</event>
<event>
 5   0  0.1681731E-05  0.2527841E+04  0.7818609E-02  0.8393134E-01
       -2   -1    0    0    0  501  0.00000000000E+00  0.00000000000E+00  0.10564133456E+04  0.10564133456E+04  0.25500000920E-02 0.  1.
        2   -1    0    0  501    0  0.00000000000E+00  0.00000000000E+00 -0.15121875819E+04  0.15121875819E+04  0.25500000920E-02 0. -1.
    10030    2    1    2    0    0  0.00000000000E+00  0.00000000000E+00 -0.45577423629E+03  0.25686009275E+04  0.25278410888E+04 0.  0.
        2    1    3    3  502    0 -0.17683648147E+03 -0.12513280062E+04 -0.24826598030E+03  0.12879165024E+04  0.25500000920E-02 0.  1.
       -2    1    3    3    0  502  0.17683648147E+03  0.12513280062E+04 -0.20750825599E+03  0.12806844250E+04  0.25500000920E-02 0. -1.
</event>
<event>
 5   0  0.6984287E-06  0.2589032E+04  0.7818609E-02  0.8371936E-01
       -1   -1    0    0    0  501  0.00000000000E+00  0.00000000000E+00  0.14616142382E+04  0.14616142382E+04  0.50400001928E-02 0.  1.
        1   -1    0    0  501    0  0.00000000000E+00  0.00000000000E+00 -0.11465209078E+04  0.11465209079E+04  0.50400001928E-02 0. -1.
    10030    2    1    2    0    0  0.00000000000E+00  0.00000000000E+00  0.31509333038E+03  0.26081351461E+04  0.25890316980E+04 0.  0.
        3    1    3    3  502    0 -0.26827877575E+03  0.10534907950E+04 -0.55045842509E+03  0.12185322502E+04  0.10100000352E+00 0. -1.
       -3    1    3    3    0  502  0.26827877575E+03 -0.10534907950E+04  0.86555175547E+03  0.13896028959E+04  0.10100000352E+00 0.  1.
</event>
<event>
 5   0  0.6706225E-06  0.2583452E+04  0.7818609E-02  0.8373844E-01
       -1   -1    0    0    0  501  0.00000000000E+00  0.00000000000E+00  0.14753956595E+04  0.14753956595E+04  0.50400001928E-02 0. -1.
        1   -1    0    0  501    0  0.00000000000E+00  0.00000000000E+00 -0.11309208817E+04  0.11309208817E+04  0.50400001928E-02 0.  1.
    10030    2    1    2    0    0  0.00000000000E+00  0.00000000000E+00  0.34447477779E+03  0.26063165412E+04  0.25834517686E+04 0.  0.
        5    1    3    3  502    0  0.54489237460E+03 -0.11663389360E+04  0.27938213750E+03  0.13173195066E+04  0.46999998093E+01 0.  1.
       -5    1    3    3    0  502 -0.54489237460E+03  0.11663389360E+04  0.65092640288E+02  0.12889970347E+04  0.46999998093E+01 0. -1.
</event>
<event>
 5   0  0.5840500E-06  0.2627406E+04  0.7818609E-02  0.8358951E-01
        4   -1    0    0  501    0  0.00000000000E+00  0.00000000000E+00  0.14006867561E+04  0.14006873318E+04  0.12699999809E+01 0. -1.
       -4   -1    0    0    0  501  0.00000000000E+00  0.00000000000E+00 -0.12321202964E+04  0.12321209510E+04  0.12699999809E+01 0.  1.
    10030    2    1    2    0    0  0.00000000000E+00  0.00000000000E+00  0.16856645965E+03  0.26328082828E+04  0.26274064784E+04 0.  0.
        2    1    3    3  502    0  0.93346367767E+03 -0.16989930484E+03 -0.82620797809E+03  0.12581096273E+04  0.25500000920E-02 0.  1.
       -2    1    3    3    0  502 -0.93346367767E+03  0.16989930484E+03  0.99477443774E+03  0.13746986555E+04  0.25500000920E-02 0. -1.
</event>
<event>
 5   0  0.1720129E-05  0.2643815E+04  0.7818609E-02  0.8353469E-01
        2   -1    0    0  501    0  0.00000000000E+00  0.00000000000E+00  0.15842259263E+04  0.15842259263E+04  0.25500000920E-02 0. -1.
       -2   -1    0    0    0  501  0.00000000000E+00  0.00000000000E+00 -0.11030240337E+04  0.11030240337E+04  0.25500000920E-02 0.  1.
    10030    2    1    2    0    0  0.00000000000E+00  0.00000000000E+00  0.48120189264E+03  0.26872499600E+04  0.26438148736E+04 0.  0.
        3    1    3    3  502    0 -0.12936724571E+04 -0.15587831096E+03  0.14339235124E+02  0.13031086286E+04  0.10100000352E+00 0.  1.
       -3    1    3    3    0  502  0.12936724571E+04  0.15587831096E+03  0.46686265752E+03  0.13841413314E+04  0.10100000352E+00 0. -1.
</event>
<event>
 5   0  0.6706225E-06  0.2612554E+04  0.7818609E-02  0.8363949E-01
       -1   -1    0    0    0  501  0.00000000000E+00  0.00000000000E+00  0.15578954978E+04  0.15578954978E+04  0.50400001928E-02 0. -1.
        1   -1    0    0  501    0  0.00000000000E+00  0.00000000000E+00 -0.10952977413E+04  0.10952977413E+04  0.50400001928E-02 0.  1.
    10030    2    1    2    0    0  0.00000000000E+00  0.00000000000E+00  0.46259775650E+03  0.26531932391E+04  0.26125538616E+04 0.  0.
        5    1    3    3  502    0 -0.11101484505E+04  0.68765702820E+03  0.26397956243E+03  0.13322946633E+04  0.46999998093E+01 0.  1.
       -5    1    3    3    0  502  0.11101484505E+04 -0.68765702820E+03  0.19861819407E+03  0.13208985758E+04  0.46999998093E+01 0. -1.
</event>
<event>
 5   0  0.1681731E-05  0.2584359E+04  0.7818609E-02  0.8373533E-01
       -2   -1    0    0    0  501  0.00000000000E+00  0.00000000000E+00  0.16174076661E+04  0.16174076661E+04  0.25500000920E-02 0. -1.
        2   -1    0    0  501    0  0.00000000000E+00  0.00000000000E+00 -0.10323485265E+04  0.10323485265E+04  0.25500000920E-02 0.  1.
    10030    2    1    2    0    0  0.00000000000E+00  0.00000000000E+00  0.58505913965E+03  0.26497561926E+04  0.25843594338E+04 0.  0.
        2    1    3    3  502    0  0.48736499308E+03 -0.11857480817E+04  0.12655279241E+03  0.12882308640E+04  0.25500000920E-02 0.  1.
       -2    1    3    3    0  502 -0.48736499308E+03  0.11857480817E+04  0.45850634724E+03  0.13615253285E+04  0.25500000920E-02 0. -1.
</event>
<event>
 5   0  0.6993678E-06  0.2579331E+04  0.7818609E-02  0.8375256E-01
        1   -1    0    0  501    0  0.00000000000E+00  0.00000000000E+00  0.15644548293E+04  0.15644548293E+04  0.50400001928E-02 0. -1.
       -1   -1    0    0    0  501  0.00000000000E+00  0.00000000000E+00 -0.10631413669E+04  0.10631413670E+04  0.50400001928E-02 0.  1.
    10030    2    1    2    0    0  0.00000000000E+00  0.00000000000E+00  0.50131346237E+03  0.26275961963E+04  0.25793306463E+04 0.  0.
        1    1    3    3  502    0  0.83767342654E+03  0.88261620283E+02  0.12455324413E+04  0.15036083085E+04  0.50400001928E-02 0. -1.
       -1    1    3    3    0  502 -0.83767342654E+03 -0.88261620283E+02 -0.74421897894E+03  0.11239878877E+04  0.50400001928E-02 0.  1.
</event>
<event>
 5   0  0.1702345E-05  0.2594352E+04  0.7818609E-02  0.8370122E-01
       -2   -1    0    0    0  501  0.00000000000E+00  0.00000000000E+00  0.95388231627E+03  0.95388231627E+03  0.25500000920E-02 0. -1.
        2   -1    0    0  501    0  0.00000000000E+00  0.00000000000E+00 -0.17640181735E+04  0.17640181735E+04  0.25500000920E-02 0.  1.
    10030    2    1    2    0    0  0.00000000000E+00  0.00000000000E+00 -0.81013585722E+03  0.27179004898E+04  0.25943521282E+04 0.  0.
        1    1    3    3  502    0  0.24062000705E+03 -0.25138451159E+03  0.90407135894E+03  0.96872967465E+03  0.50400001928E-02 0. -1.
       -1    1    3    3    0  502 -0.24062000705E+03  0.25138451159E+03 -0.17142072162E+04  0.17491708151E+04  0.50400001928E-02 0.  1.
</event>
<event>
 5   0  0.7138294E-06  0.2595306E+04  0.7818609E-02  0.8369797E-01
       -1   -1    0    0    0  501  0.00000000000E+00  0.00000000000E+00  0.11333466340E+04  0.11333466340E+04  0.50400001928E-02 0. -1.
        1   -1    0    0  501    0  0.00000000000E+00  0.00000000000E+00 -0.14857793072E+04  0.14857793072E+04  0.50400001928E-02 0.  1.
    10030    2    1    2    0    0  0.00000000000E+00  0.00000000000E+00 -0.35243267320E+03  0.26191259413E+04  0.25953057444E+04 0.  0.
        2    1    3    3  502    0  0.35138291663E+03 -0.11015227773E+04  0.41832632078E+03  0.12295606100E+04  0.25500000920E-02 0. -1.
       -2    1    3    3    0  502 -0.35138291663E+03  0.11015227773E+04 -0.77075899398E+03  0.13895653313E+04  0.25500000920E-02 0.  1.
</event>
<event>
 5   0  0.6984287E-06  0.2608052E+04  0.7818609E-02  0.8365471E-01
       -1   -1    0    0    0  501  0.00000000000E+00  0.00000000000E+00  0.13405537396E+04  0.13405537396E+04  0.50400001928E-02 0. -1.
        1   -1    0    0  501    0  0.00000000000E+00  0.00000000000E+00 -0.12684935391E+04  0.12684935391E+04  0.50400001928E-02 0.  1.
    10030    2    1    2    0    0  0.00000000000E+00  0.00000000000E+00  0.72060200509E+02  0.26090472787E+04  0.26080519608E+04 0.  0.
        3    1    3    3  502    0 -0.24062666679E+03 -0.50813217427E+03  0.12130777213E+04  0.13370329343E+04  0.10100000352E+00 0. -1.
       -3    1    3    3    0  502  0.24062666679E+03  0.50813217427E+03 -0.11410175208E+04  0.12720143444E+04  0.10100000352E+00 0.  1.
</event>
<event>
 5   0  0.6706225E-06  0.2587135E+04  0.7818609E-02  0.8372584E-01
        1   -1    0    0  501    0  0.00000000000E+00  0.00000000000E+00  0.21549360857E+04  0.21549360857E+04  0.50400001928E-02 0. -1.
       -1   -1    0    0    0  501  0.00000000000E+00  0.00000000000E+00 -0.77650410702E+03  0.77650410704E+03  0.50400001928E-02 0.  1.
    10030    2    1    2    0    0  0.00000000000E+00  0.00000000000E+00  0.13784319786E+04  0.29314401927E+04  0.25871348793E+04 0.  0.
        5    1    3    3  502    0  0.67883629836E+03 -0.15809477341E+03  0.19239558717E+04  0.20463237680E+04  0.46999998093E+01 0. -1.
       -5    1    3    3    0  502 -0.67883629836E+03  0.15809477341E+03 -0.54552389306E+03  0.88511642468E+03  0.46999998093E+01 0.  1.
</event>
<event>
 5   0  0.7138294E-06  0.2509062E+04  0.7818609E-02  0.8399764E-01
        1   -1    0    0  501    0  0.00000000000E+00  0.00000000000E+00  0.21202238669E+04  0.21202238669E+04  0.50400001928E-02 0.  1.
       -1   -1    0    0    0  501  0.00000000000E+00  0.00000000000E+00 -0.74230293181E+03  0.74230293183E+03  0.50400001928E-02 0. -1.
    10030    2    1    2    0    0  0.00000000000E+00  0.00000000000E+00  0.13779209351E+04  0.28625267987E+04  0.25090622890E+04 0.  0.
        2    1    3    3  502    0  0.10514399949E+03 -0.88188333243E+03  0.16998266546E+04  0.19178592567E+04  0.25500000920E-02 0.  1.
       -2    1    3    3    0  502 -0.10514399949E+03  0.88188333243E+03 -0.32190571957E+03  0.94466754202E+03  0.25500000920E-02 0. -1.
</event>
<event>
 5   0  0.1677971E-05  0.2559129E+04  0.7818609E-02  0.8382218E-01
        2   -1    0    0  501    0  0.00000000000E+00  0.00000000000E+00  0.12402968656E+04  0.12402968656E+04  0.25500000920E-02 0.  1.
       -2   -1    0    0    0  501  0.00000000000E+00  0.00000000000E+00 -0.13200754395E+04  0.13200754395E+04  0.25500000920E-02 0. -1.
    10030    2    1    2    0    0  0.00000000000E+00  0.00000000000E+00 -0.79778573889E+02  0.25603723051E+04  0.25591290940E+04 0.  0.
        4    1    3    3  502    0  0.92715321039E+02  0.19727145125E+03 -0.13013632823E+04  0.13194923879E+04  0.12699999809E+01 0. -1.
       -4    1    3    3    0  502 -0.92715321039E+02 -0.19727145125E+03  0.12215847084E+04  0.12408799172E+04  0.12699999809E+01 0.  1.
</event>
<event>
 5   0  0.6918420E-06  0.2583946E+04  0.7818609E-02  0.8373675E-01
        1   -1    0    0  501    0  0.00000000000E+00  0.00000000000E+00  0.23316026440E+04  0.23316026440E+04  0.50400001928E-02 0. -1.
       -1   -1    0    0    0  501  0.00000000000E+00  0.00000000000E+00 -0.71589984206E+03  0.71589984208E+03  0.50400001928E-02 0.  1.
    10030    2    1    2    0    0  0.00000000000E+00  0.00000000000E+00  0.16157028020E+04  0.30475024861E+04  0.25839457925E+04 0.  0.
        4    1    3    3  502    0  0.57796971715E+02 -0.12398287884E+04  0.38478339455E+03  0.12994521107E+04  0.12699999809E+01 0. -1.
       -4    1    3    3    0  502 -0.57796971715E+02  0.12398287884E+04  0.12309194074E+04  0.17480503754E+04  0.12699999809E+01 0.  1.
</event>
<event>
 5   0  0.6706225E-06  0.2600959E+04  0.7818609E-02  0.8367876E-01
       -1   -1    0    0    0  501  0.00000000000E+00  0.00000000000E+00  0.86184096535E+03  0.86184096537E+03  0.50400001928E-02 0. -1.
        1   -1    0    0  501    0  0.00000000000E+00  0.00000000000E+00 -0.19623650479E+04  0.19623650479E+04  0.50400001928E-02 0.  1.
    10030    2    1    2    0    0  0.00000000000E+00  0.00000000000E+00 -0.11005240825E+04  0.28242060133E+04  0.26009587365E+04 0.  0.
        5    1    3    3  502    0 -0.99223183966E+03  0.29591957785E+03 -0.14046489076E+04  0.17450366941E+04  0.46999998093E+01 0.  1.
       -5    1    3    3    0  502  0.99223183966E+03 -0.29591957785E+03  0.30412482505E+03  0.10791693192E+04  0.46999998093E+01 0. -1.
</event>
<event>
 5   0  0.7138294E-06  0.2606591E+04  0.7818609E-02  0.8365966E-01
       -1   -1    0    0    0  501  0.00000000000E+00  0.00000000000E+00  0.99900884821E+03  0.99900884823E+03  0.50400001928E-02 0. -1.
        1   -1    0    0  501    0  0.00000000000E+00  0.00000000000E+00 -0.17002643849E+04  0.17002643849E+04  0.50400001928E-02 0.  1.
    10030    2    1    2    0    0  0.00000000000E+00  0.00000000000E+00 -0.70125553665E+03  0.26992732331E+04  0.26065910034E+04 0.  0.
        2    1    3    3  502    0  0.41046804182E+02  0.12536196684E+04  0.15982842386E+02  0.12543933053E+04  0.25500000920E-02 0. -1.
       -2    1    3    3    0  502 -0.41046804182E+02 -0.12536196684E+04 -0.71723837903E+03  0.14448799277E+04  0.25500000920E-02 0.  1.
</event>
<event>
 5   0  0.1702345E-05  0.2594714E+04  0.7818609E-02  0.8369999E-01
        2   -1    0    0  501    0  0.00000000000E+00  0.00000000000E+00  0.25662093619E+04  0.25662093619E+04  0.25500000920E-02 0.  1.
       -2   -1    0    0    0  501  0.00000000000E+00  0.00000000000E+00 -0.65588405752E+03  0.65588405753E+03  0.25500000920E-02 0. -1.
    10030    2    1    2    0    0  0.00000000000E+00  0.00000000000E+00  0.19103253044E+04  0.32220934195E+04  0.25947144804E+04 0.  0.
        1    1    3    3  502    0 -0.12431278535E+04  0.24979415356E+03  0.12960831238E+04  0.18131727560E+04  0.50400001928E-02 0. -1.
       -1    1    3    3    0  502  0.12431278535E+04 -0.24979415356E+03  0.61424218060E+03  0.14089206634E+04  0.50400001928E-02 0.  1.
</event>
<event>
 5   0  0.1720129E-05  0.2615834E+04  0.7818609E-02  0.8362843E-01
        2   -1    0    0  501    0  0.00000000000E+00  0.00000000000E+00  0.15250885374E+04  0.15250885374E+04  0.25500000920E-02 0. -1.
       -2   -1    0    0    0  501  0.00000000000E+00  0.00000000000E+00 -0.11216705424E+04  0.11216705424E+04  0.25500000920E-02 0.  1.
    10030    2    1    2    0    0  0.00000000000E+00  0.00000000000E+00  0.40341799502E+03  0.26467590797E+04  0.26158340061E+04 0.  0.
        3    1    3    3  502    0  0.46642142136E+03 -0.98828617261E+03 -0.52538818009E+03  0.12125556693E+04  0.10100000352E+00 0.  1.
       -3    1    3    3    0  502 -0.46642142136E+03  0.98828617261E+03  0.92880617510E+03  0.14342034104E+04  0.10100000352E+00 0. -1.
</event>
<event>
 5   0  0.1720129E-05  0.2584650E+04  0.7818609E-02  0.8373434E-01
        2   -1    0    0  501    0  0.00000000000E+00  0.00000000000E+00  0.23973324694E+04  0.23973324694E+04  0.25500000920E-02 0. -1.
       -2   -1    0    0    0  501  0.00000000000E+00  0.00000000000E+00 -0.69665112338E+03  0.69665112338E+03  0.25500000920E-02 0.  1.
    10030    2    1    2    0    0  0.00000000000E+00  0.00000000000E+00  0.17006813461E+04  0.30939835928E+04  0.25846503500E+04 0.  0.
        3    1    3    3  502    0  0.10000025001E+04 -0.79188100967E+03  0.60204413724E+03  0.14105097260E+04  0.10100000352E+00 0.  1.
       -3    1    3    3    0  502 -0.10000025001E+04  0.79188100967E+03  0.10986372088E+04  0.16834738669E+04  0.10100000352E+00 0. -1.
</event>
<event>
 5   0  0.6918420E-06  0.2605069E+04  0.7818609E-02  0.8366481E-01
        1   -1    0    0  501    0  0.00000000000E+00  0.00000000000E+00  0.21294735688E+04  0.21294735688E+04  0.50400001928E-02 0. -1.
       -1   -1    0    0    0  501  0.00000000000E+00  0.00000000000E+00 -0.79672092098E+03  0.79672092100E+03  0.50400001928E-02 0.  1.
    10030    2    1    2    0    0  0.00000000000E+00  0.00000000000E+00  0.13327526478E+04  0.29261944898E+04  0.26050690148E+04 0.  0.
        4    1    3    3  502    0 -0.74622971805E+03 -0.25108680205E+03  0.18319226175E+04  0.19939522220E+04  0.12699999809E+01 0. -1.
       -4    1    3    3    0  502  0.74622971805E+03  0.25108680205E+03 -0.49916996971E+03  0.93224226777E+03  0.12699999809E+01 0.  1.
</event>
<event>
 5   0  0.1702345E-05  0.2594317E+04  0.7818609E-02  0.8370134E-01
       -2   -1    0    0    0  501  0.00000000000E+00  0.00000000000E+00  0.60666647258E+03  0.60666647259E+03  0.25500000920E-02 0. -1.
        2   -1    0    0  501    0  0.00000000000E+00  0.00000000000E+00 -0.27735507931E+04  0.27735507931E+04  0.25500000920E-02 0.  1.
    10030    2    1    2    0    0  0.00000000000E+00  0.00000000000E+00 -0.21668843206E+04  0.33802172657E+04  0.25943170787E+04 0.  0.
        1    1    3    3  502    0  0.14028796332E+03 -0.88715370223E+03  0.13596375299E+03  0.90840989987E+03  0.50400001928E-02 0. -1.
       -1    1    3    3    0  502 -0.14028796332E+03  0.88715370223E+03 -0.23028480735E+04  0.24718073659E+04  0.50400001928E-02 0.  1.
</event>
<event>
 5   0  0.7138294E-06  0.2607498E+04  0.7818609E-02  0.8365659E-01
        1   -1    0    0  501    0  0.00000000000E+00  0.00000000000E+00  0.21161729845E+04  0.21161729845E+04  0.50400001928E-02 0. -1.
       -1   -1    0    0    0  501  0.00000000000E+00  0.00000000000E+00 -0.80322419402E+03  0.80322419403E+03  0.50400001928E-02 0.  1.
    10030    2    1    2    0    0  0.00000000000E+00  0.00000000000E+00  0.13129487905E+04  0.29193971785E+04  0.26074979117E+04 0.  0.
        2    1    3    3  502    0  0.23605915140E+03  0.36538482647E+03 -0.71957519590E+03  0.84084389570E+03  0.25500000920E-02 0.  1.
       -2    1    3    3    0  502 -0.23605915140E+03 -0.36538482647E+03  0.20325239864E+04  0.20785532828E+04  0.25500000920E-02 0. -1.
</event>
<event>
 5   0  0.6993678E-06  0.2686151E+04  0.7818609E-02  0.8339512E-01
        1   -1    0    0  501    0  0.00000000000E+00  0.00000000000E+00  0.15169161080E+04  0.15169161080E+04  0.50400001928E-02 0.  1.
       -1   -1    0    0    0  501  0.00000000000E+00  0.00000000000E+00 -0.11891574928E+04  0.11891574928E+04  0.50400001928E-02 0. -1.
    10030    2    1    2    0    0  0.00000000000E+00  0.00000000000E+00  0.32775861514E+03  0.27060736008E+04  0.26861512659E+04 0.  0.
        1    1    3    3  502    0  0.18654361118E+03  0.22798407863E+02  0.15036048261E+04  0.15153038505E+04  0.50400001928E-02 0.  1.
       -1    1    3    3    0  502 -0.18654361118E+03 -0.22798407863E+02 -0.11758462110E+04  0.11907697503E+04  0.50400001928E-02 0. -1.
</event>
<event>
 5   0  0.6706225E-06  0.2602244E+04  0.7818609E-02  0.8367439E-01
        1   -1    0    0  501    0  0.00000000000E+00  0.00000000000E+00  0.11323338612E+04  0.11323338612E+04  0.50400001928E-02 0.  1.
       -1   -1    0    0    0  501  0.00000000000E+00  0.00000000000E+00 -0.14950700323E+04  0.14950700323E+04  0.50400001928E-02 0. -1.
    10030    2    1    2    0    0  0.00000000000E+00  0.00000000000E+00 -0.36273617111E+03  0.26274038936E+04  0.26022439721E+04 0.  0.
        5    1    3    3  502    0  0.75025591360E+03 -0.23034798242E+03  0.86642865370E+03  0.11690444093E+04  0.46999998093E+01 0.  1.
       -5    1    3    3    0  502 -0.75025591360E+03  0.23034798242E+03 -0.12291648248E+04  0.14583594843E+04  0.46999998093E+01 0. -1.
</event>
<event>
 5   0  0.1681731E-05  0.2644784E+04  0.7818609E-02  0.8353146E-01
        2   -1    0    0  501    0  0.00000000000E+00  0.00000000000E+00  0.24305126778E+04  0.24305126778E+04  0.25500000920E-02 0.  1.
       -2   -1    0    0    0  501  0.00000000000E+00  0.00000000000E+00 -0.71948614778E+03  0.71948614779E+03  0.25500000920E-02 0. -1.
    10030    2    1    2    0    0  0.00000000000E+00  0.00000000000E+00  0.17110265300E+04  0.31499988256E+04  0.26447836990E+04 0.  0.
        2    1    3    3  502    0  0.12047456968E+04 -0.52956182131E+03  0.70080724547E+03  0.14909656977E+04  0.25500000920E-02 0.  1.
       -2    1    3    3    0  502 -0.12047456968E+04  0.52956182131E+03  0.10102192845E+04  0.16590331279E+04  0.25500000920E-02 0. -1.
</event>
<event>
 5   0  0.1702345E-05  0.2588457E+04  0.7818609E-02  0.8372133E-01
       -2   -1    0    0    0  501  0.00000000000E+00  0.00000000000E+00  0.10427249711E+04  0.10427249711E+04  0.25500000920E-02 0. -1.
        2   -1    0    0  501    0  0.00000000000E+00  0.00000000000E+00 -0.16063938466E+04  0.16063938466E+04  0.25500000920E-02 0.  1.
    10030    2    1    2    0    0  0.00000000000E+00  0.00000000000E+00 -0.56366887555E+03  0.26491188177E+04  0.25884566655E+04 0.  0.
        1    1    3    3  502    0  0.56762301956E+03 -0.23652782711E+03  0.88366316623E+03  0.10765695039E+04  0.50400001928E-02 0. -1.
       -1    1    3    3    0  502 -0.56762301956E+03  0.23652782711E+03 -0.14473320418E+04  0.15725493139E+04  0.50400001928E-02 0.  1.
</event>
<event>
 5   0  0.1720129E-05  0.2619050E+04  0.7818609E-02  0.8361759E-01
       -2   -1    0    0    0  501  0.00000000000E+00  0.00000000000E+00  0.24612201306E+04  0.24612201306E+04  0.25500000920E-02 0. -1.
        2   -1    0    0  501    0  0.00000000000E+00  0.00000000000E+00 -0.69675007721E+03  0.69675007722E+03  0.25500000920E-02 0.  1.
    10030    2    1    2    0    0  0.00000000000E+00  0.00000000000E+00  0.17644700534E+04  0.31579702079E+04  0.26190496873E+04 0.  0.
        3    1    3    3  502    0  0.90871403812E+03 -0.34208918121E+03  0.19417140807E+04  0.21709536597E+04  0.10100000352E+00 0. -1.
       -3    1    3    3    0  502 -0.90871403812E+03  0.34208918121E+03 -0.17724402730E+03  0.98701654818E+03  0.10100000352E+00 0.  1.
</event>
<event>
 5   0  0.5840500E-06  0.2621634E+04  0.7818609E-02  0.8360890E-01
        3   -1    0    0  501    0  0.00000000000E+00  0.00000000000E+00  0.10736947839E+04  0.10736947886E+04  0.10100000352E+00 0. -1.
       -3   -1    0    0    0  501  0.00000000000E+00  0.00000000000E+00 -0.16003065909E+04  0.16003065941E+04  0.10100000352E+00 0.  1.
    10030    2    1    2    0    0  0.00000000000E+00  0.00000000000E+00 -0.52661180701E+03  0.26740013827E+04  0.26216337272E+04 0.  0.
        3    1    3    3  502    0  0.12578499147E+04  0.28353686736E+03 -0.50394500273E+03  0.13843916133E+04  0.10100000352E+00 0.  1.
       -3    1    3    3    0  502 -0.12578499147E+04 -0.28353686736E+03 -0.22666804271E+02  0.12896097694E+04  0.10100000352E+00 0. -1.
</event>
<event>
 5   0  0.7138294E-06  0.2570034E+04  0.7818609E-02  0.8378452E-01
        1   -1    0    0  501    0  0.00000000000E+00  0.00000000000E+00  0.21271143698E+04  0.21271143698E+04  0.50400001928E-02 0.  1.
       -1   -1    0    0    0  501  0.00000000000E+00  0.00000000000E+00 -0.77629513207E+03  0.77629513209E+03  0.50400001928E-02 0. -1.
    10030    2    1    2    0    0  0.00000000000E+00  0.00000000000E+00  0.13508192377E+04  0.29034095019E+04  0.25700338758E+04 0.  0.
        2    1    3    3  502    0 -0.14521390254E+03  0.39420581510E+03  0.20473446356E+04  0.20900012821E+04  0.25500000920E-02 0.  1.
       -2    1    3    3    0  502  0.14521390254E+03 -0.39420581510E+03 -0.69652539788E+03  0.81340821981E+03  0.25500000920E-02 0. -1.
</event>
<event>
 5   0  0.1677971E-05  0.2608344E+04  0.7818609E-02  0.8365372E-01
       -2   -1    0    0    0  501  0.00000000000E+00  0.00000000000E+00  0.12177188669E+04  0.12177188669E+04  0.25500000920E-02 0.  1.
        2   -1    0    0  501    0  0.00000000000E+00  0.00000000000E+00 -0.13967629388E+04  0.13967629388E+04  0.25500000920E-02 0. -1.
    10030    2    1    2    0    0  0.00000000000E+00  0.00000000000E+00 -0.17904407188E+03  0.26144818058E+04  0.26083439829E+04 0.  0.
        4    1    3    3  502    0  0.11375110860E+04  0.53951211417E+03  0.25165838990E+03  0.12838762986E+04  0.12699999809E+01 0.  1.
       -4    1    3    3    0  502 -0.11375110860E+04 -0.53951211417E+03 -0.43070246178E+03  0.13306055071E+04  0.12699999809E+01 0. -1.
</event>
<event>
 5   0  0.1702345E-05  0.2130007E+04  0.7818609E-02  0.8548139E-01
       -2   -1    0    0    0  501  0.00000000000E+00  0.00000000000E+00  0.71849261630E+03  0.71849261630E+03  0.25500000920E-02 0.  1.
        2   -1    0    0  501    0  0.00000000000E+00  0.00000000000E+00 -0.15786281899E+04  0.15786281899E+04  0.25500000920E-02 0. -1.
    10030    2    1    2    0    0  0.00000000000E+00  0.00000000000E+00 -0.86013557360E+03  0.22971208062E+04  0.21300072285E+04 0.  0.
        1    1    3    3  502    0  0.69180092478E+03 -0.52577193965E+03 -0.10941800964E+04  0.13972310959E+04  0.50400001928E-02 0. -1.
       -1    1    3    3    0  502 -0.69180092478E+03  0.52577193965E+03  0.23404452276E+03  0.89988971031E+03  0.50400001928E-02 0.  1.
</event>
<event>
 5   0  0.6993678E-06  0.2607328E+04  0.7818609E-02  0.8365716E-01
        1   -1    0    0  501    0  0.00000000000E+00  0.00000000000E+00  0.97791348666E+03  0.97791348667E+03  0.50400001928E-02 0. -1.
       -1   -1    0    0    0  501  0.00000000000E+00  0.00000000000E+00 -0.17379243259E+04  0.17379243259E+04  0.50400001928E-02 0.  1.
    10030    2    1    2    0    0  0.00000000000E+00  0.00000000000E+00 -0.76001083923E+03  0.27158378126E+04  0.26073278559E+04 0.  0.
        1    1    3    3  502    0 -0.12145981045E+03  0.12974975628E+04 -0.34263434602E+03  0.13474608366E+04  0.50400001928E-02 0.  1.
       -1    1    3    3    0  502  0.12145981045E+03 -0.12974975628E+04 -0.41737649321E+03  0.13683769759E+04  0.50400001928E-02 0. -1.
</event>
<event>
 5   0  0.6706225E-06  0.2595062E+04  0.7818609E-02  0.8369880E-01
        1   -1    0    0  501    0  0.00000000000E+00  0.00000000000E+00  0.30846946837E+04  0.30846946837E+04  0.50400001928E-02 0. -1.
       -1   -1    0    0    0  501  0.00000000000E+00  0.00000000000E+00 -0.54578732174E+03  0.54578732177E+03  0.50400001928E-02 0.  1.
    10030    2    1    2    0    0  0.00000000000E+00  0.00000000000E+00  0.25389073619E+04  0.36304820055E+04  0.25950624269E+04 0.  0.
        5    1    3    3  502    0 -0.68328985567E+03  0.82951977123E+03  0.22865700493E+04  0.25265416597E+04  0.46999998093E+01 0. -1.
       -5    1    3    3    0  502  0.68328985567E+03 -0.82951977123E+03  0.25233731266E+03  0.11039403458E+04  0.46999998093E+01 0.  1.
</event>
<event>
 5   0  0.1869956E-05  0.2561031E+04  0.7818609E-02  0.8381560E-01
        2   -1    0    0  501    0  0.00000000000E+00  0.00000000000E+00  0.53393582480E+03  0.53393582481E+03  0.25500000920E-02 0. -1.
       -2   -1    0    0    0  501  0.00000000000E+00  0.00000000000E+00 -0.30710057500E+04  0.30710057500E+04  0.25500000920E-02 0.  1.
    10030    2    1    2    0    0  0.00000000000E+00  0.00000000000E+00 -0.25370699252E+04  0.36049415748E+04  0.25610310331E+04 0.  0.
        5    1    3    3  502    0  0.70841998357E+03 -0.45819353687E+03  0.87383082127E+02  0.84820874989E+03  0.46999998093E+01 0. -1.
       -5    1    3    3    0  502 -0.70841998357E+03  0.45819353687E+03 -0.26244530073E+04  0.27567328249E+04  0.46999998093E+01 0.  1.
</event>
<event>
 5   0  0.1869956E-05  0.2578035E+04  0.7818609E-02  0.8375701E-01
        2   -1    0    0  501    0  0.00000000000E+00  0.00000000000E+00  0.14710904477E+04  0.14710904477E+04  0.25500000920E-02 0.  1.
       -2   -1    0    0    0  501  0.00000000000E+00  0.00000000000E+00 -0.11294796123E+04  0.11294796123E+04  0.25500000920E-02 0. -1.
    10030    2    1    2    0    0  0.00000000000E+00  0.00000000000E+00  0.34161083537E+03  0.26005700600E+04  0.25780354292E+04 0.  0.
        5    1    3    3  502    0 -0.11428032325E+03 -0.12172518357E+03 -0.11185169595E+04  0.11309196662E+04  0.46999998093E+01 0. -1.
       -5    1    3    3    0  502  0.11428032325E+03  0.12172518357E+03  0.14601277949E+04  0.14696503938E+04  0.46999998093E+01 0.  1.
</event>
<event>
 5   0  0.1869956E-05  0.2705265E+04  0.7818609E-02  0.8333299E-01
        2   -1    0    0  501    0  0.00000000000E+00  0.00000000000E+00  0.25529981706E+04  0.25529981706E+04  0.25500000920E-02 0. -1.
       -2   -1    0    0    0  501  0.00000000000E+00  0.00000000000E+00 -0.71665332353E+03  0.71665332354E+03  0.25500000920E-02 0.  1.
    10030    2    1    2    0    0  0.00000000000E+00  0.00000000000E+00  0.18363448471E+04  0.32696514942E+04  0.27052649585E+04 0.  0.
        5    1    3    3  502    0 -0.63875546706E+02  0.29861393736E+03 -0.67443711773E+03  0.74036334649E+03  0.46999998093E+01 0.  1.
       -5    1    3    3    0  502  0.63875546706E+02 -0.29861393736E+03  0.25107819648E+04  0.25292881477E+04  0.46999998093E+01 0. -1.
</event>
<event>
 5   0  0.1677971E-05  0.2624359E+04  0.7818609E-02  0.8359974E-01
       -2   -1    0    0    0  501  0.00000000000E+00  0.00000000000E+00  0.10137667208E+04  0.10137667208E+04  0.25500000920E-02 0. -1.
        2   -1    0    0  501    0  0.00000000000E+00  0.00000000000E+00 -0.16984332016E+04  0.16984332016E+04  0.25500000920E-02 0.  1.
    10030    2    1    2    0    0  0.00000000000E+00  0.00000000000E+00 -0.68466648081E+03  0.27121999224E+04  0.26243590130E+04 0.  0.
        4    1    3    3  502    0 -0.12627981414E+03 -0.11756031553E+04 -0.93043573162E+03  0.15045602792E+04  0.12699999809E+01 0.  1.
       -4    1    3    3    0  502  0.12627981414E+03  0.11756031553E+04  0.24576925082E+03  0.12076396432E+04  0.12699999809E+01 0. -1.
</event>
<event>
 5   0  0.1677971E-05  0.2589582E+04  0.7818609E-02  0.8371749E-01
       -2   -1    0    0    0  501  0.00000000000E+00  0.00000000000E+00  0.99771538489E+03  0.99771538489E+03  0.25500000920E-02 0.  1.
        2   -1    0    0  501    0  0.00000000000E+00  0.00000000000E+00 -0.16803223905E+04  0.16803223905E+04  0.25500000920E-02 0. -1.
    10030    2    1    2    0    0  0.00000000000E+00  0.00000000000E+00 -0.68260700564E+03  0.26780377754E+04  0.25895818200E+04 0.  0.
        4    1    3    3  502    0  0.61025474742E+03  0.10373734333E+04  0.15242172705E+03  0.12131729031E+04  0.12699999809E+01 0.  1.
       -4    1    3    3    0  502 -0.61025474742E+03 -0.10373734333E+04 -0.83502873269E+03  0.14648648724E+04  0.12699999809E+01 0. -1.
</event>
<event>
 5   0  0.6706225E-06  0.2596710E+04  0.7818609E-02  0.8369320E-01
       -1   -1    0    0    0  501  0.00000000000E+00  0.00000000000E+00  0.59918675568E+03  0.59918675570E+03  0.50400001928E-02 0.  1.
        1   -1    0    0  501    0  0.00000000000E+00  0.00000000000E+00 -0.28133557109E+04  0.28133557109E+04  0.50400001928E-02 0. -1.
    10030    2    1    2    0    0  0.00000000000E+00  0.00000000000E+00 -0.22141689553E+04  0.34125424666E+04  0.25967098267E+04 0.  0.
        5    1    3    3  502    0 -0.53058276124E+03 -0.11330181959E+04 -0.65097696501E+03  0.14103337894E+04  0.46999998093E+01 0.  1.
       -5    1    3    3    0  502  0.53058276124E+03  0.11330181959E+04 -0.15631919903E+04  0.20022086772E+04  0.46999998093E+01 0. -1.
</event>
<event>
 5   0  0.1720129E-05  0.2604323E+04  0.7818609E-02  0.8366734E-01
       -2   -1    0    0    0  501  0.00000000000E+00  0.00000000000E+00  0.11152998172E+04  0.11152998172E+04  0.25500000920E-02 0. -1.
        2   -1    0    0  501    0  0.00000000000E+00  0.00000000000E+00 -0.15203301777E+04  0.15203301777E+04  0.25500000920E-02 0.  1.
    10030    2    1    2    0    0  0.00000000000E+00  0.00000000000E+00 -0.40503036052E+03  0.26356299948E+04  0.26043225370E+04 0.  0.
        3    1    3    3  502    0 -0.92118683355E+03 -0.91467422123E+03 -0.99260007266E+02  0.13019472618E+04  0.10100000352E+00 0.  1.
       -3    1    3    3    0  502  0.92118683355E+03  0.91467422123E+03 -0.30577035325E+03  0.13336827330E+04  0.10100000352E+00 0. -1.
</event>
<event>
 5   0  0.1681731E-05  0.2602589E+04  0.7818609E-02  0.8367322E-01
        2   -1    0    0  501    0  0.00000000000E+00  0.00000000000E+00  0.19409663590E+04  0.19409663590E+04  0.25500000920E-02 0. -1.
       -2   -1    0    0    0  501  0.00000000000E+00  0.00000000000E+00 -0.87243541873E+03  0.87243541873E+03  0.25500000920E-02 0.  1.
    10030    2    1    2    0    0  0.00000000000E+00  0.00000000000E+00  0.10685309403E+04  0.28134017778E+04  0.26025893247E+04 0.  0.
        2    1    3    3  502    0  0.38200973235E+02  0.12668963682E+04  0.21563213575E+03  0.12856838414E+04  0.25500000920E-02 0.  1.
       -2    1    3    3    0  502 -0.38200973235E+02 -0.12668963682E+04  0.85289880457E+03  0.15277179363E+04  0.25500000920E-02 0. -1.
</event>
<event>
 5   0  0.6984287E-06  0.2576732E+04  0.7818609E-02  0.8376148E-01
        1   -1    0    0  501    0  0.00000000000E+00  0.00000000000E+00  0.16176717065E+04  0.16176717065E+04  0.50400001928E-02 0.  1.
       -1   -1    0    0    0  501  0.00000000000E+00  0.00000000000E+00 -0.10260964097E+04  0.10260964097E+04  0.50400001928E-02 0. -1.
    10030    2    1    2    0    0  0.00000000000E+00  0.00000000000E+00  0.59157529684E+03  0.26437681162E+04  0.25767321398E+04 0.  0.
        3    1    3    3  502    0 -0.84082960611E+03  0.21449006715E+03  0.12728687282E+04  0.15405178431E+04  0.10100000352E+00 0.  1.
       -3    1    3    3    0  502  0.84082960611E+03 -0.21449006715E+03 -0.68129343133E+03  0.11032502731E+04  0.10100000352E+00 0. -1.
</event>
<event>
 5   0  0.1869956E-05  0.2589968E+04  0.7818609E-02  0.8371617E-01
        2   -1    0    0  501    0  0.00000000000E+00  0.00000000000E+00  0.15405689583E+04  0.15405689583E+04  0.25500000920E-02 0. -1.
       -2   -1    0    0    0  501  0.00000000000E+00  0.00000000000E+00 -0.10885479767E+04  0.10885479767E+04  0.25500000920E-02 0.  1.
    10030    2    1    2    0    0  0.00000000000E+00  0.00000000000E+00  0.45202098156E+03  0.26291169350E+04  0.25899677392E+04 0.  0.
        5    1    3    3  502    0  0.44069206911E+03 -0.12154864656E+04  0.30022013342E+03  0.13273172440E+04  0.46999998093E+01 0. -1.
       -5    1    3    3    0  502 -0.44069206911E+03  0.12154864656E+04  0.15180084814E+03  0.13017996909E+04  0.46999998093E+01 0.  1.
</event>
<event>
 5   0  0.1681731E-05  0.2614934E+04  0.7818609E-02  0.8363146E-01
        2   -1    0    0  501    0  0.00000000000E+00  0.00000000000E+00  0.12509053674E+04  0.12509053674E+04  0.25500000920E-02 0.  1.
       -2   -1    0    0    0  501  0.00000000000E+00  0.00000000000E+00 -0.13665860134E+04  0.13665860134E+04  0.25500000920E-02 0. -1.
    10030    2    1    2    0    0  0.00000000000E+00  0.00000000000E+00 -0.11568064604E+03  0.26174913808E+04  0.26149338647E+04 0.  0.
        2    1    3    3  502    0  0.38031732035E+03  0.11699641401E+04  0.38532559428E+03  0.12891598687E+04  0.25500000920E-02 0.  1.
       -2    1    3    3    0  502 -0.38031732035E+03 -0.11699641401E+04 -0.50100624032E+03  0.13283315122E+04  0.25500000920E-02 0. -1.
</event>
<event>
 5   0  0.6993678E-06  0.2266957E+04  0.7818609E-02  0.8491065E-01
        1   -1    0    0  501    0  0.00000000000E+00  0.00000000000E+00  0.14223075883E+04  0.14223075884E+04  0.50400001928E-02 0. -1.
       -1   -1    0    0    0  501  0.00000000000E+00  0.00000000000E+00 -0.90330218708E+03  0.90330218710E+03  0.50400001928E-02 0.  1.
    10030    2    1    2    0    0  0.00000000000E+00  0.00000000000E+00  0.51900540126E+03  0.23256097754E+04  0.22669570400E+04 0.  0.
        1    1    3    3  502    0 -0.13537592079E+03 -0.21848658543E+03  0.13920173684E+04  0.14155477321E+04  0.50400001928E-02 0. -1.
       -1    1    3    3    0  502  0.13537592079E+03  0.21848658543E+03 -0.87301196713E+03  0.91006204334E+03  0.50400001928E-02 0.  1.
</event>
<event>
 5   0  0.1869956E-05  0.2519635E+04  0.7818609E-02  0.8396024E-01
       -2   -1    0    0    0  501  0.00000000000E+00  0.00000000000E+00  0.14275579498E+04  0.14275579498E+04  0.25500000920E-02 0. -1.
        2   -1    0    0  501    0  0.00000000000E+00  0.00000000000E+00 -0.11117867350E+04  0.11117867350E+04  0.25500000920E-02 0.  1.
    10030    2    1    2    0    0  0.00000000000E+00  0.00000000000E+00  0.31577121481E+03  0.25393446847E+04  0.25196348878E+04 0.  0.
        5    1    3    3  502    0  0.23596362036E+03 -0.72037292498E+03  0.11719883792E+04  0.13957775010E+04  0.46999998093E+01 0. -1.
       -5    1    3    3    0  502 -0.23596362036E+03  0.72037292498E+03 -0.85621716440E+03  0.11435671838E+04  0.46999998093E+01 0.  1.
</event>
<event>
 5   0  0.1869956E-05  0.2588389E+04  0.7818609E-02  0.8372156E-01
       -2   -1    0    0    0  501  0.00000000000E+00  0.00000000000E+00  0.14959753022E+04  0.14959753022E+04  0.25500000920E-02 0. -1.
        2   -1    0    0  501    0  0.00000000000E+00  0.00000000000E+00 -0.11196305295E+04  0.11196305295E+04  0.25500000920E-02 0.  1.
    10030    2    1    2    0    0  0.00000000000E+00  0.00000000000E+00  0.37634477265E+03  0.26156058317E+04  0.25883891669E+04 0.  0.
        5    1    3    3  502    0  0.90227547979E+03 -0.91559516908E+03  0.33975627344E+03  0.13296134665E+04  0.46999998093E+01 0.  1.
       -5    1    3    3    0  502 -0.90227547979E+03  0.91559516908E+03  0.36588499213E+02  0.12859923652E+04  0.46999998093E+01 0. -1.
</event>
<event>
 5   0  0.1720129E-05  0.2573935E+04  0.7818609E-02  0.8377109E-01
        2   -1    0    0  501    0  0.00000000000E+00  0.00000000000E+00  0.12138499613E+04  0.12138499613E+04  0.25500000920E-02 0.  1.
       -2   -1    0    0    0  501  0.00000000000E+00  0.00000000000E+00 -0.13644890139E+04  0.13644890139E+04  0.25500000920E-02 0. -1.
    10030    2    1    2    0    0  0.00000000000E+00  0.00000000000E+00 -0.15063905261E+03  0.25783389753E+04  0.25739346820E+04 0.  0.
        3    1    3    3  502    0 -0.37472628869E+03 -0.12309559516E+04 -0.10011224047E+03  0.12906179981E+04  0.10100000352E+00 0. -1.
       -3    1    3    3    0  502  0.37472628869E+03  0.12309559516E+04 -0.50526812143E+02  0.12877209772E+04  0.10100000352E+00 0.  1.
</event>
<event>
 5   0  0.7138294E-06  0.2617775E+04  0.7818609E-02  0.8362188E-01
       -1   -1    0    0    0  501  0.00000000000E+00  0.00000000000E+00  0.10286060206E+04  0.10286060206E+04  0.50400001928E-02 0.  1.
        1   -1    0    0  501    0  0.00000000000E+00  0.00000000000E+00 -0.16655419856E+04  0.16655419856E+04  0.50400001928E-02 0. -1.
    10030    2    1    2    0    0  0.00000000000E+00  0.00000000000E+00 -0.63693596501E+03  0.26941480062E+04  0.26177750201E+04 0.  0.
        2    1    3    3  502    0 -0.63355224396E+03  0.71070546951E+03 -0.12428341259E+04  0.15656076695E+04  0.25500000920E-02 0. -1.
       -2    1    3    3    0  502  0.63355224396E+03 -0.71070546951E+03  0.60589816087E+03  0.11285403367E+04  0.25500000920E-02 0.  1.
</event>
<event>
 5   0  0.6706225E-06  0.2616010E+04  0.7818609E-02  0.8362783E-01
        1   -1    0    0  501    0  0.00000000000E+00  0.00000000000E+00  0.18017234789E+04  0.18017234789E+04  0.50400001928E-02 0. -1.
       -1   -1    0    0    0  501  0.00000000000E+00  0.00000000000E+00 -0.94957801923E+03  0.94957801925E+03  0.50400001928E-02 0.  1.
    10030    2    1    2    0    0  0.00000000000E+00  0.00000000000E+00  0.85214545970E+03  0.27513014982E+04  0.26160099483E+04 0.  0.
        5    1    3    3  502    0  0.18372687736E+03 -0.12345287447E+04  0.83750525997E+03  0.15030814806E+04  0.46999998093E+01 0. -1.
       -5    1    3    3    0  502 -0.18372687736E+03  0.12345287447E+04  0.14640199732E+02  0.12482200176E+04  0.46999998093E+01 0.  1.
</event>
<event>
 5   0  0.1681731E-05  0.2648052E+04  0.7818609E-02  0.8352060E-01
       -2   -1    0    0    0  501  0.00000000000E+00  0.00000000000E+00  0.98478236684E+03  0.98478236684E+03  0.25500000920E-02 0. -1.
        2   -1    0    0  501    0  0.00000000000E+00  0.00000000000E+00 -0.17801344224E+04  0.17801344224E+04  0.25500000920E-02 0.  1.
    10030    2    1    2    0    0  0.00000000000E+00  0.00000000000E+00 -0.79535205552E+03  0.27649167892E+04  0.26480521065E+04 0.  0.
        2    1    3    3  502    0 -0.59804818077E+03 -0.11557949434E+04 -0.14293895636E+03  0.13091810887E+04  0.25500000920E-02 0. -1.
       -2    1    3    3    0  502  0.59804818077E+03  0.11557949434E+04 -0.65241309916E+03  0.14557357005E+04  0.25500000920E-02 0.  1.
</event>
<event>
 5   0  0.1702345E-05  0.2629036E+04  0.7818609E-02  0.8358405E-01
        2   -1    0    0  501    0  0.00000000000E+00  0.00000000000E+00  0.15838802766E+04  0.15838802766E+04  0.25500000920E-02 0.  1.
       -2   -1    0    0    0  501  0.00000000000E+00  0.00000000000E+00 -0.10909650111E+04  0.10909650111E+04  0.25500000920E-02 0. -1.
    10030    2    1    2    0    0  0.00000000000E+00  0.00000000000E+00  0.49291526547E+03  0.26748452877E+04  0.26290362977E+04 0.  0.
        1    1    3    3  502    0  0.55040163586E+03 -0.93253820818E+03  0.10046868654E+04  0.14771476460E+04  0.50400001928E-02 0.  1.
       -1    1    3    3    0  502 -0.55040163586E+03  0.93253820818E+03 -0.51177159995E+03  0.11976976417E+04  0.50400001928E-02 0. -1.
</event>
<event>
 5   0  0.6918420E-06  0.2450389E+04  0.7818609E-02  0.8420876E-01
        1   -1    0    0  501    0  0.00000000000E+00  0.00000000000E+00  0.14923816693E+04  0.14923816693E+04  0.50400001928E-02 0.  1.
       -1   -1    0    0    0  501  0.00000000000E+00  0.00000000000E+00 -0.10058431086E+04  0.10058431087E+04  0.50400001928E-02 0. -1.
    10030    2    1    2    0    0  0.00000000000E+00  0.00000000000E+00  0.48653856063E+03  0.24982247780E+04  0.24503892079E+04 0.  0.
        4    1    3    3  502    0  0.13835897219E+03 -0.57639976388E+03 -0.84991289653E+03  0.10362110970E+04  0.12699999809E+01 0. -1.
       -4    1    3    3    0  502 -0.13835897219E+03  0.57639976388E+03  0.13364514572E+04  0.14620136809E+04  0.12699999809E+01 0.  1.
</event>
<event>
 5   0  0.6984287E-06  0.2628266E+04  0.7818609E-02  0.8358663E-01
       -1   -1    0    0    0  501  0.00000000000E+00  0.00000000000E+00  0.14945646953E+04  0.14945646953E+04  0.50400001928E-02 0. -1.
        1   -1    0    0  501    0  0.00000000000E+00  0.00000000000E+00 -0.11554837148E+04  0.11554837149E+04  0.50400001928E-02 0.  1.
    10030    2    1    2    0    0  0.00000000000E+00  0.00000000000E+00  0.33908098048E+03  0.26500484102E+04  0.26282657143E+04 0.  0.
        3    1    3    3  502    0  0.97284767270E+03  0.85507144401E+03 -0.54484162428E+02  0.12963596348E+04  0.10100000352E+00 0.  1.
       -3    1    3    3    0  502 -0.97284767270E+03 -0.85507144401E+03  0.39356514291E+03  0.13536887754E+04  0.10100000352E+00 0. -1.
</event>
<event>
 5   0  0.1681731E-05  0.2596542E+04  0.7818609E-02  0.8369377E-01
        2   -1    0    0  501    0  0.00000000000E+00  0.00000000000E+00  0.16224741799E+04  0.16224741799E+04  0.25500000920E-02 0.  1.
       -2   -1    0    0    0  501  0.00000000000E+00  0.00000000000E+00 -0.10388499495E+04  0.10388499495E+04  0.25500000920E-02 0. -1.
    10030    2    1    2    0    0  0.00000000000E+00  0.00000000000E+00  0.58362423045E+03  0.26613241294E+04  0.25965417153E+04 0.  0.
        2    1    3    3  502    0  0.11008215945E+04  0.37633743157E+03 -0.29881957963E+03  0.12011374553E+04  0.25500000920E-02 0. -1.
       -2    1    3    3    0  502 -0.11008215945E+04 -0.37633743157E+03  0.88244381007E+03  0.14601866741E+04  0.25500000920E-02 0.  1.
</event>
<event>
 5   0  0.6993678E-06  0.2525330E+04  0.7818609E-02  0.8394017E-01
        1   -1    0    0  501    0  0.00000000000E+00  0.00000000000E+00  0.16508438740E+04  0.16508438740E+04  0.50400001928E-02 0. -1.
       -1   -1    0    0    0  501  0.00000000000E+00  0.00000000000E+00 -0.96576226875E+03  0.96576226876E+03  0.50400001928E-02 0.  1.
    10030    2    1    2    0    0  0.00000000000E+00  0.00000000000E+00  0.68508160522E+03  0.26166061427E+04  0.25253298597E+04 0.  0.
        1    1    3    3  502    0  0.57046710450E+03 -0.81684275902E+02  0.15066329870E+04  0.16130864812E+04  0.50400001928E-02 0. -1.
       -1    1    3    3    0  502 -0.57046710450E+03  0.81684275902E+02 -0.82155138177E+03  0.10035196616E+04  0.50400001928E-02 0.  1.
</event>
<event>
 5   0  0.6993678E-06  0.2600507E+04  0.7818609E-02  0.8368029E-01
       -1   -1    0    0    0  501  0.00000000000E+00  0.00000000000E+00  0.15940606256E+04  0.15940606257E+04  0.50400001928E-02 0.  1.
        1   -1    0    0  501    0  0.00000000000E+00  0.00000000000E+00 -0.10605989758E+04  0.10605989758E+04  0.50400001928E-02 0. -1.
    10030    2    1    2    0    0  0.00000000000E+00  0.00000000000E+00  0.53346164989E+03  0.26546596014E+04  0.26005069251E+04 0.  0.
        1    1    3    3  502    0 -0.48771144564E+03 -0.27331097324E+03  0.14651005645E+04  0.15681457223E+04  0.50400001928E-02 0.  1.
       -1    1    3    3    0  502  0.48771144564E+03  0.27331097324E+03 -0.93163891459E+03  0.10865138791E+04  0.50400001928E-02 0. -1.
</event>
<event>
 5   0  0.7138294E-06  0.2843573E+04  0.7818609E-02  0.8289867E-01
       -1   -1    0    0    0  501  0.00000000000E+00  0.00000000000E+00  0.96109509824E+03  0.96109509825E+03  0.50400001928E-02 0. -1.
        1   -1    0    0  501    0  0.00000000000E+00  0.00000000000E+00 -0.21033057648E+04  0.21033057648E+04  0.50400001928E-02 0.  1.
    10030    2    1    2    0    0  0.00000000000E+00  0.00000000000E+00 -0.11422106666E+04  0.30644008631E+04  0.28435730064E+04 0.  0.
        2    1    3    3  502    0 -0.11699645138E+04  0.16522695239E+03 -0.14233145478E+04  0.18498489698E+04  0.25500000920E-02 0.  1.
       -2    1    3    3    0  502  0.11699645138E+04 -0.16522695239E+03  0.28110388121E+03  0.12145518932E+04  0.25500000920E-02 0. -1.
</event>
<event>
 5   0  0.1677971E-05  0.2616622E+04  0.7818609E-02  0.8362577E-01
       -2   -1    0    0    0  501  0.00000000000E+00  0.00000000000E+00  0.75377454364E+03  0.75377454365E+03  0.25500000920E-02 0. -1.
        2   -1    0    0  501    0  0.00000000000E+00  0.00000000000E+00 -0.22708090912E+04  0.22708090912E+04  0.25500000920E-02 0.  1.
    10030    2    1    2    0    0  0.00000000000E+00  0.00000000000E+00 -0.15170345475E+04  0.30245836348E+04  0.26166223162E+04 0.  0.
        4    1    3    3  502    0  0.12295878994E+04 -0.16237473722E+03 -0.27714640734E+03  0.12708515656E+04  0.12699999809E+01 0. -1.
       -4    1    3    3    0  502 -0.12295878994E+04  0.16237473722E+03 -0.12398881402E+04  0.17537320693E+04  0.12699999809E+01 0.  1.
</event>
<event>
 5   0  0.5840500E-06  0.2336269E+04  0.7818609E-02  0.8463757E-01
       -4   -1    0    0    0  501  0.00000000000E+00  0.00000000000E+00  0.81611706665E+03  0.81611805481E+03  0.12699999809E+01 0. -1.
        4   -1    0    0  501    0  0.00000000000E+00  0.00000000000E+00 -0.16719855227E+04  0.16719860051E+04  0.12699999809E+01 0.  1.
    10030    2    1    2    0    0  0.00000000000E+00  0.00000000000E+00 -0.85586845609E+03  0.24881040599E+04  0.23362686058E+04 0.  0.
        1    1    3    3  502    0 -0.28295161070E+03 -0.99689198165E+03 -0.10021236924E+04  0.14415641269E+04  0.50400001928E-02 0. -1.
       -1    1    3    3    0  502  0.28295161070E+03  0.99689198165E+03  0.14625523635E+03  0.10465399330E+04  0.50400001928E-02 0.  1.
</event>
<event>
 5   0  0.1677971E-05  0.2608991E+04  0.7818609E-02  0.8365154E-01
        2   -1    0    0  501    0  0.00000000000E+00  0.00000000000E+00  0.15790235633E+04  0.15790235633E+04  0.25500000920E-02 0. -1.
       -2   -1    0    0    0  501  0.00000000000E+00  0.00000000000E+00 -0.10776968304E+04  0.10776968304E+04  0.25500000920E-02 0.  1.
    10030    2    1    2    0    0  0.00000000000E+00  0.00000000000E+00  0.50132673286E+03  0.26567203937E+04  0.26089911378E+04 0.  0.
        4    1    3    3  502    0 -0.25251711896E+03 -0.16766293844E+03  0.15426660982E+04  0.15721628604E+04  0.12699999809E+01 0. -1.
       -4    1    3    3    0  502  0.25251711896E+03  0.16766293844E+03 -0.10413393653E+04  0.10845575333E+04  0.12699999809E+01 0.  1.
</event>
<event>
 5   0  0.1702345E-05  0.2613040E+04  0.7818609E-02  0.8363785E-01
       -2   -1    0    0    0  501  0.00000000000E+00  0.00000000000E+00  0.52252399680E+03  0.52252399680E+03  0.25500000920E-02 0.  1.
        2   -1    0    0  501    0  0.00000000000E+00  0.00000000000E+00 -0.32668242744E+04  0.32668242744E+04  0.25500000920E-02 0. -1.
    10030    2    1    2    0    0  0.00000000000E+00  0.00000000000E+00 -0.27443002776E+04  0.37893482712E+04  0.26130396681E+04 0.  0.
        1    1    3    3  502    0 -0.79463515335E+03 -0.10369114565E+04 -0.13444948041E+04  0.18746457462E+04  0.50400001928E-02 0. -1.
       -1    1    3    3    0  502  0.79463515335E+03  0.10369114565E+04 -0.13998054735E+04  0.19147025250E+04  0.50400001928E-02 0.  1.
</event>
<event>
 5   0  0.1869956E-05  0.2638179E+04  0.7818609E-02  0.8355347E-01
       -2   -1    0    0    0  501  0.00000000000E+00  0.00000000000E+00  0.78200660308E+03  0.78200660308E+03  0.25500000920E-02 0.  1.
        2   -1    0    0  501    0  0.00000000000E+00  0.00000000000E+00 -0.22250421035E+04  0.22250421035E+04  0.25500000920E-02 0. -1.
    10030    2    1    2    0    0  0.00000000000E+00  0.00000000000E+00 -0.14430355004E+04  0.30070487066E+04  0.26381793851E+04 0.  0.
        5    1    3    3  502    0 -0.11684738763E+04 -0.26467555612E+02 -0.24507273009E+02  0.11690399598E+04  0.46999998093E+01 0.  1.
       -5    1    3    3    0  502  0.11684738763E+04  0.26467555612E+02 -0.14185282274E+04  0.18380087467E+04  0.46999998093E+01 0. -1.
</event>
<event>
 5   0  0.1720129E-05  0.2592060E+04  0.7818609E-02  0.8370903E-01
        2   -1    0    0  501    0  0.00000000000E+00  0.00000000000E+00  0.14904232031E+04  0.14904232031E+04  0.25500000920E-02 0.  1.
       -2   -1    0    0    0  501  0.00000000000E+00  0.00000000000E+00 -0.11269910940E+04  0.11269910940E+04  0.25500000920E-02 0. -1.
    10030    2    1    2    0    0  0.00000000000E+00  0.00000000000E+00  0.36343210909E+03  0.26174142972E+04  0.25920599347E+04 0.  0.
        3    1    3    3  502    0  0.35062620198E+03 -0.96854931616E+03 -0.61253163652E+03  0.11984246023E+04  0.10100000352E+00 0. -1.
       -3    1    3    3    0  502 -0.35062620198E+03  0.96854931616E+03  0.97596374561E+03  0.14189896949E+04  0.10100000352E+00 0.  1.
</event>
<event>
 5   0  0.1677971E-05  0.2584220E+04  0.7818609E-02  0.8373581E-01
        2   -1    0    0  501    0  0.00000000000E+00  0.00000000000E+00  0.27530767079E+04  0.27530767079E+04  0.25500000920E-02 0. -1.
       -2   -1    0    0    0  501  0.00000000000E+00  0.00000000000E+00 -0.60642998607E+03  0.60642998608E+03  0.25500000920E-02 0.  1.
    10030    2    1    2    0    0  0.00000000000E+00  0.00000000000E+00  0.21466467218E+04  0.33595066940E+04  0.25842200136E+04 0.  0.
        4    1    3    3  502    0 -0.42670080535E+02  0.28448635704E+03 -0.56427057909E+03  0.63336886760E+03  0.12699999809E+01 0.  1.
       -4    1    3    3    0  502  0.42670080535E+02 -0.28448635704E+03  0.27109173009E+04  0.27261378264E+04  0.12699999809E+01 0. -1.
</event>
<event>
 5   0  0.6984287E-06  0.2605667E+04  0.7818609E-02  0.8366279E-01
        1   -1    0    0  501    0  0.00000000000E+00  0.00000000000E+00  0.11459050239E+04  0.11459050239E+04  0.50400001928E-02 0.  1.
       -1   -1    0    0    0  501  0.00000000000E+00  0.00000000000E+00 -0.14812530028E+04  0.14812530028E+04  0.50400001928E-02 0. -1.
    10030    2    1    2    0    0  0.00000000000E+00  0.00000000000E+00 -0.33534797894E+03  0.26271580267E+04  0.26056670989E+04 0.  0.
        3    1    3    3  502    0 -0.66434001547E+03  0.10966802267E+04 -0.40048988559E+03  0.13432971877E+04  0.10100000352E+00 0.  1.
       -3    1    3    3    0  502  0.66434001547E+03 -0.10966802267E+04  0.65141906650E+02  0.12838608390E+04  0.10100000352E+00 0. -1.
</event>
<event>
 5   0  0.7138294E-06  0.2618099E+04  0.7818609E-02  0.8362079E-01
        1   -1    0    0  501    0  0.00000000000E+00  0.00000000000E+00  0.18417093290E+04  0.18417093290E+04  0.50400001928E-02 0. -1.
       -1   -1    0    0    0  501  0.00000000000E+00  0.00000000000E+00 -0.93044587736E+03  0.93044587737E+03  0.50400001928E-02 0.  1.
    10030    2    1    2    0    0  0.00000000000E+00  0.00000000000E+00  0.91126345160E+03  0.27721552063E+04  0.26180991979E+04 0.  0.
        2    1    3    3  502    0  0.13016141736E+04  0.20574772626E+02  0.60153730653E+03  0.14340397168E+04  0.25500000920E-02 0. -1.
       -2    1    3    3    0  502 -0.13016141736E+04 -0.20574772626E+02  0.30972614507E+03  0.13381154895E+04  0.25500000920E-02 0.  1.
</event>
<event>
 5   0  0.6706225E-06  0.2590713E+04  0.7818609E-02  0.8371363E-01
       -1   -1    0    0    0  501  0.00000000000E+00  0.00000000000E+00  0.75940572504E+03  0.75940572505E+03  0.50400001928E-02 0. -1.
        1   -1    0    0  501    0  0.00000000000E+00  0.00000000000E+00 -0.22095541640E+04  0.22095541640E+04  0.50400001928E-02 0.  1.
    10030    2    1    2    0    0  0.00000000000E+00  0.00000000000E+00 -0.14501484390E+04  0.29689598891E+04  0.25907127065E+04 0.  0.
        5    1    3    3  502    0 -0.44014649990E+03  0.82032588995E+03 -0.17572787759E+04  0.19886463469E+04  0.46999998093E+01 0.  1.
       -5    1    3    3    0  502  0.44014649990E+03 -0.82032588995E+03  0.30713033687E+03  0.98031354215E+03  0.46999998093E+01 0. -1.
</event>
<event>
 5   0  0.1677971E-05  0.2558260E+04  0.7818609E-02  0.8382519E-01
        2   -1    0    0  501    0  0.00000000000E+00  0.00000000000E+00  0.14430667660E+04  0.14430667660E+04  0.25500000920E-02 0. -1.
       -2   -1    0    0    0  501  0.00000000000E+00  0.00000000000E+00 -0.11338171462E+04  0.11338171462E+04  0.25500000920E-02 0.  1.
    10030    2    1    2    0    0  0.00000000000E+00  0.00000000000E+00  0.30924961979E+03  0.25768839122E+04  0.25582602232E+04 0.  0.
        4    1    3    3  502    0 -0.26204056617E+03 -0.11010125647E+04 -0.44576661267E+03  0.12163894984E+04  0.12699999809E+01 0.  1.
       -4    1    3    3    0  502  0.26204056617E+03  0.11010125647E+04  0.75501623246E+03  0.13604944138E+04  0.12699999809E+01 0. -1.
</event>
<event>
 5   0  0.6993678E-06  0.2615332E+04  0.7818609E-02  0.8363012E-01
        1   -1    0    0  501    0  0.00000000000E+00  0.00000000000E+00  0.20547673866E+04  0.20547673866E+04  0.50400001928E-02 0. -1.
       -1   -1    0    0    0  501  0.00000000000E+00  0.00000000000E+00 -0.83220606107E+03  0.83220606108E+03  0.50400001928E-02 0.  1.
    10030    2    1    2    0    0  0.00000000000E+00  0.00000000000E+00  0.12225613255E+04  0.28869734477E+04  0.26153316220E+04 0.  0.
        1    1    3    3  502    0  0.12791491507E+04  0.27120848264E+03  0.59515960187E+03  0.14366598562E+04  0.50400001928E-02 0.  1.
       -1    1    3    3    0  502 -0.12791491507E+04 -0.27120848264E+03  0.62740172363E+03  0.14503135915E+04  0.50400001928E-02 0. -1.
</event>
<event>
 5   0  0.6706225E-06  0.2595976E+04  0.7818609E-02  0.8369569E-01
        1   -1    0    0  501    0  0.00000000000E+00  0.00000000000E+00  0.20716392319E+04  0.20716392319E+04  0.50400001928E-02 0. -1.
       -1   -1    0    0    0  501  0.00000000000E+00  0.00000000000E+00 -0.81325601697E+03  0.81325601699E+03  0.50400001928E-02 0.  1.
    10030    2    1    2    0    0  0.00000000000E+00  0.00000000000E+00  0.12583832149E+04  0.28848952489E+04  0.25959761712E+04 0.  0.
        5    1    3    3  502    0 -0.11145636312E+04  0.11862422366E+03  0.13565824972E+04  0.17597334901E+04  0.46999998093E+01 0. -1.
       -5    1    3    3    0  502  0.11145636312E+04 -0.11862422366E+03 -0.98199282288E+02  0.11251617588E+04  0.46999998093E+01 0.  1.
</event>
<event>
 5   0  0.6993678E-06  0.2637942E+04  0.7818609E-02  0.8355426E-01
        1   -1    0    0  501    0  0.00000000000E+00  0.00000000000E+00  0.10279900433E+04  0.10279900433E+04  0.50400001928E-02 0. -1.
       -1   -1    0    0    0  501  0.00000000000E+00  0.00000000000E+00 -0.16923164570E+04  0.16923164570E+04  0.50400001928E-02 0.  1.
    10030    2    1    2    0    0  0.00000000000E+00  0.00000000000E+00 -0.66432641373E+03  0.27203065004E+04  0.26379419766E+04 0.  0.
        1    1    3    3  502    0 -0.60213038193E+03 -0.64934582017E+03 -0.13401664248E+04  0.16063178506E+04  0.50400001928E-02 0.  1.
       -1    1    3    3    0  502  0.60213038193E+03  0.64934582017E+03  0.67584001112E+03  0.11139886497E+04  0.50400001928E-02 0. -1.
</event>
<event>
 5   0  0.7138294E-06  0.2562857E+04  0.7818609E-02  0.8380928E-01
       -1   -1    0    0    0  501  0.00000000000E+00  0.00000000000E+00  0.72784586254E+03  0.72784586256E+03  0.50400001928E-02 0.  1.
        1   -1    0    0  501    0  0.00000000000E+00  0.00000000000E+00 -0.22560533135E+04  0.22560533135E+04  0.50400001928E-02 0. -1.
    10030    2    1    2    0    0  0.00000000000E+00  0.00000000000E+00 -0.15282074510E+04  0.29838991761E+04  0.25628570541E+04 0.  0.
        2    1    3    3  502    0  0.52596818611E+03  0.50930951929E+03  0.46034701979E+03  0.86484570756E+03  0.25500000920E-02 0.  1.
       -2    1    3    3    0  502 -0.52596818611E+03 -0.50930951929E+03 -0.19885544708E+04  0.21190534685E+04  0.25500000920E-02 0. -1.
</event>
<event>
 5   0  0.1869956E-05  0.2604381E+04  0.7818609E-02  0.8366715E-01
       -2   -1    0    0    0  501  0.00000000000E+00  0.00000000000E+00  0.14855755351E+04  0.14855755351E+04  0.25500000920E-02 0.  1.
        2   -1    0    0  501    0  0.00000000000E+00  0.00000000000E+00 -0.11414432961E+04  0.11414432961E+04  0.25500000920E-02 0. -1.
    10030    2    1    2    0    0  0.00000000000E+00  0.00000000000E+00  0.34413223899E+03  0.26270188312E+04  0.26043811053E+04 0.  0.
        5    1    3    3  502    0  0.10410793894E+04 -0.61320854483E+03 -0.31775456089E+03  0.12493442541E+04  0.46999998093E+01 0.  1.
       -5    1    3    3    0  502 -0.10410793894E+04  0.61320854483E+03  0.66188679988E+03  0.13776745770E+04  0.46999998093E+01 0. -1.
</event>
<event>
 5   0  0.1677971E-05  0.2588910E+04  0.7818609E-02  0.8371978E-01
        2   -1    0    0  501    0  0.00000000000E+00  0.00000000000E+00  0.19943850924E+04  0.19943850924E+04  0.25500000920E-02 0. -1.
       -2   -1    0    0    0  501  0.00000000000E+00  0.00000000000E+00 -0.84016587615E+03  0.84016587615E+03  0.25500000920E-02 0.  1.
    10030    2    1    2    0    0  0.00000000000E+00  0.00000000000E+00  0.11542192162E+04  0.28345509685E+04  0.25889104261E+04 0.  0.
        4    1    3    3  502    0  0.33630107680E+03 -0.11540957291E+04  0.11028550778E+04  0.16313571962E+04  0.12699999809E+01 0. -1.
       -4    1    3    3    0  502 -0.33630107680E+03  0.11540957291E+04  0.51364138453E+02  0.12031937723E+04  0.12699999809E+01 0.  1.
</event>
<event>
 5   0  0.6984287E-06  0.2614023E+04  0.7818609E-02  0.8363453E-01
        1   -1    0    0  501    0  0.00000000000E+00  0.00000000000E+00  0.18376305568E+04  0.18376305568E+04  0.50400001928E-02 0. -1.
       -1   -1    0    0    0  501  0.00000000000E+00  0.00000000000E+00 -0.92960988102E+03  0.92960988103E+03  0.50400001928E-02 0.  1.
    10030    2    1    2    0    0  0.00000000000E+00  0.00000000000E+00  0.90802067580E+03  0.27672404379E+04  0.26140233536E+04 0.  0.
        3    1    3    3  502    0 -0.10016516981E+04  0.83961881513E+03  0.45791919407E+03  0.13849028405E+04  0.10100000352E+00 0. -1.
       -3    1    3    3    0  502  0.10016516981E+04 -0.83961881513E+03  0.45010148173E+03  0.13823375974E+04  0.10100000352E+00 0.  1.
</event>
<event>
 5   0  0.7138294E-06  0.2606576E+04  0.7818609E-02  0.8365971E-01
        1   -1    0    0  501    0  0.00000000000E+00  0.00000000000E+00  0.13666388835E+04  0.13666388835E+04  0.50400001928E-02 0.  1.
       -1   -1    0    0    0  501  0.00000000000E+00  0.00000000000E+00 -0.12428740756E+04  0.12428740756E+04  0.50400001928E-02 0. -1.
    10030    2    1    2    0    0  0.00000000000E+00  0.00000000000E+00  0.12376480790E+03  0.26095129591E+04  0.26065763285E+04 0.  0.
        2    1    3    3  502    0 -0.82583170689E+02 -0.10302779009E+04  0.85667071185E+03  0.13424519514E+04  0.25500000920E-02 0.  1.
       -2    1    3    3    0  502  0.82583170689E+02  0.10302779009E+04 -0.73290590395E+03  0.12670610077E+04  0.25500000920E-02 0. -1.
</event>
<event>
 5   0  0.1677971E-05  0.2621662E+04  0.7818609E-02  0.8360880E-01
        2   -1    0    0  501    0  0.00000000000E+00  0.00000000000E+00  0.79140910767E+03  0.79140910768E+03  0.25500000920E-02 0. -1.
       -2   -1    0    0    0  501  0.00000000000E+00  0.00000000000E+00 -0.21711633293E+04  0.21711633293E+04  0.25500000920E-02 0.  1.
    10030    2    1    2    0    0  0.00000000000E+00  0.00000000000E+00 -0.13797542216E+04  0.29625724370E+04  0.26216623986E+04 0.  0.
        4    1    3    3  502    0  0.91999888435E+03  0.84035517106E+03 -0.11498475849E+04  0.16955075471E+04  0.12699999809E+01 0.  1.
       -4    1    3    3    0  502 -0.91999888435E+03 -0.84035517106E+03 -0.22990663671E+03  0.12670648899E+04  0.12699999809E+01 0. -1.
</event>
<event>
 5   0  0.6993678E-06  0.2597860E+04  0.7818609E-02  0.8368929E-01
       -1   -1    0    0    0  501  0.00000000000E+00  0.00000000000E+00  0.14961796343E+04  0.14961796343E+04  0.50400001928E-02 0. -1.
        1   -1    0    0  501    0  0.00000000000E+00  0.00000000000E+00 -0.11276845286E+04  0.11276845286E+04  0.50400001928E-02 0.  1.
    10030    2    1    2    0    0  0.00000000000E+00  0.00000000000E+00  0.36849510575E+03  0.26238641629E+04  0.25978596002E+04 0.  0.
        1    1    3    3  502    0  0.13738044708E+03  0.56199526150E+03  0.13588620660E+04  0.14768947748E+04  0.50400001928E-02 0. -1.
       -1    1    3    3    0  502 -0.13738044708E+03 -0.56199526150E+03 -0.99036696029E+03  0.11469693881E+04  0.50400001928E-02 0.  1.
</event>
<event>
 5   0  0.1677971E-05  0.2600650E+04  0.7818609E-02  0.8367980E-01
        2   -1    0    0  501    0  0.00000000000E+00  0.00000000000E+00  0.23011705354E+04  0.23011705354E+04  0.25500000920E-02 0. -1.
       -2   -1    0    0    0  501  0.00000000000E+00  0.00000000000E+00 -0.73477635244E+03  0.73477635245E+03  0.25500000920E-02 0.  1.
    10030    2    1    2    0    0  0.00000000000E+00  0.00000000000E+00  0.15663941830E+04  0.30359468879E+04  0.26006504512E+04 0.  0.
        4    1    3    3  502    0  0.72759043451E+03  0.78793608296E+03 -0.75135129562E+02  0.10751176735E+04  0.12699999809E+01 0.  1.
       -4    1    3    3    0  502 -0.72759043451E+03 -0.78793608296E+03  0.16415293126E+04  0.19608292144E+04  0.12699999809E+01 0. -1.
</event>
<event>
 5   0  0.6993678E-06  0.2607390E+04  0.7818609E-02  0.8365695E-01
        1   -1    0    0  501    0  0.00000000000E+00  0.00000000000E+00  0.10727109261E+04  0.10727109261E+04  0.50400001928E-02 0. -1.
       -1   -1    0    0    0  501  0.00000000000E+00  0.00000000000E+00 -0.15844164275E+04  0.15844164275E+04  0.50400001928E-02 0.  1.
    10030    2    1    2    0    0  0.00000000000E+00  0.00000000000E+00 -0.51170550143E+03  0.26571273536E+04  0.26073901229E+04 0.  0.
        1    1    3    3  502    0  0.44283996714E+02 -0.12654430302E+04 -0.57211717244E+03  0.13894693930E+04  0.50400001928E-02 0.  1.
       -1    1    3    3    0  502 -0.44283996714E+02  0.12654430302E+04  0.60411671019E+02  0.12676579606E+04  0.50400001928E-02 0. -1.
</event>
<event>
 5   0  0.6993678E-06  0.2581912E+04  0.7818609E-02  0.8374371E-01
       -1   -1    0    0    0  501  0.00000000000E+00  0.00000000000E+00  0.71720714412E+03  0.71720714413E+03  0.50400001928E-02 0. -1.
        1   -1    0    0  501    0  0.00000000000E+00  0.00000000000E+00 -0.23236897234E+04  0.23236897234E+04  0.50400001928E-02 0.  1.
    10030    2    1    2    0    0  0.00000000000E+00  0.00000000000E+00 -0.16064825793E+04  0.30408968675E+04  0.25819115944E+04 0.  0.
        1    1    3    3  502    0 -0.90902799406E+03 -0.37786889045E+03  0.18035501182E+03  0.10008220235E+04  0.50400001928E-02 0. -1.
       -1    1    3    3    0  502  0.90902799406E+03  0.37786889045E+03 -0.17868375911E+04  0.20400748440E+04  0.50400001928E-02 0.  1.
</event>
<event>
 5   0  0.1720129E-05  0.2691387E+04  0.7818609E-02  0.8337805E-01
        2   -1    0    0  501    0  0.00000000000E+00  0.00000000000E+00  0.16129609756E+04  0.16129609756E+04  0.25500000920E-02 0. -1.
       -2   -1    0    0    0  501  0.00000000000E+00  0.00000000000E+00 -0.11227120790E+04  0.11227120791E+04  0.25500000920E-02 0.  1.
    10030    2    1    2    0    0  0.00000000000E+00  0.00000000000E+00  0.49024889655E+03  0.27356730547E+04  0.26913868324E+04 0.  0.
        3    1    3    3  502    0  0.77600112806E+03 -0.17685563190E+03  0.13480763090E+04  0.15654920665E+04  0.10100000352E+00 0. -1.
       -3    1    3    3    0  502 -0.77600112806E+03  0.17685563190E+03 -0.85782741243E+03  0.11701809881E+04  0.10100000352E+00 0.  1.
</event>
<event>
 5   0  0.6706225E-06  0.2612513E+04  0.7818609E-02  0.8363963E-01
        1   -1    0    0  501    0  0.00000000000E+00  0.00000000000E+00  0.95438537484E+03  0.95438537485E+03  0.50400001928E-02 0.  1.
       -1   -1    0    0    0  501  0.00000000000E+00  0.00000000000E+00 -0.17878584027E+04  0.17878584027E+04  0.50400001928E-02 0. -1.
    10030    2    1    2    0    0  0.00000000000E+00  0.00000000000E+00 -0.83347302789E+03  0.27422437776E+04  0.26125128990E+04 0.  0.
        5    1    3    3  502    0 -0.95726873210E+03 -0.65315213479E+03 -0.10494220370E+04  0.15634192779E+04  0.46999998093E+01 0. -1.
       -5    1    3    3    0  502  0.95726873210E+03  0.65315213479E+03  0.21594900909E+03  0.11788244997E+04  0.46999998093E+01 0.  1.
</event>
<event>
 5   0  0.1720129E-05  0.2595874E+04  0.7818609E-02  0.8369604E-01
        2   -1    0    0  501    0  0.00000000000E+00  0.00000000000E+00  0.15559823478E+04  0.15559823478E+04  0.25500000920E-02 0. -1.
       -2   -1    0    0    0  501  0.00000000000E+00  0.00000000000E+00 -0.10826861807E+04  0.10826861807E+04  0.25500000920E-02 0.  1.
    10030    2    1    2    0    0  0.00000000000E+00  0.00000000000E+00  0.47329616708E+03  0.26386685284E+04  0.25958740996E+04 0.  0.
        3    1    3    3  502    0  0.33872369842E+03 -0.75074006054E+03 -0.78303244616E+03  0.11364348659E+04  0.10100000352E+00 0.  1.
       -3    1    3    3    0  502 -0.33872369842E+03  0.75074006054E+03  0.12563286132E+04  0.15022336626E+04  0.10100000352E+00 0. -1.
</event>
<event>
 5   0  0.1677971E-05  0.2554554E+04  0.7818609E-02  0.8383804E-01
       -2   -1    0    0    0  501  0.00000000000E+00  0.00000000000E+00  0.65326566290E+03  0.65326566290E+03  0.25500000920E-02 0. -1.
        2   -1    0    0  501    0  0.00000000000E+00  0.00000000000E+00 -0.24973558019E+04  0.24973558019E+04  0.25500000920E-02 0.  1.
    10030    2    1    2    0    0  0.00000000000E+00  0.00000000000E+00 -0.18440901390E+04  0.31506214648E+04  0.25545542025E+04 0.  0.
        4    1    3    3  502    0  0.18308431631E+03 -0.99685513516E+03 -0.18807163652E+04  0.21364305949E+04  0.12699999809E+01 0.  1.
       -4    1    3    3    0  502 -0.18308431631E+03  0.99685513516E+03  0.36626226181E+02  0.10141908700E+04  0.12699999809E+01 0. -1.
</event>
<event>
 5   0  0.1720129E-05  0.2102388E+04  0.7818609E-02  0.8560192E-01
        2   -1    0    0  501    0  0.00000000000E+00  0.00000000000E+00  0.18076170701E+04  0.18076170701E+04  0.25500000920E-02 0.  1.
       -2   -1    0    0    0  501  0.00000000000E+00  0.00000000000E+00 -0.61130705912E+03  0.61130705912E+03  0.25500000920E-02 0. -1.
    10030    2    1    2    0    0  0.00000000000E+00  0.00000000000E+00  0.11963100110E+04  0.24189241292E+04  0.21023882373E+04 0.  0.
        3    1    3    3  502    0  0.32369301773E+03  0.69193382268E+03 -0.23268923259E+03  0.79855737042E+03  0.10100000352E+00 0.  1.
       -3    1    3    3    0  502 -0.32369301773E+03 -0.69193382268E+03  0.14289992436E+04  0.16203667588E+04  0.10100000352E+00 0. -1.
</event>
<event>
 5   0  0.1702345E-05  0.2601191E+04  0.7818609E-02  0.8367797E-01
        2   -1    0    0  501    0  0.00000000000E+00  0.00000000000E+00  0.22112438658E+04  0.22112438658E+04  0.25500000920E-02 0.  1.
       -2   -1    0    0    0  501  0.00000000000E+00  0.00000000000E+00 -0.76497589516E+03  0.76497589516E+03  0.25500000920E-02 0. -1.
    10030    2    1    2    0    0  0.00000000000E+00  0.00000000000E+00  0.14462679707E+04  0.29762197610E+04  0.26011906933E+04 0.  0.
        1    1    3    3  502    0 -0.20133167013E+03  0.12617910414E+04  0.44545688680E+03  0.13531751223E+04  0.50400001928E-02 0. -1.
       -1    1    3    3    0  502  0.20133167013E+03 -0.12617910414E+04  0.10008110839E+04  0.16230446387E+04  0.50400001928E-02 0.  1.
</event>
<event>
 5   0  0.7138294E-06  0.2588492E+04  0.7818609E-02  0.8372121E-01
        1   -1    0    0  501    0  0.00000000000E+00  0.00000000000E+00  0.26929427457E+04  0.26929427457E+04  0.50400001928E-02 0.  1.
       -1   -1    0    0    0  501  0.00000000000E+00  0.00000000000E+00 -0.62202304719E+03  0.62202304721E+03  0.50400001928E-02 0. -1.
    10030    2    1    2    0    0  0.00000000000E+00  0.00000000000E+00  0.20709196985E+04  0.33149657929E+04  0.25884918023E+04 0.  0.
        2    1    3    3  502    0  0.34787646635E+03 -0.78129282983E+03 -0.20858057287E+03  0.88030811491E+03  0.25500000920E-02 0. -1.
       -2    1    3    3    0  502 -0.34787646635E+03  0.78129282983E+03  0.22795002714E+04  0.24346576780E+04  0.25500000920E-02 0.  1.
</event>
<event>
 5   0  0.6918420E-06  0.2547150E+04  0.7818609E-02  0.8386378E-01
       -1   -1    0    0    0  501  0.00000000000E+00  0.00000000000E+00  0.11602026289E+04  0.11602026289E+04  0.50400001928E-02 0. -1.
        1   -1    0    0  501    0  0.00000000000E+00  0.00000000000E+00 -0.13980256467E+04  0.13980256467E+04  0.50400001928E-02 0.  1.
    10030    2    1    2    0    0  0.00000000000E+00  0.00000000000E+00 -0.23782301780E+03  0.25582282755E+04  0.25471498036E+04 0.  0.
        4    1    3    3  502    0 -0.26212458483E+03  0.98933824947E+03  0.64233757004E+03  0.12083454128E+04  0.12699999809E+01 0. -1.
       -4    1    3    3    0  502  0.26212458483E+03 -0.98933824947E+03 -0.88016058784E+03  0.13498828627E+04  0.12699999809E+01 0.  1.
</event>
<event>
 5   0  0.1869956E-05  0.2579646E+04  0.7818609E-02  0.8375148E-01
        2   -1    0    0  501    0  0.00000000000E+00  0.00000000000E+00  0.10409819976E+04  0.10409819976E+04  0.25500000920E-02 0.  1.
       -2   -1    0    0    0  501  0.00000000000E+00  0.00000000000E+00 -0.15981481011E+04  0.15981481011E+04  0.25500000920E-02 0. -1.
    10030    2    1    2    0    0  0.00000000000E+00  0.00000000000E+00 -0.55716610349E+03  0.26391300987E+04  0.25796460243E+04 0.  0.
        5    1    3    3  502    0 -0.41798512372E+03  0.99213984613E+03 -0.10052922432E+04  0.14729859545E+04  0.46999998093E+01 0. -1.
       -5    1    3    3    0  502  0.41798512372E+03 -0.99213984613E+03  0.44812613968E+03  0.11661441442E+04  0.46999998093E+01 0.  1.
</event>
<event>
 5   0  0.6993678E-06  0.3013811E+04  0.7818609E-02  0.8239798E-01
       -1   -1    0    0    0  501  0.00000000000E+00  0.00000000000E+00  0.13724023791E+04  0.13724023792E+04  0.50400001928E-02 0. -1.
        1   -1    0    0  501    0  0.00000000000E+00  0.00000000000E+00 -0.16545908287E+04  0.16545908288E+04  0.50400001928E-02 0.  1.
    10030    2    1    2    0    0  0.00000000000E+00  0.00000000000E+00 -0.28218844960E+03  0.30269932079E+04  0.30138111354E+04 0.  0.
        1    1    3    3  502    0  0.14865173656E+04 -0.55798481647E+02  0.10061798937E+03  0.14909632217E+04  0.50400001928E-02 0. -1.
       -1    1    3    3    0  502 -0.14865173656E+04  0.55798481647E+02 -0.38280643897E+03  0.15360299862E+04  0.50400001928E-02 0.  1.
</event>
<event>
 5   0  0.6918420E-06  0.2570107E+04  0.7818609E-02  0.8378427E-01
        1   -1    0    0  501    0  0.00000000000E+00  0.00000000000E+00  0.19944035979E+04  0.19944035979E+04  0.50400001928E-02 0. -1.
       -1   -1    0    0    0  501  0.00000000000E+00  0.00000000000E+00 -0.82799817641E+03  0.82799817642E+03  0.50400001928E-02 0.  1.
    10030    2    1    2    0    0  0.00000000000E+00  0.00000000000E+00  0.11664054215E+04  0.28224017744E+04  0.25701070345E+04 0.  0.
        4    1    3    3  502    0 -0.62469841295E+03  0.95674323491E+03 -0.62528813951E+02  0.11443413783E+04  0.12699999809E+01 0. -1.
       -4    1    3    3    0  502  0.62469841295E+03 -0.95674323491E+03  0.12289342355E+04  0.16780603960E+04  0.12699999809E+01 0.  1.
</event>
<event>
 5   0  0.6706225E-06  0.2609651E+04  0.7818609E-02  0.8364930E-01
        1   -1    0    0  501    0  0.00000000000E+00  0.00000000000E+00  0.23270072721E+04  0.23270072721E+04  0.50400001928E-02 0.  1.
       -1   -1    0    0    0  501  0.00000000000E+00  0.00000000000E+00 -0.73165633720E+03  0.73165633721E+03  0.50400001928E-02 0. -1.
    10030    2    1    2    0    0  0.00000000000E+00  0.00000000000E+00  0.15953509349E+04  0.30586636094E+04  0.26096510245E+04 0.  0.
        5    1    3    3  502    0 -0.23315550530E+03  0.10666040788E+04  0.16351371082E+04  0.19661386531E+04  0.46999998093E+01 0.  1.
       -5    1    3    3    0  502  0.23315550530E+03 -0.10666040788E+04 -0.39786173301E+02  0.10925249563E+04  0.46999998093E+01 0. -1.
</event>
<event>
 5   0  0.1677971E-05  0.2583650E+04  0.7818609E-02  0.8373776E-01
       -2   -1    0    0    0  501  0.00000000000E+00  0.00000000000E+00  0.14099120230E+04  0.14099120230E+04  0.25500000920E-02 0.  1.
        2   -1    0    0  501    0  0.00000000000E+00  0.00000000000E+00 -0.11836279737E+04  0.11836279737E+04  0.25500000920E-02 0. -1.
    10030    2    1    2    0    0  0.00000000000E+00  0.00000000000E+00  0.22628404934E+03  0.25935399967E+04  0.25836495977E+04 0.  0.
        4    1    3    3  502    0 -0.17735986374E+03  0.81639235836E+03 -0.87595045908E+03  0.12104725621E+04  0.12699999809E+01 0. -1.
       -4    1    3    3    0  502  0.17735986374E+03 -0.81639235836E+03  0.11022345084E+04  0.13830674345E+04  0.12699999809E+01 0.  1.
</event>
<event>
 5   0  0.6993678E-06  0.2622015E+04  0.7818609E-02  0.8360761E-01
       -1   -1    0    0    0  501  0.00000000000E+00  0.00000000000E+00  0.87337633742E+03  0.87337633744E+03  0.50400001928E-02 0.  1.
        1   -1    0    0  501    0  0.00000000000E+00  0.00000000000E+00 -0.19679273421E+04  0.19679273421E+04  0.50400001928E-02 0. -1.
    10030    2    1    2    0    0  0.00000000000E+00  0.00000000000E+00 -0.10945510046E+04  0.28413036795E+04  0.26220153885E+04 0.  0.
        1    1    3    3  502    0  0.39365302991E+03  0.11354819177E+04 -0.11149787493E+04  0.16393472801E+04  0.50400001928E-02 0.  1.
       -1    1    3    3    0  502 -0.39365302991E+03 -0.11354819177E+04  0.20427744675E+02  0.12019563994E+04  0.50400001928E-02 0. -1.
</event>
<event>
 5   0  0.1681731E-05  0.2606124E+04  0.7818609E-02  0.8366124E-01
       -2   -1    0    0    0  501  0.00000000000E+00  0.00000000000E+00  0.58508571225E+03  0.58508571225E+03  0.25500000920E-02 0. -1.
        2   -1    0    0  501    0  0.00000000000E+00  0.00000000000E+00 -0.29020875495E+04  0.29020875495E+04  0.25500000920E-02 0.  1.
    10030    2    1    2    0    0  0.00000000000E+00  0.00000000000E+00 -0.23170018373E+04  0.34871732618E+04  0.26061235281E+04 0.  0.
        2    1    3    3  502    0 -0.25140646623E+03 -0.70365262756E+03 -0.25869407058E+04  0.26926927873E+04  0.25500000920E-02 0.  1.
       -2    1    3    3    0  502  0.25140646623E+03  0.70365262756E+03  0.26993886854E+03  0.79448047445E+03  0.25500000920E-02 0. -1.
</event>
<event>
 5   0  0.1869956E-05  0.2597135E+04  0.7818609E-02  0.8369175E-01
        2   -1    0    0  501    0  0.00000000000E+00  0.00000000000E+00  0.20124473515E+04  0.20124473515E+04  0.25500000920E-02 0. -1.
       -2   -1    0    0    0  501  0.00000000000E+00  0.00000000000E+00 -0.83792371902E+03  0.83792371902E+03  0.25500000920E-02 0.  1.
    10030    2    1    2    0    0  0.00000000000E+00  0.00000000000E+00  0.11745236325E+04  0.28503710706E+04  0.25971348591E+04 0.  0.
        5    1    3    3  502    0 -0.96764716145E+03  0.86144555675E+03  0.49017252052E+03  0.13851789293E+04  0.46999998093E+01 0.  1.
       -5    1    3    3    0  502  0.96764716145E+03 -0.86144555675E+03  0.68435111200E+03  0.14651921413E+04  0.46999998093E+01 0. -1.
</event>
<event>
 5   0  0.6984287E-06  0.2618555E+04  0.7818609E-02  0.8361926E-01
       -1   -1    0    0    0  501  0.00000000000E+00  0.00000000000E+00  0.81680069684E+03  0.81680069686E+03  0.50400001928E-02 0. -1.
        1   -1    0    0  501    0  0.00000000000E+00  0.00000000000E+00 -0.20986850643E+04  0.20986850643E+04  0.50400001928E-02 0.  1.
    10030    2    1    2    0    0  0.00000000000E+00  0.00000000000E+00 -0.12818843675E+04  0.29154857612E+04  0.26185548862E+04 0.  0.
        3    1    3    3  502    0 -0.99895951552E+03  0.59278015380E+03 -0.13135092125E+04  0.17534579795E+04  0.10100000352E+00 0.  1.
       -3    1    3    3    0  502  0.99895951552E+03 -0.59278015380E+03  0.31624845014E+02  0.11620277817E+04  0.10100000352E+00 0. -1.
</event>
<event>
 5   0  0.6706225E-06  0.2558559E+04  0.7818609E-02  0.8382415E-01
       -1   -1    0    0    0  501  0.00000000000E+00  0.00000000000E+00  0.88752645698E+03  0.88752645700E+03  0.50400001928E-02 0. -1.
        1   -1    0    0  501    0  0.00000000000E+00  0.00000000000E+00 -0.18439524330E+04  0.18439524330E+04  0.50400001928E-02 0.  1.
    10030    2    1    2    0    0  0.00000000000E+00  0.00000000000E+00 -0.95642597600E+03  0.27314788900E+04  0.25585594148E+04 0.  0.
        5    1    3    3  502    0  0.15915550129E+03  0.12125700358E+04 -0.77508876638E+02  0.12254330995E+04  0.46999998093E+01 0. -1.
       -5    1    3    3    0  502 -0.15915550129E+03 -0.12125700358E+04 -0.87891709936E+03  0.15060457905E+04  0.46999998093E+01 0.  1.
</event>
<event>
 5   0  0.1681731E-05  0.2584598E+04  0.7818609E-02  0.8373452E-01
       -2   -1    0    0    0  501  0.00000000000E+00  0.00000000000E+00  0.10522224050E+04  0.10522224050E+04  0.25500000920E-02 0.  1.
        2   -1    0    0  501    0  0.00000000000E+00  0.00000000000E+00 -0.15871516590E+04  0.15871516590E+04  0.25500000920E-02 0. -1.
    10030    2    1    2    0    0  0.00000000000E+00  0.00000000000E+00 -0.53492925393E+03  0.26393740640E+04  0.25845978687E+04 0.  0.
        2    1    3    3  502    0  0.10027981398E+04  0.47524219645E+03 -0.94375161011E+03  0.14567519885E+04  0.25500000920E-02 0. -1.
       -2    1    3    3    0  502 -0.10027981398E+04 -0.47524219645E+03  0.40882235618E+03  0.11826220755E+04  0.25500000920E-02 0.  1.
</event>
<event>
 5   0  0.6918420E-06  0.2575527E+04  0.7818609E-02  0.8376562E-01
       -1   -1    0    0    0  501  0.00000000000E+00  0.00000000000E+00  0.17864280373E+04  0.17864280373E+04  0.50400001928E-02 0.  1.
        1   -1    0    0  501    0  0.00000000000E+00  0.00000000000E+00 -0.92829656680E+03  0.92829656682E+03  0.50400001928E-02 0. -1.
    10030    2    1    2    0    0  0.00000000000E+00  0.00000000000E+00  0.85813147050E+03  0.27147246041E+04  0.25755271413E+04 0.  0.
        4    1    3    3  502    0  0.12396472980E+04  0.33728243301E+03  0.33568570115E+03  0.13278446317E+04  0.12699999809E+01 0. -1.
       -4    1    3    3    0  502 -0.12396472980E+04 -0.33728243301E+03  0.52244576935E+03  0.13868799724E+04  0.12699999809E+01 0.  1.
</event>
<event>
 5   0  0.1720129E-05  0.2600277E+04  0.7818609E-02  0.8368107E-01
        2   -1    0    0  501    0  0.00000000000E+00  0.00000000000E+00  0.15338837806E+04  0.15338837806E+04  0.25500000920E-02 0. -1.
       -2   -1    0    0    0  501  0.00000000000E+00  0.00000000000E+00 -0.11020127711E+04  0.11020127711E+04  0.25500000920E-02 0.  1.
    10030    2    1    2    0    0  0.00000000000E+00  0.00000000000E+00  0.43187100943E+03  0.26358965517E+04  0.26002765358E+04 0.  0.
        3    1    3    3  502    0 -0.34241409626E+03 -0.41696194426E+03 -0.98316954564E+03  0.11214843030E+04  0.10100000352E+00 0.  1.
       -3    1    3    3    0  502  0.34241409626E+03  0.41696194426E+03  0.14150405551E+04  0.15144122487E+04  0.10100000352E+00 0. -1.
</event>
<event>
 5   0  0.1869956E-05  0.2600008E+04  0.7818609E-02  0.8368199E-01
        2   -1    0    0  501    0  0.00000000000E+00  0.00000000000E+00  0.10929490111E+04  0.10929490111E+04  0.25500000920E-02 0. -1.
       -2   -1    0    0    0  501  0.00000000000E+00  0.00000000000E+00 -0.15462844921E+04  0.15462844921E+04  0.25500000920E-02 0.  1.
    10030    2    1    2    0    0  0.00000000000E+00  0.00000000000E+00 -0.45333548105E+03  0.26392335032E+04  0.26000077742E+04 0.  0.
        5    1    3    3  502    0 -0.16679223425E+02  0.84318518792E+03  0.77757508304E+03  0.11471201146E+04  0.46999998093E+01 0. -1.
       -5    1    3    3    0  502  0.16679223425E+02 -0.84318518792E+03 -0.12309105641E+04  0.14921133886E+04  0.46999998093E+01 0.  1.
</event>
<event>
 5   0  0.1677971E-05  0.2600614E+04  0.7818609E-02  0.8367993E-01
        2   -1    0    0  501    0  0.00000000000E+00  0.00000000000E+00  0.12711792574E+04  0.12711792574E+04  0.25500000920E-02 0.  1.
       -2   -1    0    0    0  501  0.00000000000E+00  0.00000000000E+00 -0.13301018325E+04  0.13301018325E+04  0.25500000920E-02 0. -1.
    10030    2    1    2    0    0  0.00000000000E+00  0.00000000000E+00 -0.58922575124E+02  0.26012810899E+04  0.26006136659E+04 0.  0.
        4    1    3    3  502    0  0.28819212380E+03 -0.43591603426E+03 -0.12204468209E+04  0.13276179965E+04  0.12699999809E+01 0. -1.
       -4    1    3    3    0  502 -0.28819212380E+03  0.43591603426E+03  0.11615242458E+04  0.12736630934E+04  0.12699999809E+01 0.  1.
</event>
<event>
 5   0  0.6918420E-06  0.2578922E+04  0.7818609E-02  0.8375396E-01
       -1   -1    0    0    0  501  0.00000000000E+00  0.00000000000E+00  0.67418645343E+03  0.67418645345E+03  0.50400001928E-02 0. -1.
        1   -1    0    0  501    0  0.00000000000E+00  0.00000000000E+00 -0.24662452764E+04  0.24662452764E+04  0.50400001928E-02 0.  1.
    10030    2    1    2    0    0  0.00000000000E+00  0.00000000000E+00 -0.17920588230E+04  0.31404317299E+04  0.25789216012E+04 0.  0.
        4    1    3    3  502    0  0.82283113022E+03 -0.21148277261E+03 -0.20772478658E+04  0.22442674397E+04  0.12699999809E+01 0.  1.
       -4    1    3    3    0  502 -0.82283113022E+03  0.21148277261E+03  0.28518904281E+03  0.89616429019E+03  0.12699999809E+01 0. -1.
</event>
<event>
 5   0  0.1702345E-05  0.2593593E+04  0.7818609E-02  0.8370381E-01
        2   -1    0    0  501    0  0.00000000000E+00  0.00000000000E+00  0.17432356274E+04  0.17432356274E+04  0.25500000920E-02 0. -1.
       -2   -1    0    0    0  501  0.00000000000E+00  0.00000000000E+00 -0.96468926779E+03  0.96468926780E+03  0.25500000920E-02 0.  1.
    10030    2    1    2    0    0  0.00000000000E+00  0.00000000000E+00  0.77854635965E+03  0.27079248952E+04  0.25935926442E+04 0.  0.
        1    1    3    3  502    0  0.27247572242E+03 -0.10976389713E+04  0.10517732936E+04  0.15444356224E+04  0.50400001928E-02 0. -1.
       -1    1    3    3    0  502 -0.27247572242E+03  0.10976389713E+04 -0.27322693390E+03  0.11634892729E+04  0.50400001928E-02 0.  1.
</event>
<event>
 5   0  0.6993678E-06  0.2625304E+04  0.7818609E-02  0.8359656E-01
       -1   -1    0    0    0  501  0.00000000000E+00  0.00000000000E+00  0.12124277546E+04  0.12124277546E+04  0.50400001928E-02 0.  1.
        1   -1    0    0  501    0  0.00000000000E+00  0.00000000000E+00 -0.14211615878E+04  0.14211615878E+04  0.50400001928E-02 0. -1.
    10030    2    1    2    0    0  0.00000000000E+00  0.00000000000E+00 -0.20873383328E+03  0.26335893424E+04  0.26253043655E+04 0.  0.
        1    1    3    3  502    0 -0.47183339376E+03  0.10430030167E+04 -0.74871296544E+03  0.13678644483E+04  0.50400001928E-02 0. -1.
       -1    1    3    3    0  502  0.47183339376E+03 -0.10430030167E+04  0.53997913216E+03  0.12657248941E+04  0.50400001928E-02 0.  1.
</event>
<event>
 5   0  0.1677971E-05  0.2597159E+04  0.7818609E-02  0.8369167E-01
       -2   -1    0    0    0  501  0.00000000000E+00  0.00000000000E+00  0.68734764633E+03  0.68734764633E+03  0.25500000920E-02 0.  1.
        2   -1    0    0  501    0  0.00000000000E+00  0.00000000000E+00 -0.24533566947E+04  0.24533566947E+04  0.25500000920E-02 0. -1.
    10030    2    1    2    0    0  0.00000000000E+00  0.00000000000E+00 -0.17660090483E+04  0.31407043410E+04  0.25971591786E+04 0.  0.
        4    1    3    3  502    0 -0.10416329750E+04 -0.13896297426E+03 -0.18055525826E+04  0.20890982993E+04  0.12699999809E+01 0. -1.
       -4    1    3    3    0  502  0.10416329750E+04  0.13896297426E+03  0.39543534254E+02  0.10516060417E+04  0.12699999809E+01 0.  1.
</event>
<event>
 5   0  0.6993678E-06  0.2615110E+04  0.7818609E-02  0.8363087E-01
       -1   -1    0    0    0  501  0.00000000000E+00  0.00000000000E+00  0.10275993307E+04  0.10275993308E+04  0.50400001928E-02 0. -1.
        1   -1    0    0  501    0  0.00000000000E+00  0.00000000000E+00 -0.16637807051E+04  0.16637807051E+04  0.50400001928E-02 0.  1.
    10030    2    1    2    0    0  0.00000000000E+00  0.00000000000E+00 -0.63618137436E+03  0.26913800359E+04  0.26151098938E+04 0.  0.
        1    1    3    3  502    0  0.10648488206E+04  0.37190125440E+03  0.36262749977E+03  0.11847836331E+04  0.50400001928E-02 0. -1.
       -1    1    3    3    0  502 -0.10648488206E+04 -0.37190125440E+03 -0.99880887412E+03  0.15065964027E+04  0.50400001928E-02 0.  1.
</event>
<event>
 5   0  0.1869956E-05  0.2513486E+04  0.7818609E-02  0.8398197E-01
       -2   -1    0    0    0  501  0.00000000000E+00  0.00000000000E+00  0.17321852052E+04  0.17321852052E+04  0.25500000920E-02 0.  1.
        2   -1    0    0  501    0  0.00000000000E+00  0.00000000000E+00 -0.91179764155E+03  0.91179764155E+03  0.25500000920E-02 0. -1.
    10030    2    1    2    0    0  0.00000000000E+00  0.00000000000E+00  0.82038756364E+03  0.26439828467E+04  0.25134855359E+04 0.  0.
        5    1    3    3  502    0 -0.60751772207E+03 -0.10998117859E+04  0.43835197842E+03  0.13307284824E+04  0.46999998093E+01 0. -1.
       -5    1    3    3    0  502  0.60751772207E+03  0.10998117859E+04  0.38203558522E+03  0.13132543643E+04  0.46999998093E+01 0.  1.
</event>
<event>
 5   0  0.1869956E-05  0.2599969E+04  0.7818609E-02  0.8368212E-01
       -2   -1    0    0    0  501  0.00000000000E+00  0.00000000000E+00  0.11109326937E+04  0.11109326937E+04  0.25500000920E-02 0. -1.
        2   -1    0    0  501    0  0.00000000000E+00  0.00000000000E+00 -0.15212081631E+04  0.15212081631E+04  0.25500000920E-02 0.  1.
    10030    2    1    2    0    0  0.00000000000E+00  0.00000000000E+00 -0.41027546936E+03  0.26321408568E+04  0.25999691401E+04 0.  0.
        5    1    3    3  502    0  0.82075730429E+03  0.80966094455E+03  0.40291427623E+03  0.12212925127E+04  0.46999998093E+01 0. -1.
       -5    1    3    3    0  502 -0.82075730429E+03 -0.80966094455E+03 -0.81318974559E+03  0.14108483441E+04  0.46999998093E+01 0.  1.
</event>
<event>
 5   0  0.1681731E-05  0.2584063E+04  0.7818609E-02  0.8373635E-01
       -2   -1    0    0    0  501  0.00000000000E+00  0.00000000000E+00  0.11420510992E+04  0.11420510992E+04  0.25500000920E-02 0. -1.
        2   -1    0    0  501    0  0.00000000000E+00  0.00000000000E+00 -0.14617078466E+04  0.14617078466E+04  0.25500000920E-02 0.  1.
    10030    2    1    2    0    0  0.00000000000E+00  0.00000000000E+00 -0.31965674736E+03  0.26037589458E+04  0.25840627337E+04 0.  0.
        2    1    3    3  502    0  0.66053276411E+03 -0.15765973200E+03  0.94772440055E+03  0.11659080851E+04  0.25500000920E-02 0. -1.
       -2    1    3    3    0  502 -0.66053276411E+03  0.15765973200E+03 -0.12673811479E+04  0.14378508607E+04  0.25500000920E-02 0.  1.
</event>
<event>
 5   0  0.1681731E-05  0.2661884E+04  0.7818609E-02  0.8347479E-01
       -2   -1    0    0    0  501  0.00000000000E+00  0.00000000000E+00  0.11694275724E+04  0.11694275724E+04  0.25500000920E-02 0. -1.
        2   -1    0    0  501    0  0.00000000000E+00  0.00000000000E+00 -0.15147637308E+04  0.15147637308E+04  0.25500000920E-02 0.  1.
    10030    2    1    2    0    0  0.00000000000E+00  0.00000000000E+00 -0.34533615835E+03  0.26841913032E+04  0.26618838987E+04 0.  0.
        2    1    3    3  502    0  0.93834145779E+03 -0.82004619216E+03 -0.64396698087E+03  0.14027308798E+04  0.25500000920E-02 0.  1.
       -2    1    3    3    0  502 -0.93834145779E+03  0.82004619216E+03  0.29863082252E+03  0.12814604234E+04  0.25500000920E-02 0. -1.
</event>
<event>
 5   0  0.1702345E-05  0.2578534E+04  0.7818609E-02  0.8375529E-01
       -2   -1    0    0    0  501  0.00000000000E+00  0.00000000000E+00  0.97264949004E+03  0.97264949005E+03  0.25500000920E-02 0.  1.
        2   -1    0    0  501    0  0.00000000000E+00  0.00000000000E+00 -0.17089501059E+04  0.17089501059E+04  0.25500000920E-02 0. -1.
    10030    2    1    2    0    0  0.00000000000E+00  0.00000000000E+00 -0.73630061581E+03  0.26815995959E+04  0.25785340401E+04 0.  0.
        1    1    3    3  502    0  0.39618232891E+03  0.17736625853E+03 -0.16306721427E+04  0.16874569222E+04  0.50400001928E-02 0. -1.
       -1    1    3    3    0  502 -0.39618232891E+03 -0.17736625853E+03  0.89437152691E+03  0.99414267365E+03  0.50400001928E-02 0.  1.
</event>
<event>
 5   0  0.6706225E-06  0.2609044E+04  0.7818609E-02  0.8365136E-01
        1   -1    0    0  501    0  0.00000000000E+00  0.00000000000E+00  0.12309716568E+04  0.12309716568E+04  0.50400001928E-02 0.  1.
       -1   -1    0    0    0  501  0.00000000000E+00  0.00000000000E+00 -0.13824669090E+04  0.13824669090E+04  0.50400001928E-02 0. -1.
    10030    2    1    2    0    0  0.00000000000E+00  0.00000000000E+00 -0.15149525222E+03  0.26134385658E+04  0.26090439486E+04 0.  0.
        5    1    3    3  502    0 -0.74242845920E+03 -0.94629216108E+01  0.99865678162E+03  0.12444384362E+04  0.46999998093E+01 0.  1.
       -5    1    3    3    0  502  0.74242845920E+03  0.94629216108E+01 -0.11501520338E+04  0.13690001296E+04  0.46999998093E+01 0. -1.
</event>
<event>
 5   0  0.6984287E-06  0.2608265E+04  0.7818609E-02  0.8365399E-01
        1   -1    0    0  501    0  0.00000000000E+00  0.00000000000E+00  0.13716680493E+04  0.13716680493E+04  0.50400001928E-02 0. -1.
       -1   -1    0    0    0  501  0.00000000000E+00  0.00000000000E+00 -0.12399226029E+04  0.12399226029E+04  0.50400001928E-02 0.  1.
    10030    2    1    2    0    0  0.00000000000E+00  0.00000000000E+00  0.13174544640E+03  0.26115906523E+04  0.26082654911E+04 0.  0.
        3    1    3    3  502    0  0.68593525653E+03  0.10237847937E+04 -0.36142620787E+03  0.12842396170E+04  0.10100000352E+00 0. -1.
       -3    1    3    3    0  502 -0.68593525653E+03 -0.10237847937E+04  0.49317165427E+03  0.13273510352E+04  0.10100000352E+00 0.  1.
</event>
<event>
 5   0  0.1720129E-05  0.2601680E+04  0.7818609E-02  0.8367631E-01
       -2   -1    0    0    0  501  0.00000000000E+00  0.00000000000E+00  0.92739415057E+03  0.92739415057E+03  0.25500000920E-02 0. -1.
        2   -1    0    0  501    0  0.00000000000E+00  0.00000000000E+00 -0.18246665953E+04  0.18246665953E+04  0.25500000920E-02 0.  1.
    10030    2    1    2    0    0  0.00000000000E+00  0.00000000000E+00 -0.89727244470E+03  0.27520607458E+04  0.26016803241E+04 0.  0.
        3    1    3    3  502    0  0.86537166830E+03  0.37322180604E+03  0.49986561834E+03  0.10667840866E+04  0.10100000352E+00 0. -1.
       -3    1    3    3    0  502 -0.86537166830E+03 -0.37322180604E+03 -0.13971380630E+04  0.16852766593E+04  0.10100000352E+00 0.  1.
</event>
<event>
 5   0  0.6993678E-06  0.2585888E+04  0.7818609E-02  0.8373010E-01
       -1   -1    0    0    0  501  0.00000000000E+00  0.00000000000E+00  0.96068956340E+03  0.96068956342E+03  0.50400001928E-02 0.  1.
        1   -1    0    0  501    0  0.00000000000E+00  0.00000000000E+00 -0.17401091703E+04  0.17401091703E+04  0.50400001928E-02 0. -1.
    10030    2    1    2    0    0  0.00000000000E+00  0.00000000000E+00 -0.77941960691E+03  0.27007987337E+04  0.25858884115E+04 0.  0.
        1    1    3    3  502    0  0.36926036990E+03  0.10899476094E+04  0.22585802213E+03  0.11727535369E+04  0.50400001928E-02 0.  1.
       -1    1    3    3    0  502 -0.36926036990E+03 -0.10899476094E+04 -0.10052776290E+04  0.15280451968E+04  0.50400001928E-02 0. -1.
</event>
<event>
 5   0  0.1681731E-05  0.2554834E+04  0.7818609E-02  0.8383707E-01
       -2   -1    0    0    0  501  0.00000000000E+00  0.00000000000E+00  0.14339084068E+04  0.14339084068E+04  0.25500000920E-02 0. -1.
        2   -1    0    0  501    0  0.00000000000E+00  0.00000000000E+00 -0.11380042669E+04  0.11380042669E+04  0.25500000920E-02 0.  1.
    10030    2    1    2    0    0  0.00000000000E+00  0.00000000000E+00  0.29590413988E+03  0.25719126737E+04  0.25548337600E+04 0.  0.
        2    1    3    3  502    0  0.55256169192E+03 -0.11002767895E+04 -0.19470616584E+03  0.12465327625E+04  0.25500000920E-02 0.  1.
       -2    1    3    3    0  502 -0.55256169192E+03  0.11002767895E+04  0.49061030572E+03  0.13253799112E+04  0.25500000920E-02 0. -1.
</event>
<event>
 5   0  0.6918420E-06  0.2577096E+04  0.7818609E-02  0.8376023E-01
        1   -1    0    0  501    0  0.00000000000E+00  0.00000000000E+00  0.18441164467E+04  0.18441164467E+04  0.50400001928E-02 0. -1.
       -1   -1    0    0    0  501  0.00000000000E+00  0.00000000000E+00 -0.90035310308E+03  0.90035310310E+03  0.50400001928E-02 0.  1.
    10030    2    1    2    0    0  0.00000000000E+00  0.00000000000E+00  0.94376334358E+03  0.27444695498E+04  0.25770960131E+04 0.  0.
        4    1    3    3  502    0 -0.84087445447E+02 -0.33053611731E+03 -0.85141011936E+03  0.91718352993E+03  0.12699999809E+01 0.  1.
       -4    1    3    3    0  502  0.84087445447E+02  0.33053611731E+03  0.17951734629E+04  0.18272860198E+04  0.12699999809E+01 0. -1.
</event>
<event>
 5   0  0.6993678E-06  0.2613037E+04  0.7818609E-02  0.8363786E-01
       -1   -1    0    0    0  501  0.00000000000E+00  0.00000000000E+00  0.95645629976E+03  0.95645629977E+03  0.50400001928E-02 0.  1.
        1   -1    0    0  501    0  0.00000000000E+00  0.00000000000E+00 -0.17847029014E+04  0.17847029014E+04  0.50400001928E-02 0. -1.
    10030    2    1    2    0    0  0.00000000000E+00  0.00000000000E+00 -0.82824660165E+03  0.27411592012E+04  0.26130368029E+04 0.  0.
        1    1    3    3  502    0  0.10737907045E+04  0.52769749087E+03  0.13649281060E+03  0.12042098681E+04  0.50400001928E-02 0.  1.
       -1    1    3    3    0  502 -0.10737907045E+04 -0.52769749087E+03 -0.96473941225E+03  0.15369493331E+04  0.50400001928E-02 0. -1.
</event>
<event>
 5   0  0.7138294E-06  0.2566633E+04  0.7818609E-02  0.8379624E-01
       -1   -1    0    0    0  501  0.00000000000E+00  0.00000000000E+00  0.63291844659E+03  0.63291844661E+03  0.50400001928E-02 0. -1.
        1   -1    0    0  501    0  0.00000000000E+00  0.00000000000E+00 -0.26020758142E+04  0.26020758142E+04  0.50400001928E-02 0.  1.
    10030    2    1    2    0    0  0.00000000000E+00  0.00000000000E+00 -0.19691573676E+04  0.32349942608E+04  0.25666334232E+04 0.  0.
        2    1    3    3  502    0 -0.65013482491E+02  0.86112331978E+03  0.21190340686E+03  0.88919243059E+03  0.25500000920E-02 0. -1.
       -2    1    3    3    0  502  0.65013482491E+02 -0.86112331978E+03 -0.21810607745E+04  0.23458018303E+04  0.25500000920E-02 0.  1.
</event>
<event>
 5   0  0.6984287E-06  0.2598281E+04  0.7818609E-02  0.8368785E-01
       -1   -1    0    0    0  501  0.00000000000E+00  0.00000000000E+00  0.11353256040E+04  0.11353256040E+04  0.50400001928E-02 0.  1.
        1   -1    0    0  501    0  0.00000000000E+00  0.00000000000E+00 -0.14865921253E+04  0.14865921254E+04  0.50400001928E-02 0. -1.
    10030    2    1    2    0    0  0.00000000000E+00  0.00000000000E+00 -0.35126652131E+03  0.26219177294E+04  0.25982810492E+04 0.  0.
        3    1    3    3  502    0 -0.54979561172E+03 -0.87150690315E+03 -0.97401117309E+03  0.14179200515E+04  0.10100000352E+00 0. -1.
       -3    1    3    3    0  502  0.54979561172E+03  0.87150690315E+03  0.62274465178E+03  0.12039976779E+04  0.10100000352E+00 0.  1.
</event>
<event>
 5   0  0.1677971E-05  0.2619433E+04  0.7818609E-02  0.8361630E-01
       -2   -1    0    0    0  501  0.00000000000E+00  0.00000000000E+00  0.15170798041E+04  0.15170798041E+04  0.25500000920E-02 0.  1.
        2   -1    0    0  501    0  0.00000000000E+00  0.00000000000E+00 -0.11306971325E+04  0.11306971325E+04  0.25500000920E-02 0. -1.
    10030    2    1    2    0    0  0.00000000000E+00  0.00000000000E+00  0.38638267158E+03  0.26477769366E+04  0.26194333618E+04 0.  0.
        4    1    3    3  502    0  0.71499111581E+03 -0.66438849009E+03  0.10759865497E+04  0.14527123010E+04  0.12699999809E+01 0.  1.
       -4    1    3    3    0  502 -0.71499111581E+03  0.66438849009E+03 -0.68960387815E+03  0.11950646355E+04  0.12699999809E+01 0. -1.
</event>
<event>
 5   0  0.1677971E-05  0.2589044E+04  0.7818609E-02  0.8371932E-01
        2   -1    0    0  501    0  0.00000000000E+00  0.00000000000E+00  0.20847195018E+04  0.20847195018E+04  0.25500000920E-02 0.  1.
       -2   -1    0    0    0  501  0.00000000000E+00  0.00000000000E+00 -0.80384301212E+03  0.80384301213E+03  0.25500000920E-02 0. -1.
    10030    2    1    2    0    0  0.00000000000E+00  0.00000000000E+00  0.12808764897E+04  0.28885625139E+04  0.25890439964E+04 0.  0.
        4    1    3    3  502    0 -0.18251235572E+03  0.15868733005E+02  0.20701826553E+04  0.20782734219E+04  0.12699999809E+01 0.  1.
       -4    1    3    3    0  502  0.18251235572E+03 -0.15868733005E+02 -0.78930616566E+03  0.81028909207E+03  0.12699999809E+01 0. -1.
</event>
<event>
 5   0  0.7138294E-06  0.2611391E+04  0.7818609E-02  0.8364342E-01
       -1   -1    0    0    0  501  0.00000000000E+00  0.00000000000E+00  0.99512861986E+03  0.99512861987E+03  0.50400001928E-02 0. -1.
        1   -1    0    0  501    0  0.00000000000E+00  0.00000000000E+00 -0.17131858879E+04  0.17131858879E+04  0.50400001928E-02 0.  1.
    10030    2    1    2    0    0  0.00000000000E+00  0.00000000000E+00 -0.71805726807E+03  0.27083145078E+04  0.26113906703E+04 0.  0.
        2    1    3    3  502    0 -0.12276650507E+04 -0.42500184134E+03 -0.22359756688E+03  0.13182503229E+04  0.25500000920E-02 0. -1.
       -2    1    3    3    0  502  0.12276650507E+04  0.42500184134E+03 -0.49445970119E+03  0.13900641849E+04  0.25500000920E-02 0.  1.
</event>
<event>
 5   0  0.1677971E-05  0.2615269E+04  0.7818609E-02  0.8363033E-01
        2   -1    0    0  501    0  0.00000000000E+00  0.00000000000E+00  0.18523495700E+04  0.18523495700E+04  0.25500000920E-02 0. -1.
       -2   -1    0    0    0  501  0.00000000000E+00  0.00000000000E+00 -0.92310225656E+03  0.92310225656E+03  0.25500000920E-02 0.  1.
    10030    2    1    2    0    0  0.00000000000E+00  0.00000000000E+00  0.92924731340E+03  0.27754518265E+04  0.26152690630E+04 0.  0.
        4    1    3    3  502    0 -0.10421224195E+04  0.72236586598E+03  0.12556351233E+03  0.12742053955E+04  0.12699999809E+01 0.  1.
       -4    1    3    3    0  502  0.10421224195E+04 -0.72236586598E+03  0.80368380107E+03  0.15012464310E+04  0.12699999809E+01 0. -1.
</event>
<event>
 5   0  0.1702345E-05  0.2574053E+04  0.7818609E-02  0.8377069E-01
        2   -1    0    0  501    0  0.00000000000E+00  0.00000000000E+00  0.20172502103E+04  0.20172502103E+04  0.25500000920E-02 0.  1.
       -2   -1    0    0    0  501  0.00000000000E+00  0.00000000000E+00 -0.82113623943E+03  0.82113623944E+03  0.25500000920E-02 0. -1.
    10030    2    1    2    0    0  0.00000000000E+00  0.00000000000E+00  0.11961139708E+04  0.28383864497E+04  0.25740530310E+04 0.  0.
        1    1    3    3  502    0 -0.40273200573E+03 -0.31339608250E+03  0.19009266010E+04  0.19682307069E+04  0.50400001928E-02 0.  1.
       -1    1    3    3    0  502  0.40273200573E+03  0.31339608250E+03 -0.70481263023E+03  0.87015574280E+03  0.50400001928E-02 0. -1.
</event>
<event>
 5   0  0.1677971E-05  0.2573187E+04  0.7818609E-02  0.8377366E-01
        2   -1    0    0  501    0  0.00000000000E+00  0.00000000000E+00  0.16953671417E+04  0.16953671417E+04  0.25500000920E-02 0.  1.
       -2   -1    0    0    0  501  0.00000000000E+00  0.00000000000E+00 -0.97638007634E+03  0.97638007634E+03  0.25500000920E-02 0. -1.
    10030    2    1    2    0    0  0.00000000000E+00  0.00000000000E+00  0.71898706539E+03  0.26717472181E+04  0.25731868951E+04 0.  0.
        4    1    3    3  502    0  0.16334225329E+03 -0.97176481157E+03 -0.49942426779E+03  0.11047324350E+04  0.12699999809E+01 0. -1.
       -4    1    3    3    0  502 -0.16334225329E+03  0.97176481157E+03  0.12184113332E+04  0.15670147831E+04  0.12699999809E+01 0.  1.
</event>
<event>
 5   0  0.6706225E-06  0.2595560E+04  0.7818609E-02  0.8369711E-01
       -1   -1    0    0    0  501  0.00000000000E+00  0.00000000000E+00  0.61876641120E+03  0.61876641122E+03  0.50400001928E-02 0.  1.
        1   -1    0    0  501    0  0.00000000000E+00  0.00000000000E+00 -0.27219201775E+04  0.27219201775E+04  0.50400001928E-02 0. -1.
    10030    2    1    2    0    0  0.00000000000E+00  0.00000000000E+00 -0.21031537663E+04  0.33406865887E+04  0.25955598855E+04 0.  0.
        5    1    3    3  502    0 -0.87983331959E+03  0.92111037570E+03 -0.13711758504E+04  0.18715491704E+04  0.46999998093E+01 0. -1.
       -5    1    3    3    0  502  0.87983331959E+03 -0.92111037570E+03 -0.73197791584E+03  0.14691374183E+04  0.46999998093E+01 0.  1.
</event>
<event>
 5   0  0.1869956E-05  0.2611925E+04  0.7818609E-02  0.8364162E-01
        2   -1    0    0  501    0  0.00000000000E+00  0.00000000000E+00  0.10336412107E+04  0.10336412107E+04  0.25500000920E-02 0.  1.
       -2   -1    0    0    0  501  0.00000000000E+00  0.00000000000E+00 -0.16500290095E+04  0.16500290095E+04  0.25500000920E-02 0. -1.
    10030    2    1    2    0    0  0.00000000000E+00  0.00000000000E+00 -0.61638779881E+03  0.26836702202E+04  0.26119249477E+04 0.  0.
        5    1    3    3  502    0  0.82058630031E+03  0.10140633326E+04 -0.37177729261E+03  0.13564390013E+04  0.46999998093E+01 0.  1.
       -5    1    3    3    0  502 -0.82058630031E+03 -0.10140633326E+04 -0.24461050620E+03  0.13272312190E+04  0.46999998093E+01 0. -1.
</event>
<event>
 5   0  0.6706225E-06  0.2597520E+04  0.7818609E-02  0.8369044E-01
        1   -1    0    0  501    0  0.00000000000E+00  0.00000000000E+00  0.20098112478E+04  0.20098112478E+04  0.50400001928E-02 0.  1.
       -1   -1    0    0    0  501  0.00000000000E+00  0.00000000000E+00 -0.83927174662E+03  0.83927174664E+03  0.50400001928E-02 0. -1.
    10030    2    1    2    0    0  0.00000000000E+00  0.00000000000E+00  0.11705395012E+04  0.28490829944E+04  0.25975201992E+04 0.  0.
        5    1    3    3  502    0 -0.74540014610E+03 -0.53056010457E+03 -0.42575949840E+03  0.10091623471E+04  0.46999998093E+01 0. -1.
       -5    1    3    3    0  502  0.74540014610E+03  0.53056010457E+03  0.15962989996E+04  0.18399206473E+04  0.46999998093E+01 0.  1.
</event>
<event>
 5   0  0.6984287E-06  0.2613488E+04  0.7818609E-02  0.8363634E-01
        1   -1    0    0  501    0  0.00000000000E+00  0.00000000000E+00  0.15855135155E+04  0.15855135155E+04  0.50400001928E-02 0. -1.
       -1   -1    0    0    0  501  0.00000000000E+00  0.00000000000E+00 -0.10769884451E+04  0.10769884451E+04  0.50400001928E-02 0.  1.
    10030    2    1    2    0    0  0.00000000000E+00  0.00000000000E+00  0.50852507045E+03  0.26625019606E+04  0.26134878885E+04 0.  0.
        3    1    3    3  502    0  0.37175833661E+03 -0.12199989949E+04  0.54416555914E+03  0.13866210637E+04  0.10100000352E+00 0. -1.
       -3    1    3    3    0  502 -0.37175833661E+03  0.12199989949E+04 -0.35640488697E+02  0.12758808969E+04  0.10100000352E+00 0.  1.
</event>
<event>
 5   0  0.1720129E-05  0.2584670E+04  0.7818609E-02  0.8373427E-01
        2   -1    0    0  501    0  0.00000000000E+00  0.00000000000E+00  0.16952798686E+04  0.16952798686E+04  0.25500000920E-02 0.  1.
       -2   -1    0    0    0  501  0.00000000000E+00  0.00000000000E+00 -0.98516465603E+03  0.98516465603E+03  0.25500000920E-02 0. -1.
    10030    2    1    2    0    0  0.00000000000E+00  0.00000000000E+00  0.71011521259E+03  0.26804445247E+04  0.25846700437E+04 0.  0.
        3    1    3    3  502    0 -0.54828085701E+03  0.11115895124E+04  0.73452141506E+03  0.14407514920E+04  0.10100000352E+00 0. -1.
       -3    1    3    3    0  502  0.54828085701E+03 -0.11115895124E+04 -0.24406202464E+02  0.12396930327E+04  0.10100000352E+00 0.  1.
</event>
<event>
 5   0  0.6993678E-06  0.2605112E+04  0.7818609E-02  0.8366467E-01
        1   -1    0    0  501    0  0.00000000000E+00  0.00000000000E+00  0.14197237525E+04  0.14197237525E+04  0.50400001928E-02 0. -1.
       -1   -1    0    0    0  501  0.00000000000E+00  0.00000000000E+00 -0.11950574939E+04  0.11950574939E+04  0.50400001928E-02 0.  1.
    10030    2    1    2    0    0  0.00000000000E+00  0.00000000000E+00  0.22466625863E+03  0.26147812465E+04  0.26051115214E+04 0.  0.
        1    1    3    3  502    0  0.10914232634E+04 -0.68671113245E+02 -0.59791696871E+03  0.12463647793E+04  0.50400001928E-02 0.  1.
       -1    1    3    3    0  502 -0.10914232634E+04  0.68671113245E+02  0.82258322734E+03  0.13684164671E+04  0.50400001928E-02 0. -1.
</event>
<event>
 5   0  0.6918420E-06  0.2671912E+04  0.7818609E-02  0.8344177E-01
       -1   -1    0    0    0  501  0.00000000000E+00  0.00000000000E+00  0.60185582488E+03  0.60185582490E+03  0.50400001928E-02 0.  1.
        1   -1    0    0  501    0  0.00000000000E+00  0.00000000000E+00 -0.29654574153E+04  0.29654574153E+04  0.50400001928E-02 0. -1.
    10030    2    1    2    0    0  0.00000000000E+00  0.00000000000E+00 -0.23636015905E+04  0.35673132402E+04  0.26719115396E+04 0.  0.
        4    1    3    3  502    0 -0.44774781633E+03 -0.10334092913E+03 -0.28566238522E+04  0.28933473522E+04  0.12699999809E+01 0. -1.
       -4    1    3    3    0  502  0.44774781633E+03  0.10334092913E+03  0.49302226179E+03  0.67396588799E+03  0.12699999809E+01 0.  1.
</event>
<event>
 5   0  0.6706225E-06  0.2574638E+04  0.7818609E-02  0.8376867E-01
       -1   -1    0    0    0  501  0.00000000000E+00  0.00000000000E+00  0.14181314412E+04  0.14181314412E+04  0.50400001928E-02 0.  1.
        1   -1    0    0  501    0  0.00000000000E+00  0.00000000000E+00 -0.11685733029E+04  0.11685733029E+04  0.50400001928E-02 0. -1.
    10030    2    1    2    0    0  0.00000000000E+00  0.00000000000E+00  0.24955813833E+03  0.25867047442E+04  0.25746382598E+04 0.  0.
        5    1    3    3  502    0 -0.12736135703E+04 -0.17816068881E+03  0.66752914639E+02  0.12877541688E+04  0.46999998093E+01 0. -1.
       -5    1    3    3    0  502  0.12736135703E+04  0.17816068881E+03  0.18280522369E+03  0.12989505754E+04  0.46999998093E+01 0.  1.
</event>
<event>
 5   0  0.6993678E-06  0.2577026E+04  0.7818609E-02  0.8376047E-01
       -1   -1    0    0    0  501  0.00000000000E+00  0.00000000000E+00  0.69699362944E+03  0.69699362946E+03  0.50400001928E-02 0.  1.
        1   -1    0    0  501    0  0.00000000000E+00  0.00000000000E+00 -0.23820382541E+04  0.23820382541E+04  0.50400001928E-02 0. -1.
    10030    2    1    2    0    0  0.00000000000E+00  0.00000000000E+00 -0.16850446246E+04  0.30790318835E+04  0.25770257959E+04 0.  0.
        1    1    3    3  502    0  0.45787964647E+03  0.59436041552E+03  0.40908327289E+03  0.85455672624E+03  0.50400001928E-02 0.  1.
       -1    1    3    3    0  502 -0.45787964647E+03 -0.59436041552E+03 -0.20941278975E+04  0.22244751573E+04  0.50400001928E-02 0. -1.
</event>
<event>
 5   0  0.6993678E-06  0.2574585E+04  0.7818609E-02  0.8376886E-01
       -1   -1    0    0    0  501  0.00000000000E+00  0.00000000000E+00  0.14655773213E+04  0.14655773213E+04  0.50400001928E-02 0. -1.
        1   -1    0    0  501    0  0.00000000000E+00  0.00000000000E+00 -0.11306954438E+04  0.11306954438E+04  0.50400001928E-02 0.  1.
    10030    2    1    2    0    0  0.00000000000E+00  0.00000000000E+00  0.33488187755E+03  0.25962727651E+04  0.25745847042E+04 0.  0.
        1    1    3    3  502    0  0.89656172984E+03 -0.34718747475E+03  0.10306656577E+04  0.14094799665E+04  0.50400001928E-02 0. -1.
       -1    1    3    3    0  502 -0.89656172984E+03  0.34718747475E+03 -0.69578378014E+03  0.11867927986E+04  0.50400001928E-02 0.  1.
</event>
<event>
 5   0  0.1677971E-05  0.2596895E+04  0.7818609E-02  0.8369257E-01
        2   -1    0    0  501    0  0.00000000000E+00  0.00000000000E+00  0.24489408407E+04  0.24489408407E+04  0.25500000920E-02 0.  1.
       -2   -1    0    0    0  501  0.00000000000E+00  0.00000000000E+00 -0.68844720311E+03  0.68844720312E+03  0.25500000920E-02 0. -1.
    10030    2    1    2    0    0  0.00000000000E+00  0.00000000000E+00  0.17604936376E+04  0.31373880438E+04  0.25968954329E+04 0.  0.
        4    1    3    3  502    0 -0.36245381745E+02  0.12512631219E+04  0.46350012135E+03  0.13348434752E+04  0.12699999809E+01 0. -1.
       -4    1    3    3    0  502  0.36245381745E+02 -0.12512631219E+04  0.12969935162E+04  0.18025445686E+04  0.12699999809E+01 0.  1.
</event>
<event>
 5   0  0.6918420E-06  0.2591241E+04  0.7818609E-02  0.8371183E-01
        1   -1    0    0  501    0  0.00000000000E+00  0.00000000000E+00  0.17588421937E+04  0.17588421937E+04  0.50400001928E-02 0.  1.
       -1   -1    0    0    0  501  0.00000000000E+00  0.00000000000E+00 -0.95439631639E+03  0.95439631640E+03  0.50400001928E-02 0. -1.
    10030    2    1    2    0    0  0.00000000000E+00  0.00000000000E+00  0.80444587733E+03  0.27132385101E+04  0.25912410238E+04 0.  0.
        4    1    3    3  502    0 -0.20749589615E+03  0.75363787099E+03 -0.67967359155E+03  0.10358486335E+04  0.12699999809E+01 0. -1.
       -4    1    3    3    0  502  0.20749589615E+03 -0.75363787099E+03  0.14841194689E+04  0.16773898767E+04  0.12699999809E+01 0.  1.
</event>
<event>
 5   0  0.6993678E-06  0.2585371E+04  0.7818609E-02  0.8373187E-01
       -1   -1    0    0    0  501  0.00000000000E+00  0.00000000000E+00  0.72453518297E+03  0.72453518299E+03  0.50400001928E-02 0.  1.
        1   -1    0    0  501    0  0.00000000000E+00  0.00000000000E+00 -0.23063559726E+04  0.23063559727E+04  0.50400001928E-02 0. -1.
    10030    2    1    2    0    0  0.00000000000E+00  0.00000000000E+00 -0.15818207897E+04  0.30308911556E+04  0.25853711893E+04 0.  0.
        1    1    3    3  502    0 -0.72241765626E+03 -0.33841340752E+03 -0.19833570220E+04  0.21377829593E+04  0.50400001928E-02 0. -1.
       -1    1    3    3    0  502  0.72241765626E+03  0.33841340752E+03  0.40153623230E+03  0.89310819633E+03  0.50400001928E-02 0.  1.
</event>
<event>
 5   0  0.6984287E-06  0.2608300E+04  0.7818609E-02  0.8365387E-01
       -1   -1    0    0    0  501  0.00000000000E+00  0.00000000000E+00  0.11955109606E+04  0.11955109606E+04  0.50400001928E-02 0. -1.
        1   -1    0    0  501    0  0.00000000000E+00  0.00000000000E+00 -0.14226609225E+04  0.14226609225E+04  0.50400001928E-02 0.  1.
    10030    2    1    2    0    0  0.00000000000E+00  0.00000000000E+00 -0.22714996195E+03  0.26181718831E+04  0.26082996193E+04 0.  0.
        3    1    3    3  502    0  0.10094411271E+04 -0.71409697971E+03 -0.52975350324E+03  0.13451931720E+04  0.10100000352E+00 0.  1.
       -3    1    3    3    0  502 -0.10094411271E+04  0.71409697971E+03  0.30260354129E+03  0.12729787111E+04  0.10100000352E+00 0. -1.
</event>
<event>
 5   0  0.6984287E-06  0.2604614E+04  0.7818609E-02  0.8366636E-01
        1   -1    0    0  501    0  0.00000000000E+00  0.00000000000E+00  0.18610955777E+04  0.18610955777E+04  0.50400001928E-02 0.  1.
       -1   -1    0    0    0  501  0.00000000000E+00  0.00000000000E+00 -0.91129304159E+03  0.91129304160E+03  0.50400001928E-02 0. -1.
    10030    2    1    2    0    0  0.00000000000E+00  0.00000000000E+00  0.94980253610E+03  0.27723886193E+04  0.26046139443E+04 0.  0.
        3    1    3    3  502    0  0.32806496238E+03  0.41498594296E+03  0.17415828112E+04  0.18201512714E+04  0.10100000352E+00 0.  1.
       -3    1    3    3    0  502 -0.32806496238E+03 -0.41498594296E+03 -0.79178027511E+03  0.95223734786E+03  0.10100000352E+00 0. -1.
</event>
<event>
 5   0  0.1677971E-05  0.2672629E+04  0.7818609E-02  0.8343941E-01
        2   -1    0    0  501    0  0.00000000000E+00  0.00000000000E+00  0.15270047613E+04  0.15270047613E+04  0.25500000920E-02 0.  1.
       -2   -1    0    0    0  501  0.00000000000E+00  0.00000000000E+00 -0.11694370419E+04  0.11694370419E+04  0.25500000920E-02 0. -1.
    10030    2    1    2    0    0  0.00000000000E+00  0.00000000000E+00  0.35756771936E+03  0.26964418032E+04  0.26726286170E+04 0.  0.
        4    1    3    3  502    0 -0.47735611667E+03 -0.54944164341E+03  0.13094742063E+04  0.14981586337E+04  0.12699999809E+01 0.  1.
       -4    1    3    3    0  502  0.47735611667E+03  0.54944164341E+03 -0.95190648699E+03  0.11982831696E+04  0.12699999809E+01 0. -1.
</event>
<event>
 5   0  0.7138294E-06  0.2599576E+04  0.7818609E-02  0.8368345E-01
        1   -1    0    0  501    0  0.00000000000E+00  0.00000000000E+00  0.15662028825E+04  0.15662028825E+04  0.50400001928E-02 0. -1.
       -1   -1    0    0    0  501  0.00000000000E+00  0.00000000000E+00 -0.10786908857E+04  0.10786908857E+04  0.50400001928E-02 0.  1.
    10030    2    1    2    0    0  0.00000000000E+00  0.00000000000E+00  0.48751199684E+03  0.26448937683E+04  0.25995759459E+04 0.  0.
        2    1    3    3  502    0  0.72212108657E+02 -0.12597632188E+04 -0.73498431067E+02  0.12639699266E+04  0.25500000920E-02 0.  1.
       -2    1    3    3    0  502 -0.72212108657E+02  0.12597632188E+04  0.56101042791E+03  0.13809238416E+04  0.25500000920E-02 0. -1.
</event>
<event>
 5   0  0.6918420E-06  0.2578973E+04  0.7818609E-02  0.8375379E-01
       -1   -1    0    0    0  501  0.00000000000E+00  0.00000000000E+00  0.15257356095E+04  0.15257356095E+04  0.50400001928E-02 0.  1.
        1   -1    0    0  501    0  0.00000000000E+00  0.00000000000E+00 -0.10898187883E+04  0.10898187883E+04  0.50400001928E-02 0. -1.
    10030    2    1    2    0    0  0.00000000000E+00  0.00000000000E+00  0.43591682114E+03  0.26155543978E+04  0.25789729221E+04 0.  0.
        4    1    3    3  502    0 -0.74043931728E+03  0.42619210192E+03 -0.76160084089E+03  0.11445206613E+04  0.12699999809E+01 0. -1.
       -4    1    3    3    0  502  0.74043931728E+03 -0.42619210192E+03  0.11975176620E+04  0.14710337366E+04  0.12699999809E+01 0.  1.
</event>
<event>
 5   0  0.1677971E-05  0.2617816E+04  0.7818609E-02  0.8362174E-01
        2   -1    0    0  501    0  0.00000000000E+00  0.00000000000E+00  0.13600431313E+04  0.13600431313E+04  0.25500000920E-02 0.  1.
       -2   -1    0    0    0  501  0.00000000000E+00  0.00000000000E+00 -0.12596957653E+04  0.12596957653E+04  0.25500000920E-02 0. -1.
    10030    2    1    2    0    0  0.00000000000E+00  0.00000000000E+00  0.10034736594E+03  0.26197388966E+04  0.26178163214E+04 0.  0.
        4    1    3    3  502    0  0.11992452420E+04  0.34446254353E+03  0.44593266246E+03  0.13250287343E+04  0.12699999809E+01 0.  1.
       -4    1    3    3    0  502 -0.11992452420E+04 -0.34446254353E+03 -0.34558529652E+03  0.12947101623E+04  0.12699999809E+01 0. -1.
</event>
<event>
 5   0  0.1869956E-05  0.2619824E+04  0.7818609E-02  0.8361499E-01
        2   -1    0    0  501    0  0.00000000000E+00  0.00000000000E+00  0.17007574624E+04  0.17007574624E+04  0.25500000920E-02 0.  1.
       -2   -1    0    0    0  501  0.00000000000E+00  0.00000000000E+00 -0.10088850634E+04  0.10088850635E+04  0.25500000920E-02 0. -1.
    10030    2    1    2    0    0  0.00000000000E+00  0.00000000000E+00  0.69187239898E+03  0.27096425259E+04  0.26198235058E+04 0.  0.
        5    1    3    3  502    0 -0.13514253051E+02 -0.96548534357E+03 -0.56956739759E+03  0.11210591840E+04  0.46999998093E+01 0. -1.
       -5    1    3    3    0  502  0.13514253051E+02  0.96548534357E+03  0.12614397966E+04  0.15885833419E+04  0.46999998093E+01 0.  1.
</event>
<event>
 5   0  0.6918420E-06  0.2549335E+04  0.7818609E-02  0.8385618E-01
       -1   -1    0    0    0  501  0.00000000000E+00  0.00000000000E+00  0.78116605307E+03  0.78116605308E+03  0.50400001928E-02 0.  1.
        1   -1    0    0  501    0  0.00000000000E+00  0.00000000000E+00 -0.20799382785E+04  0.20799382785E+04  0.50400001928E-02 0. -1.
    10030    2    1    2    0    0  0.00000000000E+00  0.00000000000E+00 -0.12987722254E+04  0.28611043316E+04  0.25493349530E+04 0.  0.
        4    1    3    3  502    0 -0.17027542853E+03 -0.47859186976E+03 -0.19614301816E+04  0.20261426084E+04  0.12699999809E+01 0. -1.
       -4    1    3    3    0  502  0.17027542853E+03  0.47859186976E+03  0.66265795619E+03  0.83496172317E+03  0.12699999809E+01 0.  1.
</event>
<event>
 5   0  0.1677971E-05  0.2604474E+04  0.7818609E-02  0.8366683E-01
        2   -1    0    0  501    0  0.00000000000E+00  0.00000000000E+00  0.24361662085E+04  0.24361662085E+04  0.25500000920E-02 0.  1.
       -2   -1    0    0    0  501  0.00000000000E+00  0.00000000000E+00 -0.69610220802E+03  0.69610220802E+03  0.25500000920E-02 0. -1.
    10030    2    1    2    0    0  0.00000000000E+00  0.00000000000E+00  0.17400640004E+04  0.31322684165E+04  0.26044735950E+04 0.  0.
        4    1    3    3  502    0  0.13956705854E+03  0.12335986715E+04  0.39719895321E+03  0.13034620314E+04  0.12699999809E+01 0. -1.
       -4    1    3    3    0  502 -0.13956705854E+03 -0.12335986715E+04  0.13428650472E+04  0.18288063851E+04  0.12699999809E+01 0.  1.
</event>
<event>
 5   0  0.1720129E-05  0.2607208E+04  0.7818609E-02  0.8365757E-01
       -2   -1    0    0    0  501  0.00000000000E+00  0.00000000000E+00  0.92943676803E+03  0.92943676804E+03  0.25500000920E-02 0.  1.
        2   -1    0    0  501    0  0.00000000000E+00  0.00000000000E+00 -0.18284009153E+04  0.18284009154E+04  0.25500000920E-02 0. -1.
    10030    2    1    2    0    0  0.00000000000E+00  0.00000000000E+00 -0.89896414732E+03  0.27578376834E+04  0.26072077305E+04 0.  0.
        3    1    3    3  502    0  0.73105484193E+03  0.48577228345E+03 -0.14689961843E+04  0.17112468241E+04  0.10100000352E+00 0. -1.
       -3    1    3    3    0  502 -0.73105484193E+03 -0.48577228345E+03  0.57003203702E+03  0.10465908593E+04  0.10100000352E+00 0.  1.
</event>
<event>
 5   0  0.6706225E-06  0.2542878E+04  0.7818609E-02  0.8387867E-01
        1   -1    0    0  501    0  0.00000000000E+00  0.00000000000E+00  0.88798241670E+03  0.88798241672E+03  0.50400001928E-02 0.  1.
       -1   -1    0    0    0  501  0.00000000000E+00  0.00000000000E+00 -0.18204830795E+04  0.18204830795E+04  0.50400001928E-02 0. -1.
    10030    2    1    2    0    0  0.00000000000E+00  0.00000000000E+00 -0.93250066282E+03  0.27084654963E+04  0.25428778693E+04 0.  0.
        5    1    3    3  502    0 -0.83987125965E+03 -0.77461160806E+03  0.12786033934E+03  0.11496857103E+04  0.46999998093E+01 0. -1.
       -5    1    3    3    0  502  0.83987125965E+03  0.77461160806E+03 -0.10603610022E+04  0.15587797859E+04  0.46999998093E+01 0.  1.
</event>
<event>
 5   0  0.1681731E-05  0.2669923E+04  0.7818609E-02  0.8344831E-01
       -2   -1    0    0    0  501  0.00000000000E+00  0.00000000000E+00  0.11294362011E+04  0.11294362011E+04  0.25500000920E-02 0.  1.
        2   -1    0    0  501    0  0.00000000000E+00  0.00000000000E+00 -0.15778859961E+04  0.15778859961E+04  0.25500000920E-02 0. -1.
    10030    2    1    2    0    0  0.00000000000E+00  0.00000000000E+00 -0.44844979501E+03  0.27073221972E+04  0.26699225196E+04 0.  0.
        2    1    3    3  502    0 -0.36579354139E+03  0.33105320041E+03  0.10336027761E+04  0.11453103663E+04  0.25500000920E-02 0.  1.
       -2    1    3    3    0  502  0.36579354139E+03 -0.33105320041E+03 -0.14820525711E+04  0.15620118309E+04  0.25500000920E-02 0. -1.
</event>
<event>
 5   0  0.5840500E-06  0.2166531E+04  0.7818609E-02  0.8532489E-01
       -3   -1    0    0    0  501  0.00000000000E+00  0.00000000000E+00  0.11490814129E+04  0.11490814174E+04  0.10100000352E+00 0.  1.
        3   -1    0    0  501    0  0.00000000000E+00  0.00000000000E+00 -0.10212192051E+04  0.10212192101E+04  0.10100000352E+00 0. -1.
    10030    2    1    2    0    0  0.00000000000E+00  0.00000000000E+00  0.12786220785E+03  0.21703006274E+04  0.21665308835E+04 0.  0.
        2    1    3    3  502    0  0.49838413291E+03  0.92565122644E+02 -0.89507941773E+03  0.10286506744E+04  0.25500000920E-02 0. -1.
       -2    1    3    3    0  502 -0.49838413291E+03 -0.92565122644E+02  0.10229416256E+04  0.11416499530E+04  0.25500000920E-02 0.  1.
</event>
<event>
 5   0  0.1681731E-05  0.2592709E+04  0.7818609E-02  0.8370682E-01
       -2   -1    0    0    0  501  0.00000000000E+00  0.00000000000E+00  0.14581469884E+04  0.14581469884E+04  0.25500000920E-02 0. -1.
        2   -1    0    0  501    0  0.00000000000E+00  0.00000000000E+00 -0.11525138319E+04  0.11525138319E+04  0.25500000920E-02 0.  1.
    10030    2    1    2    0    0  0.00000000000E+00  0.00000000000E+00  0.30563315648E+03  0.26106608204E+04  0.25927086787E+04 0.  0.
        2    1    3    3  502    0  0.11914009395E+04  0.29276695161E+03 -0.26887414908E+03  0.12559625769E+04  0.25500000920E-02 0.  1.
       -2    1    3    3    0  502 -0.11914009395E+04 -0.29276695161E+03  0.57450730556E+03  0.13546982434E+04  0.25500000920E-02 0. -1.
</event>
<event>
 5   0  0.6984287E-06  0.2589531E+04  0.7818609E-02  0.8371766E-01
       -1   -1    0    0    0  501  0.00000000000E+00  0.00000000000E+00  0.10976975435E+04  0.10976975435E+04  0.50400001928E-02 0.  1.
        1   -1    0    0  501    0  0.00000000000E+00  0.00000000000E+00 -0.15272122373E+04  0.15272122373E+04  0.50400001928E-02 0. -1.
    10030    2    1    2    0    0  0.00000000000E+00  0.00000000000E+00 -0.42951469379E+03  0.26249097809E+04  0.25895305531E+04 0.  0.
        3    1    3    3  502    0 -0.72249206399E+02  0.35763492506E+03 -0.14740240935E+04  0.15185090471E+04  0.10100000352E+00 0. -1.
       -3    1    3    3    0  502  0.72249206399E+02 -0.35763492506E+03  0.10445093997E+04  0.11064007338E+04  0.10100000352E+00 0.  1.
</event>
<event>
 5   0  0.1720129E-05  0.2598754E+04  0.7818609E-02  0.8368624E-01
       -2   -1    0    0    0  501  0.00000000000E+00  0.00000000000E+00  0.11368931275E+04  0.11368931275E+04  0.25500000920E-02 0.  1.
        2   -1    0    0  501    0  0.00000000000E+00  0.00000000000E+00 -0.14850832519E+04  0.14850832519E+04  0.25500000920E-02 0. -1.
    10030    2    1    2    0    0  0.00000000000E+00  0.00000000000E+00 -0.34819012444E+03  0.26219763794E+04  0.25987542730E+04 0.  0.
        3    1    3    3  502    0 -0.38434145312E+03  0.97701395204E+03 -0.94651194890E+03  0.14135626957E+04  0.10100000352E+00 0. -1.
       -3    1    3    3    0  502  0.38434145312E+03 -0.97701395204E+03  0.59832182446E+03  0.12084136837E+04  0.10100000352E+00 0.  1.
</event>
<event>
 5   0  0.6918420E-06  0.2617922E+04  0.7818609E-02  0.8362139E-01
        1   -1    0    0  501    0  0.00000000000E+00  0.00000000000E+00  0.99411826806E+03  0.99411826807E+03  0.50400001928E-02 0. -1.
       -1   -1    0    0    0  501  0.00000000000E+00  0.00000000000E+00 -0.17235159723E+04  0.17235159724E+04  0.50400001928E-02 0.  1.
    10030    2    1    2    0    0  0.00000000000E+00  0.00000000000E+00 -0.72939770429E+03  0.27176342404E+04  0.26179218578E+04 0.  0.
        4    1    3    3  502    0 -0.12652686773E+04  0.31621479110E+03 -0.24872769721E+03  0.13276911162E+04  0.12699999809E+01 0.  1.
       -4    1    3    3    0  502  0.12652686773E+04 -0.31621479110E+03 -0.48067000708E+03  0.13899431242E+04  0.12699999809E+01 0. -1.
</event>
<event>
 5   0  0.6993678E-06  0.2618859E+04  0.7818609E-02  0.8361823E-01
       -1   -1    0    0    0  501  0.00000000000E+00  0.00000000000E+00  0.14115476332E+04  0.14115476332E+04  0.50400001928E-02 0.  1.
        1   -1    0    0  501    0  0.00000000000E+00  0.00000000000E+00 -0.12146986666E+04  0.12146986666E+04  0.50400001928E-02 0. -1.
    10030    2    1    2    0    0  0.00000000000E+00  0.00000000000E+00  0.19684896656E+03  0.26262462999E+04  0.26188585513E+04 0.  0.
        1    1    3    3  502    0  0.12456221271E+04 -0.31463095894E+03  0.35219546895E+03  0.13321444261E+04  0.50400001928E-02 0. -1.
       -1    1    3    3    0  502 -0.12456221271E+04  0.31463095894E+03 -0.15534650239E+03  0.12941018737E+04  0.50400001928E-02 0.  1.
</event>
<event>
 5   0  0.1681731E-05  0.2596571E+04  0.7818609E-02  0.8369367E-01
       -2   -1    0    0    0  501  0.00000000000E+00  0.00000000000E+00  0.12216605190E+04  0.12216605190E+04  0.25500000920E-02 0.  1.
        2   -1    0    0  501    0  0.00000000000E+00  0.00000000000E+00 -0.13797168298E+04  0.13797168298E+04  0.25500000920E-02 0. -1.
    10030    2    1    2    0    0  0.00000000000E+00  0.00000000000E+00 -0.15805631078E+03  0.26013773489E+04  0.25965712611E+04 0.  0.
        2    1    3    3  502    0 -0.65990628353E+03  0.33616795623E+03 -0.11473321985E+04  0.13655974413E+04  0.25500000920E-02 0. -1.
       -2    1    3    3    0  502  0.65990628353E+03 -0.33616795623E+03  0.98927588776E+03  0.12357799076E+04  0.25500000920E-02 0.  1.
</event>
<event>
 5   0  0.6984287E-06  0.2650629E+04  0.7818609E-02  0.8351204E-01
        1   -1    0    0  501    0  0.00000000000E+00  0.00000000000E+00  0.19589849591E+04  0.19589849591E+04  0.50400001928E-02 0.  1.
       -1   -1    0    0    0  501  0.00000000000E+00  0.00000000000E+00 -0.89661643753E+03  0.89661643754E+03  0.50400001928E-02 0. -1.
    10030    2    1    2    0    0  0.00000000000E+00  0.00000000000E+00  0.10623685215E+04  0.28556013966E+04  0.26506286916E+04 0.  0.
        3    1    3    3  502    0 -0.10964267084E+04  0.62496702178E+02 -0.26807595461E+03  0.11304521628E+04  0.10100000352E+00 0. -1.
       -3    1    3    3    0  502  0.10964267084E+04 -0.62496702178E+02  0.13304444761E+04  0.17251492338E+04  0.10100000352E+00 0.  1.
</event>
<event>
 5   0  0.1677971E-05  0.2576194E+04  0.7818609E-02  0.8376333E-01
        2   -1    0    0  501    0  0.00000000000E+00  0.00000000000E+00  0.13337361864E+04  0.13337361864E+04  0.25500000920E-02 0.  1.
       -2   -1    0    0    0  501  0.00000000000E+00  0.00000000000E+00 -0.12440199622E+04  0.12440199622E+04  0.25500000920E-02 0. -1.
    10030    2    1    2    0    0  0.00000000000E+00  0.00000000000E+00  0.89716224251E+02  0.25777561486E+04  0.25761944338E+04 0.  0.
        4    1    3    3  502    0  0.10424840416E+03  0.12779901733E+04  0.16767702962E+03  0.12931526639E+04  0.12699999809E+01 0. -1.
       -4    1    3    3    0  502 -0.10424840416E+03 -0.12779901733E+04 -0.77960805372E+02  0.12846034847E+04  0.12699999809E+01 0.  1.
</event>
<event>
 5   0  0.1720129E-05  0.2585818E+04  0.7818609E-02  0.8373034E-01
        2   -1    0    0  501    0  0.00000000000E+00  0.00000000000E+00  0.20785515274E+04  0.20785515274E+04  0.25500000920E-02 0.  1.
       -2   -1    0    0    0  501  0.00000000000E+00  0.00000000000E+00 -0.80422048122E+03  0.80422048123E+03  0.25500000920E-02 0. -1.
    10030    2    1    2    0    0  0.00000000000E+00  0.00000000000E+00  0.12743310462E+04  0.28827720086E+04  0.25858180211E+04 0.  0.
        3    1    3    3  502    0 -0.13776437345E+03  0.50914724287E+03 -0.67881914027E+03  0.85965421706E+03  0.10100000352E+00 0. -1.
       -3    1    3    3    0  502  0.13776437345E+03 -0.50914724287E+03  0.19531501864E+04  0.20231177915E+04  0.10100000352E+00 0.  1.
</event>
<event>
 5   0  0.1869956E-05  0.2593134E+04  0.7818609E-02  0.8370537E-01
        2   -1    0    0  501    0  0.00000000000E+00  0.00000000000E+00  0.12873950000E+04  0.12873950000E+04  0.25500000920E-02 0.  1.
       -2   -1    0    0    0  501  0.00000000000E+00  0.00000000000E+00 -0.13058041423E+04  0.13058041423E+04  0.25500000920E-02 0. -1.
    10030    2    1    2    0    0  0.00000000000E+00  0.00000000000E+00 -0.18409142320E+02  0.25931991423E+04  0.25931337982E+04 0.  0.
        5    1    3    3  502    0 -0.10235031516E+03 -0.77371396067E+03 -0.10445831390E+04  0.13039497323E+04  0.46999998093E+01 0. -1.
       -5    1    3    3    0  502  0.10235031516E+03  0.77371396067E+03  0.10261739967E+04  0.12892494101E+04  0.46999998093E+01 0.  1.
</event>
<event>
 5   0  0.6918420E-06  0.2602457E+04  0.7818609E-02  0.8367367E-01
       -1   -1    0    0    0  501  0.00000000000E+00  0.00000000000E+00  0.12302076805E+04  0.12302076805E+04  0.50400001928E-02 0.  1.
        1   -1    0    0  501    0  0.00000000000E+00  0.00000000000E+00 -0.13763493411E+04  0.13763493411E+04  0.50400001928E-02 0. -1.
    10030    2    1    2    0    0  0.00000000000E+00  0.00000000000E+00 -0.14614166067E+03  0.26065570216E+04  0.26024569395E+04 0.  0.
        4    1    3    3  502    0  0.88238231730E+03 -0.23216860873E+03 -0.10022679151E+04  0.13553757425E+04  0.12699999809E+01 0.  1.
       -4    1    3    3    0  502 -0.88238231730E+03  0.23216860873E+03  0.85612625446E+03  0.12511812791E+04  0.12699999809E+01 0. -1.
</event>
<event>
 5   0  0.6984287E-06  0.2655864E+04  0.7818609E-02  0.8349469E-01
        1   -1    0    0  501    0  0.00000000000E+00  0.00000000000E+00  0.18958769142E+04  0.18958769142E+04  0.50400001928E-02 0.  1.
       -1   -1    0    0    0  501  0.00000000000E+00  0.00000000000E+00 -0.93012554243E+03  0.93012554245E+03  0.50400001928E-02 0. -1.
    10030    2    1    2    0    0  0.00000000000E+00  0.00000000000E+00  0.96575137176E+03  0.28260024567E+04  0.26558641104E+04 0.  0.
        3    1    3    3  502    0 -0.24450143065E+03  0.72009200977E+03  0.16412325230E+04  0.18088553444E+04  0.10100000352E+00 0.  1.
       -3    1    3    3    0  502  0.24450143065E+03 -0.72009200977E+03 -0.67548115124E+03  0.10171471123E+04  0.10100000352E+00 0. -1.
</event>
<event>
 5   0  0.6706225E-06  0.2622701E+04  0.7818609E-02  0.8360531E-01
        1   -1    0    0  501    0  0.00000000000E+00  0.00000000000E+00  0.14048563213E+04  0.14048563213E+04  0.50400001928E-02 0. -1.
       -1   -1    0    0    0  501  0.00000000000E+00  0.00000000000E+00 -0.12240686719E+04  0.12240686719E+04  0.50400001928E-02 0.  1.
    10030    2    1    2    0    0  0.00000000000E+00  0.00000000000E+00  0.18078764939E+03  0.26289249932E+04  0.26227013642E+04 0.  0.
        5    1    3    3  502    0 -0.10070921699E+04  0.79302116562E+03 -0.18685122454E+03  0.12953967260E+04  0.46999998093E+01 0.  1.
       -5    1    3    3    0  502  0.10070921699E+04 -0.79302116562E+03  0.36763887393E+03  0.13335282672E+04  0.46999998093E+01 0. -1.
</event>
<event>
 5   0  0.1677971E-05  0.2519776E+04  0.7818609E-02  0.8395974E-01
        2   -1    0    0  501    0  0.00000000000E+00  0.00000000000E+00  0.11780986391E+04  0.11780986391E+04  0.25500000920E-02 0. -1.
       -2   -1    0    0    0  501  0.00000000000E+00  0.00000000000E+00 -0.13473560606E+04  0.13473560606E+04  0.25500000920E-02 0.  1.
    10030    2    1    2    0    0  0.00000000000E+00  0.00000000000E+00 -0.16925742149E+03  0.25254546997E+04  0.25197764515E+04 0.  0.
        4    1    3    3  502    0  0.26908502888E+03 -0.49160901419E+03 -0.12155466564E+04  0.13385221188E+04  0.12699999809E+01 0.  1.
       -4    1    3    3    0  502 -0.26908502888E+03  0.49160901419E+03  0.10462892350E+04  0.11869325809E+04  0.12699999809E+01 0. -1.
</event>
<event>
 5   0  0.1677971E-05  0.2611363E+04  0.7818609E-02  0.8364352E-01
        2   -1    0    0  501    0  0.00000000000E+00  0.00000000000E+00  0.11443885314E+04  0.11443885314E+04  0.25500000920E-02 0.  1.
       -2   -1    0    0    0  501  0.00000000000E+00  0.00000000000E+00 -0.14897073464E+04  0.14897073464E+04  0.25500000920E-02 0. -1.
    10030    2    1    2    0    0  0.00000000000E+00  0.00000000000E+00 -0.34531881496E+03  0.26340958778E+04  0.26113628644E+04 0.  0.
        4    1    3    3  502    0  0.94723364965E+03  0.88596899280E+03 -0.20985037801E+02  0.12971640713E+04  0.12699999809E+01 0.  1.
       -4    1    3    3    0  502 -0.94723364965E+03 -0.88596899280E+03 -0.32433377716E+03  0.13369318065E+04  0.12699999809E+01 0. -1.
</event>
<event>
 5   0  0.1869956E-05  0.2591068E+04  0.7818609E-02  0.8371242E-01
        2   -1    0    0  501    0  0.00000000000E+00  0.00000000000E+00  0.16079553695E+04  0.16079553695E+04  0.25500000920E-02 0. -1.
       -2   -1    0    0    0  501  0.00000000000E+00  0.00000000000E+00 -0.10438149976E+04  0.10438149976E+04  0.25500000920E-02 0.  1.
    10030    2    1    2    0    0  0.00000000000E+00  0.00000000000E+00  0.56414037191E+03  0.26517703670E+04  0.25910676796E+04 0.  0.
        5    1    3    3  502    0  0.83323378852E+03 -0.48975181717E+03  0.11649807423E+04  0.15137164889E+04  0.46999998093E+01 0. -1.
       -5    1    3    3    0  502 -0.83323378852E+03  0.48975181717E+03 -0.60084037044E+03  0.11380538781E+04  0.46999998093E+01 0.  1.
</event>
<event>
 5   0  0.1677971E-05  0.2623311E+04  0.7818609E-02  0.8360326E-01
        2   -1    0    0  501    0  0.00000000000E+00  0.00000000000E+00  0.13758900756E+04  0.13758900756E+04  0.25500000920E-02 0. -1.
       -2   -1    0    0    0  501  0.00000000000E+00  0.00000000000E+00 -0.12504199850E+04  0.12504199850E+04  0.25500000920E-02 0.  1.
    10030    2    1    2    0    0  0.00000000000E+00  0.00000000000E+00  0.12547009068E+03  0.26263100606E+04  0.26233112265E+04 0.  0.
        4    1    3    3  502    0  0.86441956760E+03 -0.34926839327E+03 -0.86094049864E+03  0.12690270897E+04  0.12699999809E+01 0.  1.
       -4    1    3    3    0  502 -0.86441956760E+03  0.34926839327E+03  0.98641058933E+03  0.13572829709E+04  0.12699999809E+01 0. -1.
</event>
<event>
 5   0  0.1681731E-05  0.2595065E+04  0.7818609E-02  0.8369879E-01
        2   -1    0    0  501    0  0.00000000000E+00  0.00000000000E+00  0.13707151585E+04  0.13707151585E+04  0.25500000920E-02 0.  1.
       -2   -1    0    0    0  501  0.00000000000E+00  0.00000000000E+00 -0.12282569747E+04  0.12282569747E+04  0.25500000920E-02 0. -1.
    10030    2    1    2    0    0  0.00000000000E+00  0.00000000000E+00  0.14245818388E+03  0.25989721332E+04  0.25950648961E+04 0.  0.
        2    1    3    3  502    0 -0.25766673194E+03 -0.59765566529E+03  0.11954190694E+04  0.13611066051E+04  0.25500000920E-02 0.  1.
       -2    1    3    3    0  502  0.25766673194E+03  0.59765566529E+03 -0.10529608856E+04  0.12378655280E+04  0.25500000920E-02 0. -1.
</event>
<event>
 5   0  0.1869956E-05  0.2586929E+04  0.7818609E-02  0.8372655E-01
        2   -1    0    0  501    0  0.00000000000E+00  0.00000000000E+00  0.13911727268E+04  0.13911727268E+04  0.25500000920E-02 0. -1.
       -2   -1    0    0    0  501  0.00000000000E+00  0.00000000000E+00 -0.12026188415E+04  0.12026188415E+04  0.25500000920E-02 0.  1.
    10030    2    1    2    0    0  0.00000000000E+00  0.00000000000E+00  0.18855388526E+03  0.25937915683E+04  0.25869290930E+04 0.  0.
        5    1    3    3  502    0 -0.25568480926E+03  0.12584254068E+04 -0.61115527639E+02  0.12855996360E+04  0.46999998093E+01 0. -1.
       -5    1    3    3    0  502  0.25568480926E+03 -0.12584254068E+04  0.24966941290E+03  0.13081919324E+04  0.46999998093E+01 0.  1.
</event>
<event>
 5   0  0.1869956E-05  0.2560248E+04  0.7818609E-02  0.8381831E-01
        2   -1    0    0  501    0  0.00000000000E+00  0.00000000000E+00  0.16448322678E+04  0.16448322678E+04  0.25500000920E-02 0.  1.
       -2   -1    0    0    0  501  0.00000000000E+00  0.00000000000E+00 -0.99628213528E+03  0.99628213529E+03  0.25500000920E-02 0. -1.
    10030    2    1    2    0    0  0.00000000000E+00  0.00000000000E+00  0.64855013250E+03  0.26411144031E+04  0.25602476473E+04 0.  0.
        5    1    3    3  502    0  0.70608308189E+03  0.62981640272E+03 -0.56520825217E+03  0.11021363246E+04  0.46999998093E+01 0. -1.
       -5    1    3    3    0  502 -0.70608308189E+03 -0.62981640272E+03  0.12137583847E+04  0.15389780785E+04  0.46999998093E+01 0.  1.
</event>
<event>
 5   0  0.7138294E-06  0.2730357E+04  0.7818609E-02  0.8325222E-01
       -1   -1    0    0    0  501  0.00000000000E+00  0.00000000000E+00  0.17525983302E+04  0.17525983302E+04  0.50400001928E-02 0. -1.
        1   -1    0    0  501    0  0.00000000000E+00  0.00000000000E+00 -0.10633995480E+04  0.10633995480E+04  0.50400001928E-02 0.  1.
    10030    2    1    2    0    0  0.00000000000E+00  0.00000000000E+00  0.68919878222E+03  0.28159978781E+04  0.27303569525E+04 0.  0.
        2    1    3    3  502    0 -0.12496017397E+02  0.86492321089E+03  0.14338822430E+04  0.16745944578E+04  0.25500000920E-02 0. -1.
       -2    1    3    3    0  502  0.12496017397E+02 -0.86492321089E+03 -0.74468346081E+03  0.11414034204E+04  0.25500000920E-02 0.  1.
</event>
<event>
 5   0  0.7138294E-06  0.2593829E+04  0.7818609E-02  0.8370300E-01
        1   -1    0    0  501    0  0.00000000000E+00  0.00000000000E+00  0.10465967167E+04  0.10465967167E+04  0.50400001928E-02 0. -1.
       -1   -1    0    0    0  501  0.00000000000E+00  0.00000000000E+00 -0.16071017448E+04  0.16071017448E+04  0.50400001928E-02 0.  1.
    10030    2    1    2    0    0  0.00000000000E+00  0.00000000000E+00 -0.56050502809E+03  0.26536984614E+04  0.25938291458E+04 0.  0.
        2    1    3    3  502    0  0.12649289998E+04  0.26175474554E+03 -0.16170528053E+03  0.13018100933E+04  0.25500000920E-02 0. -1.
       -2    1    3    3    0  502 -0.12649289998E+04 -0.26175474554E+03 -0.39879974756E+03  0.13518883681E+04  0.25500000920E-02 0.  1.
</event>
<event>
 5   0  0.7138294E-06  0.2612675E+04  0.7818609E-02  0.8363909E-01
       -1   -1    0    0    0  501  0.00000000000E+00  0.00000000000E+00  0.13091824392E+04  0.13091824393E+04  0.50400001928E-02 0. -1.
        1   -1    0    0  501    0  0.00000000000E+00  0.00000000000E+00 -0.13034985968E+04  0.13034985968E+04  0.50400001928E-02 0.  1.
    10030    2    1    2    0    0  0.00000000000E+00  0.00000000000E+00  0.56838424741E+01  0.26126810360E+04  0.26126748535E+04 0.  0.
        2    1    3    3  502    0  0.35979471415E+03  0.42377808793E+02  0.12579422411E+04  0.13090709671E+04  0.25500000920E-02 0. -1.
       -2    1    3    3    0  502 -0.35979471415E+03 -0.42377808793E+02 -0.12522583986E+04  0.13036100690E+04  0.25500000920E-02 0.  1.
</event>
<event>
 5   0  0.6706225E-06  0.2595735E+04  0.7818609E-02  0.8369651E-01
        1   -1    0    0  501    0  0.00000000000E+00  0.00000000000E+00  0.14322685588E+04  0.14322685588E+04  0.50400001928E-02 0. -1.
       -1   -1    0    0    0  501  0.00000000000E+00  0.00000000000E+00 -0.11760784381E+04  0.11760784381E+04  0.50400001928E-02 0.  1.
    10030    2    1    2    0    0  0.00000000000E+00  0.00000000000E+00  0.25619012072E+03  0.26083469969E+04  0.25957350940E+04 0.  0.
        5    1    3    3  502    0  0.10983540094E+03  0.10471731194E+04  0.89059858349E+03  0.13790660913E+04  0.46999998093E+01 0. -1.
       -5    1    3    3    0  502 -0.10983540094E+03 -0.10471731194E+04 -0.63440846277E+03  0.12292809056E+04  0.46999998093E+01 0.  1.
</event>
<event>
 5   0  0.1720129E-05  0.2332990E+04  0.7818609E-02  0.8465026E-01
        2   -1    0    0  501    0  0.00000000000E+00  0.00000000000E+00  0.16024097065E+04  0.16024097065E+04  0.25500000920E-02 0. -1.
       -2   -1    0    0    0  501  0.00000000000E+00  0.00000000000E+00 -0.84916526587E+03  0.84916526588E+03  0.25500000920E-02 0.  1.
    10030    2    1    2    0    0  0.00000000000E+00  0.00000000000E+00  0.75324444059E+03  0.24515749723E+04  0.23329900681E+04 0.  0.
        3    1    3    3  502    0  0.19680659113E+03  0.22758240992E+03 -0.80768838800E+03  0.86190900328E+03  0.10100000352E+00 0.  1.
       -3    1    3    3    0  502 -0.19680659113E+03 -0.22758240992E+03  0.15609328286E+04  0.15896659691E+04  0.10100000352E+00 0. -1.
</event>
<event>
 5   0  0.6984287E-06  0.2617379E+04  0.7818609E-02  0.8362322E-01
        1   -1    0    0  501    0  0.00000000000E+00  0.00000000000E+00  0.63490550436E+03  0.63490550438E+03  0.50400001928E-02 0.  1.
       -1   -1    0    0    0  501  0.00000000000E+00  0.00000000000E+00 -0.26975173627E+04  0.26975173628E+04  0.50400001928E-02 0. -1.
    10030    2    1    2    0    0  0.00000000000E+00  0.00000000000E+00 -0.20626118584E+04  0.33324228671E+04  0.26173793166E+04 0.  0.
        3    1    3    3  502    0 -0.11396264822E+03  0.89348763430E+03  0.17746168314E+03  0.91804155517E+03  0.10100000352E+00 0.  1.
       -3    1    3    3    0  502  0.11396264822E+03 -0.89348763430E+03 -0.22400735415E+04  0.24143813120E+04  0.10100000352E+00 0. -1.
</event>
<event>
 5   0  0.7138294E-06  0.2595810E+04  0.7818609E-02  0.8369626E-01
        1   -1    0    0  501    0  0.00000000000E+00  0.00000000000E+00  0.19129089278E+04  0.19129089278E+04  0.50400001928E-02 0. -1.
       -1   -1    0    0    0  501  0.00000000000E+00  0.00000000000E+00 -0.88062624747E+03  0.88062624749E+03  0.50400001928E-02 0.  1.
    10030    2    1    2    0    0  0.00000000000E+00  0.00000000000E+00  0.10322826803E+04  0.27935351753E+04  0.25958103250E+04 0.  0.
        2    1    3    3  502    0 -0.31617269645E+03 -0.99389530318E+03 -0.31520650328E+03  0.10895633012E+04  0.25500000920E-02 0.  1.
       -2    1    3    3    0  502  0.31617269645E+03  0.99389530318E+03  0.13474891836E+04  0.17039718741E+04  0.25500000920E-02 0. -1.
</event>
<event>
 5   0  0.6706225E-06  0.2623142E+04  0.7818609E-02  0.8360383E-01
       -1   -1    0    0    0  501  0.00000000000E+00  0.00000000000E+00  0.89349630789E+03  0.89349630790E+03  0.50400001928E-02 0. -1.
        1   -1    0    0  501    0  0.00000000000E+00  0.00000000000E+00 -0.19252658922E+04  0.19252658922E+04  0.50400001928E-02 0.  1.
    10030    2    1    2    0    0  0.00000000000E+00  0.00000000000E+00 -0.10317695843E+04  0.28187622001E+04  0.26231416023E+04 0.  0.
        5    1    3    3  502    0 -0.78987982418E+03 -0.96964233393E+03 -0.91353591486E+02  0.12539872252E+04  0.46999998093E+01 0. -1.
       -5    1    3    3    0  502  0.78987982418E+03  0.96964233393E+03 -0.94041599281E+03  0.15647749749E+04  0.46999998093E+01 0.  1.
</event>
<event>
 5   0  0.1681731E-05  0.2560860E+04  0.7818609E-02  0.8381619E-01
        2   -1    0    0  501    0  0.00000000000E+00  0.00000000000E+00  0.91457107115E+03  0.91457107115E+03  0.25500000920E-02 0.  1.
       -2   -1    0    0    0  501  0.00000000000E+00  0.00000000000E+00 -0.17926444170E+04  0.17926444170E+04  0.25500000920E-02 0. -1.
    10030    2    1    2    0    0  0.00000000000E+00  0.00000000000E+00 -0.87807334585E+03  0.27072154882E+04  0.25608597967E+04 0.  0.
        2    1    3    3  502    0  0.26838917287E+03  0.53291453170E+03  0.75861326979E+03  0.96515529285E+03  0.25500000920E-02 0.  1.
       -2    1    3    3    0  502 -0.26838917287E+03 -0.53291453170E+03 -0.16366866156E+04  0.17420601953E+04  0.25500000920E-02 0. -1.
</event>
<event>
 5   0  0.1677971E-05  0.2580257E+04  0.7818609E-02  0.8374938E-01
        2   -1    0    0  501    0  0.00000000000E+00  0.00000000000E+00  0.12557405862E+04  0.12557405862E+04  0.25500000920E-02 0. -1.
       -2   -1    0    0    0  501  0.00000000000E+00  0.00000000000E+00 -0.13254584407E+04  0.13254584407E+04  0.25500000920E-02 0.  1.
    10030    2    1    2    0    0  0.00000000000E+00  0.00000000000E+00 -0.69717854526E+02  0.25811990269E+04  0.25802573199E+04 0.  0.
        4    1    3    3  502    0  0.31119193539E+03  0.44850011681E+03 -0.12042327598E+04  0.13221841506E+04  0.12699999809E+01 0.  1.
       -4    1    3    3    0  502 -0.31119193539E+03 -0.44850011681E+03  0.11345149053E+04  0.12590148763E+04  0.12699999809E+01 0. -1.
</event>
<event>
 5   0  0.6984287E-06  0.2585431E+04  0.7818609E-02  0.8373167E-01
       -1   -1    0    0    0  501  0.00000000000E+00  0.00000000000E+00  0.79061196562E+03  0.79061196564E+03  0.50400001928E-02 0.  1.
        1   -1    0    0  501    0  0.00000000000E+00  0.00000000000E+00 -0.21136967606E+04  0.21136967606E+04  0.50400001928E-02 0. -1.
    10030    2    1    2    0    0  0.00000000000E+00  0.00000000000E+00 -0.13230847950E+04  0.29043087262E+04  0.25854314539E+04 0.  0.
        3    1    3    3  502    0 -0.57308404099E+03  0.11343927931E+04 -0.39608872943E+03  0.13312244810E+04  0.10100000352E+00 0.  1.
       -3    1    3    3    0  502  0.57308404099E+03 -0.11343927931E+04 -0.92699606554E+03  0.15730842453E+04  0.10100000352E+00 0. -1.
</event>
<event>
 5   0  0.1681731E-05  0.2594841E+04  0.7818609E-02  0.8369956E-01
        2   -1    0    0  501    0  0.00000000000E+00  0.00000000000E+00  0.16522005583E+04  0.16522005583E+04  0.25500000920E-02 0. -1.
       -2   -1    0    0    0  501  0.00000000000E+00  0.00000000000E+00 -0.10188233493E+04  0.10188233493E+04  0.25500000920E-02 0.  1.
    10030    2    1    2    0    0  0.00000000000E+00  0.00000000000E+00  0.63337720901E+03  0.26710239075E+04  0.25948414259E+04 0.  0.
        2    1    3    3  502    0  0.31595615386E+02  0.52221183706E+03  0.15388102585E+04  0.16253124307E+04  0.25500000920E-02 0. -1.
       -2    1    3    3    0  502 -0.31595615386E+02 -0.52221183706E+03 -0.90543304949E+03  0.10457114768E+04  0.25500000920E-02 0.  1.
</event>
<event>
 5   0  0.6706225E-06  0.2544040E+04  0.7818609E-02  0.8387462E-01
       -1   -1    0    0    0  501  0.00000000000E+00  0.00000000000E+00  0.91209177687E+03  0.91209177689E+03  0.50400001928E-02 0.  1.
        1   -1    0    0  501    0  0.00000000000E+00  0.00000000000E+00 -0.17739818700E+04  0.17739818700E+04  0.50400001928E-02 0. -1.
    10030    2    1    2    0    0  0.00000000000E+00  0.00000000000E+00 -0.86189009314E+03  0.26860736469E+04  0.25440395248E+04 0.  0.
        5    1    3    3  502    0  0.33694139811E+03  0.10737545788E+04  0.19505965737E+03  0.11421684470E+04  0.46999998093E+01 0. -1.
       -5    1    3    3    0  502 -0.33694139811E+03 -0.10737545788E+04 -0.10569497505E+04  0.15439051999E+04  0.46999998093E+01 0.  1.
</event>
<event>
 5   0  0.6918420E-06  0.2601334E+04  0.7818609E-02  0.8367748E-01
        1   -1    0    0  501    0  0.00000000000E+00  0.00000000000E+00  0.17907015938E+04  0.17907015938E+04  0.50400001928E-02 0.  1.
       -1   -1    0    0    0  501  0.00000000000E+00  0.00000000000E+00 -0.94473303690E+03  0.94473303691E+03  0.50400001928E-02 0. -1.
    10030    2    1    2    0    0  0.00000000000E+00  0.00000000000E+00  0.84596855687E+03  0.27354346307E+04  0.26013342383E+04 0.  0.
        4    1    3    3  502    0 -0.41291351898E+03 -0.40370158669E+03 -0.80253956918E+03  0.98870820683E+03  0.12699999809E+01 0. -1.
       -4    1    3    3    0  502  0.41291351898E+03  0.40370158669E+03  0.16485081260E+04  0.17467264239E+04  0.12699999809E+01 0.  1.
</event>
<event>
 5   0  0.7138294E-06  0.2583398E+04  0.7818609E-02  0.8373862E-01
       -1   -1    0    0    0  501  0.00000000000E+00  0.00000000000E+00  0.12264924374E+04  0.12264924375E+04  0.50400001928E-02 0. -1.
        1   -1    0    0  501    0  0.00000000000E+00  0.00000000000E+00 -0.13603722632E+04  0.13603722632E+04  0.50400001928E-02 0.  1.
    10030    2    1    2    0    0  0.00000000000E+00  0.00000000000E+00 -0.13387982571E+03  0.25868647006E+04  0.25833979894E+04 0.  0.
        2    1    3    3  502    0  0.80099303641E+03  0.49227018736E+03  0.82000629387E+03  0.12475296003E+04  0.25500000920E-02 0. -1.
       -2    1    3    3    0  502 -0.80099303641E+03 -0.49227018736E+03 -0.95388611958E+03  0.13393351003E+04  0.25500000920E-02 0.  1.
</event>
<event>
 5   0  0.6706225E-06  0.2588762E+04  0.7818609E-02  0.8372028E-01
        1   -1    0    0  501    0  0.00000000000E+00  0.00000000000E+00  0.13988884737E+04  0.13988884737E+04  0.50400001928E-02 0. -1.
       -1   -1    0    0    0  501  0.00000000000E+00  0.00000000000E+00 -0.11976810953E+04  0.11976810953E+04  0.50400001928E-02 0.  1.
    10030    2    1    2    0    0  0.00000000000E+00  0.00000000000E+00  0.20120737840E+03  0.25965695690E+04  0.25887620820E+04 0.  0.
        5    1    3    3  502    0  0.15842453157E+03 -0.12710241164E+04 -0.86505300724E+02  0.12837857663E+04  0.46999998093E+01 0.  1.
       -5    1    3    3    0  502 -0.15842453157E+03  0.12710241164E+04  0.28771267913E+03  0.13127838026E+04  0.46999998093E+01 0. -1.
</event>
<event>
 5   0  0.6993678E-06  0.2586219E+04  0.7818609E-02  0.8372897E-01
        1   -1    0    0  501    0  0.00000000000E+00  0.00000000000E+00  0.14638891893E+04  0.14638891894E+04  0.50400001928E-02 0. -1.
       -1   -1    0    0    0  501  0.00000000000E+00  0.00000000000E+00 -0.11422532113E+04  0.11422532113E+04  0.50400001928E-02 0.  1.
    10030    2    1    2    0    0  0.00000000000E+00  0.00000000000E+00  0.32163597801E+03  0.26061424007E+04  0.25862189603E+04 0.  0.
        1    1    3    3  502    0  0.50584148556E+03 -0.73273111873E+03 -0.78414893133E+03  0.11864485018E+04  0.50400001928E-02 0.  1.
       -1    1    3    3    0  502 -0.50584148556E+03  0.73273111873E+03  0.11057849093E+04  0.14196938989E+04  0.50400001928E-02 0. -1.
</event>
<event>
 5   0  0.1720129E-05  0.2579173E+04  0.7818609E-02  0.8375310E-01
        2   -1    0    0  501    0  0.00000000000E+00  0.00000000000E+00  0.16727164259E+04  0.16727164259E+04  0.25500000920E-02 0. -1.
       -2   -1    0    0    0  501  0.00000000000E+00  0.00000000000E+00 -0.99421141008E+03  0.99421141008E+03  0.25500000920E-02 0.  1.
    10030    2    1    2    0    0  0.00000000000E+00  0.00000000000E+00  0.67850501580E+03  0.26669278360E+04  0.25791733222E+04 0.  0.
        3    1    3    3  502    0  0.49233196622E+03 -0.28437224805E+03  0.15361218343E+04  0.16379647861E+04  0.10100000352E+00 0. -1.
       -3    1    3    3    0  502 -0.49233196622E+03  0.28437224805E+03 -0.85761681850E+03  0.10289630499E+04  0.10100000352E+00 0.  1.
</event>
<event>
 5   0  0.1720129E-05  0.2635572E+04  0.7818609E-02  0.8356218E-01
       -2   -1    0    0    0  501  0.00000000000E+00  0.00000000000E+00  0.96221355168E+03  0.96221355168E+03  0.25500000920E-02 0.  1.
        2   -1    0    0  501    0  0.00000000000E+00  0.00000000000E+00 -0.18047549601E+04  0.18047549601E+04  0.25500000920E-02 0. -1.
    10030    2    1    2    0    0  0.00000000000E+00  0.00000000000E+00 -0.84254140845E+03  0.27669685118E+04  0.26355718014E+04 0.  0.
        3    1    3    3  502    0  0.30651464951E+03 -0.12316094436E+04 -0.79355740404E+03  0.14968454883E+04  0.10100000352E+00 0. -1.
       -3    1    3    3    0  502 -0.30651464951E+03  0.12316094436E+04 -0.48984004405E+02  0.12701230235E+04  0.10100000352E+00 0.  1.
</event>
<event>
 5   0  0.6706225E-06  0.2656858E+04  0.7818609E-02  0.8349140E-01
       -1   -1    0    0    0  501  0.00000000000E+00  0.00000000000E+00  0.97272117568E+03  0.97272117570E+03  0.50400001928E-02 0.  1.
        1   -1    0    0  501    0  0.00000000000E+00  0.00000000000E+00 -0.18142132441E+04  0.18142132441E+04  0.50400001928E-02 0. -1.
    10030    2    1    2    0    0  0.00000000000E+00  0.00000000000E+00 -0.84149206846E+03  0.27869344198E+04  0.26568580239E+04 0.  0.
        5    1    3    3  502    0 -0.13063722740E+04 -0.12622012249E+03 -0.63613154863E+03  0.14585011055E+04  0.46999998093E+01 0. -1.
       -5    1    3    3    0  502  0.13063722740E+04  0.12622012249E+03 -0.20536051983E+03  0.13284333143E+04  0.46999998093E+01 0.  1.
</event>
<event>
 5   0  0.6984287E-06  0.2410668E+04  0.7818609E-02  0.8435521E-01
        1   -1    0    0  501    0  0.00000000000E+00  0.00000000000E+00  0.15818265618E+04  0.15818265618E+04  0.50400001928E-02 0. -1.
       -1   -1    0    0    0  501  0.00000000000E+00  0.00000000000E+00 -0.91845061699E+03  0.91845061701E+03  0.50400001928E-02 0.  1.
    10030    2    1    2    0    0  0.00000000000E+00  0.00000000000E+00  0.66337594482E+03  0.25002771788E+04  0.24106676102E+04 0.  0.
        3    1    3    3  502    0  0.23702595817E+03  0.11025423659E+04  0.77300268610E+03  0.13672286335E+04  0.10100000352E+00 0. -1.
       -3    1    3    3    0  502 -0.23702595817E+03 -0.11025423659E+04 -0.10962674127E+03  0.11330485453E+04  0.10100000352E+00 0.  1.
</event>
<event>
 5   0  0.6984287E-06  0.2587870E+04  0.7818609E-02  0.8372333E-01
        1   -1    0    0  501    0  0.00000000000E+00  0.00000000000E+00  0.16021772750E+04  0.16021772750E+04  0.50400001928E-02 0. -1.
       -1   -1    0    0    0  501  0.00000000000E+00  0.00000000000E+00 -0.10449955828E+04  0.10449955828E+04  0.50400001928E-02 0.  1.
    10030    2    1    2    0    0  0.00000000000E+00  0.00000000000E+00  0.55718169223E+03  0.26471728578E+04  0.25878703021E+04 0.  0.
        3    1    3    3  502    0 -0.94899366543E+03  0.55761993497E+03  0.97442851973E+03  0.14700475908E+04  0.10100000352E+00 0. -1.
       -3    1    3    3    0  502  0.94899366543E+03 -0.55761993497E+03 -0.41724682750E+03  0.11771252670E+04  0.10100000352E+00 0.  1.
</event>
<event>
 5   0  0.1681731E-05  0.2624279E+04  0.7818609E-02  0.8360001E-01
        2   -1    0    0  501    0  0.00000000000E+00  0.00000000000E+00  0.14313753220E+04  0.14313753220E+04  0.25500000920E-02 0.  1.
       -2   -1    0    0    0  501  0.00000000000E+00  0.00000000000E+00 -0.12028362451E+04  0.12028362451E+04  0.25500000920E-02 0. -1.
    10030    2    1    2    0    0  0.00000000000E+00  0.00000000000E+00  0.22853907688E+03  0.26342115671E+04  0.26242790383E+04 0.  0.
        2    1    3    3  502    0 -0.10958230078E+03  0.94704152183E+03  0.10192439097E+04  0.13956196015E+04  0.25500000920E-02 0. -1.
       -2    1    3    3    0  502  0.10958230078E+03 -0.94704152183E+03 -0.79070483279E+03  0.12385919656E+04  0.25500000920E-02 0.  1.
</event>
<event>
 5   0  0.1681731E-05  0.2601594E+04  0.7818609E-02  0.8367660E-01
       -2   -1    0    0    0  501  0.00000000000E+00  0.00000000000E+00  0.98857686358E+03  0.98857686358E+03  0.25500000920E-02 0.  1.
        2   -1    0    0  501    0  0.00000000000E+00  0.00000000000E+00 -0.17116255122E+04  0.17116255122E+04  0.25500000920E-02 0. -1.
    10030    2    1    2    0    0  0.00000000000E+00  0.00000000000E+00 -0.72304864863E+03  0.27002023758E+04  0.26015944192E+04 0.  0.
        2    1    3    3  502    0  0.28082854445E+03 -0.10527050479E+04  0.37605944556E+03  0.11525941592E+04  0.25500000920E-02 0. -1.
       -2    1    3    3    0  502 -0.28082854445E+03  0.10527050479E+04 -0.10991080942E+04  0.15476082166E+04  0.25500000920E-02 0.  1.
</event>
<event>
 5   0  0.6918420E-06  0.2626055E+04  0.7818609E-02  0.8359404E-01
        1   -1    0    0  501    0  0.00000000000E+00  0.00000000000E+00  0.12082672748E+04  0.12082672748E+04  0.50400001928E-02 0. -1.
       -1   -1    0    0    0  501  0.00000000000E+00  0.00000000000E+00 -0.14268711117E+04  0.14268711118E+04  0.50400001928E-02 0.  1.
    10030    2    1    2    0    0  0.00000000000E+00  0.00000000000E+00 -0.21860383691E+03  0.26351383866E+04  0.26260553458E+04 0.  0.
        4    1    3    3  502    0 -0.11970140506E+04 -0.47596588222E+03  0.14584886769E+03  0.12964025855E+04  0.12699999809E+01 0. -1.
       -4    1    3    3    0  502  0.11970140506E+04  0.47596588222E+03 -0.36445270460E+03  0.13387358011E+04  0.12699999809E+01 0.  1.
</event>
<event>
 5   0  0.1702345E-05  0.2600352E+04  0.7818609E-02  0.8368082E-01
        2   -1    0    0  501    0  0.00000000000E+00  0.00000000000E+00  0.18618654864E+04  0.18618654864E+04  0.25500000920E-02 0.  1.
       -2   -1    0    0    0  501  0.00000000000E+00  0.00000000000E+00 -0.90793753387E+03  0.90793753387E+03  0.25500000920E-02 0. -1.
    10030    2    1    2    0    0  0.00000000000E+00  0.00000000000E+00  0.95392795250E+03  0.27698030202E+04  0.26003519439E+04 0.  0.
        1    1    3    3  502    0  0.43972304299E+02  0.22777400030E+03 -0.88571555249E+03  0.91559084678E+03  0.50400001928E-02 0. -1.
       -1    1    3    3    0  502 -0.43972304299E+02 -0.22777400030E+03  0.18396435050E+04  0.18542121735E+04  0.50400001928E-02 0.  1.
</event>
<event>
 5   0  0.1869956E-05  0.2685014E+04  0.7818609E-02  0.8339884E-01
        2   -1    0    0  501    0  0.00000000000E+00  0.00000000000E+00  0.27913649188E+04  0.27913649188E+04  0.25500000920E-02 0.  1.
       -2   -1    0    0    0  501  0.00000000000E+00  0.00000000000E+00 -0.64567870003E+03  0.64567870003E+03  0.25500000920E-02 0. -1.
    10030    2    1    2    0    0  0.00000000000E+00  0.00000000000E+00  0.21456862187E+04  0.34370436188E+04  0.26850138712E+04 0.  0.
        5    1    3    3  502    0 -0.72009065965E+02 -0.41708100604E+03 -0.55802671732E+03  0.70039829984E+03  0.46999998093E+01 0. -1.
       -5    1    3    3    0  502  0.72009065965E+02  0.41708100604E+03  0.27037129361E+04  0.27366453190E+04  0.46999998093E+01 0.  1.
</event>
<event>
 5   0  0.1869956E-05  0.2630977E+04  0.7818609E-02  0.8357754E-01
       -2   -1    0    0    0  501  0.00000000000E+00  0.00000000000E+00  0.15588243213E+04  0.15588243213E+04  0.25500000920E-02 0. -1.
        2   -1    0    0  501    0  0.00000000000E+00  0.00000000000E+00 -0.11101380931E+04  0.11101380931E+04  0.25500000920E-02 0.  1.
    10030    2    1    2    0    0  0.00000000000E+00  0.00000000000E+00  0.44868622822E+03  0.26689624144E+04  0.26309772021E+04 0.  0.
        5    1    3    3  502    0  0.93107884340E+03 -0.26021567505E+03  0.11293376103E+04  0.14866221908E+04  0.46999998093E+01 0. -1.
       -5    1    3    3    0  502 -0.93107884340E+03  0.26021567505E+03 -0.68065138211E+03  0.11823402235E+04  0.46999998093E+01 0.  1.
</event>
<event>
 5   0  0.1681731E-05  0.2578836E+04  0.7818609E-02  0.8375426E-01
       -2   -1    0    0    0  501  0.00000000000E+00  0.00000000000E+00  0.11245248118E+04  0.11245248118E+04  0.25500000920E-02 0. -1.
        2   -1    0    0  501    0  0.00000000000E+00  0.00000000000E+00 -0.14784905368E+04  0.14784905368E+04  0.25500000920E-02 0.  1.
    10030    2    1    2    0    0  0.00000000000E+00  0.00000000000E+00 -0.35396572506E+03  0.26030153486E+04  0.25788363985E+04 0.  0.
        2    1    3    3  502    0 -0.39190330109E+03  0.11993343830E+04 -0.44519615739E+03  0.13379801113E+04  0.25500000920E-02 0.  1.
       -2    1    3    3    0  502  0.39190330109E+03 -0.11993343830E+04  0.91230432333E+02  0.12650352373E+04  0.25500000920E-02 0. -1.
</event>
<event>
 5   0  0.6706225E-06  0.2596810E+04  0.7818609E-02  0.8369286E-01
       -1   -1    0    0    0  501  0.00000000000E+00  0.00000000000E+00  0.96872078721E+03  0.96872078723E+03  0.50400001928E-02 0.  1.
        1   -1    0    0  501    0  0.00000000000E+00  0.00000000000E+00 -0.17402898382E+04  0.17402898382E+04  0.50400001928E-02 0. -1.
    10030    2    1    2    0    0  0.00000000000E+00  0.00000000000E+00 -0.77156905099E+03  0.27090106254E+04  0.25968095364E+04 0.  0.
        5    1    3    3  502    0  0.20533976532E+03  0.12091842947E+04 -0.83027135695E+03  0.14811021889E+04  0.46999998093E+01 0.  1.
       -5    1    3    3    0  502 -0.20533976532E+03 -0.12091842947E+04  0.58702305957E+02  0.12279084365E+04  0.46999998093E+01 0. -1.
</event>
<event>
 5   0  0.1720129E-05  0.2581422E+04  0.7818609E-02  0.8374539E-01
        2   -1    0    0  501    0  0.00000000000E+00  0.00000000000E+00  0.13027385148E+04  0.13027385148E+04  0.25500000920E-02 0.  1.
       -2   -1    0    0    0  501  0.00000000000E+00  0.00000000000E+00 -0.12787944600E+04  0.12787944600E+04  0.25500000920E-02 0. -1.
    10030    2    1    2    0    0  0.00000000000E+00  0.00000000000E+00  0.23944054793E+02  0.25815329749E+04  0.25814219304E+04 0.  0.
        3    1    3    3  502    0 -0.44564872078E+03 -0.31973090683E+03 -0.11564549484E+04  0.12799291749E+04  0.10100000352E+00 0. -1.
       -3    1    3    3    0  502  0.44564872078E+03  0.31973090683E+03  0.11803990031E+04  0.13016037999E+04  0.10100000352E+00 0.  1.
</event>
<event>
 5   0  0.6984287E-06  0.2566302E+04  0.7818609E-02  0.8379738E-01
        1   -1    0    0  501    0  0.00000000000E+00  0.00000000000E+00  0.21976565578E+04  0.21976565578E+04  0.50400001928E-02 0. -1.
       -1   -1    0    0    0  501  0.00000000000E+00  0.00000000000E+00 -0.74919659448E+03  0.74919659450E+03  0.50400001928E-02 0.  1.
    10030    2    1    2    0    0  0.00000000000E+00  0.00000000000E+00  0.14484599633E+04  0.29468531523E+04  0.25663022495E+04 0.  0.
        3    1    3    3  502    0 -0.64696526258E+03  0.10344278605E+04  0.26797995758E+03  0.12491670495E+04  0.10100000352E+00 0.  1.
       -3    1    3    3    0  502  0.64696526258E+03 -0.10344278605E+04  0.11804800057E+04  0.16976861028E+04  0.10100000352E+00 0. -1.
</event>
<event>
 5   0  0.1677971E-05  0.2484219E+04  0.7818609E-02  0.8408629E-01
        2   -1    0    0  501    0  0.00000000000E+00  0.00000000000E+00  0.23982208963E+04  0.23982208963E+04  0.25500000920E-02 0.  1.
       -2   -1    0    0    0  501  0.00000000000E+00  0.00000000000E+00 -0.64332528299E+03  0.64332528300E+03  0.25500000920E-02 0. -1.
    10030    2    1    2    0    0  0.00000000000E+00  0.00000000000E+00  0.17548956133E+04  0.30415461792E+04  0.24842191021E+04 0.  0.
        4    1    3    3  502    0 -0.11234978523E+04 -0.24803693270E+03  0.30440007537E+03  0.11901389679E+04  0.12699999809E+01 0.  1.
       -4    1    3    3    0  502  0.11234978523E+04  0.24803693270E+03  0.14504955379E+04  0.18514072114E+04  0.12699999809E+01 0. -1.
</event>
<event>
 5   0  0.7138294E-06  0.2553919E+04  0.7818609E-02  0.8384024E-01
        1   -1    0    0  501    0  0.00000000000E+00  0.00000000000E+00  0.12047310126E+04  0.12047310126E+04  0.50400001928E-02 0.  1.
       -1   -1    0    0    0  501  0.00000000000E+00  0.00000000000E+00 -0.13535185832E+04  0.13535185832E+04  0.50400001928E-02 0. -1.
    10030    2    1    2    0    0  0.00000000000E+00  0.00000000000E+00 -0.14878757059E+03  0.25582495957E+04  0.25539191947E+04 0.  0.
        2    1    3    3  502    0  0.74402956515E+01 -0.53721720202E+03 -0.12347914964E+04  0.13466134263E+04  0.25500000920E-02 0. -1.
       -2    1    3    3    0  502 -0.74402956515E+01  0.53721720202E+03  0.10860039259E+04  0.12116361694E+04  0.25500000920E-02 0.  1.
</event>
<event>
 5   0  0.6993678E-06  0.2566817E+04  0.7818609E-02  0.8379561E-01
        1   -1    0    0  501    0  0.00000000000E+00  0.00000000000E+00  0.13149711103E+04  0.13149711103E+04  0.50400001928E-02 0.  1.
       -1   -1    0    0    0  501  0.00000000000E+00  0.00000000000E+00 -0.12526031799E+04  0.12526031799E+04  0.50400001928E-02 0. -1.
    10030    2    1    2    0    0  0.00000000000E+00  0.00000000000E+00  0.62367930421E+02  0.25675742901E+04  0.25668167010E+04 0.  0.
        1    1    3    3  502    0 -0.30032670848E+03 -0.72422521204E+02 -0.12148545309E+04  0.12535201173E+04  0.50400001928E-02 0. -1.
       -1    1    3    3    0  502  0.30032670848E+03  0.72422521204E+02  0.12772224613E+04  0.13140541728E+04  0.50400001928E-02 0.  1.
</event>
<event>
 5   0  0.1869956E-05  0.2537408E+04  0.7818609E-02  0.8389779E-01
       -2   -1    0    0    0  501  0.00000000000E+00  0.00000000000E+00  0.90564300722E+03  0.90564300722E+03  0.25500000920E-02 0. -1.
        2   -1    0    0  501    0  0.00000000000E+00  0.00000000000E+00 -0.17773121357E+04  0.17773121357E+04  0.25500000920E-02 0.  1.
    10030    2    1    2    0    0  0.00000000000E+00  0.00000000000E+00 -0.87166912851E+03  0.26829551430E+04  0.25374083687E+04 0.  0.
        5    1    3    3  502    0  0.62864402782E+03  0.10438328358E+04 -0.80938057867E+03  0.14628394696E+04  0.46999998093E+01 0.  1.
       -5    1    3    3    0  502 -0.62864402782E+03 -0.10438328358E+04 -0.62288549842E+02  0.12201156733E+04  0.46999998093E+01 0. -1.
</event>
<event>
 5   0  0.6706225E-06  0.2441944E+04  0.7818609E-02  0.8423965E-01
        1   -1    0    0  501    0  0.00000000000E+00  0.00000000000E+00  0.23652927488E+04  0.23652927488E+04  0.50400001928E-02 0. -1.
       -1   -1    0    0    0  501  0.00000000000E+00  0.00000000000E+00 -0.63026998669E+03  0.63026998671E+03  0.50400001928E-02 0.  1.
    10030    2    1    2    0    0  0.00000000000E+00  0.00000000000E+00  0.17350227621E+04  0.29955627355E+04  0.24419443313E+04 0.  0.
        5    1    3    3  502    0 -0.72501956050E+03  0.71076135926E+03  0.35590823304E+02  0.10159349731E+04  0.46999998093E+01 0.  1.
       -5    1    3    3    0  502  0.72501956050E+03 -0.71076135926E+03  0.16994319388E+04  0.19796277624E+04  0.46999998093E+01 0. -1.
</event>
<event>
 5   0  0.1720129E-05  0.2360616E+04  0.7818609E-02  0.8454397E-01
        2   -1    0    0  501    0  0.00000000000E+00  0.00000000000E+00  0.26370163754E+04  0.26370163754E+04  0.25500000920E-02 0. -1.
       -2   -1    0    0    0  501  0.00000000000E+00  0.00000000000E+00 -0.52829666169E+03  0.52829666169E+03  0.25500000920E-02 0.  1.
    10030    2    1    2    0    0  0.00000000000E+00  0.00000000000E+00  0.21087197137E+04  0.31653130371E+04  0.23606159772E+04 0.  0.
        3    1    3    3  502    0  0.25694463412E+02 -0.23551443747E+03 -0.49608732612E+03  0.54975440066E+03  0.10100000352E+00 0.  1.
       -3    1    3    3    0  502 -0.25694463412E+02  0.23551443747E+03  0.26048070399E+04  0.26155586365E+04  0.10100000352E+00 0. -1.
</event>
<event>
 5   0  0.1702345E-05  0.2595593E+04  0.7818609E-02  0.8369700E-01
        2   -1    0    0  501    0  0.00000000000E+00  0.00000000000E+00  0.24863619319E+04  0.24863619319E+04  0.25500000920E-02 0. -1.
       -2   -1    0    0    0  501  0.00000000000E+00  0.00000000000E+00 -0.67740596023E+03  0.67740596023E+03  0.25500000920E-02 0.  1.
    10030    2    1    2    0    0  0.00000000000E+00  0.00000000000E+00  0.18089559716E+04  0.31637678921E+04  0.25955934905E+04 0.  0.
        1    1    3    3  502    0  0.99206800630E+03  0.65732693625E+03  0.27347076131E+03  0.12210912691E+04  0.50400001928E-02 0.  1.
       -1    1    3    3    0  502 -0.99206800630E+03 -0.65732693625E+03  0.15354852103E+04  0.19426766230E+04  0.50400001928E-02 0. -1.
</event>
<event>
 5   0  0.7138294E-06  0.2626330E+04  0.7818609E-02  0.8359312E-01
       -1   -1    0    0    0  501  0.00000000000E+00  0.00000000000E+00  0.21078236380E+04  0.21078236380E+04  0.50400001928E-02 0.  1.
        1   -1    0    0  501    0  0.00000000000E+00  0.00000000000E+00 -0.81809628277E+03  0.81809628278E+03  0.50400001928E-02 0. -1.
    10030    2    1    2    0    0  0.00000000000E+00  0.00000000000E+00  0.12897273552E+04  0.29259199208E+04  0.26263302785E+04 0.  0.
        2    1    3    3  502    0  0.18001077398E+03 -0.87034901912E+03 -0.43209923350E+03  0.98824138824E+03  0.25500000920E-02 0. -1.
       -2    1    3    3    0  502 -0.18001077398E+03  0.87034901912E+03  0.17218265887E+04  0.19376785325E+04  0.25500000920E-02 0.  1.
</event>
<event>
 5   0  0.7138294E-06  0.2592689E+04  0.7818609E-02  0.8370689E-01
       -1   -1    0    0    0  501  0.00000000000E+00  0.00000000000E+00  0.10409986459E+04  0.10409986459E+04  0.50400001928E-02 0. -1.
        1   -1    0    0  501    0  0.00000000000E+00  0.00000000000E+00 -0.16143242845E+04  0.16143242845E+04  0.50400001928E-02 0.  1.
    10030    2    1    2    0    0  0.00000000000E+00  0.00000000000E+00 -0.57332563858E+03  0.26553229304E+04  0.25926892558E+04 0.  0.
        2    1    3    3  502    0 -0.37785966173E+03  0.80438659445E+03  0.67990217538E+03  0.11189650063E+04  0.25500000920E-02 0. -1.
       -2    1    3    3    0  502  0.37785966173E+03 -0.80438659445E+03 -0.12532278140E+04  0.15363579241E+04  0.25500000920E-02 0.  1.
</event>
<event>
 5   0  0.1720129E-05  0.2561598E+04  0.7818609E-02  0.8381364E-01
       -2   -1    0    0    0  501  0.00000000000E+00  0.00000000000E+00  0.11127322930E+04  0.11127322930E+04  0.25500000920E-02 0.  1.
        2   -1    0    0  501    0  0.00000000000E+00  0.00000000000E+00 -0.14742502985E+04  0.14742502985E+04  0.25500000920E-02 0. -1.
    10030    2    1    2    0    0  0.00000000000E+00  0.00000000000E+00 -0.36151800558E+03  0.25869825915E+04  0.25615978725E+04 0.  0.
        3    1    3    3  502    0  0.21570845430E+03 -0.10096817983E+04 -0.94620024291E+03  0.14004579183E+04  0.10100000352E+00 0. -1.
       -3    1    3    3    0  502 -0.21570845430E+03  0.10096817983E+04  0.58468223734E+03  0.11865246732E+04  0.10100000352E+00 0.  1.
</event>
<event>
 5   0  0.1720129E-05  0.2605117E+04  0.7818609E-02  0.8366465E-01
       -2   -1    0    0    0  501  0.00000000000E+00  0.00000000000E+00  0.10071324708E+04  0.10071324708E+04  0.25500000920E-02 0.  1.
        2   -1    0    0  501    0  0.00000000000E+00  0.00000000000E+00 -0.16846434239E+04  0.16846434239E+04  0.25500000920E-02 0. -1.
    10030    2    1    2    0    0  0.00000000000E+00  0.00000000000E+00 -0.67751095309E+03  0.26917758947E+04  0.26051173439E+04 0.  0.
        3    1    3    3  502    0 -0.59454593378E+03 -0.10403645231E+04  0.18893422752E+03  0.12130702209E+04  0.10100000352E+00 0.  1.
       -3    1    3    3    0  502  0.59454593378E+03  0.10403645231E+04 -0.86644518061E+03  0.14787056738E+04  0.10100000352E+00 0. -1.
</event>
<event>
 5   0  0.6918420E-06  0.2599227E+04  0.7818609E-02  0.8368464E-01
        1   -1    0    0  501    0  0.00000000000E+00  0.00000000000E+00  0.16360958482E+04  0.16360958482E+04  0.50400001928E-02 0.  1.
       -1   -1    0    0    0  501  0.00000000000E+00  0.00000000000E+00 -0.10323326000E+04  0.10323326000E+04  0.50400001928E-02 0. -1.
    10030    2    1    2    0    0  0.00000000000E+00  0.00000000000E+00  0.60376324815E+03  0.26684284482E+04  0.25992268703E+04 0.  0.
        4    1    3    3  502    0  0.86644375646E+02 -0.10798845704E+04  0.10388628406E+04  0.15009648722E+04  0.12699999809E+01 0.  1.
       -4    1    3    3    0  502 -0.86644375646E+02  0.10798845704E+04 -0.43509959242E+03  0.11674635760E+04  0.12699999809E+01 0. -1.
</event>
<event>
 5   0  0.6918420E-06  0.2244404E+04  0.7818609E-02  0.8500170E-01
       -1   -1    0    0    0  501  0.00000000000E+00  0.00000000000E+00  0.16381650638E+04  0.16381650638E+04  0.50400001928E-02 0.  1.
        1   -1    0    0  501    0  0.00000000000E+00  0.00000000000E+00 -0.76874902014E+03  0.76874902015E+03  0.50400001928E-02 0. -1.
    10030    2    1    2    0    0  0.00000000000E+00  0.00000000000E+00  0.86941604362E+03  0.24069140839E+04  0.22444044088E+04 0.  0.
        4    1    3    3  502    0  0.71734517142E+03 -0.34855516609E+03  0.12813398321E+04  0.15092740563E+04  0.12699999809E+01 0.  1.
       -4    1    3    3    0  502 -0.71734517142E+03  0.34855516609E+03 -0.41192378849E+03  0.89764002762E+03  0.12699999809E+01 0. -1.
</event>
<event>
 5   0  0.6993678E-06  0.2576261E+04  0.7818609E-02  0.8376310E-01
        1   -1    0    0  501    0  0.00000000000E+00  0.00000000000E+00  0.14666172524E+04  0.14666172524E+04  0.50400001928E-02 0.  1.
       -1   -1    0    0    0  501  0.00000000000E+00  0.00000000000E+00 -0.11313657690E+04  0.11313657690E+04  0.50400001928E-02 0. -1.
    10030    2    1    2    0    0  0.00000000000E+00  0.00000000000E+00  0.33525148339E+03  0.25979830214E+04  0.25762612877E+04 0.  0.
        1    1    3    3  502    0 -0.17622455809E+03  0.12756117655E+04  0.20014799995E+03  0.13031882800E+04  0.50400001928E-02 0.  1.
       -1    1    3    3    0  502  0.17622455809E+03 -0.12756117655E+04  0.13510348344E+03  0.12947947414E+04  0.50400001928E-02 0. -1.
</event>
<event>
 5   0  0.6993678E-06  0.2586685E+04  0.7818609E-02  0.8372738E-01
       -1   -1    0    0    0  501  0.00000000000E+00  0.00000000000E+00  0.10139271052E+04  0.10139271052E+04  0.50400001928E-02 0. -1.
        1   -1    0    0  501    0  0.00000000000E+00  0.00000000000E+00 -0.16497583935E+04  0.16497583935E+04  0.50400001928E-02 0.  1.
    10030    2    1    2    0    0  0.00000000000E+00  0.00000000000E+00 -0.63583128833E+03  0.26636854988E+04  0.25866849458E+04 0.  0.
        1    1    3    3  502    0  0.85663239720E+03 -0.60802955486E+03 -0.10948384403E+04  0.15172970091E+04  0.50400001928E-02 0.  1.
       -1    1    3    3    0  502 -0.85663239720E+03  0.60802955486E+03  0.45900715199E+03  0.11463884896E+04  0.50400001928E-02 0. -1.
</event>
<event>
 5   0  0.7138294E-06  0.2586418E+04  0.7818609E-02  0.8372830E-01
       -1   -1    0    0    0  501  0.00000000000E+00  0.00000000000E+00  0.16645330667E+04  0.16645330667E+04  0.50400001928E-02 0. -1.
        1   -1    0    0  501    0  0.00000000000E+00  0.00000000000E+00 -0.10047195677E+04  0.10047195677E+04  0.50400001928E-02 0.  1.
    10030    2    1    2    0    0  0.00000000000E+00  0.00000000000E+00  0.65981349898E+03  0.26692526344E+04  0.25864175557E+04 0.  0.
        2    1    3    3  502    0  0.12392325550E+04 -0.23920836796E+03  0.62084130679E+03  0.14065425329E+04  0.25500000920E-02 0. -1.
       -2    1    3    3    0  502 -0.12392325550E+04  0.23920836796E+03  0.38972192192E+02  0.12627101015E+04  0.25500000920E-02 0.  1.
</event>
<event>
 5   0  0.6706225E-06  0.2604595E+04  0.7818609E-02  0.8366642E-01
       -1   -1    0    0    0  501  0.00000000000E+00  0.00000000000E+00  0.75220886652E+03  0.75220886654E+03  0.50400001928E-02 0.  1.
        1   -1    0    0  501    0  0.00000000000E+00  0.00000000000E+00 -0.22546652127E+04  0.22546652128E+04  0.50400001928E-02 0. -1.
    10030    2    1    2    0    0  0.00000000000E+00  0.00000000000E+00 -0.15024563462E+04  0.30068740793E+04  0.26045952961E+04 0.  0.
        5    1    3    3  502    0  0.12812264654E+04 -0.17481719690E+03 -0.92953278249E+03  0.15925311902E+04  0.46999998093E+01 0. -1.
       -5    1    3    3    0  502 -0.12812264654E+04  0.17481719690E+03 -0.57292356374E+03  0.14143428891E+04  0.46999998093E+01 0.  1.
</event>
<event>
 5   0  0.7138294E-06  0.2604617E+04  0.7818609E-02  0.8366635E-01
       -1   -1    0    0    0  501  0.00000000000E+00  0.00000000000E+00  0.10064690780E+04  0.10064690780E+04  0.50400001928E-02 0.  1.
        1   -1    0    0  501    0  0.00000000000E+00  0.00000000000E+00 -0.16851062679E+04  0.16851062679E+04  0.50400001928E-02 0. -1.
    10030    2    1    2    0    0  0.00000000000E+00  0.00000000000E+00 -0.67863718988E+03  0.26915753459E+04  0.26046169406E+04 0.  0.
        2    1    3    3  502    0  0.16266956267E+03 -0.12201919378E+04  0.99934507292E+02  0.12350371077E+04  0.25500000920E-02 0.  1.
       -2    1    3    3    0  502 -0.16266956267E+03  0.12201919378E+04 -0.77857169718E+03  0.14565382382E+04  0.25500000920E-02 0. -1.
</event>
<event>
 5   0  0.1702345E-05  0.2593196E+04  0.7818609E-02  0.8370516E-01
        2   -1    0    0  501    0  0.00000000000E+00  0.00000000000E+00  0.21037180667E+04  0.21037180667E+04  0.25500000920E-02 0.  1.
       -2   -1    0    0    0  501  0.00000000000E+00  0.00000000000E+00 -0.79914077279E+03  0.79914077279E+03  0.25500000920E-02 0. -1.
    10030    2    1    2    0    0  0.00000000000E+00  0.00000000000E+00  0.13045772939E+04  0.29028588395E+04  0.25931963918E+04 0.  0.
        1    1    3    3  502    0  0.12158684434E+03  0.12048834842E+04  0.13367356673E+03  0.12183579907E+04  0.50400001928E-02 0. -1.
       -1    1    3    3    0  502 -0.12158684434E+03 -0.12048834842E+04  0.11709037272E+04  0.16845008488E+04  0.50400001928E-02 0.  1.
</event>
<event>
 5   0  0.1702345E-05  0.2619637E+04  0.7818609E-02  0.8361561E-01
       -2   -1    0    0    0  501  0.00000000000E+00  0.00000000000E+00  0.13367884936E+04  0.13367884936E+04  0.25500000920E-02 0.  1.
        2   -1    0    0  501    0  0.00000000000E+00  0.00000000000E+00 -0.12833928552E+04  0.12833928552E+04  0.25500000920E-02 0. -1.
    10030    2    1    2    0    0  0.00000000000E+00  0.00000000000E+00  0.53395638426E+02  0.26201813488E+04  0.26196372280E+04 0.  0.
        1    1    3    3  502    0  0.39251747896E+02 -0.11235994111E+04 -0.64545996766E+03  0.12963930369E+04  0.50400001928E-02 0. -1.
       -1    1    3    3    0  502 -0.39251747896E+02  0.11235994111E+04  0.69885560609E+03  0.13237883118E+04  0.50400001928E-02 0.  1.
</event>
<event>
 5   0  0.1681731E-05  0.2594424E+04  0.7818609E-02  0.8370098E-01
       -2   -1    0    0    0  501  0.00000000000E+00  0.00000000000E+00  0.62659866673E+03  0.62659866674E+03  0.25500000920E-02 0. -1.
        2   -1    0    0  501    0  0.00000000000E+00  0.00000000000E+00 -0.26855448592E+04  0.26855448593E+04  0.25500000920E-02 0.  1.
    10030    2    1    2    0    0  0.00000000000E+00  0.00000000000E+00 -0.20589461925E+04  0.33121435260E+04  0.25944238885E+04 0.  0.
        2    1    3    3  502    0 -0.20748969566E+03  0.49927897244E+03  0.47589381656E+03  0.72028216053E+03  0.25500000920E-02 0. -1.
       -2    1    3    3    0  502  0.20748969566E+03 -0.49927897244E+03 -0.25348400091E+04  0.25918613655E+04  0.25500000920E-02 0.  1.
</event>
<event>
 5   0  0.6918420E-06  0.2601051E+04  0.7818609E-02  0.8367844E-01
        1   -1    0    0  501    0  0.00000000000E+00  0.00000000000E+00  0.20514096537E+04  0.20514096537E+04  0.50400001928E-02 0.  1.
       -1   -1    0    0    0  501  0.00000000000E+00  0.00000000000E+00 -0.82448999885E+03  0.82448999887E+03  0.50400001928E-02 0. -1.
    10030    2    1    2    0    0  0.00000000000E+00  0.00000000000E+00  0.12269196548E+04  0.28758996526E+04  0.26010511283E+04 0.  0.
        4    1    3    3  502    0 -0.12221248525E+04  0.59598233249E+01  0.11051285757E+04  0.16477061196E+04  0.12699999809E+01 0.  1.
       -4    1    3    3    0  502  0.12221248525E+04 -0.59598233249E+01  0.12179107910E+03  0.12281935330E+04  0.12699999809E+01 0. -1.
</event>
<event>
 5   0  0.6918420E-06  0.2608070E+04  0.7818609E-02  0.8365465E-01
        1   -1    0    0  501    0  0.00000000000E+00  0.00000000000E+00  0.18274188658E+04  0.18274188658E+04  0.50400001928E-02 0. -1.
       -1   -1    0    0    0  501  0.00000000000E+00  0.00000000000E+00 -0.93055161641E+03  0.93055161642E+03  0.50400001928E-02 0.  1.
    10030    2    1    2    0    0  0.00000000000E+00  0.00000000000E+00  0.89686724939E+03  0.27579704822E+04  0.26080702287E+04 0.  0.
        4    1    3    3  502    0  0.10467032583E+04 -0.57034964003E+03 -0.11074954749E+03  0.11971438919E+04  0.12699999809E+01 0.  1.
       -4    1    3    3    0  502 -0.10467032583E+04  0.57034964003E+03  0.10076167969E+04  0.15608265903E+04  0.12699999809E+01 0. -1.
</event>
<event>
 5   0  0.6993678E-06  0.2583425E+04  0.7818609E-02  0.8373853E-01
        1   -1    0    0  501    0  0.00000000000E+00  0.00000000000E+00  0.17866040694E+04  0.17866040694E+04  0.50400001928E-02 0. -1.
       -1   -1    0    0    0  501  0.00000000000E+00  0.00000000000E+00 -0.93390621994E+03  0.93390621995E+03  0.50400001928E-02 0.  1.
    10030    2    1    2    0    0  0.00000000000E+00  0.00000000000E+00  0.85269784948E+03  0.27205102894E+04  0.25834245900E+04 0.  0.
        1    1    3    3  502    0 -0.10732847757E+04 -0.18297294603E+03  0.11582859333E+04  0.15896683969E+04  0.50400001928E-02 0. -1.
       -1    1    3    3    0  502  0.10732847757E+04  0.18297294603E+03 -0.30558808380E+03  0.11308418925E+04  0.50400001928E-02 0.  1.
</event>
<event>
 5   0  0.7138294E-06  0.2597941E+04  0.7818609E-02  0.8368901E-01
       -1   -1    0    0    0  501  0.00000000000E+00  0.00000000000E+00  0.13106082058E+04  0.13106082058E+04  0.50400001928E-02 0.  1.
        1   -1    0    0  501    0  0.00000000000E+00  0.00000000000E+00 -0.12874357599E+04  0.12874357599E+04  0.50400001928E-02 0. -1.
    10030    2    1    2    0    0  0.00000000000E+00  0.00000000000E+00  0.23172445881E+02  0.25980439657E+04  0.25979406239E+04 0.  0.
        2    1    3    3  502    0 -0.87156891891E+03 -0.78323752492E+03  0.57217115863E+03  0.13040219460E+04  0.25500000920E-02 0.  1.
       -2    1    3    3    0  502  0.87156891891E+03  0.78323752492E+03 -0.54899871275E+03  0.12940220197E+04  0.25500000920E-02 0. -1.
</event>
<event>
 5   0  0.7138294E-06  0.2371500E+04  0.7818609E-02  0.8450251E-01
        1   -1    0    0  501    0  0.00000000000E+00  0.00000000000E+00  0.10368729566E+04  0.10368729566E+04  0.50400001928E-02 0.  1.
       -1   -1    0    0    0  501  0.00000000000E+00  0.00000000000E+00 -0.13560029123E+04  0.13560029123E+04  0.50400001928E-02 0. -1.
    10030    2    1    2    0    0  0.00000000000E+00  0.00000000000E+00 -0.31912995564E+03  0.23928758689E+04  0.23714997355E+04 0.  0.
        2    1    3    3  502    0 -0.41649320565E+03  0.80768709997E+03  0.60899472215E+03  0.10939376643E+04  0.25500000920E-02 0.  1.
       -2    1    3    3    0  502  0.41649320565E+03 -0.80768709997E+03 -0.92812467779E+03  0.12989382046E+04  0.25500000920E-02 0. -1.
</event>
<event>
 5   0  0.1720129E-05  0.2104884E+04  0.7818609E-02  0.8559095E-01
       -2   -1    0    0    0  501  0.00000000000E+00  0.00000000000E+00  0.71937655336E+03  0.71937655336E+03  0.25500000920E-02 0.  1.
        2   -1    0    0  501    0  0.00000000000E+00  0.00000000000E+00 -0.15397144538E+04  0.15397144538E+04  0.25500000920E-02 0. -1.
    10030    2    1    2    0    0  0.00000000000E+00  0.00000000000E+00 -0.82033790045E+03  0.22590910072E+04  0.21048842980E+04 0.  0.
        3    1    3    3  502    0  0.94712488509E+02  0.23014334976E+03  0.68734145769E+03  0.73100937517E+03  0.10100000352E+00 0.  1.
       -3    1    3    3    0  502 -0.94712488509E+02 -0.23014334976E+03 -0.15076793581E+04  0.15280816320E+04  0.10100000352E+00 0. -1.
</event>
<event>
 5   0  0.1702345E-05  0.2597886E+04  0.7818609E-02  0.8368920E-01
        2   -1    0    0  501    0  0.00000000000E+00  0.00000000000E+00  0.19803923519E+04  0.19803923519E+04  0.25500000920E-02 0. -1.
       -2   -1    0    0    0  501  0.00000000000E+00  0.00000000000E+00 -0.85197893158E+03  0.85197893158E+03  0.25500000920E-02 0.  1.
    10030    2    1    2    0    0  0.00000000000E+00  0.00000000000E+00  0.11284134203E+04  0.28323712835E+04  0.25978857250E+04 0.  0.
        1    1    3    3  502    0 -0.12349826426E+04 -0.25898959178E+03  0.22817511798E+03  0.12823110468E+04  0.50400001928E-02 0.  1.
       -1    1    3    3    0  502  0.12349826426E+04  0.25898959178E+03  0.90023830233E+03  0.15500602367E+04  0.50400001928E-02 0. -1.
</event>
<event>
 5   0  0.1720129E-05  0.2490315E+04  0.7818609E-02  0.8406444E-01
       -2   -1    0    0    0  501  0.00000000000E+00  0.00000000000E+00  0.10914996553E+04  0.10914996553E+04  0.25500000920E-02 0. -1.
        2   -1    0    0  501    0  0.00000000000E+00  0.00000000000E+00 -0.14204470816E+04  0.14204470816E+04  0.25500000920E-02 0.  1.
    10030    2    1    2    0    0  0.00000000000E+00  0.00000000000E+00 -0.32894742635E+03  0.25119467369E+04  0.24903152411E+04 0.  0.
        3    1    3    3  502    0  0.59496080100E+03  0.23398813061E+03 -0.12422532887E+04  0.13971120369E+04  0.10100000352E+00 0.  1.
       -3    1    3    3    0  502 -0.59496080100E+03 -0.23398813061E+03  0.91330586238E+03  0.11148347001E+04  0.10100000352E+00 0. -1.
</event>
<event>
 5   0  0.6993678E-06  0.2578968E+04  0.7818609E-02  0.8375381E-01
       -1   -1    0    0    0  501  0.00000000000E+00  0.00000000000E+00  0.10144976738E+04  0.10144976738E+04  0.50400001928E-02 0.  1.
        1   -1    0    0  501    0  0.00000000000E+00  0.00000000000E+00 -0.16390071660E+04  0.16390071660E+04  0.50400001928E-02 0. -1.
    10030    2    1    2    0    0  0.00000000000E+00  0.00000000000E+00 -0.62450949213E+03  0.26535048398E+04  0.25789679775E+04 0.  0.
        1    1    3    3  502    0 -0.35814992060E+03 -0.62443407618E+03 -0.14130256700E+04  0.15858218139E+04  0.50400001928E-02 0. -1.
       -1    1    3    3    0  502  0.35814992060E+03  0.62443407618E+03  0.78851617789E+03  0.10676830260E+04  0.50400001928E-02 0.  1.
</event>
<event>
 5   0  0.1681731E-05  0.2586802E+04  0.7818609E-02  0.8372698E-01
        2   -1    0    0  501    0  0.00000000000E+00  0.00000000000E+00  0.13455177898E+04  0.13455177898E+04  0.25500000920E-02 0.  1.
       -2   -1    0    0    0  501  0.00000000000E+00  0.00000000000E+00 -0.12433027270E+04  0.12433027270E+04  0.25500000920E-02 0. -1.
    10030    2    1    2    0    0  0.00000000000E+00  0.00000000000E+00  0.10221506283E+03  0.25888205167E+04  0.25868018379E+04 0.  0.
        2    1    3    3  502    0 -0.63740273497E+03  0.30464220160E+03  0.11353720475E+04  0.13372205517E+04  0.25500000920E-02 0.  1.
       -2    1    3    3    0  502  0.63740273497E+03 -0.30464220160E+03 -0.10331569847E+04  0.12515999651E+04  0.25500000920E-02 0. -1.
</event>
<event>
 5   0  0.1681731E-05  0.2455641E+04  0.7818609E-02  0.8418961E-01
        2   -1    0    0  501    0  0.00000000000E+00  0.00000000000E+00  0.23270527429E+04  0.23270527429E+04  0.25500000920E-02 0.  1.
       -2   -1    0    0    0  501  0.00000000000E+00  0.00000000000E+00 -0.64783360348E+03  0.64783360349E+03  0.25500000920E-02 0. -1.
    10030    2    1    2    0    0  0.00000000000E+00  0.00000000000E+00  0.16792191394E+04  0.29748863464E+04  0.24556408238E+04 0.  0.
        2    1    3    3  502    0  0.19349249124E+03  0.45111737330E+03 -0.52379490766E+03  0.71784910250E+03  0.25500000920E-02 0. -1.
       -2    1    3    3    0  502 -0.19349249124E+03 -0.45111737330E+03  0.22030140471E+04  0.22570372439E+04  0.25500000920E-02 0.  1.
</event>
<event>
 5   0  0.6993678E-06  0.2598081E+04  0.7818609E-02  0.8368853E-01
        1   -1    0    0  501    0  0.00000000000E+00  0.00000000000E+00  0.16647541279E+04  0.16647541279E+04  0.50400001928E-02 0.  1.
       -1   -1    0    0    0  501  0.00000000000E+00  0.00000000000E+00 -0.10136673204E+04  0.10136673205E+04  0.50400001928E-02 0. -1.
    10030    2    1    2    0    0  0.00000000000E+00  0.00000000000E+00  0.65108680743E+03  0.26784214483E+04  0.25980814891E+04 0.  0.
        1    1    3    3  502    0 -0.29824414018E+03 -0.10584968396E+04  0.10384037700E+04  0.15124971128E+04  0.50400001928E-02 0.  1.
       -1    1    3    3    0  502  0.29824414018E+03  0.10584968396E+04 -0.38731696255E+03  0.11659243355E+04  0.50400001928E-02 0. -1.
</event>
<event>
 5   0  0.6918420E-06  0.2603314E+04  0.7818609E-02  0.8367076E-01
       -1   -1    0    0    0  501  0.00000000000E+00  0.00000000000E+00  0.95742448888E+03  0.95742448889E+03  0.50400001928E-02 0.  1.
        1   -1    0    0  501    0  0.00000000000E+00  0.00000000000E+00 -0.17696552306E+04  0.17696552306E+04  0.50400001928E-02 0. -1.
    10030    2    1    2    0    0  0.00000000000E+00  0.00000000000E+00 -0.81223074171E+03  0.27270797195E+04  0.26033142374E+04 0.  0.
        4    1    3    3  502    0  0.99712478993E+03 -0.12306487323E+03  0.46082053271E+03  0.11053325228E+04  0.12699999809E+01 0.  1.
       -4    1    3    3    0  502 -0.99712478993E+03  0.12306487323E+03 -0.12730512744E+04  0.16217471967E+04  0.12699999809E+01 0. -1.
</event>
<event>
 5   0  0.6706225E-06  0.2583675E+04  0.7818609E-02  0.8373768E-01
        1   -1    0    0  501    0  0.00000000000E+00  0.00000000000E+00  0.17864967753E+04  0.17864967753E+04  0.50400001928E-02 0.  1.
       -1   -1    0    0    0  501  0.00000000000E+00  0.00000000000E+00 -0.93414325952E+03  0.93414325954E+03  0.50400001928E-02 0. -1.
    10030    2    1    2    0    0  0.00000000000E+00  0.00000000000E+00  0.85235351575E+03  0.27206400348E+04  0.25836748408E+04 0.  0.
        5    1    3    3  502    0 -0.20127379072E+02  0.11318849982E+04 -0.22910890069E+03  0.11550245620E+04  0.46999998093E+01 0. -1.
       -5    1    3    3    0  502  0.20127379072E+02 -0.11318849982E+04  0.10814624164E+04  0.15656154728E+04  0.46999998093E+01 0.  1.
</event>
<event>
 5   0  0.1677971E-05  0.2664058E+04  0.7818609E-02  0.8346762E-01
       -2   -1    0    0    0  501  0.00000000000E+00  0.00000000000E+00  0.17496844236E+04  0.17496844236E+04  0.25500000920E-02 0. -1.
        2   -1    0    0  501    0  0.00000000000E+00  0.00000000000E+00 -0.10140695395E+04  0.10140695395E+04  0.25500000920E-02 0.  1.
    10030    2    1    2    0    0  0.00000000000E+00  0.00000000000E+00  0.73561488405E+03  0.27637539631E+04  0.26640583159E+04 0.  0.
        4    1    3    3  502    0  0.92061677556E+03 -0.57441907064E+03 -0.43363586221E+03  0.11685607344E+04  0.12699999809E+01 0. -1.
       -4    1    3    3    0  502 -0.92061677556E+03  0.57441907064E+03  0.11692507463E+04  0.15951932286E+04  0.12699999809E+01 0.  1.
</event>
<event>
 5   0  0.6706225E-06  0.2345611E+04  0.7818609E-02  0.8460151E-01
       -1   -1    0    0    0  501  0.00000000000E+00  0.00000000000E+00  0.78530121613E+03  0.78530121615E+03  0.50400001928E-02 0. -1.
        1   -1    0    0  501    0  0.00000000000E+00  0.00000000000E+00 -0.17515231664E+04  0.17515231664E+04  0.50400001928E-02 0.  1.
    10030    2    1    2    0    0  0.00000000000E+00  0.00000000000E+00 -0.96622195026E+03  0.25368243825E+04  0.23456114535E+04 0.  0.
        5    1    3    3  502    0 -0.58226435126E+02  0.87495327454E+03 -0.13253901153E+04  0.15892182349E+04  0.46999998093E+01 0.  1.
       -5    1    3    3    0  502  0.58226435126E+02 -0.87495327454E+03  0.35916816500E+03  0.94760614769E+03  0.46999998093E+01 0. -1.
</event>
<event>
 5   0  0.1702345E-05  0.2555603E+04  0.7818609E-02  0.8383440E-01
        2   -1    0    0  501    0  0.00000000000E+00  0.00000000000E+00  0.22251361297E+04  0.22251361297E+04  0.25500000920E-02 0.  1.
       -2   -1    0    0    0  501  0.00000000000E+00  0.00000000000E+00 -0.73378750866E+03  0.73378750866E+03  0.25500000920E-02 0. -1.
    10030    2    1    2    0    0  0.00000000000E+00  0.00000000000E+00  0.14913486210E+04  0.29589236384E+04  0.25556033315E+04 0.  0.
        1    1    3    3  502    0  0.56653587631E+03 -0.11443555988E+04  0.80077065232E+03  0.15072313271E+04  0.50400001928E-02 0.  1.
       -1    1    3    3    0  502 -0.56653587631E+03  0.11443555988E+04  0.69057796872E+03  0.14516923113E+04  0.50400001928E-02 0. -1.
</event>
<event>
 5   0  0.6706225E-06  0.2638213E+04  0.7818609E-02  0.8355336E-01
        1   -1    0    0  501    0  0.00000000000E+00  0.00000000000E+00  0.14417657455E+04  0.14417657456E+04  0.50400001928E-02 0. -1.
       -1   -1    0    0    0  501  0.00000000000E+00  0.00000000000E+00 -0.12068821973E+04  0.12068821973E+04  0.50400001928E-02 0.  1.
    10030    2    1    2    0    0  0.00000000000E+00  0.00000000000E+00  0.23488354822E+03  0.26486479429E+04  0.26382125851E+04 0.  0.
        5    1    3    3  502    0 -0.70873156491E+03 -0.80509976139E+03 -0.65340596982E+03  0.12559647719E+04  0.46999998093E+01 0.  1.
       -5    1    3    3    0  502  0.70873156491E+03  0.80509976139E+03  0.88828951804E+03  0.13926831710E+04  0.46999998093E+01 0. -1.
</event>
<event>
 5   0  0.6984287E-06  0.2580919E+04  0.7818609E-02  0.8374712E-01
       -1   -1    0    0    0  501  0.00000000000E+00  0.00000000000E+00  0.10882851023E+04  0.10882851023E+04  0.50400001928E-02 0. -1.
        1   -1    0    0  501    0  0.00000000000E+00  0.00000000000E+00 -0.15301928008E+04  0.15301928008E+04  0.50400001928E-02 0.  1.
    10030    2    1    2    0    0  0.00000000000E+00  0.00000000000E+00 -0.44190769848E+03  0.26184779031E+04  0.25809192384E+04 0.  0.
        3    1    3    3  502    0 -0.11888038870E+04  0.44817770279E+03 -0.45044929632E+03  0.13479697748E+04  0.10100000352E+00 0.  1.
       -3    1    3    3    0  502  0.11888038870E+04 -0.44817770279E+03  0.85415978330E+01  0.12705081283E+04  0.10100000352E+00 0. -1.
</event>
<event>
 5   0  0.6984287E-06  0.2576467E+04  0.7818609E-02  0.8376239E-01
        1   -1    0    0  501    0  0.00000000000E+00  0.00000000000E+00  0.14665847560E+04  0.14665847560E+04  0.50400001928E-02 0. -1.
       -1   -1    0    0    0  501  0.00000000000E+00  0.00000000000E+00 -0.11315719477E+04  0.11315719477E+04  0.50400001928E-02 0.  1.
    10030    2    1    2    0    0  0.00000000000E+00  0.00000000000E+00  0.33501280826E+03  0.25981567037E+04  0.25764674800E+04 0.  0.
        3    1    3    3  502    0 -0.10738023125E+04 -0.51064805354E+03 -0.33238158057E+03  0.12346215478E+04  0.10100000352E+00 0.  1.
       -3    1    3    3    0  502  0.10738023125E+04  0.51064805354E+03  0.66739438883E+03  0.13635351559E+04  0.10100000352E+00 0. -1.
</event>
<event>
 5   0  0.6706225E-06  0.2607280E+04  0.7818609E-02  0.8365733E-01
        1   -1    0    0  501    0  0.00000000000E+00  0.00000000000E+00  0.10448051422E+04  0.10448051422E+04  0.50400001928E-02 0. -1.
       -1   -1    0    0    0  501  0.00000000000E+00  0.00000000000E+00 -0.16265973688E+04  0.16265973688E+04  0.50400001928E-02 0.  1.
    10030    2    1    2    0    0  0.00000000000E+00  0.00000000000E+00 -0.58179222655E+03  0.26714025110E+04  0.26072800350E+04 0.  0.
        5    1    3    3  502    0  0.36205362198E+03  0.73175388928E+03  0.75042003391E+03  0.11089178946E+04  0.46999998093E+01 0. -1.
       -5    1    3    3    0  502 -0.36205362198E+03 -0.73175388928E+03 -0.13322122605E+04  0.15624846164E+04  0.46999998093E+01 0.  1.
</event>
<event>
 5   0  0.1677971E-05  0.2498089E+04  0.7818609E-02  0.8403667E-01
        2   -1    0    0  501    0  0.00000000000E+00  0.00000000000E+00  0.26651292830E+04  0.26651292830E+04  0.25500000920E-02 0.  1.
       -2   -1    0    0    0  501  0.00000000000E+00  0.00000000000E+00 -0.58537945413E+03  0.58537945413E+03  0.25500000920E-02 0. -1.
    10030    2    1    2    0    0  0.00000000000E+00  0.00000000000E+00  0.20797498289E+04  0.32505087371E+04  0.24980888094E+04 0.  0.
        4    1    3    3  502    0  0.68199570624E+03  0.95245940794E+03  0.16037807279E+04  0.19860542045E+04  0.12699999809E+01 0.  1.
       -4    1    3    3    0  502 -0.68199570624E+03 -0.95245940794E+03  0.47596910096E+03  0.12644545326E+04  0.12699999809E+01 0. -1.
</event>
<event>
 5   0  0.1720129E-05  0.2577540E+04  0.7818609E-02  0.8375870E-01
        2   -1    0    0  501    0  0.00000000000E+00  0.00000000000E+00  0.14159257082E+04  0.14159257082E+04  0.25500000920E-02 0.  1.
       -2   -1    0    0    0  501  0.00000000000E+00  0.00000000000E+00 -0.11730337281E+04  0.11730337281E+04  0.25500000920E-02 0. -1.
    10030    2    1    2    0    0  0.00000000000E+00  0.00000000000E+00  0.24289198011E+03  0.25889594363E+04  0.25775403875E+04 0.  0.
        3    1    3    3  502    0 -0.63385364008E+02  0.12864989119E+04  0.16443099453E+03  0.12985125017E+04  0.10100000352E+00 0. -1.
       -3    1    3    3    0  502  0.63385364008E+02 -0.12864989119E+04  0.78460985581E+02  0.12904469347E+04  0.10100000352E+00 0.  1.
</event>
<event>
 5   0  0.1681731E-05  0.2592129E+04  0.7818609E-02  0.8370880E-01
       -2   -1    0    0    0  501  0.00000000000E+00  0.00000000000E+00  0.16829901565E+04  0.16829901565E+04  0.25500000920E-02 0. -1.
        2   -1    0    0  501    0  0.00000000000E+00  0.00000000000E+00 -0.99809412065E+03  0.99809412065E+03  0.25500000920E-02 0.  1.
    10030    2    1    2    0    0  0.00000000000E+00  0.00000000000E+00  0.68489603584E+03  0.26810842771E+04  0.25921285310E+04 0.  0.
        2    1    3    3  502    0  0.47470165746E+03  0.32821400501E+03 -0.85785810487E+03  0.10339180938E+04  0.25500000920E-02 0.  1.
       -2    1    3    3    0  502 -0.47470165746E+03 -0.32821400501E+03  0.15427541407E+04  0.16471661833E+04  0.25500000920E-02 0. -1.
</event>
<event>
 5   0  0.1702345E-05  0.2550461E+04  0.7818609E-02  0.8385226E-01
       -2   -1    0    0    0  501  0.00000000000E+00  0.00000000000E+00  0.71374826003E+03  0.71374826004E+03  0.25500000920E-02 0.  1.
        2   -1    0    0  501    0  0.00000000000E+00  0.00000000000E+00 -0.22784114346E+04  0.22784114346E+04  0.25500000920E-02 0. -1.
    10030    2    1    2    0    0  0.00000000000E+00  0.00000000000E+00 -0.15646631745E+04  0.29921596946E+04  0.25504605051E+04 0.  0.
        1    1    3    3  502    0  0.80045878970E+03 -0.91821324309E+03 -0.12249849423E+04  0.17275525875E+04  0.50400001928E-02 0. -1.
       -1    1    3    3    0  502 -0.80045878970E+03  0.91821324309E+03 -0.33967823224E+03  0.12646071071E+04  0.50400001928E-02 0.  1.
</event>
<event>
 5   0  0.1869956E-05  0.2598473E+04  0.7818609E-02  0.8368720E-01
       -2   -1    0    0    0  501  0.00000000000E+00  0.00000000000E+00  0.94363264793E+03  0.94363264794E+03  0.25500000920E-02 0. -1.
        2   -1    0    0  501    0  0.00000000000E+00  0.00000000000E+00 -0.17888484999E+04  0.17888484999E+04  0.25500000920E-02 0.  1.
    10030    2    1    2    0    0  0.00000000000E+00  0.00000000000E+00 -0.84521585194E+03  0.27324811478E+04  0.25984732800E+04 0.  0.
        5    1    3    3  502    0 -0.69952591789E+03 -0.10943664357E+04 -0.38903409695E+03  0.13558554583E+04  0.46999998093E+01 0. -1.
       -5    1    3    3    0  502  0.69952591789E+03  0.10943664357E+04 -0.45618175499E+03  0.13766256895E+04  0.46999998093E+01 0.  1.
</event>
<event>
 5   0  0.1720129E-05  0.2615619E+04  0.7818609E-02  0.8362915E-01
       -2   -1    0    0    0  501  0.00000000000E+00  0.00000000000E+00  0.12755596394E+04  0.12755596394E+04  0.25500000920E-02 0.  1.
        2   -1    0    0  501    0  0.00000000000E+00  0.00000000000E+00 -0.13408748120E+04  0.13408748120E+04  0.25500000920E-02 0. -1.
    10030    2    1    2    0    0  0.00000000000E+00  0.00000000000E+00 -0.65315172567E+02  0.26164344513E+04  0.26156190790E+04 0.  0.
        3    1    3    3  502    0  0.61167888224E+03  0.34023731794E+03 -0.11377432487E+04  0.13358039518E+04  0.10100000352E+00 0. -1.
       -3    1    3    3    0  502 -0.61167888224E+03 -0.34023731794E+03  0.10724280762E+04  0.12806304995E+04  0.10100000352E+00 0.  1.
</event>
<event>
 5   0  0.6993678E-06  0.2609946E+04  0.7818609E-02  0.8364831E-01
       -1   -1    0    0    0  501  0.00000000000E+00  0.00000000000E+00  0.14308421160E+04  0.14308421160E+04  0.50400001928E-02 0. -1.
        1   -1    0    0  501    0  0.00000000000E+00  0.00000000000E+00 -0.11901764300E+04  0.11901764300E+04  0.50400001928E-02 0.  1.
    10030    2    1    2    0    0  0.00000000000E+00  0.00000000000E+00  0.24066568607E+03  0.26210185460E+04  0.26099460236E+04 0.  0.
        1    1    3    3  502    0 -0.49682216279E+03  0.12001596619E+04 -0.56549077137E+01  0.12989408968E+04  0.50400001928E-02 0.  1.
       -1    1    3    3    0  502  0.49682216279E+03 -0.12001596619E+04  0.24632059379E+03  0.13220776492E+04  0.50400001928E-02 0. -1.
</event>
<event>
 5   0  0.6984287E-06  0.2596611E+04  0.7818609E-02  0.8369353E-01
        1   -1    0    0  501    0  0.00000000000E+00  0.00000000000E+00  0.12849488360E+04  0.12849488360E+04  0.50400001928E-02 0.  1.
       -1   -1    0    0    0  501  0.00000000000E+00  0.00000000000E+00 -0.13118010488E+04  0.13118010488E+04  0.50400001928E-02 0. -1.
    10030    2    1    2    0    0  0.00000000000E+00  0.00000000000E+00 -0.26852212809E+02  0.25967498848E+04  0.25966110457E+04 0.  0.
        3    1    3    3  502    0 -0.80304749810E+03 -0.58038670559E+03  0.82558431097E+03  0.12896989870E+04  0.10100000352E+00 0.  1.
       -3    1    3    3    0  502  0.80304749810E+03  0.58038670559E+03 -0.85243652378E+03  0.13070508978E+04  0.10100000352E+00 0. -1.
</event>
<event>
 5   0  0.6706225E-06  0.2624157E+04  0.7818609E-02  0.8360042E-01
        1   -1    0    0  501    0  0.00000000000E+00  0.00000000000E+00  0.19931167023E+04  0.19931167023E+04  0.50400001928E-02 0. -1.
       -1   -1    0    0    0  501  0.00000000000E+00  0.00000000000E+00 -0.86374784285E+03  0.86374784286E+03  0.50400001928E-02 0.  1.
    10030    2    1    2    0    0  0.00000000000E+00  0.00000000000E+00  0.11293688594E+04  0.28568645451E+04  0.26241571997E+04 0.  0.
        5    1    3    3  502    0  0.20042745521E+03  0.97634132926E+03  0.14936501172E+04  0.17956687664E+04  0.46999998093E+01 0. -1.
       -5    1    3    3    0  502 -0.20042745521E+03 -0.97634132926E+03 -0.36428125778E+03  0.10611957787E+04  0.46999998093E+01 0.  1.
</event>
<event>
 5   0  0.6984287E-06  0.2587886E+04  0.7818609E-02  0.8372328E-01
        1   -1    0    0  501    0  0.00000000000E+00  0.00000000000E+00  0.12935463093E+04  0.12935463093E+04  0.50400001928E-02 0.  1.
       -1   -1    0    0    0  501  0.00000000000E+00  0.00000000000E+00 -0.12943393742E+04  0.12943393742E+04  0.50400001928E-02 0. -1.
    10030    2    1    2    0    0  0.00000000000E+00  0.00000000000E+00 -0.79306493017E+00  0.25878856835E+04  0.25878855620E+04 0.  0.
        3    1    3    3  502    0 -0.58184764891E+03 -0.29178047198E+03 -0.11187012751E+04  0.12942855494E+04  0.10100000352E+00 0. -1.
       -3    1    3    3    0  502  0.58184764891E+03  0.29178047198E+03  0.11179082102E+04  0.12936001341E+04  0.10100000352E+00 0.  1.
</event>
<event>
 5   0  0.1681731E-05  0.2624740E+04  0.7818609E-02  0.8359846E-01
       -2   -1    0    0    0  501  0.00000000000E+00  0.00000000000E+00  0.14652997029E+04  0.14652997029E+04  0.25500000920E-02 0. -1.
        2   -1    0    0  501    0  0.00000000000E+00  0.00000000000E+00 -0.11754010397E+04  0.11754010397E+04  0.25500000920E-02 0.  1.
    10030    2    1    2    0    0  0.00000000000E+00  0.00000000000E+00  0.28989866311E+03  0.26407007426E+04  0.26247398304E+04 0.  0.
        2    1    3    3  502    0 -0.10913337673E+04  0.44772746955E+03 -0.43374010143E+03  0.12568212897E+04  0.25500000920E-02 0.  1.
       -2    1    3    3    0  502  0.10913337673E+04 -0.44772746955E+03  0.72363876453E+03  0.13838794529E+04  0.25500000920E-02 0. -1.
</event>
<event>
 5   0  0.1720129E-05  0.2624368E+04  0.7818609E-02  0.8359971E-01
        2   -1    0    0  501    0  0.00000000000E+00  0.00000000000E+00  0.16150483019E+04  0.16150483019E+04  0.25500000920E-02 0.  1.
       -2   -1    0    0    0  501  0.00000000000E+00  0.00000000000E+00 -0.10661146276E+04  0.10661146276E+04  0.25500000920E-02 0. -1.
    10030    2    1    2    0    0  0.00000000000E+00  0.00000000000E+00  0.54893367426E+03  0.26811629295E+04  0.26243678241E+04 0.  0.
        3    1    3    3  502    0  0.22956946549E+03 -0.59680249007E+03  0.14451053377E+04  0.15802546626E+04  0.10100000352E+00 0.  1.
       -3    1    3    3    0  502 -0.22956946549E+03  0.59680249007E+03 -0.89617166341E+03  0.11009082669E+04  0.10100000352E+00 0. -1.
</event>
<event>
 5   0  0.6984287E-06  0.2595313E+04  0.7818609E-02  0.8369795E-01
        1   -1    0    0  501    0  0.00000000000E+00  0.00000000000E+00  0.10209804930E+04  0.10209804930E+04  0.50400001928E-02 0.  1.
       -1   -1    0    0    0  501  0.00000000000E+00  0.00000000000E+00 -0.16493093275E+04  0.16493093275E+04  0.50400001928E-02 0. -1.
    10030    2    1    2    0    0  0.00000000000E+00  0.00000000000E+00 -0.62832883452E+03  0.26702898205E+04  0.25953131991E+04 0.  0.
        3    1    3    3  502    0 -0.59521150918E+02 -0.56844240346E+03  0.88449954094E+03  0.10530949537E+04  0.10100000352E+00 0.  1.
       -3    1    3    3    0  502  0.59521150918E+02  0.56844240346E+03 -0.15128283755E+04  0.16171948668E+04  0.10100000352E+00 0. -1.
</event>
<event>
 5   0  0.7138294E-06  0.2640383E+04  0.7818609E-02  0.8354612E-01
       -1   -1    0    0    0  501  0.00000000000E+00  0.00000000000E+00  0.13727883739E+04  0.13727883739E+04  0.50400001928E-02 0. -1.
        1   -1    0    0  501    0  0.00000000000E+00  0.00000000000E+00 -0.12696098681E+04  0.12696098681E+04  0.50400001928E-02 0.  1.
    10030    2    1    2    0    0  0.00000000000E+00  0.00000000000E+00  0.10317850585E+03  0.26423982420E+04  0.26403830528E+04 0.  0.
        2    1    3    3  502    0 -0.84340910222E+03 -0.35909260865E+02  0.10673896916E+04  0.13608633812E+04  0.25500000920E-02 0. -1.
       -2    1    3    3    0  502  0.84340910222E+03  0.35909260865E+02 -0.96421118571E+03  0.12815348608E+04  0.25500000920E-02 0.  1.
</event>
<event>
 5   0  0.1681731E-05  0.2663342E+04  0.7818609E-02  0.8346998E-01
        2   -1    0    0  501    0  0.00000000000E+00  0.00000000000E+00  0.29313305318E+04  0.29313305318E+04  0.25500000920E-02 0. -1.
       -2   -1    0    0    0  501  0.00000000000E+00  0.00000000000E+00 -0.60496356946E+03  0.60496356947E+03  0.25500000920E-02 0.  1.
    10030    2    1    2    0    0  0.00000000000E+00  0.00000000000E+00  0.23263669623E+04  0.35362941013E+04  0.26633423977E+04 0.  0.
        2    1    3    3  502    0  0.82905220267E+03  0.46983957102E+01  0.25468645436E+04  0.26784078541E+04  0.25500000920E-02 0. -1.
       -2    1    3    3    0  502 -0.82905220267E+03 -0.46983957102E+01 -0.22049758126E+03  0.85788624713E+03  0.25500000920E-02 0.  1.
</event>
<event>
 5   0  0.6918420E-06  0.2426145E+04  0.7818609E-02  0.8429780E-01
        1   -1    0    0  501    0  0.00000000000E+00  0.00000000000E+00  0.15572464793E+04  0.15572464793E+04  0.50400001928E-02 0. -1.
       -1   -1    0    0    0  501  0.00000000000E+00  0.00000000000E+00 -0.94496620156E+03  0.94496620158E+03  0.50400001928E-02 0.  1.
    10030    2    1    2    0    0  0.00000000000E+00  0.00000000000E+00  0.61228027773E+03  0.25022126809E+04  0.24261453299E+04 0.  0.
        4    1    3    3  502    0 -0.11652983519E+04  0.16269146154E+02  0.65338427455E+03  0.13360754310E+04  0.12699999809E+01 0. -1.
       -4    1    3    3    0  502  0.11652983519E+04 -0.16269146154E+02 -0.41103996813E+02  0.11661372499E+04  0.12699999809E+01 0.  1.
</event>
<event>
 5   0  0.1702345E-05  0.2610280E+04  0.7818609E-02  0.8364718E-01
        2   -1    0    0  501    0  0.00000000000E+00  0.00000000000E+00  0.22633379893E+04  0.22633379893E+04  0.25500000920E-02 0.  1.
       -2   -1    0    0    0  501  0.00000000000E+00  0.00000000000E+00 -0.75260093857E+03  0.75260093857E+03  0.25500000920E-02 0. -1.
    10030    2    1    2    0    0  0.00000000000E+00  0.00000000000E+00  0.15107370507E+04  0.30159389279E+04  0.26102799046E+04 0.  0.
        1    1    3    3  502    0  0.88101157330E+03  0.95881904904E+03  0.85790040581E+03  0.15593294929E+04  0.50400001928E-02 0. -1.
       -1    1    3    3    0  502 -0.88101157330E+03 -0.95881904904E+03  0.65283664493E+03  0.14566094350E+04  0.50400001928E-02 0.  1.
</event>
<event>
 5   0  0.6918420E-06  0.2615782E+04  0.7818609E-02  0.8362860E-01
       -1   -1    0    0    0  501  0.00000000000E+00  0.00000000000E+00  0.10954883326E+04  0.10954883326E+04  0.50400001928E-02 0.  1.
        1   -1    0    0  501    0  0.00000000000E+00  0.00000000000E+00 -0.15614766375E+04  0.15614766375E+04  0.50400001928E-02 0. -1.
    10030    2    1    2    0    0  0.00000000000E+00  0.00000000000E+00 -0.46598830488E+03  0.26569649701E+04  0.26157824359E+04 0.  0.
        4    1    3    3  502    0  0.68662932522E+03 -0.39806689765E+03  0.82292069416E+03  0.11432922492E+04  0.12699999809E+01 0.  1.
       -4    1    3    3    0  502 -0.68662932522E+03  0.39806689765E+03 -0.12889089990E+04  0.15136727209E+04  0.12699999809E+01 0. -1.
</event>
<event>
 5   0  0.6984287E-06  0.2613146E+04  0.7818609E-02  0.8363749E-01
        1   -1    0    0  501    0  0.00000000000E+00  0.00000000000E+00  0.17502011209E+04  0.17502011209E+04  0.50400001928E-02 0. -1.
       -1   -1    0    0    0  501  0.00000000000E+00  0.00000000000E+00 -0.97539256118E+03  0.97539256120E+03  0.50400001928E-02 0.  1.
    10030    2    1    2    0    0  0.00000000000E+00  0.00000000000E+00  0.77480855975E+03  0.27255936821E+04  0.26131461145E+04 0.  0.
        3    1    3    3  502    0 -0.61202424770E+03  0.40293931694E+03  0.15157114551E+04  0.16835423957E+04  0.10100000352E+00 0. -1.
       -3    1    3    3    0  502  0.61202424770E+03 -0.40293931694E+03 -0.74090289536E+03  0.10420512864E+04  0.10100000352E+00 0.  1.
</event>
<event>
 5   0  0.7138294E-06  0.2603445E+04  0.7818609E-02  0.8367032E-01
       -1   -1    0    0    0  501  0.00000000000E+00  0.00000000000E+00  0.10880719587E+04  0.10880719587E+04  0.50400001928E-02 0.  1.
        1   -1    0    0  501    0  0.00000000000E+00  0.00000000000E+00 -0.15573246044E+04  0.15573246044E+04  0.50400001928E-02 0. -1.
    10030    2    1    2    0    0  0.00000000000E+00  0.00000000000E+00 -0.46925264571E+03  0.26453965631E+04  0.26034448200E+04 0.  0.
        2    1    3    3  502    0  0.70823603751E+03 -0.11833030260E+03 -0.13378850489E+04  0.15183994038E+04  0.25500000920E-02 0. -1.
       -2    1    3    3    0  502 -0.70823603751E+03  0.11833030260E+03  0.86863240315E+03  0.11269971593E+04  0.25500000920E-02 0.  1.
</event>
<event>
 5   0  0.1702345E-05  0.2578172E+04  0.7818609E-02  0.8375654E-01
       -2   -1    0    0    0  501  0.00000000000E+00  0.00000000000E+00  0.13134788476E+04  0.13134788476E+04  0.25500000920E-02 0.  1.
        2   -1    0    0  501    0  0.00000000000E+00  0.00000000000E+00 -0.12651466091E+04  0.12651466091E+04  0.25500000920E-02 0. -1.
    10030    2    1    2    0    0  0.00000000000E+00  0.00000000000E+00  0.48332238528E+02  0.25786254567E+04  0.25781724613E+04 0.  0.
        1    1    3    3  502    0 -0.36901766505E+03  0.32492499707E+03  0.12160100940E+04  0.13116519506E+04  0.50400001928E-02 0.  1.
       -1    1    3    3    0  502  0.36901766505E+03 -0.32492499707E+03 -0.11676778555E+04  0.12669735060E+04  0.50400001928E-02 0. -1.
</event>
<event>
 5   0  0.1869956E-05  0.2656531E+04  0.7818609E-02  0.8349248E-01
        2   -1    0    0  501    0  0.00000000000E+00  0.00000000000E+00  0.17621353671E+04  0.17621353671E+04  0.25500000920E-02 0.  1.
       -2   -1    0    0    0  501  0.00000000000E+00  0.00000000000E+00 -0.10012225299E+04  0.10012225299E+04  0.25500000920E-02 0. -1.
    10030    2    1    2    0    0  0.00000000000E+00  0.00000000000E+00  0.76091283714E+03  0.27633578970E+04  0.26565312950E+04 0.  0.
        5    1    3    3  502    0  0.57759009428E+03  0.42155798864E+03  0.15448194060E+04  0.17022956682E+04  0.46999998093E+01 0.  1.
       -5    1    3    3    0  502 -0.57759009428E+03 -0.42155798864E+03 -0.78390656884E+03  0.10610622288E+04  0.46999998093E+01 0. -1.
</event>
<event>
 5   0  0.6706225E-06  0.2574778E+04  0.7818609E-02  0.8376819E-01
       -1   -1    0    0    0  501  0.00000000000E+00  0.00000000000E+00  0.21745389581E+04  0.21745389581E+04  0.50400001928E-02 0.  1.
        1   -1    0    0  501    0  0.00000000000E+00  0.00000000000E+00 -0.76217108770E+03  0.76217108772E+03  0.50400001928E-02 0. -1.
    10030    2    1    2    0    0  0.00000000000E+00  0.00000000000E+00  0.14123678704E+04  0.29367100458E+04  0.25747782219E+04 0.  0.
        5    1    3    3  502    0 -0.42960103083E+03 -0.94922385571E+03  0.15686266848E+04  0.18831342863E+04  0.46999998093E+01 0.  1.
       -5    1    3    3    0  502  0.42960103083E+03  0.94922385571E+03 -0.15625881443E+03  0.10535757595E+04  0.46999998093E+01 0. -1.
</event>
<event>
 5   0  0.1677971E-05  0.2615276E+04  0.7818609E-02  0.8363031E-01
        2   -1    0    0  501    0  0.00000000000E+00  0.00000000000E+00  0.16627122215E+04  0.16627122215E+04  0.25500000920E-02 0.  1.
       -2   -1    0    0    0  501  0.00000000000E+00  0.00000000000E+00 -0.10283900476E+04  0.10283900476E+04  0.25500000920E-02 0. -1.
    10030    2    1    2    0    0  0.00000000000E+00  0.00000000000E+00  0.63432217388E+03  0.26911022691E+04  0.26152756647E+04 0.  0.
        4    1    3    3  502    0 -0.34812556037E+03  0.51129030074E+02 -0.97876225833E+03  0.10400878591E+04  0.12699999809E+01 0. -1.
       -4    1    3    3    0  502  0.34812556037E+03 -0.51129030074E+02  0.16130844322E+04  0.16510144099E+04  0.12699999809E+01 0.  1.
</event>
<event>
 5   0  0.6993678E-06  0.2586300E+04  0.7818609E-02  0.8372870E-01
        1   -1    0    0  501    0  0.00000000000E+00  0.00000000000E+00  0.11050494670E+04  0.11050494670E+04  0.50400001928E-02 0. -1.
       -1   -1    0    0    0  501  0.00000000000E+00  0.00000000000E+00 -0.15132693015E+04  0.15132693015E+04  0.50400001928E-02 0.  1.
    10030    2    1    2    0    0  0.00000000000E+00  0.00000000000E+00 -0.40821983458E+03  0.26183187685E+04  0.25863003963E+04 0.  0.
        1    1    3    3  502    0 -0.43575101929E+03  0.99422275117E+03 -0.91557583222E+03  0.14200834251E+04  0.50400001928E-02 0.  1.
       -1    1    3    3    0  502  0.43575101929E+03 -0.99422275117E+03  0.50735599764E+03  0.11982353434E+04  0.50400001928E-02 0. -1.
</event>
<event>
 5   0  0.6706225E-06  0.2851020E+04  0.7818609E-02  0.8287601E-01
        1   -1    0    0  501    0  0.00000000000E+00  0.00000000000E+00  0.13313211448E+04  0.13313211448E+04  0.50400001928E-02 0.  1.
       -1   -1    0    0    0  501  0.00000000000E+00  0.00000000000E+00 -0.15263623805E+04  0.15263623805E+04  0.50400001928E-02 0. -1.
    10030    2    1    2    0    0  0.00000000000E+00  0.00000000000E+00 -0.19504123563E+03  0.28576835253E+04  0.28510198258E+04 0.  0.
        5    1    3    3  502    0 -0.11085445216E+04 -0.60836113670E+03 -0.75714857962E+03  0.14738623717E+04  0.46999998093E+01 0. -1.
       -5    1    3    3    0  502  0.11085445216E+04  0.60836113670E+03  0.56210734399E+03  0.13838211536E+04  0.46999998093E+01 0.  1.
</event>
<event>
 5   0  0.7138294E-06  0.2604081E+04  0.7818609E-02  0.8366816E-01
       -1   -1    0    0    0  501  0.00000000000E+00  0.00000000000E+00  0.12260617918E+04  0.12260617918E+04  0.50400001928E-02 0. -1.
        1   -1    0    0  501    0  0.00000000000E+00  0.00000000000E+00 -0.13827275525E+04  0.13827275525E+04  0.50400001928E-02 0.  1.
    10030    2    1    2    0    0  0.00000000000E+00  0.00000000000E+00 -0.15666576069E+03  0.26087893443E+04  0.26040809669E+04 0.  0.
        2    1    3    3  502    0  0.50305428211E+03 -0.86677287000E+03 -0.91107019995E+03  0.13544030892E+04  0.25500000920E-02 0.  1.
       -2    1    3    3    0  502 -0.50305428211E+03  0.86677287000E+03  0.75440443926E+03  0.12543862551E+04  0.25500000920E-02 0. -1.
</event>
<event>
 5   0  0.7138294E-06  0.2373616E+04  0.7818609E-02  0.8449448E-01
       -1   -1    0    0    0  501  0.00000000000E+00  0.00000000000E+00  0.87601228042E+03  0.87601228043E+03  0.50400001928E-02 0.  1.
        1   -1    0    0  501    0  0.00000000000E+00  0.00000000000E+00 -0.16078694738E+04  0.16078694738E+04  0.50400001928E-02 0. -1.
    10030    2    1    2    0    0  0.00000000000E+00  0.00000000000E+00 -0.73185719342E+03  0.24838817543E+04  0.23736161479E+04 0.  0.
        2    1    3    3  502    0  0.63309718972E+03 -0.99424713342E+03 -0.51083136518E+03  0.12846353948E+04  0.25500000920E-02 0. -1.
       -2    1    3    3    0  502 -0.63309718972E+03  0.99424713342E+03 -0.22102582824E+03  0.11992463595E+04  0.25500000920E-02 0.  1.
</event>
<event>
 5   0  0.6706225E-06  0.2539778E+04  0.7818609E-02  0.8388950E-01
        1   -1    0    0  501    0  0.00000000000E+00  0.00000000000E+00  0.13366975455E+04  0.13366975455E+04  0.50400001928E-02 0. -1.
       -1   -1    0    0    0  501  0.00000000000E+00  0.00000000000E+00 -0.12064199351E+04  0.12064199351E+04  0.50400001928E-02 0.  1.
    10030    2    1    2    0    0  0.00000000000E+00  0.00000000000E+00  0.13027761043E+03  0.25431174806E+04  0.25397783888E+04 0.  0.
        5    1    3    3  502    0 -0.98704678239E+03 -0.79090106172E+03 -0.48194079994E+02  0.12657529772E+04  0.46999998093E+01 0. -1.
       -5    1    3    3    0  502  0.98704678239E+03  0.79090106172E+03  0.17847169043E+03  0.12773645033E+04  0.46999998093E+01 0.  1.
</event>
<event>
 5   0  0.6706225E-06  0.2617753E+04  0.7818609E-02  0.8362196E-01
       -1   -1    0    0    0  501  0.00000000000E+00  0.00000000000E+00  0.16370431831E+04  0.16370431831E+04  0.50400001928E-02 0.  1.
        1   -1    0    0  501    0  0.00000000000E+00  0.00000000000E+00 -0.10464953756E+04  0.10464953756E+04  0.50400001928E-02 0. -1.
    10030    2    1    2    0    0  0.00000000000E+00  0.00000000000E+00  0.59054780748E+03  0.26835385588E+04  0.26177533275E+04 0.  0.
        5    1    3    3  502    0 -0.16821481091E+03 -0.11844359756E+04 -0.24906091447E+03  0.12219812732E+04  0.46999998093E+01 0. -1.
       -5    1    3    3    0  502  0.16821481091E+03  0.11844359756E+04  0.83960872195E+03  0.14615572856E+04  0.46999998093E+01 0.  1.
</event>
<event>
 5   0  0.7138294E-06  0.2586101E+04  0.7818609E-02  0.8372938E-01
        1   -1    0    0  501    0  0.00000000000E+00  0.00000000000E+00  0.67062764073E+03  0.67062764075E+03  0.50400001928E-02 0.  1.
       -1   -1    0    0    0  501  0.00000000000E+00  0.00000000000E+00 -0.24931572889E+04  0.24931572889E+04  0.50400001928E-02 0. -1.
    10030    2    1    2    0    0  0.00000000000E+00  0.00000000000E+00 -0.18225296482E+04  0.31637849297E+04  0.25861014602E+04 0.  0.
        2    1    3    3  502    0  0.27211865647E+03 -0.68288979792E+03  0.39012242933E+03  0.83221544637E+03  0.25500000920E-02 0.  1.
       -2    1    3    3    0  502 -0.27211865647E+03  0.68288979792E+03 -0.22126520775E+04  0.23315694833E+04  0.25500000920E-02 0. -1.
</event>
<event>
 5   0  0.7138294E-06  0.2096119E+04  0.7818609E-02  0.8562955E-01
        1   -1    0    0  501    0  0.00000000000E+00  0.00000000000E+00  0.13592307987E+04  0.13592307987E+04  0.50400001928E-02 0.  1.
       -1   -1    0    0    0  501  0.00000000000E+00  0.00000000000E+00 -0.80812515930E+03  0.80812515932E+03  0.50400001928E-02 0. -1.
    10030    2    1    2    0    0  0.00000000000E+00  0.00000000000E+00  0.55110563938E+03  0.21673559580E+04  0.20961188952E+04 0.  0.
        2    1    3    3  502    0 -0.16632004321E+03 -0.25977473243E+03 -0.76012847087E+03  0.82032954391E+03  0.25500000920E-02 0. -1.
       -2    1    3    3    0  502  0.16632004321E+03  0.25977473243E+03  0.13112341102E+04  0.13470264141E+04  0.25500000920E-02 0.  1.
</event>
<event>
 5   0  0.7138294E-06  0.2588502E+04  0.7818609E-02  0.8372117E-01
        1   -1    0    0  501    0  0.00000000000E+00  0.00000000000E+00  0.94718853316E+03  0.94718853317E+03  0.50400001928E-02 0.  1.
       -1   -1    0    0    0  501  0.00000000000E+00  0.00000000000E+00 -0.17684820627E+04  0.17684820627E+04  0.50400001928E-02 0. -1.
    10030    2    1    2    0    0  0.00000000000E+00  0.00000000000E+00 -0.82129352956E+03  0.27156705959E+04  0.25885022163E+04 0.  0.
        2    1    3    3  502    0 -0.35840309690E+03  0.94594263017E+03 -0.12576679754E+04  0.16139978240E+04  0.25500000920E-02 0. -1.
       -2    1    3    3    0  502  0.35840309690E+03 -0.94594263017E+03  0.43637444583E+03  0.11016727719E+04  0.25500000920E-02 0.  1.
</event>
<event>
 5   0  0.1702345E-05  0.2600216E+04  0.7818609E-02  0.8368128E-01
       -2   -1    0    0    0  501  0.00000000000E+00  0.00000000000E+00  0.83784349236E+03  0.83784349237E+03  0.25500000920E-02 0.  1.
        2   -1    0    0  501    0  0.00000000000E+00  0.00000000000E+00 -0.20174176989E+04  0.20174176989E+04  0.25500000920E-02 0. -1.
    10030    2    1    2    0    0  0.00000000000E+00  0.00000000000E+00 -0.11795742065E+04  0.28552611913E+04  0.26002155991E+04 0.  0.
        1    1    3    3  502    0  0.44883172962E+03  0.46463325245E+02  0.74910011378E+03  0.87450542743E+03  0.50400001928E-02 0.  1.
       -1    1    3    3    0  502 -0.44883172962E+03 -0.46463325245E+02 -0.19286743203E+04  0.19807557638E+04  0.50400001928E-02 0. -1.
</event>
<event>
 5   0  0.6706225E-06  0.2577096E+04  0.7818609E-02  0.8376023E-01
        1   -1    0    0  501    0  0.00000000000E+00  0.00000000000E+00  0.15172215514E+04  0.15172215514E+04  0.50400001928E-02 0.  1.
       -1   -1    0    0    0  501  0.00000000000E+00  0.00000000000E+00 -0.10943399568E+04  0.10943399568E+04  0.50400001928E-02 0. -1.
    10030    2    1    2    0    0  0.00000000000E+00  0.00000000000E+00  0.42288159466E+03  0.26115615082E+04  0.25770961697E+04 0.  0.
        5    1    3    3  502    0 -0.84248945099E+03 -0.63878000082E+03 -0.53495947855E+03  0.11849186040E+04  0.46999998093E+01 0. -1.
       -5    1    3    3    0  502  0.84248945099E+03  0.63878000082E+03  0.95784107321E+03  0.14266429042E+04  0.46999998093E+01 0.  1.
</event>
<event>
 5   0  0.7138294E-06  0.2585924E+04  0.7818609E-02  0.8372998E-01
       -1   -1    0    0    0  501  0.00000000000E+00  0.00000000000E+00  0.97998936858E+03  0.97998936859E+03  0.50400001928E-02 0.  1.
        1   -1    0    0  501    0  0.00000000000E+00  0.00000000000E+00 -0.17058861644E+04  0.17058861644E+04  0.50400001928E-02 0. -1.
    10030    2    1    2    0    0  0.00000000000E+00  0.00000000000E+00 -0.72589679581E+03  0.26858755330E+04  0.25859236687E+04 0.  0.
        2    1    3    3  502    0  0.67936686426E+03  0.77077309054E+03  0.45232405603E+03  0.11225985681E+04  0.25500000920E-02 0.  1.
       -2    1    3    3    0  502 -0.67936686426E+03 -0.77077309054E+03 -0.11782208518E+04  0.15632769649E+04  0.25500000920E-02 0. -1.
</event>
<event>
 5   0  0.6993678E-06  0.2594016E+04  0.7818609E-02  0.8370237E-01
        1   -1    0    0  501    0  0.00000000000E+00  0.00000000000E+00  0.13078717688E+04  0.13078717688E+04  0.50400001928E-02 0.  1.
       -1   -1    0    0    0  501  0.00000000000E+00  0.00000000000E+00 -0.12862347782E+04  0.12862347782E+04  0.50400001928E-02 0. -1.
    10030    2    1    2    0    0  0.00000000000E+00  0.00000000000E+00  0.21636990621E+02  0.25941065470E+04  0.25940163103E+04 0.  0.
        1    1    3    3  502    0  0.34883340946E+03  0.13748976017E+02 -0.12383672127E+04  0.12866340332E+04  0.50400001928E-02 0. -1.
       -1    1    3    3    0  502 -0.34883340946E+03 -0.13748976017E+02  0.12600042033E+04  0.13074725138E+04  0.50400001928E-02 0.  1.
</event>
<event>
 5   0  0.1869956E-05  0.2596454E+04  0.7818609E-02  0.8369407E-01
        2   -1    0    0  501    0  0.00000000000E+00  0.00000000000E+00  0.21010422478E+04  0.21010422478E+04  0.25500000920E-02 0.  1.
       -2   -1    0    0    0  501  0.00000000000E+00  0.00000000000E+00 -0.80217034177E+03  0.80217034177E+03  0.25500000920E-02 0. -1.
    10030    2    1    2    0    0  0.00000000000E+00  0.00000000000E+00  0.12988719060E+04  0.29032125896E+04  0.25964543346E+04 0.  0.
        5    1    3    3  502    0  0.10014617792E+04  0.77434773401E+03  0.97124342315E+03  0.15955801407E+04  0.46999998093E+01 0.  1.
       -5    1    3    3    0  502 -0.10014617792E+04 -0.77434773401E+03  0.32762848286E+03  0.13076324488E+04  0.46999998093E+01 0. -1.
</event>
<event>
 5   0  0.1869956E-05  0.2599218E+04  0.7818609E-02  0.8368467E-01
       -2   -1    0    0    0  501  0.00000000000E+00  0.00000000000E+00  0.77158499651E+03  0.77158499651E+03  0.25500000920E-02 0.  1.
        2   -1    0    0  501    0  0.00000000000E+00  0.00000000000E+00 -0.21889787778E+04  0.21889787778E+04  0.25500000920E-02 0. -1.
    10030    2    1    2    0    0  0.00000000000E+00  0.00000000000E+00 -0.14173937813E+04  0.29605637744E+04  0.25992177151E+04 0.  0.
        5    1    3    3  502    0  0.61038115716E+03 -0.11445862331E+04 -0.79923502903E+03  0.15236277510E+04  0.46999998093E+01 0. -1.
       -5    1    3    3    0  502 -0.61038115716E+03  0.11445862331E+04 -0.61815875230E+03  0.14369360233E+04  0.46999998093E+01 0.  1.
</event>
<event>
 5   0  0.1677971E-05  0.2620434E+04  0.7818609E-02  0.8361293E-01
        2   -1    0    0  501    0  0.00000000000E+00  0.00000000000E+00  0.16359952563E+04  0.16359952563E+04  0.25500000920E-02 0. -1.
       -2   -1    0    0    0  501  0.00000000000E+00  0.00000000000E+00 -0.10493114115E+04  0.10493114115E+04  0.25500000920E-02 0.  1.
    10030    2    1    2    0    0  0.00000000000E+00  0.00000000000E+00  0.58668384477E+03  0.26853066678E+04  0.26204339271E+04 0.  0.
        4    1    3    3  502    0 -0.29121726313E+03 -0.43170747457E+03  0.15253907733E+04  0.16118304694E+04  0.12699999809E+01 0. -1.
       -4    1    3    3    0  502  0.29121726313E+03  0.43170747457E+03 -0.93870692852E+03  0.10734761984E+04  0.12699999809E+01 0.  1.
</event>
<event>
 5   0  0.6706225E-06  0.2622246E+04  0.7818609E-02  0.8360684E-01
        1   -1    0    0  501    0  0.00000000000E+00  0.00000000000E+00  0.11162290094E+04  0.11162290095E+04  0.50400001928E-02 0.  1.
       -1   -1    0    0    0  501  0.00000000000E+00  0.00000000000E+00 -0.15400459703E+04  0.15400459703E+04  0.50400001928E-02 0. -1.
    10030    2    1    2    0    0  0.00000000000E+00  0.00000000000E+00 -0.42381696085E+03  0.26562749797E+04  0.26222463560E+04 0.  0.
        5    1    3    3  502    0  0.11962579701E+04 -0.29854091225E+03 -0.66363495202E+03  0.14002118578E+04  0.46999998093E+01 0.  1.
       -5    1    3    3    0  502 -0.11962579701E+04  0.29854091225E+03  0.23981799117E+03  0.12560631219E+04  0.46999998093E+01 0. -1.
</event>
<event>
 5   0  0.1681731E-05  0.2593885E+04  0.7818609E-02  0.8370281E-01
        2   -1    0    0  501    0  0.00000000000E+00  0.00000000000E+00  0.17966020037E+04  0.17966020037E+04  0.25500000920E-02 0. -1.
       -2   -1    0    0    0  501  0.00000000000E+00  0.00000000000E+00 -0.93624530444E+03  0.93624530444E+03  0.25500000920E-02 0.  1.
    10030    2    1    2    0    0  0.00000000000E+00  0.00000000000E+00  0.86035669925E+03  0.27328473081E+04  0.25938852634E+04 0.  0.
        2    1    3    3  502    0 -0.76884531033E+03 -0.10353934861E+04  0.28534595196E+03  0.13208274280E+04  0.25500000920E-02 0.  1.
       -2    1    3    3    0  502  0.76884531033E+03  0.10353934861E+04  0.57501074728E+03  0.14120198801E+04  0.25500000920E-02 0. -1.
</event>
<event>
 5   0  0.7138294E-06  0.2613725E+04  0.7818609E-02  0.8363554E-01
        1   -1    0    0  501    0  0.00000000000E+00  0.00000000000E+00  0.13622067758E+04  0.13622067758E+04  0.50400001928E-02 0. -1.
       -1   -1    0    0    0  501  0.00000000000E+00  0.00000000000E+00 -0.12537664907E+04  0.12537664907E+04  0.50400001928E-02 0.  1.
    10030    2    1    2    0    0  0.00000000000E+00  0.00000000000E+00  0.10844028509E+03  0.26159732665E+04  0.26137247054E+04 0.  0.
        2    1    3    3  502    0 -0.12437899125E+04  0.40100191383E+03  0.62790656764E+02  0.13083419079E+04  0.25500000920E-02 0.  1.
       -2    1    3    3    0  502  0.12437899125E+04 -0.40100191383E+03  0.45649628322E+02  0.13076313586E+04  0.25500000920E-02 0. -1.
</event>
<event>
 5   0  0.1681731E-05  0.2616051E+04  0.7818609E-02  0.8362769E-01
        2   -1    0    0  501    0  0.00000000000E+00  0.00000000000E+00  0.34781923122E+04  0.34781923122E+04  0.25500000920E-02 0. -1.
       -2   -1    0    0    0  501  0.00000000000E+00  0.00000000000E+00 -0.49190240340E+03  0.49190240341E+03  0.25500000920E-02 0.  1.
    10030    2    1    2    0    0  0.00000000000E+00  0.00000000000E+00  0.29862899087E+04  0.39700947156E+04  0.26160513434E+04 0.  0.
        2    1    3    3  502    0  0.13412049768E+03  0.94943018584E+03  0.28433103411E+04  0.30006365460E+04  0.25500000920E-02 0. -1.
       -2    1    3    3    0  502 -0.13412049768E+03 -0.94943018584E+03  0.14297956766E+03  0.96945816952E+03  0.25500000920E-02 0.  1.
</event>
<event>
 5   0  0.6706225E-06  0.2601495E+04  0.7818609E-02  0.8367694E-01
        1   -1    0    0  501    0  0.00000000000E+00  0.00000000000E+00  0.18743020501E+04  0.18743020501E+04  0.50400001928E-02 0.  1.
       -1   -1    0    0    0  501  0.00000000000E+00  0.00000000000E+00 -0.90270618558E+03  0.90270618559E+03  0.50400001928E-02 0. -1.
    10030    2    1    2    0    0  0.00000000000E+00  0.00000000000E+00  0.97159586456E+03  0.27770082357E+04  0.26014949966E+04 0.  0.
        5    1    3    3  502    0  0.99055041197E+03 -0.13395320052E+03  0.13742918762E+04  0.16993627716E+04  0.46999998093E+01 0.  1.
       -5    1    3    3    0  502 -0.99055041197E+03  0.13395320052E+03 -0.40269601162E+03  0.10776454641E+04  0.46999998093E+01 0. -1.
</event>
<event>
 5   0  0.1677971E-05  0.2605660E+04  0.7818609E-02  0.8366281E-01
        2   -1    0    0  501    0  0.00000000000E+00  0.00000000000E+00  0.16854576307E+04  0.16854576307E+04  0.25500000920E-02 0. -1.
       -2   -1    0    0    0  501  0.00000000000E+00  0.00000000000E+00 -0.10070656540E+04  0.10070656540E+04  0.25500000920E-02 0.  1.
    10030    2    1    2    0    0  0.00000000000E+00  0.00000000000E+00  0.67839197667E+03  0.26925232847E+04  0.26056603701E+04 0.  0.
        4    1    3    3  502    0 -0.11865656480E+04 -0.52699042262E+03  0.45100629069E+03  0.13744326938E+04  0.12699999809E+01 0.  1.
       -4    1    3    3    0  502  0.11865656480E+04  0.52699042262E+03  0.22738568598E+03  0.13180905909E+04  0.12699999809E+01 0. -1.
</event>
<event>
 5   0  0.6993678E-06  0.2459783E+04  0.7818609E-02  0.8417455E-01
        1   -1    0    0  501    0  0.00000000000E+00  0.00000000000E+00  0.13851049476E+04  0.13851049476E+04  0.50400001928E-02 0.  1.
       -1   -1    0    0    0  501  0.00000000000E+00  0.00000000000E+00 -0.10920706858E+04  0.10920706859E+04  0.50400001928E-02 0. -1.
    10030    2    1    2    0    0  0.00000000000E+00  0.00000000000E+00  0.29303426173E+03  0.24771756334E+04  0.24597825189E+04 0.  0.
        1    1    3    3  502    0 -0.33021638066E+03  0.27221729946E+03 -0.10146699640E+04  0.11012267033E+04  0.50400001928E-02 0. -1.
       -1    1    3    3    0  502  0.33021638066E+03 -0.27221729946E+03  0.13077042258E+04  0.13759489301E+04  0.50400001928E-02 0.  1.
</event>
<event>
 5   0  0.6706225E-06  0.2606885E+04  0.7818609E-02  0.8365866E-01
       -1   -1    0    0    0  501  0.00000000000E+00  0.00000000000E+00  0.11959317968E+04  0.11959317968E+04  0.50400001928E-02 0. -1.
        1   -1    0    0  501    0  0.00000000000E+00  0.00000000000E+00 -0.14206186170E+04  0.14206186170E+04  0.50400001928E-02 0.  1.
    10030    2    1    2    0    0  0.00000000000E+00  0.00000000000E+00 -0.22468682016E+03  0.26165504138E+04  0.26068854790E+04 0.  0.
        5    1    3    3  502    0  0.60551506364E+03  0.13104152097E+03  0.10386953008E+04  0.12094339132E+04  0.46999998093E+01 0. -1.
       -5    1    3    3    0  502 -0.60551506364E+03 -0.13104152097E+03 -0.12633821210E+04  0.14071165006E+04  0.46999998093E+01 0.  1.
</event>
<event>
 5   0  0.6993678E-06  0.2132511E+04  0.7818609E-02  0.8547056E-01
       -1   -1    0    0    0  501  0.00000000000E+00  0.00000000000E+00  0.88934320788E+03  0.88934320790E+03  0.50400001928E-02 0. -1.
        1   -1    0    0  501    0  0.00000000000E+00  0.00000000000E+00 -0.12783595947E+04  0.12783595947E+04  0.50400001928E-02 0.  1.
    10030    2    1    2    0    0  0.00000000000E+00  0.00000000000E+00 -0.38901638680E+03  0.21677028026E+04  0.21325106544E+04 0.  0.
        1    1    3    3  502    0  0.85005585549E+03 -0.31371417237E+02  0.45900208495E+03  0.96657231353E+03  0.50400001928E-02 0. -1.
       -1    1    3    3    0  502 -0.85005585549E+03  0.31371417237E+02 -0.84801847175E+03  0.12011304891E+04  0.50400001928E-02 0.  1.
</event>
<event>
 5   0  0.1681731E-05  0.2611095E+04  0.7818609E-02  0.8364442E-01
       -2   -1    0    0    0  501  0.00000000000E+00  0.00000000000E+00  0.81554142874E+03  0.81554142874E+03  0.25500000920E-02 0.  1.
        2   -1    0    0  501    0  0.00000000000E+00  0.00000000000E+00 -0.20899672805E+04  0.20899672805E+04  0.25500000920E-02 0. -1.
    10030    2    1    2    0    0  0.00000000000E+00  0.00000000000E+00 -0.12744258517E+04  0.29055087092E+04  0.26110954804E+04 0.  0.
        2    1    3    3  502    0  0.12547318336E+04 -0.98991513276E+01 -0.10384299451E+04  0.16287377684E+04  0.25500000920E-02 0. -1.
       -2    1    3    3    0  502 -0.12547318336E+04  0.98991513276E+01 -0.23599590664E+03  0.12767709408E+04  0.25500000920E-02 0.  1.
</event>
<event>
 5   0  0.1702345E-05  0.2593861E+04  0.7818609E-02  0.8370289E-01
       -2   -1    0    0    0  501  0.00000000000E+00  0.00000000000E+00  0.12254161016E+04  0.12254161016E+04  0.25500000920E-02 0. -1.
        2   -1    0    0  501    0  0.00000000000E+00  0.00000000000E+00 -0.13726183603E+04  0.13726183603E+04  0.25500000920E-02 0.  1.
    10030    2    1    2    0    0  0.00000000000E+00  0.00000000000E+00 -0.14720225869E+03  0.25980344618E+04  0.25938609369E+04 0.  0.
        1    1    3    3  502    0  0.72195895135E+03  0.39320020034E+03 -0.10783090797E+04  0.13559430653E+04  0.50400001928E-02 0.  1.
       -1    1    3    3    0  502 -0.72195895135E+03 -0.39320020034E+03  0.93110682105E+03  0.12420913965E+04  0.50400001928E-02 0. -1.
</event>
<event>
 5   0  0.6706225E-06  0.2597152E+04  0.7818609E-02  0.8369169E-01
       -1   -1    0    0    0  501  0.00000000000E+00  0.00000000000E+00  0.75246994707E+03  0.75246994709E+03  0.50400001928E-02 0.  1.
        1   -1    0    0  501    0  0.00000000000E+00  0.00000000000E+00 -0.22410185302E+04  0.22410185302E+04  0.50400001928E-02 0. -1.
    10030    2    1    2    0    0  0.00000000000E+00  0.00000000000E+00 -0.14885485831E+04  0.29934884773E+04  0.25971515896E+04 0.  0.
        5    1    3    3  502    0 -0.48069272842E+03 -0.87562535041E+03  0.21210389588E+03  0.10211735436E+04  0.46999998093E+01 0.  1.
       -5    1    3    3    0  502  0.48069272842E+03  0.87562535041E+03 -0.17006524790E+04  0.19723149337E+04  0.46999998093E+01 0. -1.
</event>
<event>
 5   0  0.1869956E-05  0.2589875E+04  0.7818609E-02  0.8371649E-01
       -2   -1    0    0    0  501  0.00000000000E+00  0.00000000000E+00  0.14102691135E+04  0.14102691135E+04  0.25500000920E-02 0.  1.
        2   -1    0    0  501    0  0.00000000000E+00  0.00000000000E+00 -0.11890372402E+04  0.11890372402E+04  0.25500000920E-02 0. -1.
    10030    2    1    2    0    0  0.00000000000E+00  0.00000000000E+00  0.22123187333E+03  0.25993063537E+04  0.25898745102E+04 0.  0.
        5    1    3    3  502    0  0.12627196414E+03 -0.64309117018E+03 -0.10102904699E+04  0.12042507154E+04  0.46999998093E+01 0. -1.
       -5    1    3    3    0  502 -0.12627196414E+03  0.64309117018E+03  0.12315223432E+04  0.13950556383E+04  0.46999998093E+01 0.  1.
</event>
<event>
 5   0  0.1869956E-05  0.2606984E+04  0.7818609E-02  0.8365833E-01
        2   -1    0    0  501    0  0.00000000000E+00  0.00000000000E+00  0.12501080183E+04  0.12501080183E+04  0.25500000920E-02 0. -1.
       -2   -1    0    0    0  501  0.00000000000E+00  0.00000000000E+00 -0.13591553940E+04  0.13591553940E+04  0.25500000920E-02 0.  1.
    10030    2    1    2    0    0  0.00000000000E+00  0.00000000000E+00 -0.10904737574E+03  0.26092634123E+04  0.26069837408E+04 0.  0.
        5    1    3    3  502    0 -0.13901244138E+01 -0.12850736342E+04 -0.27300976185E+03  0.13137627632E+04  0.46999998093E+01 0.  1.
       -5    1    3    3    0  502  0.13901244138E+01  0.12850736342E+04  0.16396238611E+03  0.12955006491E+04  0.46999998093E+01 0. -1.
</event>
<event>
 5   0  0.1869956E-05  0.2586398E+04  0.7818609E-02  0.8372836E-01
        2   -1    0    0  501    0  0.00000000000E+00  0.00000000000E+00  0.19282919912E+04  0.19282919912E+04  0.25500000920E-02 0. -1.
       -2   -1    0    0    0  501  0.00000000000E+00  0.00000000000E+00 -0.86727693951E+03  0.86727693952E+03  0.25500000920E-02 0.  1.
    10030    2    1    2    0    0  0.00000000000E+00  0.00000000000E+00  0.10610150517E+04  0.27955689307E+04  0.25863976312E+04 0.  0.
        5    1    3    3  502    0  0.12924129101E+03  0.10023952861E+04 -0.34148451028E+03  0.10668333430E+04  0.46999998093E+01 0.  1.
       -5    1    3    3    0  502 -0.12924129101E+03 -0.10023952861E+04  0.14024995620E+04  0.17287355877E+04  0.46999998093E+01 0. -1.
</event>
<event>
 5   0  0.6993678E-06  0.2602497E+04  0.7818609E-02  0.8367354E-01
        1   -1    0    0  501    0  0.00000000000E+00  0.00000000000E+00  0.11559088614E+04  0.11559088614E+04  0.50400001928E-02 0. -1.
       -1   -1    0    0    0  501  0.00000000000E+00  0.00000000000E+00 -0.14648623855E+04  0.14648623855E+04  0.50400001928E-02 0.  1.
    10030    2    1    2    0    0  0.00000000000E+00  0.00000000000E+00 -0.30895352410E+03  0.26207712470E+04  0.26024968105E+04 0.  0.
        1    1    3    3  502    0  0.74665150568E+03 -0.28041879741E+03  0.88090837161E+03  0.11883277040E+04  0.50400001928E-02 0. -1.
       -1    1    3    3    0  502 -0.74665150568E+03  0.28041879741E+03 -0.11898618957E+04  0.14324435430E+04  0.50400001928E-02 0.  1.
</event>
<event>
 5   0  0.1677971E-05  0.2110305E+04  0.7818609E-02  0.8556717E-01
        2   -1    0    0  501    0  0.00000000000E+00  0.00000000000E+00  0.10022240375E+04  0.10022240375E+04  0.25500000920E-02 0.  1.
       -2   -1    0    0    0  501  0.00000000000E+00  0.00000000000E+00 -0.11108766370E+04  0.11108766370E+04  0.25500000920E-02 0. -1.
    10030    2    1    2    0    0  0.00000000000E+00  0.00000000000E+00 -0.10865259949E+03  0.21131006746E+04  0.21103054455E+04 0.  0.
        4    1    3    3  502    0  0.10218766254E+04  0.12743218204E+03  0.17592361170E+03  0.10447112178E+04  0.12699999809E+01 0.  1.
       -4    1    3    3    0  502 -0.10218766254E+04 -0.12743218204E+03 -0.28457621118E+03  0.10683894568E+04  0.12699999809E+01 0. -1.
</event>
<event>
 5   0  0.6993678E-06  0.2357799E+04  0.7818609E-02  0.8455474E-01
       -1   -1    0    0    0  501  0.00000000000E+00  0.00000000000E+00  0.14070422914E+04  0.14070422914E+04  0.50400001928E-02 0.  1.
        1   -1    0    0  501    0  0.00000000000E+00  0.00000000000E+00 -0.98774893567E+03  0.98774893568E+03  0.50400001928E-02 0. -1.
    10030    2    1    2    0    0  0.00000000000E+00  0.00000000000E+00  0.41929335570E+03  0.23947912271E+04  0.23577994196E+04 0.  0.
        1    1    3    3  502    0  0.10332892776E+04 -0.41858706502E+03 -0.17964546381E+03  0.11292361821E+04  0.50400001928E-02 0. -1.
       -1    1    3    3    0  502 -0.10332892776E+04  0.41858706502E+03  0.59893881951E+03  0.12655550450E+04  0.50400001928E-02 0.  1.
</event>
<event>
 5   0  0.6984287E-06  0.2542093E+04  0.7818609E-02  0.8388141E-01
       -1   -1    0    0    0  501  0.00000000000E+00  0.00000000000E+00  0.11224249289E+04  0.11224249289E+04  0.50400001928E-02 0. -1.
        1   -1    0    0  501    0  0.00000000000E+00  0.00000000000E+00 -0.14393471716E+04  0.14393471716E+04  0.50400001928E-02 0.  1.
    10030    2    1    2    0    0  0.00000000000E+00  0.00000000000E+00 -0.31692224275E+03  0.25617721005E+04  0.25420929540E+04 0.  0.
        3    1    3    3  502    0 -0.92141983610E+03  0.79699377347E+03 -0.52368296277E+03  0.13260684164E+04  0.10100000352E+00 0. -1.
       -3    1    3    3    0  502  0.92141983610E+03 -0.79699377347E+03  0.20676072002E+03  0.12357036841E+04  0.10100000352E+00 0.  1.
</event>
<event>
 5   0  0.7138294E-06  0.2174887E+04  0.7818609E-02  0.8528954E-01
       -1   -1    0    0    0  501  0.00000000000E+00  0.00000000000E+00  0.12993451021E+04  0.12993451021E+04  0.50400001928E-02 0. -1.
        1   -1    0    0  501    0  0.00000000000E+00  0.00000000000E+00 -0.91009957125E+03  0.91009957127E+03  0.50400001928E-02 0.  1.
    10030    2    1    2    0    0  0.00000000000E+00  0.00000000000E+00  0.38924553081E+03  0.22094446733E+04  0.21748870502E+04 0.  0.
        2    1    3    3  502    0  0.46105418904E+03 -0.62258273685E+03  0.96986897799E+03  0.12413001506E+04  0.25500000920E-02 0. -1.
       -2    1    3    3    0  502 -0.46105418904E+03  0.62258273685E+03 -0.58062344718E+03  0.96814452272E+03  0.25500000920E-02 0.  1.
</event>
<event>
 5   0  0.1677971E-05  0.2502836E+04  0.7818609E-02  0.8401976E-01
        2   -1    0    0  501    0  0.00000000000E+00  0.00000000000E+00  0.17348635278E+04  0.17348635278E+04  0.25500000920E-02 0. -1.
       -2   -1    0    0    0  501  0.00000000000E+00  0.00000000000E+00 -0.90269188811E+03  0.90269188811E+03  0.25500000920E-02 0.  1.
    10030    2    1    2    0    0  0.00000000000E+00  0.00000000000E+00  0.83217163973E+03  0.26375554159E+04  0.25028361781E+04 0.  0.
        4    1    3    3  502    0  0.70858145320E+02  0.14709013218E+03 -0.89141928137E+03  0.90624849343E+03  0.12699999809E+01 0.  1.
       -4    1    3    3    0  502 -0.70858145320E+02 -0.14709013218E+03  0.17235909211E+04  0.17313069225E+04  0.12699999809E+01 0. -1.
</event>
<event>
 5   0  0.6918420E-06  0.2604645E+04  0.7818609E-02  0.8366625E-01
       -1   -1    0    0    0  501  0.00000000000E+00  0.00000000000E+00  0.97325728254E+03  0.97325728255E+03  0.50400001928E-02 0.  1.
        1   -1    0    0  501    0  0.00000000000E+00  0.00000000000E+00 -0.17426467966E+04  0.17426467966E+04  0.50400001928E-02 0. -1.
    10030    2    1    2    0    0  0.00000000000E+00  0.00000000000E+00 -0.76938951402E+03  0.27159040791E+04  0.26046448400E+04 0.  0.
        4    1    3    3  502    0  0.10170476413E+04  0.37880863289E+03 -0.11352763942E+04  0.15705846010E+04  0.12699999809E+01 0. -1.
       -4    1    3    3    0  502 -0.10170476413E+04 -0.37880863289E+03  0.36588688016E+03  0.11453194781E+04  0.12699999809E+01 0.  1.
</event>
<event>
 5   0  0.6984287E-06  0.2596769E+04  0.7818609E-02  0.8369299E-01
        1   -1    0    0  501    0  0.00000000000E+00  0.00000000000E+00  0.13656964662E+04  0.13656964662E+04  0.50400001928E-02 0. -1.
       -1   -1    0    0    0  501  0.00000000000E+00  0.00000000000E+00 -0.12343903711E+04  0.12343903711E+04  0.50400001928E-02 0.  1.
    10030    2    1    2    0    0  0.00000000000E+00  0.00000000000E+00  0.13130609509E+03  0.26000868373E+04  0.25967691986E+04 0.  0.
        3    1    3    3  502    0 -0.36912315508E+03 -0.16447976371E+02 -0.11806379999E+04  0.12371049012E+04  0.10100000352E+00 0.  1.
       -3    1    3    3    0  502  0.36912315508E+03  0.16447976371E+02  0.13119440950E+04  0.13629819361E+04  0.10100000352E+00 0. -1.
</event>
<event>
 5   0  0.1702345E-05  0.2620995E+04  0.7818609E-02  0.8361104E-01
       -2   -1    0    0    0  501  0.00000000000E+00  0.00000000000E+00  0.88692510968E+03  0.88692510968E+03  0.25500000920E-02 0.  1.
        2   -1    0    0  501    0  0.00000000000E+00  0.00000000000E+00 -0.19363576335E+04  0.19363576335E+04  0.25500000920E-02 0. -1.
    10030    2    1    2    0    0  0.00000000000E+00  0.00000000000E+00 -0.10494325238E+04  0.28232827431E+04  0.26209953884E+04 0.  0.
        1    1    3    3  502    0 -0.12192995675E+04  0.18664632995E+03 -0.47979502630E+02  0.12344352233E+04  0.50400001928E-02 0.  1.
       -1    1    3    3    0  502  0.12192995675E+04 -0.18664632995E+03 -0.10014530211E+04  0.15888475199E+04  0.50400001928E-02 0. -1.
</event>
<event>
 5   0  0.1869956E-05  0.2506073E+04  0.7818609E-02  0.8400825E-01
        2   -1    0    0  501    0  0.00000000000E+00  0.00000000000E+00  0.26314280728E+04  0.26314280728E+04  0.25500000920E-02 0. -1.
       -2   -1    0    0    0  501  0.00000000000E+00  0.00000000000E+00 -0.59667230495E+03  0.59667230495E+03  0.25500000920E-02 0.  1.
    10030    2    1    2    0    0  0.00000000000E+00  0.00000000000E+00  0.20347557678E+04  0.32281003777E+04  0.25060728269E+04 0.  0.
        5    1    3    3  502    0 -0.11331631153E+04 -0.49300922943E+03  0.12843664380E+04  0.17823400302E+04  0.46999998093E+01 0. -1.
       -5    1    3    3    0  502  0.11331631153E+04  0.49300922943E+03  0.75038932983E+03  0.14457603475E+04  0.46999998093E+01 0.  1.
</event>
<event>
 5   0  0.6918420E-06  0.2583170E+04  0.7818609E-02  0.8373941E-01
       -1   -1    0    0    0  501  0.00000000000E+00  0.00000000000E+00  0.75112607338E+03  0.75112607339E+03  0.50400001928E-02 0.  1.
        1   -1    0    0  501    0  0.00000000000E+00  0.00000000000E+00 -0.22209208065E+04  0.22209208065E+04  0.50400001928E-02 0. -1.
    10030    2    1    2    0    0  0.00000000000E+00  0.00000000000E+00 -0.14697947331E+04  0.29720468799E+04  0.25831697774E+04 0.  0.
        4    1    3    3  502    0 -0.93602410384E+03 -0.67802088410E+03 -0.71625302892E+02  0.11580091706E+04  0.12699999809E+01 0.  1.
       -4    1    3    3    0  502  0.93602410384E+03  0.67802088410E+03 -0.13981694302E+04  0.18140377093E+04  0.12699999809E+01 0. -1.
</event>
<event>
 5   0  0.1677971E-05  0.2552557E+04  0.7818609E-02  0.8384497E-01
        2   -1    0    0  501    0  0.00000000000E+00  0.00000000000E+00  0.14241687087E+04  0.14241687087E+04  0.25500000920E-02 0. -1.
       -2   -1    0    0    0  501  0.00000000000E+00  0.00000000000E+00 -0.11437456045E+04  0.11437456045E+04  0.25500000920E-02 0.  1.
    10030    2    1    2    0    0  0.00000000000E+00  0.00000000000E+00  0.28042310411E+03  0.25679143132E+04  0.25525569147E+04 0.  0.
        4    1    3    3  502    0  0.66137017035E+03 -0.10856856702E+04  0.25385673679E+03  0.12963675144E+04  0.12699999809E+01 0. -1.
       -4    1    3    3    0  502 -0.66137017035E+03  0.10856856702E+04  0.26566367322E+02  0.12715467988E+04  0.12699999809E+01 0.  1.
</event>
<event>
 5   0  0.1681731E-05  0.2572109E+04  0.7818609E-02  0.8377737E-01
       -2   -1    0    0    0  501  0.00000000000E+00  0.00000000000E+00  0.11124372792E+04  0.11124372792E+04  0.25500000920E-02 0.  1.
        2   -1    0    0  501    0  0.00000000000E+00  0.00000000000E+00 -0.14867676313E+04  0.14867676313E+04  0.25500000920E-02 0. -1.
    10030    2    1    2    0    0  0.00000000000E+00  0.00000000000E+00 -0.37433035207E+03  0.25992049105E+04  0.25721086591E+04 0.  0.
        2    1    3    3  502    0 -0.89862096690E+03  0.59173126732E+03  0.52472058722E+03  0.11970786230E+04  0.25500000920E-02 0.  1.
       -2    1    3    3    0  502  0.89862096690E+03 -0.59173126732E+03 -0.89905093929E+03  0.14021262876E+04  0.25500000920E-02 0. -1.
</event>
<event>
 5   0  0.6993678E-06  0.2591986E+04  0.7818609E-02  0.8370928E-01
        1   -1    0    0  501    0  0.00000000000E+00  0.00000000000E+00  0.17281250534E+04  0.17281250534E+04  0.50400001928E-02 0. -1.
       -1   -1    0    0    0  501  0.00000000000E+00  0.00000000000E+00 -0.97191922382E+03  0.97191922383E+03  0.50400001928E-02 0.  1.
    10030    2    1    2    0    0  0.00000000000E+00  0.00000000000E+00  0.75620582959E+03  0.27000442772E+04  0.25919860807E+04 0.  0.
        1    1    3    3  502    0  0.74116761889E+03  0.25468757175E+03 -0.69711162923E+03  0.10488850376E+04  0.50400001928E-02 0.  1.
       -1    1    3    3    0  502 -0.74116761889E+03 -0.25468757175E+03  0.14533174588E+04  0.16511592396E+04  0.50400001928E-02 0. -1.
</event>
<event>
 5   0  0.1681731E-05  0.2543873E+04  0.7818609E-02  0.8387520E-01
        2   -1    0    0  501    0  0.00000000000E+00  0.00000000000E+00  0.12516945093E+04  0.12516945093E+04  0.25500000920E-02 0.  1.
       -2   -1    0    0    0  501  0.00000000000E+00  0.00000000000E+00 -0.12925055862E+04  0.12925055862E+04  0.25500000920E-02 0. -1.
    10030    2    1    2    0    0  0.00000000000E+00  0.00000000000E+00 -0.40811076951E+02  0.25442000955E+04  0.25438727527E+04 0.  0.
        2    1    3    3  502    0 -0.61743520516E+03 -0.48489122432E+03 -0.10212722468E+04  0.12881547788E+04  0.25500000920E-02 0. -1.
       -2    1    3    3    0  502  0.61743520516E+03  0.48489122432E+03  0.98046116988E+03  0.12560453167E+04  0.25500000920E-02 0.  1.
</event>
<event>
 5   0  0.7138294E-06  0.2617040E+04  0.7818609E-02  0.8362436E-01
        1   -1    0    0  501    0  0.00000000000E+00  0.00000000000E+00  0.11822701983E+04  0.11822701983E+04  0.50400001928E-02 0.  1.
       -1   -1    0    0    0  501  0.00000000000E+00  0.00000000000E+00 -0.14482514145E+04  0.14482514145E+04  0.50400001928E-02 0. -1.
    10030    2    1    2    0    0  0.00000000000E+00  0.00000000000E+00 -0.26598121617E+03  0.26305216128E+04  0.26170399210E+04 0.  0.
        2    1    3    3  502    0 -0.62747144302E+03  0.70221519903E+03 -0.10461849330E+04  0.14075970700E+04  0.25500000920E-02 0. -1.
       -2    1    3    3    0  502  0.62747144302E+03 -0.70221519903E+03  0.78020371682E+03  0.12229245428E+04  0.25500000920E-02 0.  1.
</event>
<event>
 5   0  0.6918420E-06  0.2609578E+04  0.7818609E-02  0.8364955E-01
        1   -1    0    0  501    0  0.00000000000E+00  0.00000000000E+00  0.15477635862E+04  0.15477635862E+04  0.50400001928E-02 0.  1.
       -1   -1    0    0    0  501  0.00000000000E+00  0.00000000000E+00 -0.10999579521E+04  0.10999579521E+04  0.50400001928E-02 0. -1.
    10030    2    1    2    0    0  0.00000000000E+00  0.00000000000E+00  0.44780563407E+03  0.26477215384E+04  0.26095784063E+04 0.  0.
        4    1    3    3  502    0 -0.45428552694E+03  0.70889372888E+03 -0.78744529285E+03  0.11528128040E+04  0.12699999809E+01 0. -1.
       -4    1    3    3    0  502  0.45428552694E+03 -0.70889372888E+03  0.12352509269E+04  0.14949087344E+04  0.12699999809E+01 0.  1.
</event>
<event>
 5   0  0.1702345E-05  0.2617682E+04  0.7818609E-02  0.8362220E-01
       -2   -1    0    0    0  501  0.00000000000E+00  0.00000000000E+00  0.10151153567E+04  0.10151153567E+04  0.25500000920E-02 0. -1.
        2   -1    0    0  501    0  0.00000000000E+00  0.00000000000E+00 -0.16875563046E+04  0.16875563046E+04  0.25500000920E-02 0.  1.
    10030    2    1    2    0    0  0.00000000000E+00  0.00000000000E+00 -0.67244094789E+03  0.27026716613E+04  0.26176816614E+04 0.  0.
        1    1    3    3  502    0  0.36149130763E+03 -0.13004635470E+03 -0.16280336385E+04  0.16727467076E+04  0.50400001928E-02 0.  1.
       -1    1    3    3    0  502 -0.36149130763E+03  0.13004635470E+03  0.95559269057E+03  0.10299249537E+04  0.50400001928E-02 0. -1.
</event>
<event>
 5   0  0.1681731E-05  0.2605237E+04  0.7818609E-02  0.8366425E-01
       -2   -1    0    0    0  501  0.00000000000E+00  0.00000000000E+00  0.15690033977E+04  0.15690033977E+04  0.25500000920E-02 0. -1.
        2   -1    0    0  501    0  0.00000000000E+00  0.00000000000E+00 -0.10814599893E+04  0.10814599893E+04  0.25500000920E-02 0.  1.
    10030    2    1    2    0    0  0.00000000000E+00  0.00000000000E+00  0.48754340839E+03  0.26504633870E+04  0.26052365710E+04 0.  0.
        2    1    3    3  502    0  0.56511531387E+03 -0.29413699095E+03 -0.91214913802E+03  0.11126041243E+04  0.25500000920E-02 0.  1.
       -2    1    3    3    0  502 -0.56511531387E+03  0.29413699095E+03  0.13996925464E+04  0.15378592627E+04  0.25500000920E-02 0. -1.
</event>
<event>
 5   0  0.6993678E-06  0.2622116E+04  0.7818609E-02  0.8360727E-01
        1   -1    0    0  501    0  0.00000000000E+00  0.00000000000E+00  0.17024291993E+04  0.17024291993E+04  0.50400001928E-02 0. -1.
       -1   -1    0    0    0  501  0.00000000000E+00  0.00000000000E+00 -0.10096592838E+04  0.10096592838E+04  0.50400001928E-02 0.  1.
    10030    2    1    2    0    0  0.00000000000E+00  0.00000000000E+00  0.69276991551E+03  0.27120884831E+04  0.26221162797E+04 0.  0.
        1    1    3    3  502    0 -0.56030691437E+03 -0.25086707351E+03 -0.85180978051E+03  0.10499800136E+04  0.50400001928E-02 0.  1.
       -1    1    3    3    0  502  0.56030691437E+03  0.25086707351E+03  0.15445796960E+04  0.16621084695E+04  0.50400001928E-02 0. -1.
</event>
<event>
 5   0  0.7138294E-06  0.2620478E+04  0.7818609E-02  0.8361278E-01
        1   -1    0    0  501    0  0.00000000000E+00  0.00000000000E+00  0.15464058806E+04  0.15464058806E+04  0.50400001928E-02 0. -1.
       -1   -1    0    0    0  501  0.00000000000E+00  0.00000000000E+00 -0.11101392480E+04  0.11101392480E+04  0.50400001928E-02 0.  1.
    10030    2    1    2    0    0  0.00000000000E+00  0.00000000000E+00  0.43626663260E+03  0.26565451286E+04  0.26204777133E+04 0.  0.
        2    1    3    3  502    0 -0.85821788261E+03  0.83133154136E+03 -0.32692452569E+03  0.12387613617E+04  0.25500000920E-02 0.  1.
       -2    1    3    3    0  502  0.85821788261E+03 -0.83133154136E+03  0.76319115828E+03  0.14177837669E+04  0.25500000920E-02 0. -1.
</event>
<event>
 5   0  0.1702345E-05  0.2622193E+04  0.7818609E-02  0.8360702E-01
       -2   -1    0    0    0  501  0.00000000000E+00  0.00000000000E+00  0.93498993560E+03  0.93498993560E+03  0.25500000920E-02 0. -1.
        2   -1    0    0  501    0  0.00000000000E+00  0.00000000000E+00 -0.18384946857E+04  0.18384946857E+04  0.25500000920E-02 0.  1.
    10030    2    1    2    0    0  0.00000000000E+00  0.00000000000E+00 -0.90350475010E+03  0.27734846213E+04  0.26221929965E+04 0.  0.
        1    1    3    3  502    0  0.17301575044E+02 -0.12998626600E+04 -0.63197018368E+03  0.14454509997E+04  0.50400001928E-02 0.  1.
       -1    1    3    3    0  502 -0.17301575044E+02  0.12998626600E+04 -0.27153456642E+03  0.13280336216E+04  0.50400001928E-02 0. -1.
</event>
<event>
 5   0  0.7138294E-06  0.2590579E+04  0.7818609E-02  0.8371408E-01
       -1   -1    0    0    0  501  0.00000000000E+00  0.00000000000E+00  0.11761080250E+04  0.11761080250E+04  0.50400001928E-02 0.  1.
        1   -1    0    0  501    0  0.00000000000E+00  0.00000000000E+00 -0.14265488251E+04  0.14265488251E+04  0.50400001928E-02 0. -1.
    10030    2    1    2    0    0  0.00000000000E+00  0.00000000000E+00 -0.25044080006E+03  0.26026568501E+04  0.25905794883E+04 0.  0.
        2    1    3    3  502    0 -0.90466459918E+03  0.16960947939E+03 -0.10408363866E+04  0.13894336242E+04  0.25500000920E-02 0.  1.
       -2    1    3    3    0  502  0.90466459918E+03 -0.16960947939E+03  0.79039558654E+03  0.12132232259E+04  0.25500000920E-02 0. -1.
</event>
<event>
 5   0  0.6984287E-06  0.2618354E+04  0.7818609E-02  0.8361993E-01
        1   -1    0    0  501    0  0.00000000000E+00  0.00000000000E+00  0.10652891457E+04  0.10652891457E+04  0.50400001928E-02 0. -1.
       -1   -1    0    0    0  501  0.00000000000E+00  0.00000000000E+00 -0.16089003437E+04  0.16089003437E+04  0.50400001928E-02 0.  1.
    10030    2    1    2    0    0  0.00000000000E+00  0.00000000000E+00 -0.54361119796E+03  0.26741894894E+04  0.26183537367E+04 0.  0.
        3    1    3    3  502    0 -0.77127240147E+03 -0.27506996711E+03 -0.13150674441E+04  0.15491697767E+04  0.10100000352E+00 0.  1.
       -3    1    3    3    0  502  0.77127240147E+03  0.27506996711E+03  0.77145624617E+03  0.11250197127E+04  0.10100000352E+00 0. -1.
</event>
<event>
 5   0  0.1677971E-05  0.2595256E+04  0.7818609E-02  0.8369814E-01
       -2   -1    0    0    0  501  0.00000000000E+00  0.00000000000E+00  0.10332190445E+04  0.10332190446E+04  0.25500000920E-02 0.  1.
        2   -1    0    0  501    0  0.00000000000E+00  0.00000000000E+00 -0.16297011203E+04  0.16297011203E+04  0.25500000920E-02 0. -1.
    10030    2    1    2    0    0  0.00000000000E+00  0.00000000000E+00 -0.59648207578E+03  0.26629201649E+04  0.25952558521E+04 0.  0.
        4    1    3    3  502    0 -0.97771315015E+03  0.83699064535E+03 -0.12851900944E+03  0.12934431155E+04  0.12699999809E+01 0.  1.
       -4    1    3    3    0  502  0.97771315015E+03 -0.83699064535E+03 -0.46796306634E+03  0.13694770494E+04  0.12699999809E+01 0. -1.
</event>
<event>
 5   0  0.1677971E-05  0.2580997E+04  0.7818609E-02  0.8374685E-01
       -2   -1    0    0    0  501  0.00000000000E+00  0.00000000000E+00  0.83729157553E+03  0.83729157553E+03  0.25500000920E-02 0.  1.
        2   -1    0    0  501    0  0.00000000000E+00  0.00000000000E+00 -0.19890153092E+04  0.19890153092E+04  0.25500000920E-02 0. -1.
    10030    2    1    2    0    0  0.00000000000E+00  0.00000000000E+00 -0.11517237337E+04  0.28263068848E+04  0.25809965223E+04 0.  0.
        4    1    3    3  502    0  0.11123055915E+04  0.54545450109E+02  0.13817555602E+03  0.11221822633E+04  0.12699999809E+01 0.  1.
       -4    1    3    3    0  502 -0.11123055915E+04 -0.54545450109E+02 -0.12898992897E+04  0.17041246215E+04  0.12699999809E+01 0. -1.
</event>
<event>
 5   0  0.1677971E-05  0.2543447E+04  0.7818609E-02  0.8387669E-01
        2   -1    0    0  501    0  0.00000000000E+00  0.00000000000E+00  0.13512367174E+04  0.13512367174E+04  0.25500000920E-02 0.  1.
       -2   -1    0    0    0  501  0.00000000000E+00  0.00000000000E+00 -0.11968888575E+04  0.11968888575E+04  0.25500000920E-02 0. -1.
    10030    2    1    2    0    0  0.00000000000E+00  0.00000000000E+00  0.15434785985E+03  0.25481255749E+04  0.25434466150E+04 0.  0.
        4    1    3    3  502    0 -0.85046217640E+03  0.71668572346E+03 -0.54068925503E+03  0.12366369003E+04  0.12699999809E+01 0. -1.
       -4    1    3    3    0  502  0.85046217640E+03 -0.71668572346E+03  0.69503711488E+03  0.13114886746E+04  0.12699999809E+01 0.  1.
</event>
<event>
 5   0  0.1720129E-05  0.2576247E+04  0.7818609E-02  0.8376314E-01
        2   -1    0    0  501    0  0.00000000000E+00  0.00000000000E+00  0.24482851064E+04  0.24482851064E+04  0.25500000920E-02 0. -1.
       -2   -1    0    0    0  501  0.00000000000E+00  0.00000000000E+00 -0.67772441892E+03  0.67772441892E+03  0.25500000920E-02 0.  1.
    10030    2    1    2    0    0  0.00000000000E+00  0.00000000000E+00  0.17705606875E+04  0.31260095253E+04  0.25762473492E+04 0.  0.
        3    1    3    3  502    0 -0.83679083551E+03 -0.21364856744E+01 -0.30300543992E+03  0.88996391713E+03  0.10100000352E+00 0.  1.
       -3    1    3    3    0  502  0.83679083551E+03  0.21364856744E+01  0.20735661274E+04  0.22360456082E+04  0.10100000352E+00 0. -1.
</event>
<event>
 5   0  0.6993678E-06  0.2610714E+04  0.7818609E-02  0.8364571E-01
       -1   -1    0    0    0  501  0.00000000000E+00  0.00000000000E+00  0.95939660720E+03  0.95939660721E+03  0.50400001928E-02 0.  1.
        1   -1    0    0  501    0  0.00000000000E+00  0.00000000000E+00 -0.17760718557E+04  0.17760718557E+04  0.50400001928E-02 0. -1.
    10030    2    1    2    0    0  0.00000000000E+00  0.00000000000E+00 -0.81667524851E+03  0.27354684629E+04  0.26107143180E+04 0.  0.
        1    1    3    3  502    0 -0.34791784375E+03  0.12598742121E+03 -0.17199698476E+04  0.17593225778E+04  0.50400001928E-02 0. -1.
       -1    1    3    3    0  502  0.34791784375E+03 -0.12598742121E+03  0.90329459905E+03  0.97614588510E+03  0.50400001928E-02 0.  1.
</event>
<event>
 5   0  0.1681731E-05  0.2542750E+04  0.7818609E-02  0.8387912E-01
        2   -1    0    0  501    0  0.00000000000E+00  0.00000000000E+00  0.14586255283E+04  0.14586255283E+04  0.25500000920E-02 0.  1.
       -2   -1    0    0    0  501  0.00000000000E+00  0.00000000000E+00 -0.11081623135E+04  0.11081623135E+04  0.25500000920E-02 0. -1.
    10030    2    1    2    0    0  0.00000000000E+00  0.00000000000E+00  0.35046321488E+03  0.25667878418E+04  0.25427495669E+04 0.  0.
        2    1    3    3  502    0 -0.16588103272E+03 -0.13968971075E+03 -0.10893540224E+04  0.11107303536E+04  0.25500000920E-02 0. -1.
       -2    1    3    3    0  502  0.16588103272E+03  0.13968971075E+03  0.14398172373E+04  0.14560574882E+04  0.25500000920E-02 0.  1.
</event>
<event>
 5   0  0.1702345E-05  0.2435595E+04  0.7818609E-02  0.8426296E-01
        2   -1    0    0  501    0  0.00000000000E+00  0.00000000000E+00  0.10268787873E+04  0.10268787873E+04  0.25500000920E-02 0. -1.
       -2   -1    0    0    0  501  0.00000000000E+00  0.00000000000E+00 -0.14442118952E+04  0.14442118952E+04  0.25500000920E-02 0.  1.
    10030    2    1    2    0    0  0.00000000000E+00  0.00000000000E+00 -0.41733310793E+03  0.24710906825E+04  0.24355948428E+04 0.  0.
        1    1    3    3  502    0  0.93068706433E+03 -0.14338458716E+03 -0.99212054240E+03  0.13678599059E+04  0.50400001928E-02 0.  1.
       -1    1    3    3    0  502 -0.93068706433E+03  0.14338458716E+03  0.57478743447E+03  0.11032307766E+04  0.50400001928E-02 0. -1.
</event>
<event>
 5   0  0.7138294E-06  0.2589508E+04  0.7818609E-02  0.8371774E-01
        1   -1    0    0  501    0  0.00000000000E+00  0.00000000000E+00  0.13755692359E+04  0.13755692360E+04  0.50400001928E-02 0.  1.
       -1   -1    0    0    0  501  0.00000000000E+00  0.00000000000E+00 -0.12186863464E+04  0.12186863464E+04  0.50400001928E-02 0. -1.
    10030    2    1    2    0    0  0.00000000000E+00  0.00000000000E+00  0.15688288951E+03  0.25942555824E+04  0.25895076339E+04 0.  0.
        2    1    3    3  502    0  0.71154589782E+03 -0.10815717314E+04  0.61308289567E+02  0.12960916948E+04  0.25500000920E-02 0.  1.
       -2    1    3    3    0  502 -0.71154589782E+03  0.10815717314E+04  0.95574599947E+02  0.12981638876E+04  0.25500000920E-02 0. -1.
</event>
<event>
 5   0  0.7138294E-06  0.2595110E+04  0.7818609E-02  0.8369864E-01
       -1   -1    0    0    0  501  0.00000000000E+00  0.00000000000E+00  0.11674428395E+04  0.11674428395E+04  0.50400001928E-02 0. -1.
        1   -1    0    0  501    0  0.00000000000E+00  0.00000000000E+00 -0.14421685364E+04  0.14421685364E+04  0.50400001928E-02 0.  1.
    10030    2    1    2    0    0  0.00000000000E+00  0.00000000000E+00 -0.27472569684E+03  0.26096113759E+04  0.25951102722E+04 0.  0.
        2    1    3    3  502    0 -0.21718565936E+03 -0.10406448307E+03 -0.14194973439E+04  0.14397818365E+04  0.25500000920E-02 0.  1.
       -2    1    3    3    0  502  0.21718565936E+03  0.10406448307E+03  0.11447716471E+04  0.11698295394E+04  0.25500000920E-02 0. -1.
</event>
<event>
 5   0  0.1677971E-05  0.2588179E+04  0.7818609E-02  0.8372228E-01
       -2   -1    0    0    0  501  0.00000000000E+00  0.00000000000E+00  0.22568680769E+04  0.22568680769E+04  0.25500000920E-02 0.  1.
        2   -1    0    0  501    0  0.00000000000E+00  0.00000000000E+00 -0.74203176400E+03  0.74203176401E+03  0.25500000920E-02 0. -1.
    10030    2    1    2    0    0  0.00000000000E+00  0.00000000000E+00  0.15148363129E+04  0.29988998409E+04  0.25881791284E+04 0.  0.
        4    1    3    3  502    0  0.91230103388E+03  0.37776306588E+03 -0.21178241191E+03  0.10098769793E+04  0.12699999809E+01 0. -1.
       -4    1    3    3    0  502 -0.91230103388E+03 -0.37776306588E+03  0.17266187248E+04  0.19890228616E+04  0.12699999809E+01 0.  1.
</event>
<event>
 5   0  0.1677971E-05  0.2299720E+04  0.7818609E-02  0.8478032E-01
       -2   -1    0    0    0  501  0.00000000000E+00  0.00000000000E+00  0.79374121779E+03  0.79374121779E+03  0.25500000920E-02 0. -1.
        2   -1    0    0  501    0  0.00000000000E+00  0.00000000000E+00 -0.16657539244E+04  0.16657539244E+04  0.25500000920E-02 0.  1.
    10030    2    1    2    0    0  0.00000000000E+00  0.00000000000E+00 -0.87201270658E+03  0.24594951422E+04  0.22997195903E+04 0.  0.
        4    1    3    3  502    0 -0.53288979551E+03  0.68028419379E+03 -0.12472713478E+04  0.15173811474E+04  0.12699999809E+01 0.  1.
       -4    1    3    3    0  502  0.53288979551E+03 -0.68028419379E+03  0.37525864121E+03  0.94211399479E+03  0.12699999809E+01 0. -1.
</event>
<event>
 5   0  0.1677971E-05  0.2581713E+04  0.7818609E-02  0.8374439E-01
       -2   -1    0    0    0  501  0.00000000000E+00  0.00000000000E+00  0.11086385629E+04  0.11086385629E+04  0.25500000920E-02 0.  1.
        2   -1    0    0  501    0  0.00000000000E+00  0.00000000000E+00 -0.15030244979E+04  0.15030244979E+04  0.25500000920E-02 0. -1.
    10030    2    1    2    0    0  0.00000000000E+00  0.00000000000E+00 -0.39438593497E+03  0.26116630608E+04  0.25817133221E+04 0.  0.
        4    1    3    3  502    0 -0.11489711826E+04 -0.15721109378E+03  0.37635805777E+03  0.12192198764E+04  0.12699999809E+01 0.  1.
       -4    1    3    3    0  502  0.11489711826E+04  0.15721109378E+03 -0.77074399274E+03  0.13924431844E+04  0.12699999809E+01 0. -1.
</event>
<event>
 5   0  0.6984287E-06  0.2500174E+04  0.7818609E-02  0.8402924E-01
        1   -1    0    0  501    0  0.00000000000E+00  0.00000000000E+00  0.11435968317E+04  0.11435968317E+04  0.50400001928E-02 0. -1.
       -1   -1    0    0    0  501  0.00000000000E+00  0.00000000000E+00 -0.13664932572E+04  0.13664932572E+04  0.50400001928E-02 0.  1.
    10030    2    1    2    0    0  0.00000000000E+00  0.00000000000E+00 -0.22289642558E+03  0.25100900889E+04  0.25001738815E+04 0.  0.
        3    1    3    3  502    0  0.65075011936E+03  0.10656574112E+04 -0.17181917659E+03  0.12604059963E+04  0.10100000352E+00 0. -1.
       -3    1    3    3    0  502 -0.65075011936E+03 -0.10656574112E+04 -0.51077248985E+02  0.12496840926E+04  0.10100000352E+00 0.  1.
</event>
<event>
 5   0  0.6706225E-06  0.2683676E+04  0.7818609E-02  0.8340321E-01
        1   -1    0    0  501    0  0.00000000000E+00  0.00000000000E+00  0.13416065838E+04  0.13416065838E+04  0.50400001928E-02 0.  1.
       -1   -1    0    0    0  501  0.00000000000E+00  0.00000000000E+00 -0.13420697938E+04  0.13420697938E+04  0.50400001928E-02 0. -1.
    10030    2    1    2    0    0  0.00000000000E+00  0.00000000000E+00 -0.46320996756E+00  0.26836763776E+04  0.26836763377E+04 0.  0.
        5    1    3    3  502    0 -0.35336965930E+03 -0.79833105906E+02 -0.12922316786E+04  0.13420611916E+04  0.46999998093E+01 0. -1.
       -5    1    3    3    0  502  0.35336965930E+03  0.79833105906E+02  0.12917684686E+04  0.13416151860E+04  0.46999998093E+01 0.  1.
</event>
<event>
 5   0  0.1681731E-05  0.2667520E+04  0.7818609E-02  0.8345621E-01
        2   -1    0    0  501    0  0.00000000000E+00  0.00000000000E+00  0.11393525346E+04  0.11393525346E+04  0.25500000920E-02 0.  1.
       -2   -1    0    0    0  501  0.00000000000E+00  0.00000000000E+00 -0.15613397248E+04  0.15613397248E+04  0.25500000920E-02 0. -1.
    10030    2    1    2    0    0  0.00000000000E+00  0.00000000000E+00 -0.42198719023E+03  0.27006922595E+04  0.26675204763E+04 0.  0.
        2    1    3    3  502    0  0.32715243505E+03  0.18763699840E+03  0.10842433612E+04  0.11479634251E+04  0.25500000920E-02 0.  1.
       -2    1    3    3    0  502 -0.32715243505E+03 -0.18763699840E+03 -0.15062305515E+04  0.15527288344E+04  0.25500000920E-02 0. -1.
</event>
<event>
 5   0  0.7138294E-06  0.2607348E+04  0.7818609E-02  0.8365710E-01
        1   -1    0    0  501    0  0.00000000000E+00  0.00000000000E+00  0.14387498548E+04  0.14387498548E+04  0.50400001928E-02 0. -1.
       -1   -1    0    0    0  501  0.00000000000E+00  0.00000000000E+00 -0.11812795924E+04  0.11812795924E+04  0.50400001928E-02 0.  1.
    10030    2    1    2    0    0  0.00000000000E+00  0.00000000000E+00  0.25747026241E+03  0.26200294471E+04  0.26073479568E+04 0.  0.
        2    1    3    3  502    0 -0.69072907608E+03  0.37294582977E+02 -0.98165900092E+03  0.12008963055E+04  0.25500000920E-02 0.  1.
       -2    1    3    3    0  502  0.69072907608E+03 -0.37294582977E+02  0.12391292633E+04  0.14191331416E+04  0.25500000920E-02 0. -1.
</event>
<event>
 5   0  0.7138294E-06  0.2607634E+04  0.7818609E-02  0.8365613E-01
       -1   -1    0    0    0  501  0.00000000000E+00  0.00000000000E+00  0.12902703965E+04  0.12902703965E+04  0.50400001928E-02 0. -1.
        1   -1    0    0  501    0  0.00000000000E+00  0.00000000000E+00 -0.13175062111E+04  0.13175062111E+04  0.50400001928E-02 0.  1.
    10030    2    1    2    0    0  0.00000000000E+00  0.00000000000E+00 -0.27235814557E+02  0.26077766076E+04  0.26076343773E+04 0.  0.
        2    1    3    3  502    0  0.80783217707E+03  0.99546719659E+03 -0.25109979579E+03  0.13063685825E+04  0.25500000920E-02 0.  1.
       -2    1    3    3    0  502 -0.80783217707E+03 -0.99546719659E+03  0.22386398124E+03  0.13014080251E+04  0.25500000920E-02 0. -1.
</event>
<event>
 5   0  0.6993678E-06  0.2604320E+04  0.7818609E-02  0.8366735E-01
        1   -1    0    0  501    0  0.00000000000E+00  0.00000000000E+00  0.14486058805E+04  0.14486058805E+04  0.50400001928E-02 0. -1.
       -1   -1    0    0    0  501  0.00000000000E+00  0.00000000000E+00 -0.11705189698E+04  0.11705189698E+04  0.50400001928E-02 0.  1.
    10030    2    1    2    0    0  0.00000000000E+00  0.00000000000E+00  0.27808691073E+03  0.26191248503E+04  0.26043199979E+04 0.  0.
        1    1    3    3  502    0  0.10848918373E+04  0.72015540069E+03  0.13646701917E+03  0.13092888707E+04  0.50400001928E-02 0.  1.
       -1    1    3    3    0  502 -0.10848918373E+04 -0.72015540069E+03  0.14161989157E+03  0.13098359796E+04  0.50400001928E-02 0. -1.
</event>
<event>
 5   0  0.1681731E-05  0.2585101E+04  0.7818609E-02  0.8373280E-01
        2   -1    0    0  501    0  0.00000000000E+00  0.00000000000E+00  0.12692096167E+04  0.12692096167E+04  0.25500000920E-02 0.  1.
       -2   -1    0    0    0  501  0.00000000000E+00  0.00000000000E+00 -0.13163206484E+04  0.13163206484E+04  0.25500000920E-02 0. -1.
    10030    2    1    2    0    0  0.00000000000E+00  0.00000000000E+00 -0.47111031774E+02  0.25855302651E+04  0.25851010237E+04 0.  0.
        2    1    3    3  502    0  0.95372347010E+03 -0.34040187012E+03 -0.82694783894E+03  0.13074037704E+04  0.25500000920E-02 0. -1.
       -2    1    3    3    0  502 -0.95372347010E+03  0.34040187012E+03  0.77983680716E+03  0.12781264947E+04  0.25500000920E-02 0.  1.
</event>
<event>
 5   0  0.1677971E-05  0.2600709E+04  0.7818609E-02  0.8367960E-01
       -2   -1    0    0    0  501  0.00000000000E+00  0.00000000000E+00  0.12228613129E+04  0.12228613129E+04  0.25500000920E-02 0. -1.
        2   -1    0    0  501    0  0.00000000000E+00  0.00000000000E+00 -0.13827589017E+04  0.13827589017E+04  0.25500000920E-02 0.  1.
    10030    2    1    2    0    0  0.00000000000E+00  0.00000000000E+00 -0.15989758881E+03  0.26056202146E+04  0.26007094155E+04 0.  0.
        4    1    3    3  502    0  0.11968832968E+04  0.49557434972E+03  0.33389482592E+02  0.12958549428E+04  0.12699999809E+01 0.  1.
       -4    1    3    3    0  502 -0.11968832968E+04 -0.49557434972E+03 -0.19328707140E+03  0.13097652718E+04  0.12699999809E+01 0. -1.
</event>
<event>
 5   0  0.6984287E-06  0.2575493E+04  0.7818609E-02  0.8376574E-01
       -1   -1    0    0    0  501  0.00000000000E+00  0.00000000000E+00  0.76230516274E+03  0.76230516276E+03  0.50400001928E-02 0. -1.
        1   -1    0    0  501    0  0.00000000000E+00  0.00000000000E+00 -0.21753629597E+04  0.21753629597E+04  0.50400001928E-02 0.  1.
    10030    2    1    2    0    0  0.00000000000E+00  0.00000000000E+00 -0.14130577970E+04  0.29376681225E+04  0.25754925083E+04 0.  0.
        3    1    3    3  502    0 -0.99757916788E+03  0.20696917676E+03 -0.16048669972E+04  0.19009467444E+04  0.10100000352E+00 0.  1.
       -3    1    3    3    0  502  0.99757916788E+03 -0.20696917676E+03  0.19180920016E+03  0.10367213781E+04  0.10100000352E+00 0. -1.
</event>
<event>
 5   0  0.1702345E-05  0.2151245E+04  0.7818609E-02  0.8539000E-01
       -2   -1    0    0    0  501  0.00000000000E+00  0.00000000000E+00  0.77382671505E+03  0.77382671506E+03  0.25500000920E-02 0. -1.
        2   -1    0    0  501    0  0.00000000000E+00  0.00000000000E+00 -0.14951193344E+04  0.14951193344E+04  0.25500000920E-02 0.  1.
    10030    2    1    2    0    0  0.00000000000E+00  0.00000000000E+00 -0.72129261931E+03  0.22689460494E+04  0.21512445543E+04 0.  0.
        1    1    3    3  502    0 -0.88269203149E+03 -0.58145439780E+03 -0.15041986318E+03  0.10676425312E+04  0.50400001928E-02 0. -1.
       -1    1    3    3    0  502  0.88269203149E+03  0.58145439780E+03 -0.57087275614E+03  0.12013035182E+04  0.50400001928E-02 0.  1.
</event>
<event>
 5   0  0.7138294E-06  0.2634203E+04  0.7818609E-02  0.8356675E-01
       -1   -1    0    0    0  501  0.00000000000E+00  0.00000000000E+00  0.18740269760E+04  0.18740269760E+04  0.50400001928E-02 0. -1.
        1   -1    0    0  501    0  0.00000000000E+00  0.00000000000E+00 -0.92568377240E+03  0.92568377241E+03  0.50400001928E-02 0.  1.
    10030    2    1    2    0    0  0.00000000000E+00  0.00000000000E+00  0.94834320364E+03  0.27997107485E+04  0.26342029996E+04 0.  0.
        2    1    3    3  502    0 -0.10325890513E+04  0.56477686806E+03  0.11025401173E+04  0.16127020089E+04  0.25500000920E-02 0. -1.
       -2    1    3    3    0  502  0.10325890513E+04 -0.56477686806E+03 -0.15419691362E+03  0.11870087395E+04  0.25500000920E-02 0.  1.
</event>
<event>
 5   0  0.6993678E-06  0.2578050E+04  0.7818609E-02  0.8375696E-01
       -1   -1    0    0    0  501  0.00000000000E+00  0.00000000000E+00  0.10802159067E+04  0.10802159067E+04  0.50400001928E-02 0. -1.
        1   -1    0    0  501    0  0.00000000000E+00  0.00000000000E+00 -0.15381976204E+04  0.15381976204E+04  0.50400001928E-02 0.  1.
    10030    2    1    2    0    0  0.00000000000E+00  0.00000000000E+00 -0.45798171373E+03  0.26184135271E+04  0.25780500672E+04 0.  0.
        1    1    3    3  502    0  0.99633679021E+03  0.81231456119E+03 -0.32557756248E+03  0.13261005599E+04  0.50400001928E-02 0. -1.
       -1    1    3    3    0  502 -0.99633679021E+03 -0.81231456119E+03 -0.13240415125E+03  0.12923129672E+04  0.50400001928E-02 0.  1.
</event>
<event>
 5   0  0.6984287E-06  0.2489541E+04  0.7818609E-02  0.8406721E-01
       -1   -1    0    0    0  501  0.00000000000E+00  0.00000000000E+00  0.56820548803E+03  0.56820548805E+03  0.50400001928E-02 0.  1.
        1   -1    0    0  501    0  0.00000000000E+00  0.00000000000E+00 -0.27269238776E+04  0.27269238776E+04  0.50400001928E-02 0. -1.
    10030    2    1    2    0    0  0.00000000000E+00  0.00000000000E+00 -0.21587183896E+04  0.32951293657E+04  0.24895406104E+04 0.  0.
        3    1    3    3  502    0  0.93115806517E+02 -0.10677018315E+04 -0.24141597626E+03  0.10986079547E+04  0.10100000352E+00 0.  1.
       -3    1    3    3    0  502 -0.93115806517E+02  0.10677018315E+04 -0.19173024133E+04  0.21965214109E+04  0.10100000352E+00 0. -1.
</event>
<event>
 5   0  0.6993678E-06  0.2585593E+04  0.7818609E-02  0.8373111E-01
        1   -1    0    0  501    0  0.00000000000E+00  0.00000000000E+00  0.17514665421E+04  0.17514665421E+04  0.50400001928E-02 0. -1.
       -1   -1    0    0    0  501  0.00000000000E+00  0.00000000000E+00 -0.95424187717E+03  0.95424187719E+03  0.50400001928E-02 0.  1.
    10030    2    1    2    0    0  0.00000000000E+00  0.00000000000E+00  0.79722466493E+03  0.27057084193E+04  0.25855929463E+04 0.  0.
        1    1    3    3  502    0 -0.33974526080E+03  0.95570790000E+03 -0.44019764117E+03  0.11057026706E+04  0.50400001928E-02 0.  1.
       -1    1    3    3    0  502  0.33974526080E+03 -0.95570790000E+03  0.12374223061E+04  0.16000057487E+04  0.50400001928E-02 0. -1.
</event>
<event>
 5   0  0.6993678E-06  0.2113951E+04  0.7818609E-02  0.8555123E-01
        1   -1    0    0  501    0  0.00000000000E+00  0.00000000000E+00  0.88630219977E+03  0.88630219978E+03  0.50400001928E-02 0.  1.
       -1   -1    0    0    0  501  0.00000000000E+00  0.00000000000E+00 -0.12605146628E+04  0.12605146628E+04  0.50400001928E-02 0. -1.
    10030    2    1    2    0    0  0.00000000000E+00  0.00000000000E+00 -0.37421246301E+03  0.21468168626E+04  0.21139507265E+04 0.  0.
        1    1    3    3  502    0  0.90326595874E+03  0.29662839746E+03  0.28193932867E+03  0.99164892148E+03  0.50400001928E-02 0.  1.
       -1    1    3    3    0  502 -0.90326595874E+03 -0.29662839746E+03 -0.65615179169E+03  0.11551679411E+04  0.50400001928E-02 0. -1.
</event>
<event>
 5   0  0.7138294E-06  0.2612293E+04  0.7818609E-02  0.8364037E-01
       -1   -1    0    0    0  501  0.00000000000E+00  0.00000000000E+00  0.13673053880E+04  0.13673053881E+04  0.50400001928E-02 0.  1.
        1   -1    0    0  501    0  0.00000000000E+00  0.00000000000E+00 -0.12477233702E+04  0.12477233702E+04  0.50400001928E-02 0. -1.
    10030    2    1    2    0    0  0.00000000000E+00  0.00000000000E+00  0.11958201782E+03  0.26150287583E+04  0.26122931588E+04 0.  0.
        2    1    3    3  502    0  0.44978272002E+03 -0.11323719445E+04 -0.41128458572E+03  0.12859726772E+04  0.25500000920E-02 0. -1.
       -2    1    3    3    0  502 -0.44978272002E+03  0.11323719445E+04  0.53086660354E+03  0.13290560811E+04  0.25500000920E-02 0.  1.
</event>
<event>
 5   0  0.6993678E-06  0.2507464E+04  0.7818609E-02  0.8400331E-01
       -1   -1    0    0    0  501  0.00000000000E+00  0.00000000000E+00  0.90872330194E+03  0.90872330195E+03  0.50400001928E-02 0.  1.
        1   -1    0    0  501    0  0.00000000000E+00  0.00000000000E+00 -0.17297280784E+04  0.17297280784E+04  0.50400001928E-02 0. -1.
    10030    2    1    2    0    0  0.00000000000E+00  0.00000000000E+00 -0.82100477644E+03  0.26384513803E+04  0.25074642258E+04 0.  0.
        1    1    3    3  502    0 -0.44528255790E+03 -0.18657443721E+03  0.80698740838E+03  0.94038037745E+03  0.50400001928E-02 0.  1.
       -1    1    3    3    0  502  0.44528255790E+03  0.18657443721E+03 -0.16279921848E+04  0.16980710029E+04  0.50400001928E-02 0. -1.
</event>
<event>
 5   0  0.1681731E-05  0.2601652E+04  0.7818609E-02  0.8367640E-01
        2   -1    0    0  501    0  0.00000000000E+00  0.00000000000E+00  0.12644078342E+04  0.12644078342E+04  0.25500000920E-02 0. -1.
       -2   -1    0    0    0  501  0.00000000000E+00  0.00000000000E+00 -0.13382926467E+04  0.13382926467E+04  0.25500000920E-02 0.  1.
    10030    2    1    2    0    0  0.00000000000E+00  0.00000000000E+00 -0.73884812456E+02  0.26027004809E+04  0.26016515577E+04 0.  0.
        2    1    3    3  502    0 -0.68415880631E+03  0.85005927048E+03  0.67149115948E+03  0.12812394050E+04  0.25500000920E-02 0.  1.
       -2    1    3    3    0  502  0.68415880631E+03 -0.85005927048E+03 -0.74537597193E+03  0.13214610759E+04  0.25500000920E-02 0. -1.
</event>
<event>
 5   0  0.7138294E-06  0.2609142E+04  0.7818609E-02  0.8365103E-01
        1   -1    0    0  501    0  0.00000000000E+00  0.00000000000E+00  0.20966718461E+04  0.20966718461E+04  0.50400001928E-02 0. -1.
       -1   -1    0    0    0  501  0.00000000000E+00  0.00000000000E+00 -0.81171732094E+03  0.81171732096E+03  0.50400001928E-02 0.  1.
    10030    2    1    2    0    0  0.00000000000E+00  0.00000000000E+00  0.12849545252E+04  0.29083891671E+04  0.26091415093E+04 0.  0.
        2    1    3    3  502    0 -0.91406590235E+03 -0.82336929871E+03  0.11263760601E+04  0.16679857627E+04  0.25500000920E-02 0. -1.
       -2    1    3    3    0  502  0.91406590235E+03  0.82336929871E+03  0.15857846507E+03  0.12404034043E+04  0.25500000920E-02 0.  1.
</event>
<event>
 5   0  0.6706225E-06  0.2600263E+04  0.7818609E-02  0.8368112E-01
       -1   -1    0    0    0  501  0.00000000000E+00  0.00000000000E+00  0.10543822878E+04  0.10543822878E+04  0.50400001928E-02 0.  1.
        1   -1    0    0  501    0  0.00000000000E+00  0.00000000000E+00 -0.16031586282E+04  0.16031586282E+04  0.50400001928E-02 0. -1.
    10030    2    1    2    0    0  0.00000000000E+00  0.00000000000E+00 -0.54877634044E+03  0.26575409160E+04  0.26002631114E+04 0.  0.
        5    1    3    3  502    0 -0.78046714066E+03  0.44219408118E+03 -0.12362109408E+04  0.15273847397E+04  0.46999998093E+01 0. -1.
       -5    1    3    3    0  502  0.78046714066E+03 -0.44219408118E+03  0.68743460034E+03  0.11301561763E+04  0.46999998093E+01 0.  1.
</event>
<event>
 5   0  0.1702345E-05  0.2605500E+04  0.7818609E-02  0.8366335E-01
        2   -1    0    0  501    0  0.00000000000E+00  0.00000000000E+00  0.10752187490E+04  0.10752187490E+04  0.25500000920E-02 0. -1.
       -2   -1    0    0    0  501  0.00000000000E+00  0.00000000000E+00 -0.15784304885E+04  0.15784304885E+04  0.25500000920E-02 0.  1.
    10030    2    1    2    0    0  0.00000000000E+00  0.00000000000E+00 -0.50321173949E+03  0.26536492376E+04  0.26055003783E+04 0.  0.
        1    1    3    3  502    0  0.10394917308E+03  0.12934353169E+04 -0.13380643824E+03  0.13044863022E+04  0.50400001928E-02 0.  1.
       -1    1    3    3    0  502 -0.10394917308E+03 -0.12934353169E+04 -0.36940530126E+03  0.13491629354E+04  0.50400001928E-02 0. -1.
</event>
<event>
 5   0  0.1702345E-05  0.2584604E+04  0.7818609E-02  0.8373450E-01
       -2   -1    0    0    0  501  0.00000000000E+00  0.00000000000E+00  0.62637119881E+03  0.62637119882E+03  0.25500000920E-02 0.  1.
        2   -1    0    0  501    0  0.00000000000E+00  0.00000000000E+00 -0.26662226542E+04  0.26662226542E+04  0.25500000920E-02 0. -1.
    10030    2    1    2    0    0  0.00000000000E+00  0.00000000000E+00 -0.20398514554E+04  0.32925938530E+04  0.25846044805E+04 0.  0.
        1    1    3    3  502    0  0.54465273409E+03  0.11051897202E+04 -0.15165184719E+04  0.19539496396E+04  0.50400001928E-02 0. -1.
       -1    1    3    3    0  502 -0.54465273409E+03 -0.11051897202E+04 -0.52333298345E+03  0.13386442134E+04  0.50400001928E-02 0.  1.
</event>
<event>
 5   0  0.1681731E-05  0.2510232E+04  0.7818609E-02  0.8399349E-01
        2   -1    0    0  501    0  0.00000000000E+00  0.00000000000E+00  0.15343889647E+04  0.15343889647E+04  0.25500000920E-02 0. -1.
       -2   -1    0    0    0  501  0.00000000000E+00  0.00000000000E+00 -0.10266735597E+04  0.10266735597E+04  0.25500000920E-02 0.  1.
    10030    2    1    2    0    0  0.00000000000E+00  0.00000000000E+00  0.50771540506E+03  0.25610625244E+04  0.25102323242E+04 0.  0.
        2    1    3    3  502    0  0.11354234881E+04  0.11593786561E+03 -0.27891218523E+03  0.11749128024E+04  0.25500000920E-02 0.  1.
       -2    1    3    3    0  502 -0.11354234881E+04 -0.11593786561E+03  0.78662759028E+03  0.13861497220E+04  0.25500000920E-02 0. -1.
</event>
<event>
 5   0  0.1869956E-05  0.2608466E+04  0.7818609E-02  0.8365331E-01
       -2   -1    0    0    0  501  0.00000000000E+00  0.00000000000E+00  0.10078048363E+04  0.10078048363E+04  0.25500000920E-02 0.  1.
        2   -1    0    0  501    0  0.00000000000E+00  0.00000000000E+00 -0.16878497236E+04  0.16878497236E+04  0.25500000920E-02 0. -1.
    10030    2    1    2    0    0  0.00000000000E+00  0.00000000000E+00 -0.68004488728E+03  0.26956545599E+04  0.26084655369E+04 0.  0.
        5    1    3    3  502    0 -0.34238355552E+03 -0.93163915747E+01 -0.16405330866E+04  0.16759129430E+04  0.46999998093E+01 0. -1.
       -5    1    3    3    0  502  0.34238355552E+03  0.93163915747E+01  0.96048819930E+03  0.10197416169E+04  0.46999998093E+01 0.  1.
</event>
<event>
 5   0  0.6918420E-06  0.2521201E+04  0.7818609E-02  0.8395471E-01
       -1   -1    0    0    0  501  0.00000000000E+00  0.00000000000E+00  0.17101671303E+04  0.17101671303E+04  0.50400001928E-02 0. -1.
        1   -1    0    0  501    0  0.00000000000E+00  0.00000000000E+00 -0.92921507684E+03  0.92921507685E+03  0.50400001928E-02 0.  1.
    10030    2    1    2    0    0  0.00000000000E+00  0.00000000000E+00  0.78095205347E+03  0.26393822072E+04  0.25212005723E+04 0.  0.
        4    1    3    3  502    0  0.94486462551E+03 -0.63294969306E+03  0.95976533713E+03  0.14881349367E+04  0.12699999809E+01 0. -1.
       -4    1    3    3    0  502 -0.94486462551E+03  0.63294969306E+03 -0.17881328367E+03  0.11512472705E+04  0.12699999809E+01 0.  1.
</event>
<event>
 5   0  0.1702345E-05  0.2244754E+04  0.7818609E-02  0.8500028E-01
       -2   -1    0    0    0  501  0.00000000000E+00  0.00000000000E+00  0.70446494663E+03  0.70446494664E+03  0.25500000920E-02 0. -1.
        2   -1    0    0  501    0  0.00000000000E+00  0.00000000000E+00 -0.17882076735E+04  0.17882076735E+04  0.25500000920E-02 0.  1.
    10030    2    1    2    0    0  0.00000000000E+00  0.00000000000E+00 -0.10837427268E+04  0.24926726201E+04  0.22447535484E+04 0.  0.
        1    1    3    3  502    0 -0.23154726364E+03  0.22370580924E+03  0.65208613530E+03  0.72723775498E+03  0.50400001928E-02 0. -1.
       -1    1    3    3    0  502  0.23154726364E+03 -0.22370580924E+03 -0.17358288621E+04  0.17654348651E+04  0.50400001928E-02 0.  1.
</event>
<event>
 5   0  0.6993678E-06  0.2566233E+04  0.7818609E-02  0.8379762E-01
       -1   -1    0    0    0  501  0.00000000000E+00  0.00000000000E+00  0.14644238996E+04  0.14644238996E+04  0.50400001928E-02 0. -1.
        1   -1    0    0  501    0  0.00000000000E+00  0.00000000000E+00 -0.11242564097E+04  0.11242564097E+04  0.50400001928E-02 0.  1.
    10030    2    1    2    0    0  0.00000000000E+00  0.00000000000E+00  0.34016748994E+03  0.25886803093E+04  0.25662330023E+04 0.  0.
        1    1    3    3  502    0 -0.88337023023E+03  0.43163481489E+03 -0.66158923331E+03  0.11850535392E+04  0.50400001928E-02 0.  1.
       -1    1    3    3    0  502  0.88337023023E+03 -0.43163481489E+03  0.10017567232E+04  0.14036267701E+04  0.50400001928E-02 0. -1.
</event>
<event>
 5   0  0.7138294E-06  0.2598217E+04  0.7818609E-02  0.8368807E-01
        1   -1    0    0  501    0  0.00000000000E+00  0.00000000000E+00  0.26179282899E+04  0.26179282899E+04  0.50400001928E-02 0.  1.
       -1   -1    0    0    0  501  0.00000000000E+00  0.00000000000E+00 -0.64466345447E+03  0.64466345449E+03  0.50400001928E-02 0. -1.
    10030    2    1    2    0    0  0.00000000000E+00  0.00000000000E+00  0.19732648354E+04  0.32625917444E+04  0.25982168462E+04 0.  0.
        2    1    3    3  502    0  0.60409891165E+03 -0.10396010408E+04  0.36893715416E+03  0.12577044338E+04  0.25500000920E-02 0. -1.
       -2    1    3    3    0  502 -0.60409891165E+03  0.10396010408E+04  0.16043276812E+04  0.20048873105E+04  0.25500000920E-02 0.  1.
</event>
<event>
 5   0  0.6993678E-06  0.2897971E+04  0.7818609E-02  0.8273481E-01
        1   -1    0    0  501    0  0.00000000000E+00  0.00000000000E+00  0.13581481148E+04  0.13581481148E+04  0.50400001928E-02 0. -1.
       -1   -1    0    0    0  501  0.00000000000E+00  0.00000000000E+00 -0.15458986148E+04  0.15458986148E+04  0.50400001928E-02 0.  1.
    10030    2    1    2    0    0  0.00000000000E+00  0.00000000000E+00 -0.18775050002E+03  0.29040467296E+04  0.28979712140E+04 0.  0.
        1    1    3    3  502    0 -0.38205493358E+03  0.12545185954E+04  0.52367674079E+03  0.14120978037E+04  0.50400001928E-02 0.  1.
       -1    1    3    3    0  502  0.38205493358E+03 -0.12545185954E+04 -0.71142724081E+03  0.14919489259E+04  0.50400001928E-02 0. -1.
</event>
<event>
 5   0  0.6706225E-06  0.2518063E+04  0.7818609E-02  0.8396579E-01
        1   -1    0    0  501    0  0.00000000000E+00  0.00000000000E+00  0.12239433764E+04  0.12239433764E+04  0.50400001928E-02 0.  1.
       -1   -1    0    0    0  501  0.00000000000E+00  0.00000000000E+00 -0.12951255224E+04  0.12951255224E+04  0.50400001928E-02 0. -1.
    10030    2    1    2    0    0  0.00000000000E+00  0.00000000000E+00 -0.71182145976E+02  0.25190688988E+04  0.25180629895E+04 0.  0.
        5    1    3    3  502    0 -0.77577386430E+02 -0.11287672577E+04  0.51690161962E+03  0.12439224844E+04  0.46999998093E+01 0. -1.
       -5    1    3    3    0  502  0.77577386430E+02  0.11287672577E+04 -0.58808376560E+03  0.12751464144E+04  0.46999998093E+01 0.  1.
</event>
<event>
 5   0  0.7138294E-06  0.2583374E+04  0.7818609E-02  0.8373871E-01
        1   -1    0    0  501    0  0.00000000000E+00  0.00000000000E+00  0.17390748974E+04  0.17390748974E+04  0.50400001928E-02 0.  1.
       -1   -1    0    0    0  501  0.00000000000E+00  0.00000000000E+00 -0.95939231939E+03  0.95939231940E+03  0.50400001928E-02 0. -1.
    10030    2    1    2    0    0  0.00000000000E+00  0.00000000000E+00  0.77968257803E+03  0.26984672168E+04  0.25833738401E+04 0.  0.
        2    1    3    3  502    0  0.12192890745E+04  0.30444857476E+03  0.78046024482E+02  0.12591449336E+04  0.25500000920E-02 0. -1.
       -2    1    3    3    0  502 -0.12192890745E+04 -0.30444857476E+03  0.70163655355E+03  0.14393222833E+04  0.25500000920E-02 0.  1.
</event>
<event>
 5   0  0.1702345E-05  0.2591178E+04  0.7818609E-02  0.8371204E-01
       -2   -1    0    0    0  501  0.00000000000E+00  0.00000000000E+00  0.12258986646E+04  0.12258986646E+04  0.25500000920E-02 0.  1.
        2   -1    0    0  501    0  0.00000000000E+00  0.00000000000E+00 -0.13692409105E+04  0.13692409105E+04  0.25500000920E-02 0. -1.
    10030    2    1    2    0    0  0.00000000000E+00  0.00000000000E+00 -0.14334224590E+03  0.25951395751E+04  0.25911778045E+04 0.  0.
        1    1    3    3  502    0 -0.94043653491E+03  0.31974891357E+03 -0.90474237016E+03  0.13435843853E+04  0.50400001928E-02 0. -1.
       -1    1    3    3    0  502  0.94043653491E+03 -0.31974891357E+03  0.76140012426E+03  0.12515551898E+04  0.50400001928E-02 0.  1.
</event>
<event>
 5   0  0.1720129E-05  0.2601850E+04  0.7818609E-02  0.8367573E-01
       -2   -1    0    0    0  501  0.00000000000E+00  0.00000000000E+00  0.98247075329E+03  0.98247075329E+03  0.25500000920E-02 0.  1.
        2   -1    0    0  501    0  0.00000000000E+00  0.00000000000E+00 -0.17226016682E+04  0.17226016682E+04  0.25500000920E-02 0. -1.
    10030    2    1    2    0    0  0.00000000000E+00  0.00000000000E+00 -0.74013091493E+03  0.27050724215E+04  0.26018499254E+04 0.  0.
        3    1    3    3  502    0  0.86260353307E+03 -0.65848239280E+03  0.37583856350E+03  0.11484505009E+04  0.10100000352E+00 0.  1.
       -3    1    3    3    0  502 -0.86260353307E+03  0.65848239280E+03 -0.11159694784E+04  0.15566219207E+04  0.10100000352E+00 0. -1.
</event>
<event>
 5   0  0.6993678E-06  0.2594319E+04  0.7818609E-02  0.8370133E-01
       -1   -1    0    0    0  501  0.00000000000E+00  0.00000000000E+00  0.10494435638E+04  0.10494435638E+04  0.50400001928E-02 0.  1.
        1   -1    0    0  501    0  0.00000000000E+00  0.00000000000E+00 -0.16033476971E+04  0.16033476971E+04  0.50400001928E-02 0. -1.
    10030    2    1    2    0    0  0.00000000000E+00  0.00000000000E+00 -0.55390413329E+03  0.26527912610E+04  0.25943191179E+04 0.  0.
        1    1    3    3  502    0  0.22889666545E+03 -0.11955496038E+04  0.18135785104E+03  0.12307002920E+04  0.50400001928E-02 0.  1.
       -1    1    3    3    0  502 -0.22889666545E+03  0.11955496038E+04 -0.73526198433E+03  0.14220909690E+04  0.50400001928E-02 0. -1.
</event>
<event>
 5   0  0.7138294E-06  0.2641994E+04  0.7818609E-02  0.8354075E-01
        1   -1    0    0  501    0  0.00000000000E+00  0.00000000000E+00  0.13527741281E+04  0.13527741281E+04  0.50400001928E-02 0. -1.
       -1   -1    0    0    0  501  0.00000000000E+00  0.00000000000E+00 -0.12899666645E+04  0.12899666645E+04  0.50400001928E-02 0.  1.
    10030    2    1    2    0    0  0.00000000000E+00  0.00000000000E+00  0.62807463653E+02  0.26427407926E+04  0.26419943451E+04 0.  0.
        2    1    3    3  502    0  0.92060955350E+03 -0.44555703394E+03  0.86769646723E+03  0.13412457567E+04  0.25500000920E-02 0. -1.
       -2    1    3    3    0  502 -0.92060955350E+03  0.44555703394E+03 -0.80488900357E+03  0.13014950359E+04  0.25500000920E-02 0.  1.
</event>
<event>
 5   0  0.6993678E-06  0.2588516E+04  0.7818609E-02  0.8372112E-01
       -1   -1    0    0    0  501  0.00000000000E+00  0.00000000000E+00  0.81035645488E+03  0.81035645490E+03  0.50400001928E-02 0.  1.
        1   -1    0    0  501    0  0.00000000000E+00  0.00000000000E+00 -0.20671199877E+04  0.20671199878E+04  0.50400001928E-02 0. -1.
    10030    2    1    2    0    0  0.00000000000E+00  0.00000000000E+00 -0.12567635329E+04  0.28774764427E+04  0.25885161967E+04 0.  0.
        1    1    3    3  502    0 -0.41034007619E+03  0.12249956313E+04 -0.71527944217E+03  0.14766915572E+04  0.50400001928E-02 0. -1.
       -1    1    3    3    0  502  0.41034007619E+03 -0.12249956313E+04 -0.54148409069E+03  0.14007848854E+04  0.50400001928E-02 0.  1.
</event>
<event>
 5   0  0.6918420E-06  0.2629253E+04  0.7818609E-02  0.8358332E-01
        1   -1    0    0  501    0  0.00000000000E+00  0.00000000000E+00  0.17385761468E+04  0.17385761468E+04  0.50400001928E-02 0. -1.
       -1   -1    0    0    0  501  0.00000000000E+00  0.00000000000E+00 -0.99405652288E+03  0.99405652289E+03  0.50400001928E-02 0.  1.
    10030    2    1    2    0    0  0.00000000000E+00  0.00000000000E+00  0.74451962388E+03  0.27326326697E+04  0.26292530949E+04 0.  0.
        4    1    3    3  502    0 -0.11523093334E+04  0.52287969074E+03  0.74267370568E+03  0.14672374780E+04  0.12699999809E+01 0.  1.
       -4    1    3    3    0  502  0.11523093334E+04 -0.52287969074E+03  0.18459182030E+01  0.12653951917E+04  0.12699999809E+01 0. -1.
</event>
<event>
 5   0  0.6984287E-06  0.2610615E+04  0.7818609E-02  0.8364604E-01
       -1   -1    0    0    0  501  0.00000000000E+00  0.00000000000E+00  0.12775729914E+04  0.12775729914E+04  0.50400001928E-02 0. -1.
        1   -1    0    0  501    0  0.00000000000E+00  0.00000000000E+00 -0.13336444477E+04  0.13336444477E+04  0.50400001928E-02 0.  1.
    10030    2    1    2    0    0  0.00000000000E+00  0.00000000000E+00 -0.56071456344E+02  0.26112174391E+04  0.26106153501E+04 0.  0.
        3    1    3    3  502    0 -0.35786432639E+03 -0.10063472752E+04  0.72248817857E+03  0.12894924943E+04  0.10100000352E+00 0. -1.
       -3    1    3    3    0  502  0.35786432639E+03  0.10063472752E+04 -0.77855963492E+03  0.13217249448E+04  0.10100000352E+00 0.  1.
</event>
<event>
 5   0  0.1702345E-05  0.2603695E+04  0.7818609E-02  0.8366947E-01
       -2   -1    0    0    0  501  0.00000000000E+00  0.00000000000E+00  0.82282852900E+03  0.82282852901E+03  0.25500000920E-02 0. -1.
        2   -1    0    0  501    0  0.00000000000E+00  0.00000000000E+00 -0.20597331070E+04  0.20597331070E+04  0.25500000920E-02 0.  1.
    10030    2    1    2    0    0  0.00000000000E+00  0.00000000000E+00 -0.12369045780E+04  0.28825616360E+04  0.26036951915E+04 0.  0.
        1    1    3    3  502    0 -0.24099512403E+03  0.30732514287E+02  0.79750920304E+03  0.83369302876E+03  0.50400001928E-02 0. -1.
       -1    1    3    3    0  502  0.24099512403E+03 -0.30732514287E+02 -0.20344137810E+04  0.20488686072E+04  0.50400001928E-02 0.  1.
</event>
<event>
 5   0  0.6706225E-06  0.2432716E+04  0.7818609E-02  0.8427356E-01
       -1   -1    0    0    0  501  0.00000000000E+00  0.00000000000E+00  0.80977952677E+03  0.80977952678E+03  0.50400001928E-02 0. -1.
        1   -1    0    0  501    0  0.00000000000E+00  0.00000000000E+00 -0.18270732492E+04  0.18270732492E+04  0.50400001928E-02 0.  1.
    10030    2    1    2    0    0  0.00000000000E+00  0.00000000000E+00 -0.10172937224E+04  0.26368527760E+04  0.24327157755E+04 0.  0.
        5    1    3    3  502    0  0.22192778495E+02 -0.10791490718E+04  0.99165804897E+02  0.10839332015E+04  0.46999998093E+01 0. -1.
       -5    1    3    3    0  502 -0.22192778495E+02  0.10791490718E+04 -0.11164595273E+04  0.15529195744E+04  0.46999998093E+01 0.  1.
</event>
<event>
 5   0  0.1681731E-05  0.2550312E+04  0.7818609E-02  0.8385278E-01
        2   -1    0    0  501    0  0.00000000000E+00  0.00000000000E+00  0.29338575717E+04  0.29338575717E+04  0.25500000920E-02 0.  1.
       -2   -1    0    0    0  501  0.00000000000E+00  0.00000000000E+00 -0.55422672487E+03  0.55422672487E+03  0.25500000920E-02 0. -1.
    10030    2    1    2    0    0  0.00000000000E+00  0.00000000000E+00  0.23796308468E+04  0.34880842966E+04  0.25503115678E+04 0.  0.
        2    1    3    3  502    0 -0.98175257395E+03 -0.75532672904E+03  0.77572314234E+03  0.14615413021E+04  0.25500000920E-02 0. -1.
       -2    1    3    3    0  502  0.98175257395E+03  0.75532672904E+03  0.16039077045E+04  0.20265429945E+04  0.25500000920E-02 0.  1.
</event>
<event>
 5   0  0.6918420E-06  0.2595169E+04  0.7818609E-02  0.8369844E-01
       -1   -1    0    0    0  501  0.00000000000E+00  0.00000000000E+00  0.77962776262E+03  0.77962776263E+03  0.50400001928E-02 0.  1.
        1   -1    0    0  501    0  0.00000000000E+00  0.00000000000E+00 -0.21596528091E+04  0.21596528091E+04  0.50400001928E-02 0. -1.
    10030    2    1    2    0    0  0.00000000000E+00  0.00000000000E+00 -0.13800250465E+04  0.29392805717E+04  0.25951688096E+04 0.  0.
        4    1    3    3  502    0 -0.94109460985E+03 -0.19604736390E+03 -0.16771474011E+04  0.19331111327E+04  0.12699999809E+01 0. -1.
       -4    1    3    3    0  502  0.94109460985E+03  0.19604736390E+03  0.29712235457E+03  0.10061694390E+04  0.12699999809E+01 0.  1.
</event>
<event>
 5   0  0.1720129E-05  0.2639886E+04  0.7818609E-02  0.8354778E-01
       -2   -1    0    0    0  501  0.00000000000E+00  0.00000000000E+00  0.12903002625E+04  0.12903002625E+04  0.25500000920E-02 0. -1.
        2   -1    0    0  501    0  0.00000000000E+00  0.00000000000E+00 -0.13502664168E+04  0.13502664168E+04  0.25500000920E-02 0.  1.
    10030    2    1    2    0    0  0.00000000000E+00  0.00000000000E+00 -0.59966154301E+02  0.26405666794E+04  0.26398856885E+04 0.  0.
        3    1    3    3  502    0  0.66249811561E+03 -0.11409805125E+04  0.88704597204E+01  0.13194009923E+04  0.10100000352E+00 0.  1.
       -3    1    3    3    0  502 -0.66249811561E+03  0.11409805125E+04 -0.68836614022E+02  0.13211656871E+04  0.10100000352E+00 0. -1.
</event>
<event>
 5   0  0.6993678E-06  0.2590628E+04  0.7818609E-02  0.8371392E-01
        1   -1    0    0  501    0  0.00000000000E+00  0.00000000000E+00  0.12015732236E+04  0.12015732236E+04  0.50400001928E-02 0.  1.
       -1   -1    0    0    0  501  0.00000000000E+00  0.00000000000E+00 -0.13963680340E+04  0.13963680340E+04  0.50400001928E-02 0. -1.
    10030    2    1    2    0    0  0.00000000000E+00  0.00000000000E+00 -0.19479481044E+03  0.25979412576E+04  0.25906280628E+04 0.  0.
        1    1    3    3  502    0  0.41355462002E+02 -0.12292857658E+03  0.11950451961E+04  0.12020626980E+04  0.50400001928E-02 0.  1.
       -1    1    3    3    0  502 -0.41355462002E+02  0.12292857658E+03 -0.13898400066E+04  0.13958785596E+04  0.50400001928E-02 0. -1.
</event>
<event>
 5   0  0.1720129E-05  0.2622219E+04  0.7818609E-02  0.8360693E-01
       -2   -1    0    0    0  501  0.00000000000E+00  0.00000000000E+00  0.89107473680E+03  0.89107473680E+03  0.25500000920E-02 0. -1.
        2   -1    0    0  501    0  0.00000000000E+00  0.00000000000E+00 -0.19291400635E+04  0.19291400635E+04  0.25500000920E-02 0.  1.
    10030    2    1    2    0    0  0.00000000000E+00  0.00000000000E+00 -0.10380653267E+04  0.28202148003E+04  0.26222188881E+04 0.  0.
        3    1    3    3  502    0  0.71613146541E+02  0.34956538547E+03  0.83784786965E+03  0.91066649458E+03  0.10100000352E+00 0. -1.
       -3    1    3    3    0  502 -0.71613146541E+02 -0.34956538547E+03 -0.18759131963E+04  0.19095483057E+04  0.10100000352E+00 0.  1.
</event>
<event>
 5   0  0.6984287E-06  0.2579537E+04  0.7818609E-02  0.8375185E-01
       -1   -1    0    0    0  501  0.00000000000E+00  0.00000000000E+00  0.70846481959E+03  0.70846481960E+03  0.50400001928E-02 0. -1.
        1   -1    0    0  501    0  0.00000000000E+00  0.00000000000E+00 -0.23480392378E+04  0.23480392378E+04  0.50400001928E-02 0.  1.
    10030    2    1    2    0    0  0.00000000000E+00  0.00000000000E+00 -0.16395744182E+04  0.30565040574E+04  0.25795373190E+04 0.  0.
        3    1    3    3  502    0  0.10066921135E+03  0.12790581266E+04 -0.97599334700E+03  0.16120443558E+04  0.10100000352E+00 0.  1.
       -3    1    3    3    0  502 -0.10066921135E+03 -0.12790581266E+04 -0.66358107118E+03  0.14444597016E+04  0.10100000352E+00 0. -1.
</event>
<event>
 5   0  0.6706225E-06  0.2631110E+04  0.7818609E-02  0.8357710E-01
       -1   -1    0    0    0  501  0.00000000000E+00  0.00000000000E+00  0.10150618994E+04  0.10150618994E+04  0.50400001928E-02 0. -1.
        1   -1    0    0  501    0  0.00000000000E+00  0.00000000000E+00 -0.17050038460E+04  0.17050038460E+04  0.50400001928E-02 0.  1.
    10030    2    1    2    0    0  0.00000000000E+00  0.00000000000E+00 -0.68994194663E+03  0.27200657454E+04  0.26311096080E+04 0.  0.
        5    1    3    3  502    0  0.75075423473E+03 -0.38141055481E+03 -0.13898635397E+04  0.16250688236E+04  0.46999998093E+01 0.  1.
       -5    1    3    3    0  502 -0.75075423473E+03  0.38141055481E+03  0.69992159308E+03  0.10949969218E+04  0.46999998093E+01 0. -1.
</event>
<event>
 5   0  0.6984287E-06  0.2630276E+04  0.7818609E-02  0.8357989E-01
        1   -1    0    0  501    0  0.00000000000E+00  0.00000000000E+00  0.14621581156E+04  0.14621581156E+04  0.50400001928E-02 0.  1.
       -1   -1    0    0    0  501  0.00000000000E+00  0.00000000000E+00 -0.11829006646E+04  0.11829006646E+04  0.50400001928E-02 0. -1.
    10030    2    1    2    0    0  0.00000000000E+00  0.00000000000E+00  0.27925745108E+03  0.26450587802E+04  0.26302758842E+04 0.  0.
        3    1    3    3  502    0  0.13117146397E+04  0.94505746595E+01  0.23451573802E+03  0.13325472791E+04  0.10100000352E+00 0. -1.
       -3    1    3    3    0  502 -0.13117146397E+04 -0.94505746595E+01  0.44741713056E+02  0.13125115011E+04  0.10100000352E+00 0.  1.
</event>
<event>
 5   0  0.1869956E-05  0.2574708E+04  0.7818609E-02  0.8376844E-01
        2   -1    0    0  501    0  0.00000000000E+00  0.00000000000E+00  0.16164204306E+04  0.16164204306E+04  0.25500000920E-02 0. -1.
       -2   -1    0    0    0  501  0.00000000000E+00  0.00000000000E+00 -0.10252776866E+04  0.10252776866E+04  0.25500000920E-02 0.  1.
    10030    2    1    2    0    0  0.00000000000E+00  0.00000000000E+00  0.59114274397E+03  0.26416981172E+04  0.25747075948E+04 0.  0.
        5    1    3    3  502    0  0.43011893539E+03  0.10132370384E+04  0.98047717147E+03  0.14741130107E+04  0.46999998093E+01 0. -1.
       -5    1    3    3    0  502 -0.43011893539E+03 -0.10132370384E+04 -0.38933442750E+03  0.11675851065E+04  0.46999998093E+01 0.  1.
</event>
<event>
 5   0  0.1702345E-05  0.2582921E+04  0.7818609E-02  0.8374026E-01
       -2   -1    0    0    0  501  0.00000000000E+00  0.00000000000E+00  0.94232810279E+03  0.94232810280E+03  0.25500000920E-02 0. -1.
        2   -1    0    0  501    0  0.00000000000E+00  0.00000000000E+00 -0.17699458398E+04  0.17699458398E+04  0.25500000920E-02 0.  1.
    10030    2    1    2    0    0  0.00000000000E+00  0.00000000000E+00 -0.82761773702E+03  0.27122739426E+04  0.25829205991E+04 0.  0.
        1    1    3    3  502    0 -0.15743853843E+03 -0.10464665473E+04  0.36352759684E+03  0.11189421083E+04  0.50400001928E-02 0.  1.
       -1    1    3    3    0  502  0.15743853843E+03  0.10464665473E+04 -0.11911453339E+04  0.15933318343E+04  0.50400001928E-02 0. -1.
</event>
<event>
 5   0  0.1702345E-05  0.2574414E+04  0.7818609E-02  0.8376945E-01
       -2   -1    0    0    0  501  0.00000000000E+00  0.00000000000E+00  0.72786447191E+03  0.72786447191E+03  0.25500000920E-02 0. -1.
        2   -1    0    0  501    0  0.00000000000E+00  0.00000000000E+00 -0.22763874924E+04  0.22763874924E+04  0.25500000920E-02 0.  1.
    10030    2    1    2    0    0  0.00000000000E+00  0.00000000000E+00 -0.15485230205E+04  0.30042519644E+04  0.25744137819E+04 0.  0.
        1    1    3    3  502    0  0.43026245048E+03 -0.19940278949E+03  0.62220872753E+03  0.78232406930E+03  0.50400001928E-02 0. -1.
       -1    1    3    3    0  502 -0.43026245048E+03  0.19940278949E+03 -0.21707317481E+04  0.22219278951E+04  0.50400001928E-02 0.  1.
</event>
<event>
 5   0  0.7138294E-06  0.2597455E+04  0.7818609E-02  0.8369066E-01
       -1   -1    0    0    0  501  0.00000000000E+00  0.00000000000E+00  0.10396191264E+04  0.10396191265E+04  0.50400001928E-02 0.  1.
        1   -1    0    0  501    0  0.00000000000E+00  0.00000000000E+00 -0.16224138765E+04  0.16224138765E+04  0.50400001928E-02 0. -1.
    10030    2    1    2    0    0  0.00000000000E+00  0.00000000000E+00 -0.58279475007E+03  0.26620330030E+04  0.25974545209E+04 0.  0.
        2    1    3    3  502    0 -0.91211058519E+03  0.75434937088E+03 -0.83919922518E+03  0.14509459096E+04  0.25500000920E-02 0. -1.
       -2    1    3    3    0  502  0.91211058519E+03 -0.75434937088E+03  0.25640447511E+03  0.12110870934E+04  0.25500000920E-02 0.  1.
</event>
<event>
 5   0  0.5840500E-06  0.2579536E+04  0.7818609E-02  0.8375186E-01
        4   -1    0    0  501    0  0.00000000000E+00  0.00000000000E+00  0.12789189102E+04  0.12789195408E+04  0.12699999809E+01 0.  1.
       -4   -1    0    0    0  501  0.00000000000E+00  0.00000000000E+00 -0.13007080176E+04  0.13007086376E+04  0.12699999809E+01 0. -1.
    10030    2    1    2    0    0  0.00000000000E+00  0.00000000000E+00 -0.21789107377E+02  0.25796281784E+04  0.25795361547E+04 0.  0.
        5    1    3    3  502    0  0.10211013248E+04  0.40182415123E+03  0.66689731373E+03  0.12840890472E+04  0.46999998093E+01 0.  1.
       -5    1    3    3    0  502 -0.10211013248E+04 -0.40182415123E+03 -0.68868642111E+03  0.12955391312E+04  0.46999998093E+01 0. -1.
</event>
<event>
 5   0  0.1681731E-05  0.2594650E+04  0.7818609E-02  0.8370021E-01
        2   -1    0    0  501    0  0.00000000000E+00  0.00000000000E+00  0.13193846360E+04  0.13193846360E+04  0.25500000920E-02 0.  1.
       -2   -1    0    0    0  501  0.00000000000E+00  0.00000000000E+00 -0.12756342622E+04  0.12756342622E+04  0.25500000920E-02 0. -1.
    10030    2    1    2    0    0  0.00000000000E+00  0.00000000000E+00  0.43750373814E+02  0.25950188981E+04  0.25946500702E+04 0.  0.
        2    1    3    3  502    0 -0.22470992112E+03 -0.36211965229E+03 -0.12036263185E+04  0.12768482705E+04  0.25500000920E-02 0. -1.
       -2    1    3    3    0  502  0.22470992112E+03  0.36211965229E+03  0.12473766923E+04  0.13181706277E+04  0.25500000920E-02 0.  1.
</event>
<event>
 5   0  0.6706225E-06  0.2597398E+04  0.7818609E-02  0.8369085E-01
       -1   -1    0    0    0  501  0.00000000000E+00  0.00000000000E+00  0.13250264903E+04  0.13250264903E+04  0.50400001928E-02 0. -1.
        1   -1    0    0  501    0  0.00000000000E+00  0.00000000000E+00 -0.12728949975E+04  0.12728949975E+04  0.50400001928E-02 0.  1.
    10030    2    1    2    0    0  0.00000000000E+00  0.00000000000E+00  0.52131492714E+02  0.25979214878E+04  0.25973983838E+04 0.  0.
        5    1    3    3  502    0  0.10245534125E+04 -0.45098653397E+03 -0.63247322678E+03  0.12857460953E+04  0.46999998093E+01 0.  1.
       -5    1    3    3    0  502 -0.10245534125E+04  0.45098653397E+03  0.68460471950E+03  0.13121753926E+04  0.46999998093E+01 0. -1.
</event>
<event>
 5   0  0.6918420E-06  0.2712863E+04  0.7818609E-02  0.8330843E-01
       -1   -1    0    0    0  501  0.00000000000E+00  0.00000000000E+00  0.80657491915E+03  0.80657491916E+03  0.50400001928E-02 0. -1.
        1   -1    0    0  501    0  0.00000000000E+00  0.00000000000E+00 -0.22811348826E+04  0.22811348826E+04  0.50400001928E-02 0.  1.
    10030    2    1    2    0    0  0.00000000000E+00  0.00000000000E+00 -0.14745599635E+04  0.30877098018E+04  0.27128628300E+04 0.  0.
        4    1    3    3  502    0  0.68774837590E+02 -0.62899357725E+03  0.62831138342E+03  0.89170606477E+03  0.12699999809E+01 0. -1.
       -4    1    3    3    0  502 -0.68774837590E+02  0.62899357725E+03 -0.21028713469E+04  0.21960037370E+04  0.12699999809E+01 0.  1.
</event>
<event>
 5   0  0.6984287E-06  0.2543883E+04  0.7818609E-02  0.8387517E-01
        1   -1    0    0  501    0  0.00000000000E+00  0.00000000000E+00  0.15008245973E+04  0.15008245973E+04  0.50400001928E-02 0.  1.
       -1   -1    0    0    0  501  0.00000000000E+00  0.00000000000E+00 -0.10779646053E+04  0.10779646053E+04  0.50400001928E-02 0. -1.
    10030    2    1    2    0    0  0.00000000000E+00  0.00000000000E+00  0.42285999200E+03  0.25787892026E+04  0.25438834837E+04 0.  0.
        3    1    3    3  502    0 -0.12250206503E+03 -0.58734048380E+03  0.13483628402E+04  0.14758245014E+04  0.10100000352E+00 0.  1.
       -3    1    3    3    0  502  0.12250206503E+03  0.58734048380E+03 -0.92550284821E+03  0.11029647012E+04  0.10100000352E+00 0. -1.
</event>
<event>
 5   0  0.6706225E-06  0.2612294E+04  0.7818609E-02  0.8364037E-01
       -1   -1    0    0    0  501  0.00000000000E+00  0.00000000000E+00  0.14823354956E+04  0.14823354956E+04  0.50400001928E-02 0.  1.
        1   -1    0    0  501    0  0.00000000000E+00  0.00000000000E+00 -0.11509000807E+04  0.11509000807E+04  0.50400001928E-02 0. -1.
    10030    2    1    2    0    0  0.00000000000E+00  0.00000000000E+00  0.33143541487E+03  0.26332355763E+04  0.26122940428E+04 0.  0.
        5    1    3    3  502    0  0.21265655969E+03 -0.87567353497E+03 -0.78736232108E+03  0.11966572053E+04  0.46999998093E+01 0. -1.
       -5    1    3    3    0  502 -0.21265655969E+03  0.87567353497E+03  0.11187977360E+04  0.14365783711E+04  0.46999998093E+01 0.  1.
</event>
<event>
 5   0  0.1681731E-05  0.2622556E+04  0.7818609E-02  0.8360579E-01
        2   -1    0    0  501    0  0.00000000000E+00  0.00000000000E+00  0.99619625776E+03  0.99619625776E+03  0.25500000920E-02 0. -1.
       -2   -1    0    0    0  501  0.00000000000E+00  0.00000000000E+00 -0.17260159471E+04  0.17260159471E+04  0.25500000920E-02 0.  1.
    10030    2    1    2    0    0  0.00000000000E+00  0.00000000000E+00 -0.72981968936E+03  0.27222122049E+04  0.26225564836E+04 0.  0.
        2    1    3    3  502    0  0.36050477190E+03  0.12288155458E+04 -0.65758021310E+03  0.14395704474E+04  0.25500000920E-02 0. -1.
       -2    1    3    3    0  502 -0.36050477190E+03 -0.12288155458E+04 -0.72239476268E+02  0.12826417575E+04  0.25500000920E-02 0.  1.
</event>
<event>
 5   0  0.1681731E-05  0.2634404E+04  0.7818609E-02  0.8356608E-01
       -2   -1    0    0    0  501  0.00000000000E+00  0.00000000000E+00  0.10265708791E+04  0.10265708791E+04  0.25500000920E-02 0. -1.
        2   -1    0    0  501    0  0.00000000000E+00  0.00000000000E+00 -0.16901134213E+04  0.16901134213E+04  0.25500000920E-02 0.  1.
    10030    2    1    2    0    0  0.00000000000E+00  0.00000000000E+00 -0.66354254219E+03  0.27166843003E+04  0.26344040849E+04 0.  0.
        2    1    3    3  502    0 -0.64211000062E+03 -0.83371598468E+03  0.48520582823E+03  0.11587977786E+04  0.25500000920E-02 0. -1.
       -2    1    3    3    0  502  0.64211000062E+03  0.83371598468E+03 -0.11487483704E+04  0.15578865217E+04  0.25500000920E-02 0.  1.
</event>
<event>
 5   0  0.6918420E-06  0.2608114E+04  0.7818609E-02  0.8365450E-01
       -1   -1    0    0    0  501  0.00000000000E+00  0.00000000000E+00  0.97181621312E+03  0.97181621313E+03  0.50400001928E-02 0.  1.
        1   -1    0    0  501    0  0.00000000000E+00  0.00000000000E+00 -0.17498824075E+04  0.17498824075E+04  0.50400001928E-02 0. -1.
    10030    2    1    2    0    0  0.00000000000E+00  0.00000000000E+00 -0.77806619438E+03  0.27216986206E+04  0.26081135671E+04 0.  0.
        4    1    3    3  502    0  0.12807494898E+03  0.66761193275E+03 -0.15503571051E+04  0.16928430676E+04  0.12699999809E+01 0. -1.
       -4    1    3    3    0  502 -0.12807494898E+03 -0.66761193275E+03  0.77229091073E+03  0.10288555530E+04  0.12699999809E+01 0.  1.
</event>
<event>
 5   0  0.6993678E-06  0.2570718E+04  0.7818609E-02  0.8378216E-01
        1   -1    0    0  501    0  0.00000000000E+00  0.00000000000E+00  0.91871586053E+03  0.91871586054E+03  0.50400001928E-02 0.  1.
       -1   -1    0    0    0  501  0.00000000000E+00  0.00000000000E+00 -0.17983223467E+04  0.17983223467E+04  0.50400001928E-02 0. -1.
    10030    2    1    2    0    0  0.00000000000E+00  0.00000000000E+00 -0.87960648614E+03  0.27170382072E+04  0.25707176136E+04 0.  0.
        1    1    3    3  502    0 -0.79151091283E+03  0.10109767656E+04 -0.37653173369E+03  0.13380357590E+04  0.50400001928E-02 0. -1.
       -1    1    3    3    0  502  0.79151091283E+03 -0.10109767656E+04 -0.50307475245E+03  0.13790024483E+04  0.50400001928E-02 0.  1.
</event>
<event>
 5   0  0.6993678E-06  0.2611663E+04  0.7818609E-02  0.8364250E-01
       -1   -1    0    0    0  501  0.00000000000E+00  0.00000000000E+00  0.21105975158E+04  0.21105975158E+04  0.50400001928E-02 0.  1.
        1   -1    0    0  501    0  0.00000000000E+00  0.00000000000E+00 -0.80792084438E+03  0.80792084440E+03  0.50400001928E-02 0. -1.
    10030    2    1    2    0    0  0.00000000000E+00  0.00000000000E+00  0.13026766714E+04  0.29185183602E+04  0.26116628627E+04 0.  0.
        1    1    3    3  502    0 -0.60156167432E+03 -0.19238594334E+03  0.19285648667E+04  0.20293474923E+04  0.50400001928E-02 0.  1.
       -1    1    3    3    0  502  0.60156167432E+03  0.19238594334E+03 -0.62588819535E+03  0.88917086789E+03  0.50400001928E-02 0. -1.
</event>
<event>
 5   0  0.6706225E-06  0.2614809E+04  0.7818609E-02  0.8363188E-01
        1   -1    0    0  501    0  0.00000000000E+00  0.00000000000E+00  0.12912673066E+04  0.12912673066E+04  0.50400001928E-02 0. -1.
       -1   -1    0    0    0  501  0.00000000000E+00  0.00000000000E+00 -0.13237438463E+04  0.13237438463E+04  0.50400001928E-02 0.  1.
    10030    2    1    2    0    0  0.00000000000E+00  0.00000000000E+00 -0.32476539730E+02  0.26150111529E+04  0.26148094776E+04 0.  0.
        5    1    3    3  502    0 -0.42494382633E+03 -0.74643715895E+01  0.12202437971E+04  0.12921493670E+04  0.46999998093E+01 0. -1.
       -5    1    3    3    0  502  0.42494382633E+03  0.74643715895E+01 -0.12527203368E+04  0.13228617859E+04  0.46999998093E+01 0.  1.
</event>
<event>
 5   0  0.1677971E-05  0.2589637E+04  0.7818609E-02  0.8371730E-01
       -2   -1    0    0    0  501  0.00000000000E+00  0.00000000000E+00  0.78255819527E+03  0.78255819528E+03  0.25500000920E-02 0.  1.
        2   -1    0    0  501    0  0.00000000000E+00  0.00000000000E+00 -0.21424023082E+04  0.21424023082E+04  0.25500000920E-02 0. -1.
    10030    2    1    2    0    0  0.00000000000E+00  0.00000000000E+00 -0.13598441129E+04  0.29249605035E+04  0.25896366416E+04 0.  0.
        4    1    3    3  502    0 -0.10253183235E+04 -0.55921397184E+03 -0.13113798946E+04  0.17560514718E+04  0.12699999809E+01 0. -1.
       -4    1    3    3    0  502  0.10253183235E+04  0.55921397184E+03 -0.48464218292E+02  0.11689090316E+04  0.12699999809E+01 0.  1.
</event>
<event>
 5   0  0.1720129E-05  0.2585039E+04  0.7818609E-02  0.8373301E-01
       -2   -1    0    0    0  501  0.00000000000E+00  0.00000000000E+00  0.11042965557E+04  0.11042965557E+04  0.25500000920E-02 0.  1.
        2   -1    0    0  501    0  0.00000000000E+00  0.00000000000E+00 -0.15128238692E+04  0.15128238692E+04  0.25500000920E-02 0. -1.
    10030    2    1    2    0    0  0.00000000000E+00  0.00000000000E+00 -0.40852731351E+03  0.26171204248E+04  0.25850386365E+04 0.  0.
        3    1    3    3  502    0  0.69749956933E+03  0.34582271275E+03 -0.12488178235E+04  0.14716130485E+04  0.10100000352E+00 0. -1.
       -3    1    3    3    0  502 -0.69749956933E+03 -0.34582271275E+03  0.84029051002E+03  0.11455073764E+04  0.10100000352E+00 0.  1.
</event>
<event>
 5   0  0.1702345E-05  0.2604652E+04  0.7818609E-02  0.8366623E-01
       -2   -1    0    0    0  501  0.00000000000E+00  0.00000000000E+00  0.13953640128E+04  0.13953640128E+04  0.25500000920E-02 0. -1.
        2   -1    0    0  501    0  0.00000000000E+00  0.00000000000E+00 -0.12154917373E+04  0.12154917373E+04  0.25500000920E-02 0.  1.
    10030    2    1    2    0    0  0.00000000000E+00  0.00000000000E+00  0.17987227553E+03  0.26108557501E+04  0.26046523208E+04 0.  0.
        1    1    3    3  502    0  0.12287641682E+04 -0.38244156596E+03 -0.11036594665E+03  0.12916282648E+04  0.50400001928E-02 0. -1.
       -1    1    3    3    0  502 -0.12287641682E+04  0.38244156596E+03  0.29023822218E+03  0.13192274853E+04  0.50400001928E-02 0.  1.
</event>
<event>
 5   0  0.1720129E-05  0.2590748E+04  0.7818609E-02  0.8371351E-01
        2   -1    0    0  501    0  0.00000000000E+00  0.00000000000E+00  0.86552151879E+03  0.86552151879E+03  0.25500000920E-02 0.  1.
       -2   -1    0    0    0  501  0.00000000000E+00  0.00000000000E+00 -0.19387084900E+04  0.19387084900E+04  0.25500000920E-02 0. -1.
    10030    2    1    2    0    0  0.00000000000E+00  0.00000000000E+00 -0.10731869712E+04  0.28042300088E+04  0.25907480902E+04 0.  0.
        3    1    3    3  502    0 -0.10123777948E+04  0.33398665202E+03  0.25993795621E+03  0.10972801075E+04  0.10100000352E+00 0. -1.
       -3    1    3    3    0  502  0.10123777948E+04 -0.33398665202E+03 -0.13331249274E+04  0.17069499013E+04  0.10100000352E+00 0.  1.
</event>
<event>
 5   0  0.1869956E-05  0.2599285E+04  0.7818609E-02  0.8368444E-01
       -2   -1    0    0    0  501  0.00000000000E+00  0.00000000000E+00  0.10508776822E+04  0.10508776822E+04  0.25500000920E-02 0. -1.
        2   -1    0    0  501    0  0.00000000000E+00  0.00000000000E+00 -0.16072951462E+04  0.16072951463E+04  0.25500000920E-02 0.  1.
    10030    2    1    2    0    0  0.00000000000E+00  0.00000000000E+00 -0.55641746409E+03  0.26581728284E+04  0.25992849769E+04 0.  0.
        5    1    3    3  502    0  0.91378994873E+02  0.11828216461E+04  0.26450374845E+03  0.12154840559E+04  0.46999998093E+01 0. -1.
       -5    1    3    3    0  502 -0.91378994873E+02 -0.11828216461E+04 -0.82092121254E+03  0.14426887725E+04  0.46999998093E+01 0.  1.
</event>
<event>
 5   0  0.5840500E-06  0.2592687E+04  0.7818609E-02  0.8370690E-01
        4   -1    0    0  501    0  0.00000000000E+00  0.00000000000E+00  0.13384640644E+04  0.13384646669E+04  0.12699999809E+01 0. -1.
       -4   -1    0    0    0  501  0.00000000000E+00  0.00000000000E+00 -0.12555468343E+04  0.12555474766E+04  0.12699999809E+01 0.  1.
    10030    2    1    2    0    0  0.00000000000E+00  0.00000000000E+00  0.82917230133E+02  0.25940121435E+04  0.25926865861E+04 0.  0.
        3    1    3    3  502    0 -0.25725421816E+03  0.11824319313E+04 -0.42373169815E+03  0.12821363294E+04  0.10100000352E+00 0.  1.
       -3    1    3    3    0  502  0.25725421816E+03 -0.11824319313E+04  0.50664892828E+03  0.13118758141E+04  0.10100000352E+00 0. -1.
</event>
<event>
 5   0  0.6984287E-06  0.2601389E+04  0.7818609E-02  0.8367730E-01
       -1   -1    0    0    0  501  0.00000000000E+00  0.00000000000E+00  0.76430301241E+03  0.76430301243E+03  0.50400001928E-02 0. -1.
        1   -1    0    0  501    0  0.00000000000E+00  0.00000000000E+00 -0.22135276077E+04  0.22135276077E+04  0.50400001928E-02 0.  1.
    10030    2    1    2    0    0  0.00000000000E+00  0.00000000000E+00 -0.14492245953E+04  0.29778306202E+04  0.26013887204E+04 0.  0.
        3    1    3    3  502    0  0.67240993272E+03  0.79615119060E+03 -0.16155849653E+04  0.19225261054E+04  0.10100000352E+00 0.  1.
       -3    1    3    3    0  502 -0.67240993272E+03 -0.79615119060E+03  0.16636036993E+03  0.10553045147E+04  0.10100000352E+00 0. -1.
</event>
<event>
 5   0  0.1702345E-05  0.2585792E+04  0.7818609E-02  0.8373043E-01
       -2   -1    0    0    0  501  0.00000000000E+00  0.00000000000E+00  0.99052186548E+03  0.99052186548E+03  0.25500000920E-02 0.  1.
        2   -1    0    0  501    0  0.00000000000E+00  0.00000000000E+00 -0.16875750048E+04  0.16875750048E+04  0.25500000920E-02 0. -1.
    10030    2    1    2    0    0  0.00000000000E+00  0.00000000000E+00 -0.69705313933E+03  0.26780968703E+04  0.25857919034E+04 0.  0.
        1    1    3    3  502    0  0.76540627878E+03  0.10308201970E+04 -0.19096818380E+03  0.12980392511E+04  0.50400001928E-02 0.  1.
       -1    1    3    3    0  502 -0.76540627878E+03 -0.10308201970E+04 -0.50608495554E+03  0.13800576192E+04  0.50400001928E-02 0. -1.
</event>
<event>
 5   0  0.6984287E-06  0.2578371E+04  0.7818609E-02  0.8375585E-01
       -1   -1    0    0    0  501  0.00000000000E+00  0.00000000000E+00  0.10419865326E+04  0.10419865326E+04  0.50400001928E-02 0.  1.
        1   -1    0    0  501    0  0.00000000000E+00  0.00000000000E+00 -0.15950292515E+04  0.15950292515E+04  0.50400001928E-02 0. -1.
    10030    2    1    2    0    0  0.00000000000E+00  0.00000000000E+00 -0.55304271886E+03  0.26370157841E+04  0.25783708028E+04 0.  0.
        3    1    3    3  502    0 -0.31674199939E+03 -0.22852168598E+03  0.98002035976E+03  0.10549822609E+04  0.10100000352E+00 0.  1.
       -3    1    3    3    0  502  0.31674199939E+03  0.22852168598E+03 -0.15330630786E+04  0.15820335232E+04  0.10100000352E+00 0. -1.
</event>
<event>
 5   0  0.7138294E-06  0.2586333E+04  0.7818609E-02  0.8372859E-01
       -1   -1    0    0    0  501  0.00000000000E+00  0.00000000000E+00  0.12104770563E+04  0.12104770563E+04  0.50400001928E-02 0. -1.
        1   -1    0    0  501    0  0.00000000000E+00  0.00000000000E+00 -0.13815042855E+04  0.13815042855E+04  0.50400001928E-02 0.  1.
    10030    2    1    2    0    0  0.00000000000E+00  0.00000000000E+00 -0.17102722915E+03  0.25919813418E+04  0.25863327248E+04 0.  0.
        2    1    3    3  502    0  0.65423804128E+03 -0.24727509374E+03  0.10045691204E+04  0.12240635213E+04  0.25500000920E-02 0. -1.
       -2    1    3    3    0  502 -0.65423804128E+03  0.24727509374E+03 -0.11755963495E+04  0.13679178205E+04  0.25500000920E-02 0.  1.
</event>
<event>
 5   0  0.6918420E-06  0.2556774E+04  0.7818609E-02  0.8383034E-01
        1   -1    0    0  501    0  0.00000000000E+00  0.00000000000E+00  0.14845727767E+04  0.14845727767E+04  0.50400001928E-02 0. -1.
       -1   -1    0    0    0  501  0.00000000000E+00  0.00000000000E+00 -0.11008375486E+04  0.11008375486E+04  0.50400001928E-02 0.  1.
    10030    2    1    2    0    0  0.00000000000E+00  0.00000000000E+00  0.38373522808E+03  0.25854103253E+04  0.25567741052E+04 0.  0.
        4    1    3    3  502    0 -0.89487964324E+03  0.30970833490E+03 -0.67655434560E+03  0.11638110775E+04  0.12699999809E+01 0.  1.
       -4    1    3    3    0  502  0.89487964324E+03 -0.30970833490E+03  0.10602895737E+04  0.14215992479E+04  0.12699999809E+01 0. -1.
</event>
<event>
 5   0  0.1677971E-05  0.2599327E+04  0.7818609E-02  0.8368430E-01
        2   -1    0    0  501    0  0.00000000000E+00  0.00000000000E+00  0.18376808981E+04  0.18376808981E+04  0.25500000920E-02 0.  1.
       -2   -1    0    0    0  501  0.00000000000E+00  0.00000000000E+00 -0.91916134685E+03  0.91916134685E+03  0.25500000920E-02 0. -1.
    10030    2    1    2    0    0  0.00000000000E+00  0.00000000000E+00  0.91851955127E+03  0.27568422450E+04  0.25993270278E+04 0.  0.
        4    1    3    3  502    0  0.26710940847E+03  0.31877201033E+03 -0.84668134433E+03  0.94331009875E+03  0.12699999809E+01 0. -1.
       -4    1    3    3    0  502 -0.26710940847E+03 -0.31877201033E+03  0.17652008956E+04  0.18135321462E+04  0.12699999809E+01 0.  1.
</event>
<event>
 5   0  0.6706225E-06  0.2624393E+04  0.7818609E-02  0.8359962E-01
        1   -1    0    0  501    0  0.00000000000E+00  0.00000000000E+00  0.23305360515E+04  0.23305360515E+04  0.50400001928E-02 0. -1.
       -1   -1    0    0    0  501  0.00000000000E+00  0.00000000000E+00 -0.73882538040E+03  0.73882538041E+03  0.50400001928E-02 0.  1.
    10030    2    1    2    0    0  0.00000000000E+00  0.00000000000E+00  0.15917106711E+04  0.30693614319E+04  0.26243926420E+04 0.  0.
        5    1    3    3  502    0  0.60736157744E+03 -0.95356585200E+03  0.16841927291E+02  0.11306996331E+04  0.46999998093E+01 0.  1.
       -5    1    3    3    0  502 -0.60736157744E+03  0.95356585200E+03  0.15748687438E+04  0.19386617988E+04  0.46999998093E+01 0. -1.
</event>
<event>
 5   0  0.6706225E-06  0.2602277E+04  0.7818609E-02  0.8367428E-01
       -1   -1    0    0    0  501  0.00000000000E+00  0.00000000000E+00  0.10442780927E+04  0.10442780927E+04  0.50400001928E-02 0.  1.
        1   -1    0    0  501    0  0.00000000000E+00  0.00000000000E+00 -0.16211788813E+04  0.16211788813E+04  0.50400001928E-02 0. -1.
    10030    2    1    2    0    0  0.00000000000E+00  0.00000000000E+00 -0.57690078866E+03  0.26654569740E+04  0.26022771490E+04 0.  0.
        5    1    3    3  502    0  0.73372055671E+03  0.14420100796E+03  0.80220185639E+03  0.10966720998E+04  0.46999998093E+01 0.  1.
       -5    1    3    3    0  502 -0.73372055671E+03 -0.14420100796E+03 -0.13791026450E+04  0.15687848742E+04  0.46999998093E+01 0. -1.
</event>
<event>
 5   0  0.6706225E-06  0.2084041E+04  0.7818609E-02  0.8568306E-01
       -1   -1    0    0    0  501  0.00000000000E+00  0.00000000000E+00  0.78848907943E+03  0.78848907945E+03  0.50400001928E-02 0. -1.
        1   -1    0    0  501    0  0.00000000000E+00  0.00000000000E+00 -0.13770721756E+04  0.13770721756E+04  0.50400001928E-02 0.  1.
    10030    2    1    2    0    0  0.00000000000E+00  0.00000000000E+00 -0.58858309614E+03  0.21655612550E+04  0.20840406638E+04 0.  0.
        5    1    3    3  502    0  0.57911460138E+02  0.55510282724E+03  0.62006693976E+03  0.83426493742E+03  0.46999998093E+01 0. -1.
       -5    1    3    3    0  502 -0.57911460138E+02 -0.55510282724E+03 -0.12086500359E+04  0.13312963176E+04  0.46999998093E+01 0.  1.
</event>
<event>
 5   0  0.1869956E-05  0.2656521E+04  0.7818609E-02  0.8349252E-01
       -2   -1    0    0    0  501  0.00000000000E+00  0.00000000000E+00  0.17292520652E+04  0.17292520652E+04  0.25500000920E-02 0.  1.
        2   -1    0    0  501    0  0.00000000000E+00  0.00000000000E+00 -0.10202538414E+04  0.10202538414E+04  0.25500000920E-02 0. -1.
    10030    2    1    2    0    0  0.00000000000E+00  0.00000000000E+00  0.70899822373E+03  0.27495059066E+04  0.26565210801E+04 0.  0.
        5    1    3    3  502    0  0.10443082502E+04 -0.56352114767E+02 -0.49300215749E+03  0.11562129992E+04  0.46999998093E+01 0. -1.
       -5    1    3    3    0  502 -0.10443082502E+04  0.56352114767E+02  0.12020003812E+04  0.15932929074E+04  0.46999998093E+01 0.  1.
</event>
<event>
 5   0  0.1702345E-05  0.2600988E+04  0.7818609E-02  0.8367866E-01
        2   -1    0    0  501    0  0.00000000000E+00  0.00000000000E+00  0.16037527294E+04  0.16037527294E+04  0.25500000920E-02 0.  1.
       -2   -1    0    0    0  501  0.00000000000E+00  0.00000000000E+00 -0.10545798089E+04  0.10545798089E+04  0.25500000920E-02 0. -1.
    10030    2    1    2    0    0  0.00000000000E+00  0.00000000000E+00  0.54917292051E+03  0.26583325384E+04  0.26009884637E+04 0.  0.
        1    1    3    3  502    0 -0.38548751450E+03 -0.68711038564E+03  0.13320786947E+04  0.15476288168E+04  0.50400001928E-02 0.  1.
       -1    1    3    3    0  502  0.38548751450E+03  0.68711038564E+03 -0.78290577414E+03  0.11107037216E+04  0.50400001928E-02 0. -1.
</event>
<event>
 5   0  0.7138294E-06  0.2555042E+04  0.7818609E-02  0.8383635E-01
        1   -1    0    0  501    0  0.00000000000E+00  0.00000000000E+00  0.14336040168E+04  0.14336040168E+04  0.50400001928E-02 0.  1.
       -1   -1    0    0    0  501  0.00000000000E+00  0.00000000000E+00 -0.11384313103E+04  0.11384313103E+04  0.50400001928E-02 0. -1.
    10030    2    1    2    0    0  0.00000000000E+00  0.00000000000E+00  0.29517270647E+03  0.25720353272E+04  0.25550418387E+04 0.  0.
        2    1    3    3  502    0 -0.67821936291E+03 -0.42577598170E+03 -0.85441978031E+03  0.11710251286E+04  0.25500000920E-02 0. -1.
       -2    1    3    3    0  502  0.67821936291E+03  0.42577598170E+03  0.11495924868E+04  0.14010101986E+04  0.25500000920E-02 0.  1.
</event>
<event>
 5   0  0.5840500E-06  0.2614923E+04  0.7818609E-02  0.8363150E-01
       -4   -1    0    0    0  501  0.00000000000E+00  0.00000000000E+00  0.17630028113E+04  0.17630032687E+04  0.12699999809E+01 0. -1.
        4   -1    0    0  501    0  0.00000000000E+00  0.00000000000E+00 -0.96962626229E+03  0.96962709400E+03  0.12699999809E+01 0.  1.
    10030    2    1    2    0    0  0.00000000000E+00  0.00000000000E+00  0.79337654899E+03  0.27326303627E+04  0.26149230105E+04 0.  0.
        1    1    3    3  502    0  0.25286795643E+02 -0.57627644817E+03  0.16228423592E+04  0.17223098704E+04  0.50400001928E-02 0. -1.
       -1    1    3    3    0  502 -0.25286795643E+02  0.57627644817E+03 -0.82946581025E+03  0.10103204923E+04  0.50400001928E-02 0.  1.
</event>
<event>
 5   0  0.1702345E-05  0.2546437E+04  0.7818609E-02  0.8386626E-01
       -2   -1    0    0    0  501  0.00000000000E+00  0.00000000000E+00  0.24426025239E+04  0.24426025239E+04  0.25500000920E-02 0. -1.
        2   -1    0    0  501    0  0.00000000000E+00  0.00000000000E+00 -0.66367122902E+03  0.66367122903E+03  0.25500000920E-02 0.  1.
    10030    2    1    2    0    0  0.00000000000E+00  0.00000000000E+00  0.17789312949E+04  0.31062737529E+04  0.25464367411E+04 0.  0.
        1    1    3    3  502    0 -0.77721256434E+03  0.56009322329E+03 -0.13355335017E+03  0.96726433114E+03  0.50400001928E-02 0.  1.
       -1    1    3    3    0  502  0.77721256434E+03 -0.56009322329E+03  0.19124846450E+04  0.21390094218E+04  0.50400001928E-02 0. -1.
</event>
<event>
 5   0  0.1702345E-05  0.2601945E+04  0.7818609E-02  0.8367541E-01
        2   -1    0    0  501    0  0.00000000000E+00  0.00000000000E+00  0.10157333410E+04  0.10157333410E+04  0.25500000920E-02 0. -1.
       -2   -1    0    0    0  501  0.00000000000E+00  0.00000000000E+00 -0.16663125257E+04  0.16663125257E+04  0.25500000920E-02 0.  1.
    10030    2    1    2    0    0  0.00000000000E+00  0.00000000000E+00 -0.65057918469E+03  0.26820458667E+04  0.26019448026E+04 0.  0.
        1    1    3    3  502    0  0.38290791388E+03 -0.12411286579E+04 -0.24877247235E+03  0.13224623091E+04  0.50400001928E-02 0. -1.
       -1    1    3    3    0  502 -0.38290791388E+03  0.12411286579E+04 -0.40180671235E+03  0.13595835576E+04  0.50400001928E-02 0.  1.
</event>
<event>
 5   0  0.1720129E-05  0.2601845E+04  0.7818609E-02  0.8367575E-01
        2   -1    0    0  501    0  0.00000000000E+00  0.00000000000E+00  0.12307857076E+04  0.12307857076E+04  0.25500000920E-02 0. -1.
       -2   -1    0    0    0  501  0.00000000000E+00  0.00000000000E+00 -0.13750559547E+04  0.13750559547E+04  0.25500000920E-02 0.  1.
    10030    2    1    2    0    0  0.00000000000E+00  0.00000000000E+00 -0.14427024706E+03  0.26058416623E+04  0.26018448964E+04 0.  0.
        3    1    3    3  502    0  0.27986880240E+02 -0.12025895794E+04  0.42399866567E+03  0.12754527983E+04  0.10100000352E+00 0. -1.
       -3    1    3    3    0  502 -0.27986880240E+02  0.12025895794E+04 -0.56826891273E+03  0.13303888640E+04  0.10100000352E+00 0.  1.
</event>
<event>
 5   0  0.6918420E-06  0.2663199E+04  0.7818609E-02  0.8347045E-01
        1   -1    0    0  501    0  0.00000000000E+00  0.00000000000E+00  0.10513502263E+04  0.10513502263E+04  0.50400001928E-02 0. -1.
       -1   -1    0    0    0  501  0.00000000000E+00  0.00000000000E+00 -0.16865527573E+04  0.16865527573E+04  0.50400001928E-02 0.  1.
    10030    2    1    2    0    0  0.00000000000E+00  0.00000000000E+00 -0.63520253105E+03  0.27379029836E+04  0.26631992963E+04 0.  0.
        4    1    3    3  502    0 -0.18417026935E+03 -0.98799863830E+02  0.10343830272E+04  0.10552866725E+04  0.12699999809E+01 0. -1.
       -4    1    3    3    0  502  0.18417026935E+03  0.98799863830E+02 -0.16695855583E+04  0.16826163111E+04  0.12699999809E+01 0.  1.
</event>
<event>
 5   0  0.6918420E-06  0.2567609E+04  0.7818609E-02  0.8379288E-01
        1   -1    0    0  501    0  0.00000000000E+00  0.00000000000E+00  0.13026992978E+04  0.13026992978E+04  0.50400001928E-02 0. -1.
       -1   -1    0    0    0  501  0.00000000000E+00  0.00000000000E+00 -0.12651835205E+04  0.12651835205E+04  0.50400001928E-02 0.  1.
    10030    2    1    2    0    0  0.00000000000E+00  0.00000000000E+00  0.37515777273E+02  0.25678828183E+04  0.25676087582E+04 0.  0.
        4    1    3    3  502    0  0.18620340919E+03 -0.70325012686E+03 -0.10391449871E+04  0.12684858563E+04  0.12699999809E+01 0.  1.
       -4    1    3    3    0  502 -0.18620340919E+03  0.70325012686E+03  0.10766607644E+04  0.12993969620E+04  0.12699999809E+01 0. -1.
</event>
<event>
 5   0  0.6993678E-06  0.2593129E+04  0.7818609E-02  0.8370539E-01
        1   -1    0    0  501    0  0.00000000000E+00  0.00000000000E+00  0.18098600771E+04  0.18098600771E+04  0.50400001928E-02 0.  1.
       -1   -1    0    0    0  501  0.00000000000E+00  0.00000000000E+00 -0.92884507089E+03  0.92884507090E+03  0.50400001928E-02 0. -1.
    10030    2    1    2    0    0  0.00000000000E+00  0.00000000000E+00  0.88101500621E+03  0.27387051480E+04  0.25931290840E+04 0.  0.
        1    1    3    3  502    0  0.62923427430E+03  0.11297836716E+04  0.53920253386E+03  0.14011018126E+04  0.50400001928E-02 0. -1.
       -1    1    3    3    0  502 -0.62923427430E+03 -0.11297836716E+04  0.34181247235E+03  0.13376033354E+04  0.50400001928E-02 0.  1.
</event>
<event>
 5   0  0.1869956E-05  0.2696795E+04  0.7818609E-02  0.8336046E-01
       -2   -1    0    0    0  501  0.00000000000E+00  0.00000000000E+00  0.29346248397E+04  0.29346248397E+04  0.25500000920E-02 0. -1.
        2   -1    0    0  501    0  0.00000000000E+00  0.00000000000E+00 -0.61955975479E+03  0.61955975479E+03  0.25500000920E-02 0.  1.
    10030    2    1    2    0    0  0.00000000000E+00  0.00000000000E+00  0.23150650849E+04  0.35541845945E+04  0.26967947242E+04 0.  0.
        5    1    3    3  502    0  0.86465932025E+03  0.86245297213E+03  0.40424347652E+03  0.12864275135E+04  0.46999998093E+01 0.  1.
       -5    1    3    3    0  502 -0.86465932025E+03 -0.86245297213E+03  0.19108216084E+04  0.22677570810E+04  0.46999998093E+01 0. -1.
</event>
<event>
 5   0  0.6984287E-06  0.2599907E+04  0.7818609E-02  0.8368233E-01
       -1   -1    0    0    0  501  0.00000000000E+00  0.00000000000E+00  0.12720911551E+04  0.12720911551E+04  0.50400001928E-02 0. -1.
        1   -1    0    0  501    0  0.00000000000E+00  0.00000000000E+00 -0.13284263170E+04  0.13284263170E+04  0.50400001928E-02 0.  1.
    10030    2    1    2    0    0  0.00000000000E+00  0.00000000000E+00 -0.56335161905E+02  0.26005174722E+04  0.25999072046E+04 0.  0.
        3    1    3    3  502    0 -0.40563086410E+03 -0.10779895730E+04  0.57470222613E+03  0.12871987322E+04  0.10100000352E+00 0. -1.
       -3    1    3    3    0  502  0.40563086410E+03  0.10779895730E+04 -0.63103738803E+03  0.13133187399E+04  0.10100000352E+00 0.  1.
</event>
<event>
 5   0  0.1869956E-05  0.2602834E+04  0.7818609E-02  0.8367239E-01
       -2   -1    0    0    0  501  0.00000000000E+00  0.00000000000E+00  0.57361924138E+03  0.57361924138E+03  0.25500000920E-02 0. -1.
        2   -1    0    0  501    0  0.00000000000E+00  0.00000000000E+00 -0.29526321518E+04  0.29526321518E+04  0.25500000920E-02 0.  1.
    10030    2    1    2    0    0  0.00000000000E+00  0.00000000000E+00 -0.23790129104E+04  0.35262513931E+04  0.26028343128E+04 0.  0.
        5    1    3    3  502    0  0.11885980347E+04  0.50651162210E+03 -0.97812175956E+03  0.16205133687E+04  0.46999998093E+01 0.  1.
       -5    1    3    3    0  502 -0.11885980347E+04 -0.50651162210E+03 -0.14008911508E+04  0.19057380245E+04  0.46999998093E+01 0. -1.
</event>
<event>
 5   0  0.1702345E-05  0.2583950E+04  0.7818609E-02  0.8373673E-01
        2   -1    0    0  501    0  0.00000000000E+00  0.00000000000E+00  0.16513500815E+04  0.16513500815E+04  0.25500000920E-02 0.  1.
       -2   -1    0    0    0  501  0.00000000000E+00  0.00000000000E+00 -0.10108090223E+04  0.10108090223E+04  0.25500000920E-02 0. -1.
    10030    2    1    2    0    0  0.00000000000E+00  0.00000000000E+00  0.64054105918E+03  0.26621591038E+04  0.25839501245E+04 0.  0.
        1    1    3    3  502    0  0.64617956472E+03 -0.73666520143E+03  0.11877628144E+04  0.15398065308E+04  0.50400001928E-02 0.  1.
       -1    1    3    3    0  502 -0.64617956472E+03  0.73666520143E+03 -0.54722175524E+03  0.11223525731E+04  0.50400001928E-02 0. -1.
</event>
<event>
 5   0  0.1677971E-05  0.2586297E+04  0.7818609E-02  0.8372871E-01
        2   -1    0    0  501    0  0.00000000000E+00  0.00000000000E+00  0.12005694767E+04  0.12005694767E+04  0.25500000920E-02 0.  1.
       -2   -1    0    0    0  501  0.00000000000E+00  0.00000000000E+00 -0.13928669904E+04  0.13928669904E+04  0.25500000920E-02 0. -1.
    10030    2    1    2    0    0  0.00000000000E+00  0.00000000000E+00 -0.19229751367E+03  0.25934364671E+04  0.25862974258E+04 0.  0.
        4    1    3    3  502    0 -0.99743985991E+03  0.81466116216E+03  0.21105177935E+02  0.12880241165E+04  0.12699999809E+01 0.  1.
       -4    1    3    3    0  502  0.99743985991E+03 -0.81466116216E+03 -0.21340269160E+03  0.13054123505E+04  0.12699999809E+01 0. -1.
</event>
<event>
 5   0  0.1869956E-05  0.2567070E+04  0.7818609E-02  0.8379474E-01
        2   -1    0    0  501    0  0.00000000000E+00  0.00000000000E+00  0.19470064134E+04  0.19470064134E+04  0.25500000920E-02 0. -1.
       -2   -1    0    0    0  501  0.00000000000E+00  0.00000000000E+00 -0.84615111957E+03  0.84615111958E+03  0.25500000920E-02 0.  1.
    10030    2    1    2    0    0  0.00000000000E+00  0.00000000000E+00  0.11008552938E+04  0.27931575329E+04  0.25670696574E+04 0.  0.
        5    1    3    3  502    0  0.52400618653E+03 -0.10415845478E+04 -0.33451397699E+02  0.11664570030E+04  0.46999998093E+01 0.  1.
       -5    1    3    3    0  502 -0.52400618653E+03  0.10415845478E+04  0.11343066915E+04  0.16267005300E+04  0.46999998093E+01 0. -1.
</event>
<event>
 5   0  0.6918420E-06  0.2500312E+04  0.7818609E-02  0.8402874E-01
        1   -1    0    0  501    0  0.00000000000E+00  0.00000000000E+00  0.11494135923E+04  0.11494135924E+04  0.50400001928E-02 0. -1.
       -1   -1    0    0    0  501  0.00000000000E+00  0.00000000000E+00 -0.13597281284E+04  0.13597281284E+04  0.50400001928E-02 0.  1.
    10030    2    1    2    0    0  0.00000000000E+00  0.00000000000E+00 -0.21031453604E+03  0.25091417207E+04  0.25003119747E+04 0.  0.
        4    1    3    3  502    0 -0.26884765822E+03 -0.19999499902E+03 -0.13138238692E+04  0.13558804649E+04  0.12699999809E+01 0.  1.
       -4    1    3    3    0  502  0.26884765822E+03  0.19999499902E+03  0.11035093332E+04  0.11532612558E+04  0.12699999809E+01 0. -1.
</event>
<event>
 5   0  0.1702345E-05  0.2614173E+04  0.7818609E-02  0.8363403E-01
       -2   -1    0    0    0  501  0.00000000000E+00  0.00000000000E+00  0.10155286571E+04  0.10155286571E+04  0.25500000920E-02 0. -1.
        2   -1    0    0  501    0  0.00000000000E+00  0.00000000000E+00 -0.16823506728E+04  0.16823506728E+04  0.25500000920E-02 0.  1.
    10030    2    1    2    0    0  0.00000000000E+00  0.00000000000E+00 -0.66682201569E+03  0.26978793298E+04  0.26141731537E+04 0.  0.
        1    1    3    3  502    0 -0.56490735065E+03 -0.65258603812E+03 -0.13464145874E+04  0.15993189466E+04  0.50400001928E-02 0.  1.
       -1    1    3    3    0  502  0.56490735065E+03  0.65258603812E+03  0.67959257169E+03  0.10985603832E+04  0.50400001928E-02 0. -1.
</event>
<event>
 5   0  0.6918420E-06  0.2597276E+04  0.7818609E-02  0.8369127E-01
        1   -1    0    0  501    0  0.00000000000E+00  0.00000000000E+00  0.20412058546E+04  0.20412058546E+04  0.50400001928E-02 0. -1.
       -1   -1    0    0    0  501  0.00000000000E+00  0.00000000000E+00 -0.82620821440E+03  0.82620821442E+03  0.50400001928E-02 0.  1.
    10030    2    1    2    0    0  0.00000000000E+00  0.00000000000E+00  0.12149976402E+04  0.28674140690E+04  0.25972762998E+04 0.  0.
        4    1    3    3  502    0  0.88025432843E+03  0.38624073380E+03  0.15714880973E+04  0.18421742697E+04  0.12699999809E+01 0. -1.
       -4    1    3    3    0  502 -0.88025432843E+03 -0.38624073380E+03 -0.35649045710E+03  0.10252397993E+04  0.12699999809E+01 0.  1.
</event>
<event>
 5   0  0.7138294E-06  0.2606899E+04  0.7818609E-02  0.8365862E-01
        1   -1    0    0  501    0  0.00000000000E+00  0.00000000000E+00  0.15246069227E+04  0.15246069227E+04  0.50400001928E-02 0. -1.
       -1   -1    0    0    0  501  0.00000000000E+00  0.00000000000E+00 -0.11143725623E+04  0.11143725623E+04  0.50400001928E-02 0.  1.
    10030    2    1    2    0    0  0.00000000000E+00  0.00000000000E+00  0.41023436040E+03  0.26389794851E+04  0.26068986348E+04 0.  0.
        2    1    3    3  502    0 -0.38684479876E+02  0.12944293932E+04  0.35504850230E+03  0.13427968506E+04  0.25500000920E-02 0. -1.
       -2    1    3    3    0  502  0.38684479876E+02 -0.12944293932E+04  0.55185858098E+02  0.12961826345E+04  0.25500000920E-02 0.  1.
</event>
<event>
 5   0  0.7138294E-06  0.2455008E+04  0.7818609E-02  0.8419192E-01
       -1   -1    0    0    0  501  0.00000000000E+00  0.00000000000E+00  0.91252573455E+03  0.91252573456E+03  0.50400001928E-02 0.  1.
        1   -1    0    0  501    0  0.00000000000E+00  0.00000000000E+00 -0.16512042009E+04  0.16512042009E+04  0.50400001928E-02 0. -1.
    10030    2    1    2    0    0  0.00000000000E+00  0.00000000000E+00 -0.73867846630E+03  0.25637299354E+04  0.24550082088E+04 0.  0.
        2    1    3    3  502    0 -0.55312405850E+03  0.42085806429E+02 -0.15128434514E+04  0.16113388060E+04  0.25500000920E-02 0. -1.
       -2    1    3    3    0  502  0.55312405850E+03 -0.42085806429E+02  0.77416498513E+03  0.95239112942E+03  0.25500000920E-02 0.  1.
</event>
<event>
 5   0  0.6993678E-06  0.2591048E+04  0.7818609E-02  0.8371248E-01
        1   -1    0    0  501    0  0.00000000000E+00  0.00000000000E+00  0.16326854086E+04  0.16326854087E+04  0.50400001928E-02 0.  1.
       -1   -1    0    0    0  501  0.00000000000E+00  0.00000000000E+00 -0.10279885528E+04  0.10279885528E+04  0.50400001928E-02 0. -1.
    10030    2    1    2    0    0  0.00000000000E+00  0.00000000000E+00  0.60469685587E+03  0.26606739614E+04  0.25910475954E+04 0.  0.
        1    1    3    3  502    0 -0.87103849639E+01 -0.90612484688E+03 -0.64840619434E+03  0.11142570179E+04  0.50400001928E-02 0. -1.
       -1    1    3    3    0  502  0.87103849639E+01  0.90612484688E+03  0.12531030502E+04  0.15464169436E+04  0.50400001928E-02 0.  1.
</event>
<event>
 5   0  0.6918420E-06  0.2589892E+04  0.7818609E-02  0.8371643E-01
       -1   -1    0    0    0  501  0.00000000000E+00  0.00000000000E+00  0.25401033716E+04  0.25401033716E+04  0.50400001928E-02 0.  1.
        1   -1    0    0  501    0  0.00000000000E+00  0.00000000000E+00 -0.66016413708E+03  0.66016413710E+03  0.50400001928E-02 0. -1.
    10030    2    1    2    0    0  0.00000000000E+00  0.00000000000E+00  0.18799392345E+04  0.32002675087E+04  0.25898920058E+04 0.  0.
        4    1    3    3  502    0  0.81318708868E+03  0.18003166404E+03  0.21652213303E+04  0.23198857005E+04  0.12699999809E+01 0.  1.
       -4    1    3    3    0  502 -0.81318708868E+03 -0.18003166404E+03 -0.28528209574E+03  0.88038180825E+03  0.12699999809E+01 0. -1.
</event>
<event>
 5   0  0.1677971E-05  0.2450092E+04  0.7818609E-02  0.8420984E-01
       -2   -1    0    0    0  501  0.00000000000E+00  0.00000000000E+00  0.11265834637E+04  0.11265834637E+04  0.25500000920E-02 0.  1.
        2   -1    0    0  501    0  0.00000000000E+00  0.00000000000E+00 -0.13321141601E+04  0.13321141602E+04  0.25500000920E-02 0. -1.
    10030    2    1    2    0    0  0.00000000000E+00  0.00000000000E+00 -0.20553069645E+03  0.24586976239E+04  0.24500920673E+04 0.  0.
        4    1    3    3  502    0 -0.28505904200E+03  0.11185084698E+04 -0.51459233330E+03  0.12637747967E+04  0.12699999809E+01 0. -1.
       -4    1    3    3    0  502  0.28505904200E+03 -0.11185084698E+04  0.30906163685E+03  0.11949228271E+04  0.12699999809E+01 0.  1.
</event>
<event>
 5   0  0.1677971E-05  0.2589025E+04  0.7818609E-02  0.8371939E-01
        2   -1    0    0  501    0  0.00000000000E+00  0.00000000000E+00  0.22442492351E+04  0.22442492351E+04  0.25500000920E-02 0.  1.
       -2   -1    0    0    0  501  0.00000000000E+00  0.00000000000E+00 -0.74669169259E+03  0.74669169260E+03  0.25500000920E-02 0. -1.
    10030    2    1    2    0    0  0.00000000000E+00  0.00000000000E+00  0.14975575425E+04  0.29909409277E+04  0.25890247275E+04 0.  0.
        4    1    3    3  502    0 -0.32329988650E+03  0.40745524347E+03  0.21182203126E+04  0.21811468309E+04  0.12699999809E+01 0.  1.
       -4    1    3    3    0  502  0.32329988650E+03 -0.40745524347E+03 -0.62066277016E+03  0.80979409680E+03  0.12699999809E+01 0. -1.
</event>
<event>
 5   0  0.6706225E-06  0.2602304E+04  0.7818609E-02  0.8367419E-01
        1   -1    0    0  501    0  0.00000000000E+00  0.00000000000E+00  0.10892417124E+04  0.10892417124E+04  0.50400001928E-02 0.  1.
       -1   -1    0    0    0  501  0.00000000000E+00  0.00000000000E+00 -0.15542891331E+04  0.15542891331E+04  0.50400001928E-02 0. -1.
    10030    2    1    2    0    0  0.00000000000E+00  0.00000000000E+00 -0.46504742077E+03  0.26435308455E+04  0.26023040229E+04 0.  0.
        5    1    3    3  502    0  0.11401510219E+04  0.61489064853E+03 -0.35668776840E+03  0.13436082452E+04  0.46999998093E+01 0. -1.
       -5    1    3    3    0  502 -0.11401510219E+04 -0.61489064853E+03 -0.10835965237E+03  0.12999226003E+04  0.46999998093E+01 0.  1.
</event>
<event>
 5   0  0.1681731E-05  0.2518799E+04  0.7818609E-02  0.8396319E-01
        2   -1    0    0  501    0  0.00000000000E+00  0.00000000000E+00  0.16070776688E+04  0.16070776688E+04  0.25500000920E-02 0.  1.
       -2   -1    0    0    0  501  0.00000000000E+00  0.00000000000E+00 -0.98693851032E+03  0.98693851032E+03  0.25500000920E-02 0. -1.
    10030    2    1    2    0    0  0.00000000000E+00  0.00000000000E+00  0.62013915844E+03  0.25940161791E+04  0.25187987934E+04 0.  0.
        2    1    3    3  502    0 -0.29512966062E+02  0.49531092845E+03 -0.88203025531E+03  0.10120184298E+04  0.25500000920E-02 0. -1.
       -2    1    3    3    0  502  0.29512966062E+02 -0.49531092845E+03  0.15021694138E+04  0.15819977493E+04  0.25500000920E-02 0.  1.
</event>
<event>
 5   0  0.6706225E-06  0.2596935E+04  0.7818609E-02  0.8369243E-01
       -1   -1    0    0    0  501  0.00000000000E+00  0.00000000000E+00  0.11591859872E+04  0.11591859872E+04  0.50400001928E-02 0. -1.
        1   -1    0    0  501    0  0.00000000000E+00  0.00000000000E+00 -0.14544840273E+04  0.14544840273E+04  0.50400001928E-02 0.  1.
    10030    2    1    2    0    0  0.00000000000E+00  0.00000000000E+00 -0.29529804011E+03  0.26136700144E+04  0.25969347338E+04 0.  0.
        5    1    3    3  502    0  0.10813296631E+04  0.24381360456E+03 -0.82822898694E+03  0.13837283906E+04  0.46999998093E+01 0. -1.
       -5    1    3    3    0  502 -0.10813296631E+04 -0.24381360456E+03  0.53293094683E+03  0.12299416239E+04  0.46999998093E+01 0.  1.
</event>
<event>
 5   0  0.1702345E-05  0.2606700E+04  0.7818609E-02  0.8365929E-01
        2   -1    0    0  501    0  0.00000000000E+00  0.00000000000E+00  0.11301124491E+04  0.11301124491E+04  0.25500000920E-02 0. -1.
       -2   -1    0    0    0  501  0.00000000000E+00  0.00000000000E+00 -0.15031441121E+04  0.15031441122E+04  0.25500000920E-02 0.  1.
    10030    2    1    2    0    0  0.00000000000E+00  0.00000000000E+00 -0.37303166309E+03  0.26332565612E+04  0.26067004998E+04 0.  0.
        1    1    3    3  502    0 -0.28103528594E+03 -0.11380716109E+04  0.38896673902E+03  0.12351044278E+04  0.50400001928E-02 0. -1.
       -1    1    3    3    0  502  0.28103528594E+03  0.11380716109E+04 -0.76199840211E+03  0.13981521334E+04  0.50400001928E-02 0.  1.
</event>
<event>
 5   0  0.1677971E-05  0.2599387E+04  0.7818609E-02  0.8368410E-01
       -2   -1    0    0    0  501  0.00000000000E+00  0.00000000000E+00  0.15919566636E+04  0.15919566636E+04  0.25500000920E-02 0.  1.
        2   -1    0    0  501    0  0.00000000000E+00  0.00000000000E+00 -0.10610857722E+04  0.10610857722E+04  0.25500000920E-02 0. -1.
    10030    2    1    2    0    0  0.00000000000E+00  0.00000000000E+00  0.53087089145E+03  0.26530424358E+04  0.25993865166E+04 0.  0.
        4    1    3    3  502    0  0.24566926942E+03  0.86301559013E+03  0.12250838717E+04  0.15185458190E+04  0.12699999809E+01 0.  1.
       -4    1    3    3    0  502 -0.24566926942E+03 -0.86301559013E+03 -0.69421298026E+03  0.11344966168E+04  0.12699999809E+01 0. -1.
</event>
<event>
 5   0  0.6706225E-06  0.2600454E+04  0.7818609E-02  0.8368047E-01
        1   -1    0    0  501    0  0.00000000000E+00  0.00000000000E+00  0.19074515522E+04  0.19074515522E+04  0.50400001928E-02 0.  1.
       -1   -1    0    0    0  501  0.00000000000E+00  0.00000000000E+00 -0.88630802816E+03  0.88630802817E+03  0.50400001928E-02 0. -1.
    10030    2    1    2    0    0  0.00000000000E+00  0.00000000000E+00  0.10211435241E+04  0.27937595804E+04  0.26004535174E+04 0.  0.
        5    1    3    3  502    0  0.93372081058E+03 -0.51306472806E+03 -0.29014886254E+03  0.11042094094E+04  0.46999998093E+01 0. -1.
       -5    1    3    3    0  502 -0.93372081058E+03  0.51306472806E+03  0.13112923866E+04  0.16895501710E+04  0.46999998093E+01 0.  1.
</event>
<event>
 5   0  0.1677971E-05  0.2543037E+04  0.7818609E-02  0.8387812E-01
        2   -1    0    0  501    0  0.00000000000E+00  0.00000000000E+00  0.22188975599E+04  0.22188975599E+04  0.25500000920E-02 0. -1.
       -2   -1    0    0    0  501  0.00000000000E+00  0.00000000000E+00 -0.72863162196E+03  0.72863162196E+03  0.25500000920E-02 0.  1.
    10030    2    1    2    0    0  0.00000000000E+00  0.00000000000E+00  0.14902659380E+04  0.29475291819E+04  0.25430367108E+04 0.  0.
        4    1    3    3  502    0 -0.13992150440E+03 -0.97782157509E+03 -0.18287026593E+03  0.10045676718E+04  0.12699999809E+01 0.  1.
       -4    1    3    3    0  502  0.13992150440E+03  0.97782157509E+03  0.16731362039E+04  0.19429615101E+04  0.12699999809E+01 0. -1.
</event>
<event>
 5   0  0.1869956E-05  0.2608154E+04  0.7818609E-02  0.8365437E-01
       -2   -1    0    0    0  501  0.00000000000E+00  0.00000000000E+00  0.14758742577E+04  0.14758742577E+04  0.25500000920E-02 0. -1.
        2   -1    0    0  501    0  0.00000000000E+00  0.00000000000E+00 -0.11522773973E+04  0.11522773973E+04  0.25500000920E-02 0.  1.
    10030    2    1    2    0    0  0.00000000000E+00  0.00000000000E+00  0.32359686035E+03  0.26281516550E+04  0.26081537903E+04 0.  0.
        5    1    3    3  502    0  0.16684738874E+03 -0.50847946790E+03  0.13601201088E+04  0.14616217776E+04  0.46999998093E+01 0. -1.
       -5    1    3    3    0  502 -0.16684738874E+03  0.50847946790E+03 -0.10365232484E+04  0.11665298774E+04  0.46999998093E+01 0.  1.
</event>
<event>
 5   0  0.1702345E-05  0.2548942E+04  0.7818609E-02  0.8385754E-01
        2   -1    0    0  501    0  0.00000000000E+00  0.00000000000E+00  0.90966497516E+03  0.90966497516E+03  0.25500000920E-02 0.  1.
       -2   -1    0    0    0  501  0.00000000000E+00  0.00000000000E+00 -0.17855760895E+04  0.17855760895E+04  0.25500000920E-02 0. -1.
    10030    2    1    2    0    0  0.00000000000E+00  0.00000000000E+00 -0.87591111431E+03  0.26952410646E+04  0.25489417640E+04 0.  0.
        1    1    3    3  502    0  0.33545985079E+03  0.85274880838E+03  0.49863847950E+03  0.10432421459E+04  0.50400001928E-02 0.  1.
       -1    1    3    3    0  502 -0.33545985079E+03 -0.85274880838E+03 -0.13745495938E+04  0.16519989188E+04  0.50400001928E-02 0. -1.
</event>
<event>
 5   0  0.6918420E-06  0.2619253E+04  0.7818609E-02  0.8361691E-01
        1   -1    0    0  501    0  0.00000000000E+00  0.00000000000E+00  0.11844133215E+04  0.11844133215E+04  0.50400001928E-02 0.  1.
       -1   -1    0    0    0  501  0.00000000000E+00  0.00000000000E+00 -0.14480769111E+04  0.14480769111E+04  0.50400001928E-02 0. -1.
    10030    2    1    2    0    0  0.00000000000E+00  0.00000000000E+00 -0.26366358958E+03  0.26324902326E+04  0.26192530112E+04 0.  0.
        4    1    3    3  502    0  0.91701077022E+03  0.92222929257E+03  0.22908473744E+02  0.13007467209E+04  0.12699999809E+01 0.  1.
       -4    1    3    3    0  502 -0.91701077022E+03 -0.92222929257E+03 -0.28657206332E+03  0.13317435118E+04  0.12699999809E+01 0. -1.
</event>
<event>
 5   0  0.1702345E-05  0.2582755E+04  0.7818609E-02  0.8374083E-01
       -2   -1    0    0    0  501  0.00000000000E+00  0.00000000000E+00  0.72829009414E+03  0.72829009414E+03  0.25500000920E-02 0.  1.
        2   -1    0    0  501    0  0.00000000000E+00  0.00000000000E+00 -0.22898240431E+04  0.22898240431E+04  0.25500000920E-02 0. -1.
    10030    2    1    2    0    0  0.00000000000E+00  0.00000000000E+00 -0.15615339490E+04  0.30181141373E+04  0.25827552481E+04 0.  0.
        1    1    3    3  502    0  0.87831855383E+03 -0.19966826440E+03 -0.18621433030E+04  0.20685474563E+04  0.50400001928E-02 0. -1.
       -1    1    3    3    0  502 -0.87831855383E+03  0.19966826440E+03  0.30060935407E+03  0.94956668096E+03  0.50400001928E-02 0.  1.
</event>
<event>
 5   0  0.7138294E-06  0.2588102E+04  0.7818609E-02  0.8372254E-01
        1   -1    0    0  501    0  0.00000000000E+00  0.00000000000E+00  0.15312895194E+04  0.15312895194E+04  0.50400001928E-02 0.  1.
       -1   -1    0    0    0  501  0.00000000000E+00  0.00000000000E+00 -0.10935673399E+04  0.10935673399E+04  0.50400001928E-02 0. -1.
    10030    2    1    2    0    0  0.00000000000E+00  0.00000000000E+00  0.43772217951E+03  0.26248568594E+04  0.25881021668E+04 0.  0.
        2    1    3    3  502    0 -0.25179200950E+03  0.12396868533E+04 -0.57674823650E+02  0.12663131902E+04  0.25500000920E-02 0. -1.
       -2    1    3    3    0  502  0.25179200950E+03 -0.12396868533E+04  0.49539700316E+03  0.13585436692E+04  0.25500000920E-02 0.  1.
</event>
<event>
 5   0  0.1720129E-05  0.2647597E+04  0.7818609E-02  0.8352211E-01
       -2   -1    0    0    0  501  0.00000000000E+00  0.00000000000E+00  0.18378885916E+04  0.18378885916E+04  0.25500000920E-02 0. -1.
        2   -1    0    0  501    0  0.00000000000E+00  0.00000000000E+00 -0.95350849049E+03  0.95350849049E+03  0.25500000920E-02 0.  1.
    10030    2    1    2    0    0  0.00000000000E+00  0.00000000000E+00  0.88438010113E+03  0.27913970821E+04  0.26475969306E+04 0.  0.
        3    1    3    3  502    0  0.91656309102E+03 -0.95136169153E+03  0.53205689089E+03  0.14241704650E+04  0.10100000352E+00 0. -1.
       -3    1    3    3    0  502 -0.91656309102E+03  0.95136169153E+03  0.35232321024E+03  0.13672266171E+04  0.10100000352E+00 0.  1.
</event>
<event>
 5   0  0.6918420E-06  0.2270383E+04  0.7818609E-02  0.8489691E-01
       -1   -1    0    0    0  501  0.00000000000E+00  0.00000000000E+00  0.13857551112E+04  0.13857551112E+04  0.50400001928E-02 0. -1.
        1   -1    0    0  501    0  0.00000000000E+00  0.00000000000E+00 -0.92993294957E+03  0.92993294958E+03  0.50400001928E-02 0.  1.
    10030    2    1    2    0    0  0.00000000000E+00  0.00000000000E+00  0.45582216159E+03  0.23156880608E+04  0.22703826443E+04 0.  0.
        4    1    3    3  502    0 -0.36544920215E+03 -0.10380891169E+04  0.51180980914E+03  0.12137269164E+04  0.12699999809E+01 0.  1.
       -4    1    3    3    0  502  0.36544920215E+03  0.10380891169E+04 -0.55987647546E+02  0.11019611443E+04  0.12699999809E+01 0. -1.
</event>
<event>
 5   0  0.6993678E-06  0.2627890E+04  0.7818609E-02  0.8358789E-01
       -1   -1    0    0    0  501  0.00000000000E+00  0.00000000000E+00  0.10329271055E+04  0.10329271055E+04  0.50400001928E-02 0.  1.
        1   -1    0    0  501    0  0.00000000000E+00  0.00000000000E+00 -0.16714168946E+04  0.16714168946E+04  0.50400001928E-02 0. -1.
    10030    2    1    2    0    0  0.00000000000E+00  0.00000000000E+00 -0.63848978911E+03  0.27043440001E+04  0.26278902679E+04 0.  0.
        1    1    3    3  502    0  0.91761489196E+02 -0.27788766404E+03 -0.16374526632E+04  0.16633980128E+04  0.50400001928E-02 0. -1.
       -1    1    3    3    0  502 -0.91761489196E+02  0.27788766404E+03  0.99896287409E+03  0.10409459873E+04  0.50400001928E-02 0.  1.
</event>
<event>
 5   0  0.1702345E-05  0.2589555E+04  0.7818609E-02  0.8371758E-01
        2   -1    0    0  501    0  0.00000000000E+00  0.00000000000E+00  0.10942200772E+04  0.10942200772E+04  0.25500000920E-02 0. -1.
       -2   -1    0    0    0  501  0.00000000000E+00  0.00000000000E+00 -0.15320943570E+04  0.15320943570E+04  0.25500000920E-02 0.  1.
    10030    2    1    2    0    0  0.00000000000E+00  0.00000000000E+00 -0.43787427981E+03  0.26263144342E+04  0.25895547150E+04 0.  0.
        1    1    3    3  502    0 -0.10709348533E+04  0.38939333083E+03 -0.84241557989E+03  0.14171071362E+04  0.50400001928E-02 0.  1.
       -1    1    3    3    0  502  0.10709348533E+04 -0.38939333083E+03  0.40454130008E+03  0.12092072980E+04  0.50400001928E-02 0. -1.
</event>
<event>
 5   0  0.1677971E-05  0.2596344E+04  0.7818609E-02  0.8369444E-01
       -2   -1    0    0    0  501  0.00000000000E+00  0.00000000000E+00  0.70130093891E+03  0.70130093891E+03  0.25500000920E-02 0.  1.
        2   -1    0    0  501    0  0.00000000000E+00  0.00000000000E+00 -0.24030350846E+04  0.24030350846E+04  0.25500000920E-02 0. -1.
    10030    2    1    2    0    0  0.00000000000E+00  0.00000000000E+00 -0.17017341457E+04  0.31043360235E+04  0.25963441691E+04 0.  0.
        4    1    3    3  502    0 -0.26851264330E+03  0.41483571304E+03 -0.22861836860E+04  0.23389795141E+04  0.12699999809E+01 0. -1.
       -4    1    3    3    0  502  0.26851264330E+03 -0.41483571304E+03  0.58444954030E+03  0.76535650940E+03  0.12699999809E+01 0.  1.
</event>
<event>
 5   0  0.6706225E-06  0.2589725E+04  0.7818609E-02  0.8371700E-01
       -1   -1    0    0    0  501  0.00000000000E+00  0.00000000000E+00  0.13736677593E+04  0.13736677593E+04  0.50400001928E-02 0.  1.
        1   -1    0    0  501    0  0.00000000000E+00  0.00000000000E+00 -0.12205780859E+04  0.12205780859E+04  0.50400001928E-02 0. -1.
    10030    2    1    2    0    0  0.00000000000E+00  0.00000000000E+00  0.15308967344E+03  0.25942458452E+04  0.25897248999E+04 0.  0.
        5    1    3    3  502    0 -0.87691332358E+03  0.57703989435E+03  0.83595442690E+03  0.13419366269E+04  0.46999998093E+01 0.  1.
       -5    1    3    3    0  502  0.87691332358E+03 -0.57703989435E+03 -0.68286475346E+03  0.12523092183E+04  0.46999998093E+01 0. -1.
</event>
<event>
 5   0  0.1702345E-05  0.2630309E+04  0.7818609E-02  0.8357978E-01
        2   -1    0    0  501    0  0.00000000000E+00  0.00000000000E+00  0.65183869307E+03  0.65183869307E+03  0.25500000920E-02 0.  1.
       -2   -1    0    0    0  501  0.00000000000E+00  0.00000000000E+00 -0.26534655770E+04  0.26534655770E+04  0.25500000920E-02 0. -1.
    10030    2    1    2    0    0  0.00000000000E+00  0.00000000000E+00 -0.20016268840E+04  0.33053042701E+04  0.26303091330E+04 0.  0.
        1    1    3    3  502    0 -0.75526666815E+03  0.14861818900E+03 -0.23408206011E+04  0.24641339640E+04  0.50400001928E-02 0. -1.
       -1    1    3    3    0  502  0.75526666815E+03 -0.14861818900E+03  0.33919371711E+03  0.84117030610E+03  0.50400001928E-02 0.  1.
</event>
<event>
 5   0  0.1720129E-05  0.2609763E+04  0.7818609E-02  0.8364893E-01
        2   -1    0    0  501    0  0.00000000000E+00  0.00000000000E+00  0.16785371826E+04  0.16785371826E+04  0.25500000920E-02 0.  1.
       -2   -1    0    0    0  501  0.00000000000E+00  0.00000000000E+00 -0.10144043668E+04  0.10144043668E+04  0.25500000920E-02 0. -1.
    10030    2    1    2    0    0  0.00000000000E+00  0.00000000000E+00  0.66413281583E+03  0.26929415493E+04  0.26097627844E+04 0.  0.
        3    1    3    3  502    0  0.51994144705E+03 -0.72576586888E+03  0.13140489055E+04  0.15886471418E+04  0.10100000352E+00 0.  1.
       -3    1    3    3    0  502 -0.51994144705E+03  0.72576586888E+03 -0.64991608967E+03  0.11042944076E+04  0.10100000352E+00 0. -1.
</event>
<event>
 5   0  0.6993678E-06  0.2601312E+04  0.7818609E-02  0.8367756E-01
        1   -1    0    0  501    0  0.00000000000E+00  0.00000000000E+00  0.12702286228E+04  0.12702286228E+04  0.50400001928E-02 0. -1.
       -1   -1    0    0    0  501  0.00000000000E+00  0.00000000000E+00 -0.13318124326E+04  0.13318124326E+04  0.50400001928E-02 0.  1.
    10030    2    1    2    0    0  0.00000000000E+00  0.00000000000E+00 -0.61583809820E+02  0.26020410554E+04  0.26013121859E+04 0.  0.
        1    1    3    3  502    0  0.83115703291E+03  0.14467948544E+03  0.95941076812E+03  0.12775849048E+04  0.50400001928E-02 0. -1.
       -1    1    3    3    0  502 -0.83115703291E+03 -0.14467948544E+03 -0.10209945779E+04  0.13244561507E+04  0.50400001928E-02 0.  1.
</event>
<event>
 5   0  0.6993678E-06  0.2599570E+04  0.7818609E-02  0.8368347E-01
        1   -1    0    0  501    0  0.00000000000E+00  0.00000000000E+00  0.17002982029E+04  0.17002982029E+04  0.50400001928E-02 0.  1.
       -1   -1    0    0    0  501  0.00000000000E+00  0.00000000000E+00 -0.99361438582E+03  0.99361438583E+03  0.50400001928E-02 0. -1.
    10030    2    1    2    0    0  0.00000000000E+00  0.00000000000E+00  0.70668381708E+03  0.26939125887E+04  0.25995697756E+04 0.  0.
        1    1    3    3  502    0  0.99005814806E+02 -0.12871839906E+04  0.19687909630E+03  0.13059120015E+04  0.50400001928E-02 0. -1.
       -1    1    3    3    0  502 -0.99005814806E+02  0.12871839906E+04  0.50980472078E+03  0.13880005873E+04  0.50400001928E-02 0.  1.
</event>
<event>
 5   0  0.6984287E-06  0.2598934E+04  0.7818609E-02  0.8368563E-01
       -1   -1    0    0    0  501  0.00000000000E+00  0.00000000000E+00  0.59504450436E+03  0.59504450439E+03  0.50400001928E-02 0. -1.
        1   -1    0    0  501    0  0.00000000000E+00  0.00000000000E+00 -0.28377958788E+04  0.28377958788E+04  0.50400001928E-02 0.  1.
    10030    2    1    2    0    0  0.00000000000E+00  0.00000000000E+00 -0.22427513744E+04  0.34328403832E+04  0.25989342756E+04 0.  0.
        3    1    3    3  502    0  0.49206838035E+03  0.33854499740E+03 -0.26457420843E+04  0.27123228409E+04  0.10100000352E+00 0.  1.
       -3    1    3    3    0  502 -0.49206838035E+03 -0.33854499740E+03  0.40299070994E+03  0.72051754226E+03  0.10100000352E+00 0. -1.
</event>
<event>
 5   0  0.6706225E-06  0.2604853E+04  0.7818609E-02  0.8366555E-01
        1   -1    0    0  501    0  0.00000000000E+00  0.00000000000E+00  0.30718554735E+04  0.30718554735E+04  0.50400001928E-02 0.  1.
       -1   -1    0    0    0  501  0.00000000000E+00  0.00000000000E+00 -0.55221160255E+03  0.55221160257E+03  0.50400001928E-02 0. -1.
    10030    2    1    2    0    0  0.00000000000E+00  0.00000000000E+00  0.25196438709E+04  0.36240670761E+04  0.26048525746E+04 0.  0.
        5    1    3    3  502    0  0.32812246092E+03  0.12261090943E+04  0.85352122612E+03  0.15295517101E+04  0.46999998093E+01 0. -1.
       -5    1    3    3    0  502 -0.32812246092E+03 -0.12261090943E+04  0.16661226448E+04  0.20945153659E+04  0.46999998093E+01 0.  1.
</event>
<event>
 5   0  0.6706225E-06  0.2597874E+04  0.7818609E-02  0.8368924E-01
        1   -1    0    0  501    0  0.00000000000E+00  0.00000000000E+00  0.16547676426E+04  0.16547676426E+04  0.50400001928E-02 0. -1.
       -1   -1    0    0    0  501  0.00000000000E+00  0.00000000000E+00 -0.10196222295E+04  0.10196222295E+04  0.50400001928E-02 0.  1.
    10030    2    1    2    0    0  0.00000000000E+00  0.00000000000E+00  0.63514541314E+03  0.26743898721E+04  0.25978744181E+04 0.  0.
        5    1    3    3  502    0 -0.32358566757E+03 -0.11710989917E+04  0.79048877198E+03  0.14495085792E+04  0.46999998093E+01 0.  1.
       -5    1    3    3    0  502  0.32358566757E+03  0.11710989917E+04 -0.15534335883E+03  0.12248812929E+04  0.46999998093E+01 0. -1.
</event>
<event>
 5   0  0.1677971E-05  0.2597581E+04  0.7818609E-02  0.8369024E-01
       -2   -1    0    0    0  501  0.00000000000E+00  0.00000000000E+00  0.10977035215E+04  0.10977035215E+04  0.25500000920E-02 0. -1.
        2   -1    0    0  501    0  0.00000000000E+00  0.00000000000E+00 -0.15367137961E+04  0.15367137961E+04  0.25500000920E-02 0.  1.
    10030    2    1    2    0    0  0.00000000000E+00  0.00000000000E+00 -0.43901027465E+03  0.26344173176E+04  0.25975805246E+04 0.  0.
        4    1    3    3  502    0  0.47234880984E+03  0.11721717438E+04 -0.52334430626E+03  0.13678416835E+04  0.12699999809E+01 0.  1.
       -4    1    3    3    0  502 -0.47234880984E+03 -0.11721717438E+04  0.84334031608E+02  0.12665756341E+04  0.12699999809E+01 0. -1.
</event>
<event>
 5   0  0.1702345E-05  0.2613117E+04  0.7818609E-02  0.8363759E-01
       -2   -1    0    0    0  501  0.00000000000E+00  0.00000000000E+00  0.12857572848E+04  0.12857572848E+04  0.25500000920E-02 0.  1.
        2   -1    0    0  501    0  0.00000000000E+00  0.00000000000E+00 -0.13276957613E+04  0.13276957613E+04  0.25500000920E-02 0. -1.
    10030    2    1    2    0    0  0.00000000000E+00  0.00000000000E+00 -0.41938476498E+02  0.26134530462E+04  0.26131165280E+04 0.  0.
        1    1    3    3  502    0  0.17085667742E+03 -0.58236610163E+03 -0.11781628473E+04  0.13252961840E+04  0.50400001928E-02 0. -1.
       -1    1    3    3    0  502 -0.17085667742E+03  0.58236610163E+03  0.11362243708E+04  0.12881568621E+04  0.50400001928E-02 0.  1.
</event>
<event>
 5   0  0.7138294E-06  0.2593162E+04  0.7818609E-02  0.8370528E-01
        1   -1    0    0  501    0  0.00000000000E+00  0.00000000000E+00  0.10551003708E+04  0.10551003708E+04  0.50400001928E-02 0.  1.
       -1   -1    0    0    0  501  0.00000000000E+00  0.00000000000E+00 -0.15933295823E+04  0.15933295823E+04  0.50400001928E-02 0. -1.
    10030    2    1    2    0    0  0.00000000000E+00  0.00000000000E+00 -0.53822921146E+03  0.26484299531E+04  0.25931622650E+04 0.  0.
        2    1    3    3  502    0  0.12248019366E+04  0.40387691589E+03 -0.13260099957E+03  0.12964718941E+04  0.25500000920E-02 0. -1.
       -2    1    3    3    0  502 -0.12248019366E+04 -0.40387691589E+03 -0.40562821189E+03  0.13519580590E+04  0.25500000920E-02 0.  1.
</event>
<event>
 5   0  0.1869956E-05  0.2190570E+04  0.7818609E-02  0.8522363E-01
       -2   -1    0    0    0  501  0.00000000000E+00  0.00000000000E+00  0.85058601952E+03  0.85058601953E+03  0.25500000920E-02 0. -1.
        2   -1    0    0  501    0  0.00000000000E+00  0.00000000000E+00 -0.14103795998E+04  0.14103795998E+04  0.25500000920E-02 0.  1.
    10030    2    1    2    0    0  0.00000000000E+00  0.00000000000E+00 -0.55979358025E+03  0.22609656193E+04  0.21905699439E+04 0.  0.
        5    1    3    3  502    0 -0.81639865869E+02 -0.34433106471E+03  0.78994474739E+03  0.86560022167E+03  0.46999998093E+01 0. -1.
       -5    1    3    3    0  502  0.81639865869E+02  0.34433106471E+03 -0.13497383276E+04  0.13953653976E+04  0.46999998093E+01 0.  1.
</event>
<event>
 5   0  0.7138294E-06  0.2555855E+04  0.7818609E-02  0.8383353E-01
       -1   -1    0    0    0  501  0.00000000000E+00  0.00000000000E+00  0.15352835716E+04  0.15352835716E+04  0.50400001928E-02 0. -1.
        1   -1    0    0  501    0  0.00000000000E+00  0.00000000000E+00 -0.10637117342E+04  0.10637117342E+04  0.50400001928E-02 0.  1.
    10030    2    1    2    0    0  0.00000000000E+00  0.00000000000E+00  0.47157183740E+03  0.25989953058E+04  0.25558553561E+04 0.  0.
        2    1    3    3  502    0 -0.53048716923E+03 -0.11379332814E+04  0.47811555849E+03  0.13434668872E+04  0.25500000920E-02 0.  1.
       -2    1    3    3    0  502  0.53048716923E+03  0.11379332814E+04 -0.65437210923E+01  0.12555284186E+04  0.25500000920E-02 0. -1.
</event>
<event>
 5   0  0.1681731E-05  0.2736839E+04  0.7818609E-02  0.8323150E-01
       -2   -1    0    0    0  501  0.00000000000E+00  0.00000000000E+00  0.71895773711E+03  0.71895773711E+03  0.25500000920E-02 0.  1.
        2   -1    0    0  501    0  0.00000000000E+00  0.00000000000E+00 -0.26045643519E+04  0.26045643519E+04  0.25500000920E-02 0. -1.
    10030    2    1    2    0    0  0.00000000000E+00  0.00000000000E+00 -0.18856066148E+04  0.33235220890E+04  0.27368388280E+04 0.  0.
        2    1    3    3  502    0 -0.60538313394E+03 -0.64436530976E+03  0.32554081430E+03  0.94216358084E+03  0.25500000920E-02 0.  1.
       -2    1    3    3    0  502  0.60538313394E+03  0.64436530976E+03 -0.22111474290E+04  0.23813585081E+04  0.25500000920E-02 0. -1.
</event>
<event>
 5   0  0.1720129E-05  0.2594373E+04  0.7818609E-02  0.8370115E-01
       -2   -1    0    0    0  501  0.00000000000E+00  0.00000000000E+00  0.13359551616E+04  0.13359551616E+04  0.25500000920E-02 0.  1.
        2   -1    0    0  501    0  0.00000000000E+00  0.00000000000E+00 -0.12595433171E+04  0.12595433171E+04  0.25500000920E-02 0. -1.
    10030    2    1    2    0    0  0.00000000000E+00  0.00000000000E+00  0.76411844506E+02  0.25954984787E+04  0.25943734471E+04 0.  0.
        3    1    3    3  502    0 -0.83806012830E+03  0.11736563948E+03  0.10217771658E+04  0.13267057167E+04  0.10100000352E+00 0.  1.
       -3    1    3    3    0  502  0.83806012830E+03 -0.11736563948E+03 -0.94536532130E+03  0.12687927620E+04  0.10100000352E+00 0. -1.
</event>
<event>
 5   0  0.1702345E-05  0.2614755E+04  0.7818609E-02  0.8363206E-01
       -2   -1    0    0    0  501  0.00000000000E+00  0.00000000000E+00  0.18675610828E+04  0.18675610828E+04  0.25500000920E-02 0. -1.
        2   -1    0    0  501    0  0.00000000000E+00  0.00000000000E+00 -0.91522366817E+03  0.91522366817E+03  0.25500000920E-02 0.  1.
    10030    2    1    2    0    0  0.00000000000E+00  0.00000000000E+00  0.95233741465E+03  0.27827847510E+04  0.26147551356E+04 0.  0.
        1    1    3    3  502    0 -0.44220394870E+03  0.11480492682E+04  0.53910176046E+01  0.12302806662E+04  0.50400001928E-02 0.  1.
       -1    1    3    3    0  502  0.44220394870E+03 -0.11480492682E+04  0.94694639705E+03  0.15525040848E+04  0.50400001928E-02 0. -1.
</event>
<event>
 5   0  0.1677971E-05  0.2552088E+04  0.7818609E-02  0.8384660E-01
        2   -1    0    0  501    0  0.00000000000E+00  0.00000000000E+00  0.11462235658E+04  0.11462235658E+04  0.25500000920E-02 0. -1.
       -2   -1    0    0    0  501  0.00000000000E+00  0.00000000000E+00 -0.14205682838E+04  0.14205682838E+04  0.25500000920E-02 0.  1.
    10030    2    1    2    0    0  0.00000000000E+00  0.00000000000E+00 -0.27434471802E+03  0.25667918495E+04  0.25520884339E+04 0.  0.
        4    1    3    3  502    0 -0.53377316487E+02 -0.12101206240E+04  0.26644527324E+03  0.12402563279E+04  0.12699999809E+01 0. -1.
       -4    1    3    3    0  502  0.53377316487E+02  0.12101206240E+04 -0.54078999125E+03  0.13265355216E+04  0.12699999809E+01 0.  1.
</event>
<event>
 5   0  0.6706225E-06  0.2627198E+04  0.7818609E-02  0.8359021E-01
        1   -1    0    0  501    0  0.00000000000E+00  0.00000000000E+00  0.14216422334E+04  0.14216422334E+04  0.50400001928E-02 0.  1.
       -1   -1    0    0    0  501  0.00000000000E+00  0.00000000000E+00 -0.12137666044E+04  0.12137666044E+04  0.50400001928E-02 0. -1.
    10030    2    1    2    0    0  0.00000000000E+00  0.00000000000E+00  0.20787562901E+03  0.26354088378E+04  0.26271976449E+04 0.  0.
        5    1    3    3  502    0  0.14751174357E+02  0.37313933041E+02 -0.12131433149E+04  0.12138157682E+04  0.46999998093E+01 0. -1.
       -5    1    3    3    0  502 -0.14751174357E+02 -0.37313933041E+02  0.14210189439E+04  0.14215930696E+04  0.46999998093E+01 0.  1.
</event>
<event>
 5   0  0.6918420E-06  0.2606691E+04  0.7818609E-02  0.8365932E-01
       -1   -1    0    0    0  501  0.00000000000E+00  0.00000000000E+00  0.13357617847E+04  0.13357617847E+04  0.50400001928E-02 0. -1.
        1   -1    0    0  501    0  0.00000000000E+00  0.00000000000E+00 -0.12717157122E+04  0.12717157122E+04  0.50400001928E-02 0.  1.
    10030    2    1    2    0    0  0.00000000000E+00  0.00000000000E+00  0.64046072547E+02  0.26074774969E+04  0.26066908136E+04 0.  0.
        4    1    3    3  502    0 -0.50794500336E+03  0.11980933978E+04 -0.40605489228E+02  0.13019548129E+04  0.12699999809E+01 0.  1.
       -4    1    3    3    0  502  0.50794500336E+03 -0.11980933978E+04  0.10465156178E+03  0.13055226840E+04  0.12699999809E+01 0. -1.
</event>
<event>
 5   0  0.6706225E-06  0.2602689E+04  0.7818609E-02  0.8367288E-01
       -1   -1    0    0    0  501  0.00000000000E+00  0.00000000000E+00  0.14865325799E+04  0.14865325800E+04  0.50400001928E-02 0.  1.
        1   -1    0    0  501    0  0.00000000000E+00  0.00000000000E+00 -0.11392265726E+04  0.11392265726E+04  0.50400001928E-02 0. -1.
    10030    2    1    2    0    0  0.00000000000E+00  0.00000000000E+00  0.34730600735E+03  0.26257591526E+04  0.26026889296E+04 0.  0.
        5    1    3    3  502    0  0.33066409204E+03  0.13243180196E+03  0.14363858071E+04  0.14798997266E+04  0.46999998093E+01 0.  1.
       -5    1    3    3    0  502 -0.33066409204E+03 -0.13243180196E+03 -0.10890797997E+04  0.11458594260E+04  0.46999998093E+01 0. -1.
</event>
<event>
 5   0  0.1720129E-05  0.2595606E+04  0.7818609E-02  0.8369695E-01
        2   -1    0    0  501    0  0.00000000000E+00  0.00000000000E+00  0.15224409235E+04  0.15224409235E+04  0.25500000920E-02 0.  1.
       -2   -1    0    0    0  501  0.00000000000E+00  0.00000000000E+00 -0.11063105709E+04  0.11063105709E+04  0.25500000920E-02 0. -1.
    10030    2    1    2    0    0  0.00000000000E+00  0.00000000000E+00  0.41613035264E+03  0.26287514944E+04  0.25956058925E+04 0.  0.
        3    1    3    3  502    0  0.73621610750E+03  0.80787380188E+03  0.91672787793E+03  0.14265567809E+04  0.10100000352E+00 0.  1.
       -3    1    3    3    0  502 -0.73621610750E+03 -0.80787380188E+03 -0.50059752529E+03  0.12021947135E+04  0.10100000352E+00 0. -1.
</event>
<event>
 5   0  0.1681731E-05  0.2584239E+04  0.7818609E-02  0.8373575E-01
        2   -1    0    0  501    0  0.00000000000E+00  0.00000000000E+00  0.53790725378E+03  0.53790725378E+03  0.25500000920E-02 0.  1.
       -2   -1    0    0    0  501  0.00000000000E+00  0.00000000000E+00 -0.31038304773E+04  0.31038304773E+04  0.25500000920E-02 0. -1.
    10030    2    1    2    0    0  0.00000000000E+00  0.00000000000E+00 -0.25659232235E+04  0.36417377311E+04  0.25842390975E+04 0.  0.
        2    1    3    3  502    0  0.12016002311E+03  0.43896923139E+03 -0.29871400944E+04  0.30216118813E+04  0.25500000920E-02 0. -1.
       -2    1    3    3    0  502 -0.12016002311E+03 -0.43896923139E+03  0.42121687091E+03  0.62012584981E+03  0.25500000920E-02 0.  1.
</event>
<event>
 5   0  0.1869956E-05  0.2558210E+04  0.7818609E-02  0.8382536E-01
        2   -1    0    0  501    0  0.00000000000E+00  0.00000000000E+00  0.13854955680E+04  0.13854955680E+04  0.25500000920E-02 0. -1.
       -2   -1    0    0    0  501  0.00000000000E+00  0.00000000000E+00 -0.11808843871E+04  0.11808843871E+04  0.25500000920E-02 0.  1.
    10030    2    1    2    0    0  0.00000000000E+00  0.00000000000E+00  0.20461118091E+03  0.25663799552E+04  0.25582103782E+04 0.  0.
        5    1    3    3  502    0  0.11154211875E+04 -0.57252464323E+03  0.35637134805E+03  0.13034460175E+04  0.46999998093E+01 0. -1.
       -5    1    3    3    0  502 -0.11154211875E+04  0.57252464323E+03 -0.15176016715E+03  0.12629339377E+04  0.46999998093E+01 0.  1.
</event>
<event>
 5   0  0.6918420E-06  0.2198704E+04  0.7818609E-02  0.8518968E-01
        1   -1    0    0  501    0  0.00000000000E+00  0.00000000000E+00  0.74922373903E+03  0.74922373905E+03  0.50400001928E-02 0.  1.
       -1   -1    0    0    0  501  0.00000000000E+00  0.00000000000E+00 -0.16131030816E+04  0.16131030816E+04  0.50400001928E-02 0. -1.
    10030    2    1    2    0    0  0.00000000000E+00  0.00000000000E+00 -0.86387934254E+03  0.23623268206E+04  0.21987042750E+04 0.  0.
        4    1    3    3  502    0 -0.35943211061E+03 -0.62469242874E+03 -0.13238626275E+04  0.15073307341E+04  0.12699999809E+01 0. -1.
       -4    1    3    3    0  502  0.35943211061E+03  0.62469242874E+03  0.45998328492E+03  0.85499608652E+03  0.12699999809E+01 0.  1.
</event>
<event>
 5   0  0.6993678E-06  0.2665218E+04  0.7818609E-02  0.8346379E-01
        1   -1    0    0  501    0  0.00000000000E+00  0.00000000000E+00  0.21340156117E+04  0.21340156117E+04  0.50400001928E-02 0. -1.
       -1   -1    0    0    0  501  0.00000000000E+00  0.00000000000E+00 -0.83216229712E+03  0.83216229713E+03  0.50400001928E-02 0.  1.
    10030    2    1    2    0    0  0.00000000000E+00  0.00000000000E+00  0.13018533146E+04  0.29661779088E+04  0.26652184402E+04 0.  0.
        1    1    3    3  502    0  0.68080491512E+03 -0.38811651666E+03  0.18504664669E+04  0.20095660995E+04  0.50400001928E-02 0. -1.
       -1    1    3    3    0  502 -0.68080491512E+03  0.38811651666E+03 -0.54861315230E+03  0.95661180939E+03  0.50400001928E-02 0.  1.
</event>
<event>
 5   0  0.1681731E-05  0.2596965E+04  0.7818609E-02  0.8369233E-01
        2   -1    0    0  501    0  0.00000000000E+00  0.00000000000E+00  0.11644202835E+04  0.11644202835E+04  0.25500000920E-02 0.  1.
       -2   -1    0    0    0  501  0.00000000000E+00  0.00000000000E+00 -0.14479792765E+04  0.14479792765E+04  0.25500000920E-02 0. -1.
    10030    2    1    2    0    0  0.00000000000E+00  0.00000000000E+00 -0.28355899292E+03  0.26123995600E+04  0.25969647203E+04 0.  0.
        2    1    3    3  502    0 -0.20976172930E+01 -0.17256910309E+03  0.11528317481E+04  0.11656781437E+04  0.25500000920E-02 0.  1.
       -2    1    3    3    0  502  0.20976172930E+01  0.17256910309E+03 -0.14363907410E+04  0.14467214163E+04  0.25500000920E-02 0. -1.
</event>
<event>
 5   0  0.5840500E-06  0.2657953E+04  0.7818609E-02  0.8348778E-01
       -3   -1    0    0    0  501  0.00000000000E+00  0.00000000000E+00  0.10493084797E+04  0.10493084846E+04  0.10100000352E+00 0. -1.
        3   -1    0    0  501    0  0.00000000000E+00  0.00000000000E+00 -0.16831834030E+04  0.16831834060E+04  0.10100000352E+00 0.  1.
    10030    2    1    2    0    0  0.00000000000E+00  0.00000000000E+00 -0.63387492322E+03  0.27324918906E+04  0.26579530684E+04 0.  0.
        5    1    3    3  502    0 -0.96503015844E+03  0.67015382598E+03 -0.95545703132E+03  0.15143677182E+04  0.46999998093E+01 0.  1.
       -5    1    3    3    0  502  0.96503015844E+03 -0.67015382598E+03  0.32158210810E+03  0.12181241724E+04  0.46999998093E+01 0. -1.
</event>
<event>
 5   0  0.6918420E-06  0.2534827E+04  0.7818609E-02  0.8390682E-01
       -1   -1    0    0    0  501  0.00000000000E+00  0.00000000000E+00  0.95982543377E+03  0.95982543378E+03  0.50400001928E-02 0. -1.
        1   -1    0    0  501    0  0.00000000000E+00  0.00000000000E+00 -0.16735722486E+04  0.16735722486E+04  0.50400001928E-02 0.  1.
    10030    2    1    2    0    0  0.00000000000E+00  0.00000000000E+00 -0.71374681479E+03  0.26333976823E+04  0.25348271810E+04 0.  0.
        4    1    3    3  502    0 -0.97770786278E+03  0.59554796538E+03  0.20809895689E+03  0.11635707253E+04  0.12699999809E+01 0. -1.
       -4    1    3    3    0  502  0.97770786278E+03 -0.59554796538E+03 -0.92184577168E+03  0.14698269570E+04  0.12699999809E+01 0.  1.
</event>
<event>
 5   0  0.1677971E-05  0.2584569E+04  0.7818609E-02  0.8373462E-01
        2   -1    0    0  501    0  0.00000000000E+00  0.00000000000E+00  0.12597919981E+04  0.12597919981E+04  0.25500000920E-02 0. -1.
       -2   -1    0    0    0  501  0.00000000000E+00  0.00000000000E+00 -0.13256148650E+04  0.13256148650E+04  0.25500000920E-02 0.  1.
    10030    2    1    2    0    0  0.00000000000E+00  0.00000000000E+00 -0.65822866924E+02  0.25854068631E+04  0.25845688224E+04 0.  0.
        4    1    3    3  502    0 -0.13882712886E+02  0.11963499120E+04  0.45566432263E+03  0.12802645936E+04  0.12699999809E+01 0.  1.
       -4    1    3    3    0  502  0.13882712886E+02 -0.11963499120E+04 -0.52148718956E+03  0.13051422695E+04  0.12699999809E+01 0. -1.
</event>
<event>
 5   0  0.6706225E-06  0.2589559E+04  0.7818609E-02  0.8371756E-01
        1   -1    0    0  501    0  0.00000000000E+00  0.00000000000E+00  0.14431323287E+04  0.14431323287E+04  0.50400001928E-02 0. -1.
       -1   -1    0    0    0  501  0.00000000000E+00  0.00000000000E+00 -0.11616770799E+04  0.11616770800E+04  0.50400001928E-02 0.  1.
    10030    2    1    2    0    0  0.00000000000E+00  0.00000000000E+00  0.28145524878E+03  0.26048094087E+04  0.25895588424E+04 0.  0.
        5    1    3    3  502    0  0.10256190028E+04  0.56076713552E+03  0.70085309682E+03  0.13629274642E+04  0.46999998093E+01 0. -1.
       -5    1    3    3    0  502 -0.10256190028E+04 -0.56076713552E+03 -0.41939784804E+03  0.12418819445E+04  0.46999998093E+01 0.  1.
</event>
<event>
 5   0  0.1720129E-05  0.2602558E+04  0.7818609E-02  0.8367333E-01
       -2   -1    0    0    0  501  0.00000000000E+00  0.00000000000E+00  0.10363904590E+04  0.10363904590E+04  0.25500000920E-02 0.  1.
        2   -1    0    0  501    0  0.00000000000E+00  0.00000000000E+00 -0.16338695273E+04  0.16338695273E+04  0.25500000920E-02 0. -1.
    10030    2    1    2    0    0  0.00000000000E+00  0.00000000000E+00 -0.59747906829E+03  0.26702599863E+04  0.26025578105E+04 0.  0.
        3    1    3    3  502    0  0.69530922802E+02 -0.11529154000E+04 -0.91373039567E+03  0.14727361322E+04  0.10100000352E+00 0.  1.
       -3    1    3    3    0  502 -0.69530922802E+02  0.11529154000E+04  0.31625132738E+03  0.11975238541E+04  0.10100000352E+00 0. -1.
</event>
<event>
 5   0  0.1702345E-05  0.2592943E+04  0.7818609E-02  0.8370602E-01
        2   -1    0    0  501    0  0.00000000000E+00  0.00000000000E+00  0.16225407065E+04  0.16225407065E+04  0.25500000920E-02 0. -1.
       -2   -1    0    0    0  501  0.00000000000E+00  0.00000000000E+00 -0.10359299855E+04  0.10359299855E+04  0.25500000920E-02 0.  1.
    10030    2    1    2    0    0  0.00000000000E+00  0.00000000000E+00  0.58661072103E+03  0.26584706920E+04  0.25929431699E+04 0.  0.
        1    1    3    3  502    0  0.67710867486E+03 -0.10497005237E+04  0.64919601641E+03  0.14077651846E+04  0.50400001928E-02 0.  1.
       -1    1    3    3    0  502 -0.67710867486E+03  0.10497005237E+04 -0.62585295377E+02  0.12507055074E+04  0.50400001928E-02 0. -1.
</event>
<event>
 5   0  0.6984287E-06  0.2605097E+04  0.7818609E-02  0.8366472E-01
        1   -1    0    0  501    0  0.00000000000E+00  0.00000000000E+00  0.16393653178E+04  0.16393653178E+04  0.50400001928E-02 0. -1.
       -1   -1    0    0    0  501  0.00000000000E+00  0.00000000000E+00 -0.10349324872E+04  0.10349324872E+04  0.50400001928E-02 0.  1.
    10030    2    1    2    0    0  0.00000000000E+00  0.00000000000E+00  0.60443283055E+03  0.26742978050E+04  0.26050968702E+04 0.  0.
        3    1    3    3  502    0  0.57917538770E+03 -0.10762029441E+04 -0.16027929646E+03  0.12326176900E+04  0.10100000352E+00 0.  1.
       -3    1    3    3    0  502 -0.57917538770E+03  0.10762029441E+04  0.76471212701E+03  0.14416801150E+04  0.10100000352E+00 0. -1.
</event>
<event>
 5   0  0.6918420E-06  0.2600549E+04  0.7818609E-02  0.8368015E-01
        1   -1    0    0  501    0  0.00000000000E+00  0.00000000000E+00  0.14043011637E+04  0.14043011637E+04  0.50400001928E-02 0.  1.
       -1   -1    0    0    0  501  0.00000000000E+00  0.00000000000E+00 -0.12039536599E+04  0.12039536599E+04  0.50400001928E-02 0. -1.
    10030    2    1    2    0    0  0.00000000000E+00  0.00000000000E+00  0.20034750380E+03  0.26082548235E+04  0.26005488079E+04 0.  0.
        4    1    3    3  502    0  0.29309300395E+03 -0.35194933730E+03 -0.11203711238E+04  0.12103738732E+04  0.12699999809E+01 0. -1.
       -4    1    3    3    0  502 -0.29309300395E+03  0.35194933730E+03  0.13207186276E+04  0.13978809503E+04  0.12699999809E+01 0.  1.
</event>
<event>
 5   0  0.6918420E-06  0.2496998E+04  0.7818609E-02  0.8404056E-01
       -1   -1    0    0    0  501  0.00000000000E+00  0.00000000000E+00  0.13612885824E+04  0.13612885824E+04  0.50400001928E-02 0.  1.
        1   -1    0    0  501    0  0.00000000000E+00  0.00000000000E+00 -0.11450542226E+04  0.11450542226E+04  0.50400001928E-02 0. -1.
    10030    2    1    2    0    0  0.00000000000E+00  0.00000000000E+00  0.21623435981E+03  0.25063428050E+04  0.24969975886E+04 0.  0.
        4    1    3    3  502    0 -0.60296476681E+03 -0.18273698683E+03 -0.97377965320E+03  0.11598309111E+04  0.12699999809E+01 0. -1.
       -4    1    3    3    0  502  0.60296476681E+03  0.18273698683E+03  0.11900140130E+04  0.13465118939E+04  0.12699999809E+01 0.  1.
</event>
<event>
 5   0  0.6918420E-06  0.2284764E+04  0.7818609E-02  0.8483953E-01
        1   -1    0    0  501    0  0.00000000000E+00  0.00000000000E+00  0.20111255101E+04  0.20111255101E+04  0.50400001928E-02 0.  1.
       -1   -1    0    0    0  501  0.00000000000E+00  0.00000000000E+00 -0.64890867968E+03  0.64890867970E+03  0.50400001928E-02 0. -1.
    10030    2    1    2    0    0  0.00000000000E+00  0.00000000000E+00  0.13622168305E+04  0.26600341899E+04  0.22847641449E+04 0.  0.
        4    1    3    3  502    0 -0.74212553073E+02  0.79093496545E+03  0.16368919449E+04  0.18194786272E+04  0.12699999809E+01 0.  1.
       -4    1    3    3    0  502  0.74212553073E+02 -0.79093496545E+03 -0.27467511441E+03  0.84055556270E+03  0.12699999809E+01 0. -1.
</event>
<event>
 5   0  0.6984287E-06  0.2657451E+04  0.7818609E-02  0.8348944E-01
       -1   -1    0    0    0  501  0.00000000000E+00  0.00000000000E+00  0.83688722665E+03  0.83688722667E+03  0.50400001928E-02 0.  1.
        1   -1    0    0  501    0  0.00000000000E+00  0.00000000000E+00 -0.21096168964E+04  0.21096168965E+04  0.50400001928E-02 0. -1.
    10030    2    1    2    0    0  0.00000000000E+00  0.00000000000E+00 -0.12727296698E+04  0.29465041231E+04  0.26574509845E+04 0.  0.
        3    1    3    3  502    0  0.62775002620E+03  0.49250813785E+03 -0.18144186080E+04  0.19821072768E+04  0.10100000352E+00 0. -1.
       -3    1    3    3    0  502 -0.62775002620E+03 -0.49250813785E+03  0.54168893823E+03  0.96439684635E+03  0.10100000352E+00 0.  1.
</event>
<event>
 5   0  0.1869956E-05  0.2603063E+04  0.7818609E-02  0.8367162E-01
       -2   -1    0    0    0  501  0.00000000000E+00  0.00000000000E+00  0.87698147400E+03  0.87698147400E+03  0.25500000920E-02 0.  1.
        2   -1    0    0  501    0  0.00000000000E+00  0.00000000000E+00 -0.19316070958E+04  0.19316070958E+04  0.25500000920E-02 0. -1.
    10030    2    1    2    0    0  0.00000000000E+00  0.00000000000E+00 -0.10546256218E+04  0.28085885698E+04  0.26030625333E+04 0.  0.
        5    1    3    3  502    0 -0.42656155758E+03  0.92068646295E+03 -0.14067397746E+04  0.17345193020E+04  0.46999998093E+01 0. -1.
       -5    1    3    3    0  502  0.42656155758E+03 -0.92068646295E+03  0.35211415281E+03  0.10740692678E+04  0.46999998093E+01 0.  1.
</event>
<event>
 5   0  0.1681731E-05  0.2284404E+04  0.7818609E-02  0.8484096E-01
       -2   -1    0    0    0  501  0.00000000000E+00  0.00000000000E+00  0.91747141468E+03  0.91747141469E+03  0.25500000920E-02 0. -1.
        2   -1    0    0  501    0  0.00000000000E+00  0.00000000000E+00 -0.14219796554E+04  0.14219796554E+04  0.25500000920E-02 0.  1.
    10030    2    1    2    0    0  0.00000000000E+00  0.00000000000E+00 -0.50450824070E+03  0.23394510701E+04  0.22844042428E+04 0.  0.
        2    1    3    3  502    0  0.96886181304E+03 -0.37554975191E+03 -0.73791237002E+03  0.12744589027E+04  0.25500000920E-02 0. -1.
       -2    1    3    3    0  502 -0.96886181304E+03  0.37554975191E+03  0.23340412932E+03  0.10649921673E+04  0.25500000920E-02 0.  1.
</event>
<event>
 5   0  0.7138294E-06  0.2586717E+04  0.7818609E-02  0.8372727E-01
       -1   -1    0    0    0  501  0.00000000000E+00  0.00000000000E+00  0.23990124735E+04  0.23990124735E+04  0.50400001928E-02 0.  1.
        1   -1    0    0  501    0  0.00000000000E+00  0.00000000000E+00 -0.69727695987E+03  0.69727695989E+03  0.50400001928E-02 0. -1.
    10030    2    1    2    0    0  0.00000000000E+00  0.00000000000E+00  0.17017355137E+04  0.30962894334E+04  0.25867169341E+04 0.  0.
        2    1    3    3  502    0 -0.90245063619E+03  0.82027117610E+03  0.33530541272E+03  0.12647891812E+04  0.25500000920E-02 0. -1.
       -2    1    3    3    0  502  0.90245063619E+03 -0.82027117610E+03  0.13664301010E+04  0.18315002522E+04  0.25500000920E-02 0.  1.
</event>
<event>
 5   0  0.6993678E-06  0.2602285E+04  0.7818609E-02  0.8367425E-01
       -1   -1    0    0    0  501  0.00000000000E+00  0.00000000000E+00  0.75004150834E+03  0.75004150836E+03  0.50400001928E-02 0. -1.
        1   -1    0    0  501    0  0.00000000000E+00  0.00000000000E+00 -0.22571709632E+04  0.22571709632E+04  0.50400001928E-02 0.  1.
    10030    2    1    2    0    0  0.00000000000E+00  0.00000000000E+00 -0.15071294549E+04  0.30072124716E+04  0.26022850834E+04 0.  0.
        1    1    3    3  502    0  0.28614698836E+03 -0.12669034780E+04 -0.66369916191E+03  0.14585681675E+04  0.50400001928E-02 0. -1.
       -1    1    3    3    0  502 -0.28614698836E+03  0.12669034780E+04 -0.84343029295E+03  0.15486443041E+04  0.50400001928E-02 0.  1.
</event>
<event>
 5   0  0.6984287E-06  0.2606558E+04  0.7818609E-02  0.8365977E-01
       -1   -1    0    0    0  501  0.00000000000E+00  0.00000000000E+00  0.15276621507E+04  0.15276621507E+04  0.50400001928E-02 0.  1.
        1   -1    0    0  501    0  0.00000000000E+00  0.00000000000E+00 -0.11118533620E+04  0.11118533620E+04  0.50400001928E-02 0. -1.
    10030    2    1    2    0    0  0.00000000000E+00  0.00000000000E+00  0.41580878871E+03  0.26395155127E+04  0.26065581123E+04 0.  0.
        3    1    3    3  502    0 -0.71825938399E+03 -0.84308476699E+03 -0.48769273946E+03  0.12101787824E+04  0.10100000352E+00 0. -1.
       -3    1    3    3    0  502  0.71825938399E+03  0.84308476699E+03  0.90350152817E+03  0.14293367303E+04  0.10100000352E+00 0.  1.
</event>
<event>
 5   0  0.6993678E-06  0.2613306E+04  0.7818609E-02  0.8363695E-01
        1   -1    0    0  501    0  0.00000000000E+00  0.00000000000E+00  0.16018577626E+04  0.16018577626E+04  0.50400001928E-02 0.  1.
       -1   -1    0    0    0  501  0.00000000000E+00  0.00000000000E+00 -0.10658513190E+04  0.10658513190E+04  0.50400001928E-02 0. -1.
    10030    2    1    2    0    0  0.00000000000E+00  0.00000000000E+00  0.53600644358E+03  0.26677090817E+04  0.26133061124E+04 0.  0.
        1    1    3    3  502    0  0.95474930126E+03  0.78905575249E+03  0.69282407629E+03  0.14192111927E+04  0.50400001928E-02 0.  1.
       -1    1    3    3    0  502 -0.95474930126E+03 -0.78905575249E+03 -0.15681763272E+03  0.12484978890E+04  0.50400001928E-02 0. -1.
</event>
<event>
 5   0  0.6918420E-06  0.2557106E+04  0.7818609E-02  0.8382919E-01
       -1   -1    0    0    0  501  0.00000000000E+00  0.00000000000E+00  0.10006607792E+04  0.10006607792E+04  0.50400001928E-02 0. -1.
        1   -1    0    0  501    0  0.00000000000E+00  0.00000000000E+00 -0.16336184015E+04  0.16336184015E+04  0.50400001928E-02 0.  1.
    10030    2    1    2    0    0  0.00000000000E+00  0.00000000000E+00 -0.63295762227E+03  0.26342791807E+04  0.25571060695E+04 0.  0.
        4    1    3    3  502    0  0.11720863965E+04 -0.47810871424E+03 -0.13127038856E+03  0.12726382013E+04  0.12699999809E+01 0.  1.
       -4    1    3    3    0  502 -0.11720863965E+04  0.47810871424E+03 -0.50168723371E+03  0.13616409795E+04  0.12699999809E+01 0. -1.
</event>
<event>
 5   0  0.6918420E-06  0.2598582E+04  0.7818609E-02  0.8368683E-01
        1   -1    0    0  501    0  0.00000000000E+00  0.00000000000E+00  0.18390729530E+04  0.18390729531E+04  0.50400001928E-02 0.  1.
       -1   -1    0    0    0  501  0.00000000000E+00  0.00000000000E+00 -0.91793899259E+03  0.91793899260E+03  0.50400001928E-02 0. -1.
    10030    2    1    2    0    0  0.00000000000E+00  0.00000000000E+00  0.92113396045E+03  0.27570119457E+04  0.25985817469E+04 0.  0.
        4    1    3    3  502    0  0.25945496484E+03 -0.39454840593E+03 -0.82367318654E+03  0.94943375468E+03  0.12699999809E+01 0. -1.
       -4    1    3    3    0  502 -0.25945496484E+03  0.39454840593E+03  0.17448071470E+04  0.18075781910E+04  0.12699999809E+01 0.  1.
</event>
<event>
 5   0  0.6984287E-06  0.2524055E+04  0.7818609E-02  0.8394466E-01
       -1   -1    0    0    0  501  0.00000000000E+00  0.00000000000E+00  0.12951980152E+04  0.12951980153E+04  0.50400001928E-02 0. -1.
        1   -1    0    0  501    0  0.00000000000E+00  0.00000000000E+00 -0.12297065605E+04  0.12297065605E+04  0.50400001928E-02 0.  1.
    10030    2    1    2    0    0  0.00000000000E+00  0.00000000000E+00  0.65491454705E+02  0.25249045758E+04  0.25240550680E+04 0.  0.
        3    1    3    3  502    0 -0.76311478467E+03 -0.41523014191E+03  0.94845167736E+03  0.12862040428E+04  0.10100000352E+00 0. -1.
       -3    1    3    3    0  502  0.76311478467E+03  0.41523014191E+03 -0.88296022266E+03  0.12387005330E+04  0.10100000352E+00 0.  1.
</event>
<event>
 5   0  0.1681731E-05  0.2266939E+04  0.7818609E-02  0.8491072E-01
        2   -1    0    0  501    0  0.00000000000E+00  0.00000000000E+00  0.21773556049E+04  0.21773556049E+04  0.25500000920E-02 0.  1.
       -2   -1    0    0    0  501  0.00000000000E+00  0.00000000000E+00 -0.59005212823E+03  0.59005212824E+03  0.25500000920E-02 0. -1.
    10030    2    1    2    0    0  0.00000000000E+00  0.00000000000E+00  0.15873034767E+04  0.27674077332E+04  0.22669391775E+04 0.  0.
        2    1    3    3  502    0  0.91019657399E+03 -0.36674391999E+03  0.14861561187E+04  0.17809039601E+04  0.25500000920E-02 0.  1.
       -2    1    3    3    0  502 -0.91019657399E+03  0.36674391999E+03  0.10114735802E+03  0.98650377303E+03  0.25500000920E-02 0. -1.
</event>
<event>
 5   0  0.6706225E-06  0.2600474E+04  0.7818609E-02  0.8368040E-01
       -1   -1    0    0    0  501  0.00000000000E+00  0.00000000000E+00  0.16797331891E+04  0.16797331891E+04  0.50400001928E-02 0.  1.
        1   -1    0    0  501    0  0.00000000000E+00  0.00000000000E+00 -0.10064792510E+04  0.10064792510E+04  0.50400001928E-02 0. -1.
    10030    2    1    2    0    0  0.00000000000E+00  0.00000000000E+00  0.67325393809E+03  0.26862124402E+04  0.26004742661E+04 0.  0.
        5    1    3    3  502    0  0.12709448681E+04  0.25521962037E+03  0.23252427586E+03  0.13170146321E+04  0.46999998093E+01 0. -1.
       -5    1    3    3    0  502 -0.12709448681E+04 -0.25521962037E+03  0.44072966223E+03  0.13691978080E+04  0.46999998093E+01 0.  1.
</event>
<event>
 5   0  0.1702345E-05  0.2590294E+04  0.7818609E-02  0.8371506E-01
       -2   -1    0    0    0  501  0.00000000000E+00  0.00000000000E+00  0.81948170785E+03  0.81948170785E+03  0.25500000920E-02 0.  1.
        2   -1    0    0  501    0  0.00000000000E+00  0.00000000000E+00 -0.20469098487E+04  0.20469098487E+04  0.25500000920E-02 0. -1.
    10030    2    1    2    0    0  0.00000000000E+00  0.00000000000E+00 -0.12274281409E+04  0.28663915566E+04  0.25902935576E+04 0.  0.
        1    1    3    3  502    0  0.79137639384E+03 -0.21364038190E+03  0.49590681936E+03  0.95804090884E+03  0.50400001928E-02 0.  1.
       -1    1    3    3    0  502 -0.79137639384E+03  0.21364038190E+03 -0.17233349602E+04  0.19083506477E+04  0.50400001928E-02 0. -1.
</event>
<event>
 5   0  0.6984287E-06  0.2598972E+04  0.7818609E-02  0.8368550E-01
        1   -1    0    0  501    0  0.00000000000E+00  0.00000000000E+00  0.21336170672E+04  0.21336170672E+04  0.50400001928E-02 0.  1.
       -1   -1    0    0    0  501  0.00000000000E+00  0.00000000000E+00 -0.79145618297E+03  0.79145618299E+03  0.50400001928E-02 0. -1.
    10030    2    1    2    0    0  0.00000000000E+00  0.00000000000E+00  0.13421608843E+04  0.29250732502E+04  0.25989724277E+04 0.  0.
        3    1    3    3  502    0 -0.34536799474E+03  0.10538789416E+04  0.14333543570E+04  0.18123036716E+04  0.10100000352E+00 0.  1.
       -3    1    3    3    0  502  0.34536799474E+03 -0.10538789416E+04 -0.91193472763E+02  0.11127695786E+04  0.10100000352E+00 0. -1.
</event>
<event>
 5   0  0.1702345E-05  0.2460113E+04  0.7818609E-02  0.8417335E-01
       -2   -1    0    0    0  501  0.00000000000E+00  0.00000000000E+00  0.13326439549E+04  0.13326439549E+04  0.25500000920E-02 0.  1.
        2   -1    0    0  501    0  0.00000000000E+00  0.00000000000E+00 -0.11353659202E+04  0.11353659202E+04  0.25500000920E-02 0. -1.
    10030    2    1    2    0    0  0.00000000000E+00  0.00000000000E+00  0.19727803468E+03  0.24680098751E+04  0.24601126236E+04 0.  0.
        1    1    3    3  502    0  0.21298401946E+03  0.27104350444E+03 -0.10859188291E+04  0.11393184267E+04  0.50400001928E-02 0. -1.
       -1    1    3    3    0  502 -0.21298401946E+03 -0.27104350444E+03  0.12831968638E+04  0.13286914484E+04  0.50400001928E-02 0.  1.
</event>
<event>
 5   0  0.6993678E-06  0.2494824E+04  0.7818609E-02  0.8404832E-01
       -1   -1    0    0    0  501  0.00000000000E+00  0.00000000000E+00  0.82436438401E+03  0.82436438403E+03  0.50400001928E-02 0. -1.
        1   -1    0    0  501    0  0.00000000000E+00  0.00000000000E+00 -0.18875592529E+04  0.18875592529E+04  0.50400001928E-02 0.  1.
    10030    2    1    2    0    0  0.00000000000E+00  0.00000000000E+00 -0.10631948689E+04  0.27119236370E+04  0.24948239384E+04 0.  0.
        1    1    3    3  502    0  0.19574295201E+03  0.12092645742E+04 -0.27574213068E+03  0.12556551423E+04  0.50400001928E-02 0. -1.
       -1    1    3    3    0  502 -0.19574295201E+03 -0.12092645742E+04 -0.78745273822E+03  0.14562684947E+04  0.50400001928E-02 0.  1.
</event>
<event>
 5   0  0.1869956E-05  0.2561431E+04  0.7818609E-02  0.8381421E-01
       -2   -1    0    0    0  501  0.00000000000E+00  0.00000000000E+00  0.85399562259E+03  0.85399562259E+03  0.25500000920E-02 0.  1.
        2   -1    0    0  501    0  0.00000000000E+00  0.00000000000E+00 -0.19206563883E+04  0.19206563883E+04  0.25500000920E-02 0. -1.
    10030    2    1    2    0    0  0.00000000000E+00  0.00000000000E+00 -0.10666607657E+04  0.27746520109E+04  0.25614309658E+04 0.  0.
        5    1    3    3  502    0 -0.12566045795E+04  0.13844529588E+03 -0.31136365152E+03  0.13019952315E+04  0.46999998093E+01 0.  1.
       -5    1    3    3    0  502  0.12566045795E+04 -0.13844529588E+03 -0.75529711421E+03  0.14726567794E+04  0.46999998093E+01 0. -1.
</event>
<event>
 5   0  0.7138294E-06  0.2625305E+04  0.7818609E-02  0.8359656E-01
        1   -1    0    0  501    0  0.00000000000E+00  0.00000000000E+00  0.21640929597E+04  0.21640929597E+04  0.50400001928E-02 0. -1.
       -1   -1    0    0    0  501  0.00000000000E+00  0.00000000000E+00 -0.79620295239E+03  0.79620295240E+03  0.50400001928E-02 0.  1.
    10030    2    1    2    0    0  0.00000000000E+00  0.00000000000E+00  0.13678900073E+04  0.29602959121E+04  0.26253054708E+04 0.  0.
        2    1    3    3  502    0  0.74367879449E+03 -0.90766197639E+03  0.20527858019E+02  0.11735969520E+04  0.25500000920E-02 0.  1.
       -2    1    3    3    0  502 -0.74367879449E+03  0.90766197639E+03  0.13473621493E+04  0.17866989601E+04  0.25500000920E-02 0. -1.
</event>
<event>
 5   0  0.1720129E-05  0.2588565E+04  0.7818609E-02  0.8372096E-01
        2   -1    0    0  501    0  0.00000000000E+00  0.00000000000E+00  0.17294108064E+04  0.17294108064E+04  0.25500000920E-02 0. -1.
       -2   -1    0    0    0  501  0.00000000000E+00  0.00000000000E+00 -0.96863453991E+03  0.96863453991E+03  0.25500000920E-02 0.  1.
    10030    2    1    2    0    0  0.00000000000E+00  0.00000000000E+00  0.76077626648E+03  0.26980453463E+04  0.25885648848E+04 0.  0.
        3    1    3    3  502    0  0.34416147612E+03 -0.25041355527E+03  0.16543821009E+04  0.17082547281E+04  0.10100000352E+00 0. -1.
       -3    1    3    3    0  502 -0.34416147612E+03  0.25041355527E+03 -0.89360583441E+03  0.98979061816E+03  0.10100000352E+00 0.  1.
</event>
<event>
 5   0  0.1681731E-05  0.2591703E+04  0.7818609E-02  0.8371025E-01
       -2   -1    0    0    0  501  0.00000000000E+00  0.00000000000E+00  0.79537678564E+03  0.79537678565E+03  0.25500000920E-02 0. -1.
        2   -1    0    0  501    0  0.00000000000E+00  0.00000000000E+00 -0.21112395964E+04  0.21112395964E+04  0.25500000920E-02 0.  1.
    10030    2    1    2    0    0  0.00000000000E+00  0.00000000000E+00 -0.13158628107E+04  0.29066163820E+04  0.25917028872E+04 0.  0.
        2    1    3    3  502    0  0.92435154118E+03 -0.36139572481E+03 -0.15923560505E+04  0.18763343074E+04  0.25500000920E-02 0. -1.
       -2    1    3    3    0  502 -0.92435154118E+03  0.36139572481E+03  0.27649323979E+03  0.10302820746E+04  0.25500000920E-02 0.  1.
</event>
<event>
 5   0  0.7138294E-06  0.2601684E+04  0.7818609E-02  0.8367629E-01
       -1   -1    0    0    0  501  0.00000000000E+00  0.00000000000E+00  0.22925540855E+04  0.22925540855E+04  0.50400001928E-02 0. -1.
        1   -1    0    0  501    0  0.00000000000E+00  0.00000000000E+00 -0.73812455360E+03  0.73812455362E+03  0.50400001928E-02 0.  1.
    10030    2    1    2    0    0  0.00000000000E+00  0.00000000000E+00  0.15544295319E+04  0.30306786391E+04  0.26016844244E+04 0.  0.
        2    1    3    3  502    0 -0.49769199685E+02 -0.12539369334E+04  0.37815560834E+03  0.13106626074E+04  0.25500000920E-02 0. -1.
       -2    1    3    3    0  502  0.49769199685E+02  0.12539369334E+04  0.11762739235E+04  0.17200160317E+04  0.25500000920E-02 0.  1.
</event>
<event>
 5   0  0.1869956E-05  0.2613771E+04  0.7818609E-02  0.8363539E-01
        2   -1    0    0  501    0  0.00000000000E+00  0.00000000000E+00  0.21732763643E+04  0.21732763643E+04  0.25500000920E-02 0. -1.
       -2   -1    0    0    0  501  0.00000000000E+00  0.00000000000E+00 -0.78588674582E+03  0.78588674582E+03  0.25500000920E-02 0.  1.
    10030    2    1    2    0    0  0.00000000000E+00  0.00000000000E+00  0.13873896185E+04  0.29591631101E+04  0.26137705253E+04 0.  0.
        5    1    3    3  502    0  0.30726805895E+02 -0.11711769264E+04  0.13492903852E+04  0.17869544379E+04  0.46999998093E+01 0. -1.
       -5    1    3    3    0  502 -0.30726805895E+02  0.11711769264E+04  0.38099233292E+02  0.11722086722E+04  0.46999998093E+01 0.  1.
</event>
<event>
 5   0  0.1869956E-05  0.2592258E+04  0.7818609E-02  0.8370836E-01
        2   -1    0    0  501    0  0.00000000000E+00  0.00000000000E+00  0.26579357404E+04  0.26579357404E+04  0.25500000920E-02 0.  1.
       -2   -1    0    0    0  501  0.00000000000E+00  0.00000000000E+00 -0.63205068208E+03  0.63205068208E+03  0.25500000920E-02 0. -1.
    10030    2    1    2    0    0  0.00000000000E+00  0.00000000000E+00  0.20258850584E+04  0.32899864225E+04  0.25922577786E+04 0.  0.
        5    1    3    3  502    0 -0.28220553759E+03  0.10007742782E+03 -0.58754281161E+03  0.65945743037E+03  0.46999998093E+01 0. -1.
       -5    1    3    3    0  502  0.28220553759E+03 -0.10007742782E+03  0.26134278700E+04  0.26305289921E+04  0.46999998093E+01 0.  1.
</event>
<event>
 5   0  0.1720129E-05  0.2616452E+04  0.7818609E-02  0.8362634E-01
        2   -1    0    0  501    0  0.00000000000E+00  0.00000000000E+00  0.20398507867E+04  0.20398507867E+04  0.25500000920E-02 0.  1.
       -2   -1    0    0    0  501  0.00000000000E+00  0.00000000000E+00 -0.83901018849E+03  0.83901018849E+03  0.25500000920E-02 0. -1.
    10030    2    1    2    0    0  0.00000000000E+00  0.00000000000E+00  0.12008405982E+04  0.28788609752E+04  0.26164522491E+04 0.  0.
        3    1    3    3  502    0  0.10864007658E+03  0.10333043668E+04 -0.27424940672E+03  0.10745851888E+04  0.10100000352E+00 0.  1.
       -3    1    3    3    0  502 -0.10864007658E+03 -0.10333043668E+04  0.14750900049E+04  0.18042757864E+04  0.10100000352E+00 0. -1.
</event>
<event>
 5   0  0.1702345E-05  0.2575925E+04  0.7818609E-02  0.8376425E-01
        2   -1    0    0  501    0  0.00000000000E+00  0.00000000000E+00  0.25327360988E+04  0.25327360988E+04  0.25500000920E-02 0. -1.
       -2   -1    0    0    0  501  0.00000000000E+00  0.00000000000E+00 -0.65496269618E+03  0.65496269618E+03  0.25500000920E-02 0.  1.
    10030    2    1    2    0    0  0.00000000000E+00  0.00000000000E+00  0.18777734026E+04  0.31876987950E+04  0.25759252039E+04 0.  0.
        1    1    3    3  502    0  0.65950285912E+03  0.93867708528E+03  0.16634185001E+04  0.20206483608E+04  0.50400001928E-02 0. -1.
       -1    1    3    3    0  502 -0.65950285912E+03 -0.93867708528E+03  0.21435490254E+03  0.11670504342E+04  0.50400001928E-02 0.  1.
</event>
<event>
 5   0  0.6706225E-06  0.2599725E+04  0.7818609E-02  0.8368294E-01
       -1   -1    0    0    0  501  0.00000000000E+00  0.00000000000E+00  0.10157854206E+04  0.10157854206E+04  0.50400001928E-02 0.  1.
        1   -1    0    0  501    0  0.00000000000E+00  0.00000000000E+00 -0.16633858469E+04  0.16633858469E+04  0.50400001928E-02 0. -1.
    10030    2    1    2    0    0  0.00000000000E+00  0.00000000000E+00 -0.64760042634E+03  0.26791712675E+04  0.25997254410E+04 0.  0.
        5    1    3    3  502    0  0.37786257332E+03 -0.40176855671E+03  0.88920920949E+03  0.10463810041E+04  0.46999998093E+01 0.  1.
       -5    1    3    3    0  502 -0.37786257332E+03  0.40176855671E+03 -0.15368096358E+04  0.16327902634E+04  0.46999998093E+01 0. -1.
</event>
<event>
 5   0  0.6993678E-06  0.2600817E+04  0.7818609E-02  0.8367924E-01
       -1   -1    0    0    0  501  0.00000000000E+00  0.00000000000E+00  0.11824767086E+04  0.11824767086E+04  0.50400001928E-02 0.  1.
        1   -1    0    0  501    0  0.00000000000E+00  0.00000000000E+00 -0.14301020968E+04  0.14301020968E+04  0.50400001928E-02 0. -1.
    10030    2    1    2    0    0  0.00000000000E+00  0.00000000000E+00 -0.24762538819E+03  0.26125788054E+04  0.26008171181E+04 0.  0.
        1    1    3    3  502    0  0.35698355495E+03  0.73167032369E+03  0.89481636169E+03  0.12097417254E+04  0.50400001928E-02 0.  1.
       -1    1    3    3    0  502 -0.35698355495E+03 -0.73167032369E+03 -0.11424417499E+04  0.14028370800E+04  0.50400001928E-02 0. -1.
</event>
<event>
 5   0  0.1681731E-05  0.2601751E+04  0.7818609E-02  0.8367607E-01
        2   -1    0    0  501    0  0.00000000000E+00  0.00000000000E+00  0.19183823059E+04  0.19183823059E+04  0.25500000920E-02 0.  1.
       -2   -1    0    0    0  501  0.00000000000E+00  0.00000000000E+00 -0.88213772189E+03  0.88213772189E+03  0.25500000920E-02 0. -1.
    10030    2    1    2    0    0  0.00000000000E+00  0.00000000000E+00  0.10362445841E+04  0.28005200278E+04  0.26017512541E+04 0.  0.
        2    1    3    3  502    0  0.23313521161E+03  0.94427302493E+03 -0.41174723338E+03  0.10561909660E+04  0.25500000920E-02 0. -1.
       -2    1    3    3    0  502 -0.23313521161E+03 -0.94427302493E+03  0.14479918174E+04  0.17443290618E+04  0.25500000920E-02 0.  1.
</event>
<event>
 5   0  0.7138294E-06  0.2597783E+04  0.7818609E-02  0.8368955E-01
       -1   -1    0    0    0  501  0.00000000000E+00  0.00000000000E+00  0.82447557291E+03  0.82447557292E+03  0.50400001928E-02 0.  1.
        1   -1    0    0  501    0  0.00000000000E+00  0.00000000000E+00 -0.20462928689E+04  0.20462928689E+04  0.50400001928E-02 0. -1.
    10030    2    1    2    0    0  0.00000000000E+00  0.00000000000E+00 -0.12218172960E+04  0.28707684418E+04  0.25977825047E+04 0.  0.
        2    1    3    3  502    0  0.73556596830E+03 -0.23889191602E+03 -0.17641167618E+04  0.19261969241E+04  0.25500000920E-02 0. -1.
       -2    1    3    3    0  502 -0.73556596830E+03  0.23889191602E+03  0.54229946586E+03  0.94457151764E+03  0.25500000920E-02 0.  1.
</event>
<event>
 5   0  0.1702345E-05  0.2582645E+04  0.7818609E-02  0.8374120E-01
       -2   -1    0    0    0  501  0.00000000000E+00  0.00000000000E+00  0.72938803575E+03  0.72938803575E+03  0.25500000920E-02 0. -1.
        2   -1    0    0  501    0  0.00000000000E+00  0.00000000000E+00 -0.22861812361E+04  0.22861812361E+04  0.25500000920E-02 0.  1.
    10030    2    1    2    0    0  0.00000000000E+00  0.00000000000E+00 -0.15567932003E+04  0.30155692718E+04  0.25826445680E+04 0.  0.
        1    1    3    3  502    0 -0.10851248161E+04  0.17228904781E+03 -0.15706080732E+04  0.19167652705E+04  0.50400001928E-02 0.  1.
       -1    1    3    3    0  502  0.10851248161E+04 -0.17228904781E+03  0.13814872848E+02  0.10988040013E+04  0.50400001928E-02 0. -1.
</event>
<event>
 5   0  0.1869956E-05  0.2433265E+04  0.7818609E-02  0.8427154E-01
        2   -1    0    0  501    0  0.00000000000E+00  0.00000000000E+00  0.19587728643E+04  0.19587728643E+04  0.25500000920E-02 0.  1.
       -2   -1    0    0    0  501  0.00000000000E+00  0.00000000000E+00 -0.75567465133E+03  0.75567465133E+03  0.25500000920E-02 0. -1.
    10030    2    1    2    0    0  0.00000000000E+00  0.00000000000E+00  0.12030982130E+04  0.27144475157E+04  0.24332652969E+04 0.  0.
        5    1    3    3  502    0 -0.45405768376E+02 -0.26018246953E+03  0.19263958647E+04  0.19444227212E+04  0.46999998093E+01 0.  1.
       -5    1    3    3    0  502  0.45405768376E+02  0.26018246953E+03 -0.72329765165E+03  0.77002479449E+03  0.46999998093E+01 0. -1.
</event>
<event>
 5   0  0.6706225E-06  0.2595384E+04  0.7818609E-02  0.8369771E-01
       -1   -1    0    0    0  501  0.00000000000E+00  0.00000000000E+00  0.83282358973E+03  0.83282358974E+03  0.50400001928E-02 0. -1.
        1   -1    0    0  501    0  0.00000000000E+00  0.00000000000E+00 -0.20220423109E+04  0.20220423110E+04  0.50400001928E-02 0.  1.
    10030    2    1    2    0    0  0.00000000000E+00  0.00000000000E+00 -0.11892187212E+04  0.28548659007E+04  0.25953840071E+04 0.  0.
        5    1    3    3  502    0 -0.24953337241E+03 -0.68360337141E+03 -0.17764600674E+04  0.19197429345E+04  0.46999998093E+01 0.  1.
       -5    1    3    3    0  502  0.24953337241E+03  0.68360337141E+03  0.58724134617E+03  0.93512296625E+03  0.46999998093E+01 0. -1.
</event>
<event>
 5   0  0.6706225E-06  0.2572294E+04  0.7818609E-02  0.8377674E-01
        1   -1    0    0  501    0  0.00000000000E+00  0.00000000000E+00  0.16176258165E+04  0.16176258165E+04  0.50400001928E-02 0.  1.
       -1   -1    0    0    0  501  0.00000000000E+00  0.00000000000E+00 -0.10225935462E+04  0.10225935462E+04  0.50400001928E-02 0. -1.
    10030    2    1    2    0    0  0.00000000000E+00  0.00000000000E+00  0.59503227035E+03  0.26402193627E+04  0.25722937002E+04 0.  0.
        5    1    3    3  502    0  0.32007235782E+03  0.91310731289E+03 -0.57217218812E+03  0.11241060368E+04  0.46999998093E+01 0. -1.
       -5    1    3    3    0  502 -0.32007235782E+03 -0.91310731289E+03  0.11672044585E+04  0.15161133259E+04  0.46999998093E+01 0.  1.
</event>
<event>
 5   0  0.1702345E-05  0.2623595E+04  0.7818609E-02  0.8360230E-01
       -2   -1    0    0    0  501  0.00000000000E+00  0.00000000000E+00  0.10202925090E+04  0.10202925090E+04  0.25500000920E-02 0. -1.
        2   -1    0    0  501    0  0.00000000000E+00  0.00000000000E+00 -0.16865881747E+04  0.16865881747E+04  0.25500000920E-02 0.  1.
    10030    2    1    2    0    0  0.00000000000E+00  0.00000000000E+00 -0.66629566573E+03  0.27068806837E+04  0.26235954569E+04 0.  0.
        1    1    3    3  502    0  0.24852190877E+03  0.10256147968E+04  0.47079543577E+03  0.11555506016E+04  0.50400001928E-02 0. -1.
       -1    1    3    3    0  502 -0.24852190877E+03 -0.10256147968E+04 -0.11370911015E+04  0.15513300821E+04  0.50400001928E-02 0.  1.
</event>
<event>
 5   0  0.1677971E-05  0.2611023E+04  0.7818609E-02  0.8364466E-01
       -2   -1    0    0    0  501  0.00000000000E+00  0.00000000000E+00  0.10120795376E+04  0.10120795376E+04  0.25500000920E-02 0.  1.
        2   -1    0    0  501    0  0.00000000000E+00  0.00000000000E+00 -0.16840185876E+04  0.16840185876E+04  0.25500000920E-02 0. -1.
    10030    2    1    2    0    0  0.00000000000E+00  0.00000000000E+00 -0.67193905004E+03  0.26960981252E+04  0.26110233652E+04 0.  0.
        4    1    3    3  502    0  0.16595922800E+03  0.71737329748E+03  0.77720669304E+03  0.10706160703E+04  0.12699999809E+01 0.  1.
       -4    1    3    3    0  502 -0.16595922800E+03 -0.71737329748E+03 -0.14491457431E+04  0.16254820549E+04  0.12699999809E+01 0. -1.
</event>
<event>
 5   0  0.7138294E-06  0.2610032E+04  0.7818609E-02  0.8364802E-01
       -1   -1    0    0    0  501  0.00000000000E+00  0.00000000000E+00  0.56488639472E+03  0.56488639474E+03  0.50400001928E-02 0. -1.
        1   -1    0    0  501    0  0.00000000000E+00  0.00000000000E+00 -0.30148825775E+04  0.30148825775E+04  0.50400001928E-02 0.  1.
    10030    2    1    2    0    0  0.00000000000E+00  0.00000000000E+00 -0.24499961827E+04  0.35797689722E+04  0.26100315322E+04 0.  0.
        2    1    3    3  502    0  0.74100395153E+03  0.75812134585E+03 -0.18115489912E+03  0.10754775352E+04  0.25500000920E-02 0. -1.
       -2    1    3    3    0  502 -0.74100395153E+03 -0.75812134585E+03 -0.22688412836E+04  0.25042914370E+04  0.25500000920E-02 0.  1.
</event>
<event>
 5   0  0.6918420E-06  0.2646578E+04  0.7818609E-02  0.8352550E-01
       -1   -1    0    0    0  501  0.00000000000E+00  0.00000000000E+00  0.12295449674E+04  0.12295449674E+04  0.50400001928E-02 0.  1.
        1   -1    0    0  501    0  0.00000000000E+00  0.00000000000E+00 -0.14241800037E+04  0.14241800037E+04  0.50400001928E-02 0. -1.
    10030    2    1    2    0    0  0.00000000000E+00  0.00000000000E+00 -0.19463503631E+03  0.26537249712E+04  0.26465776817E+04 0.  0.
        4    1    3    3  502    0  0.30253575174E+03  0.43602599698E+03  0.11181628856E+04  0.12377141846E+04  0.12699999809E+01 0.  1.
       -4    1    3    3    0  502 -0.30253575174E+03 -0.43602599698E+03 -0.13127979219E+04  0.14160107866E+04  0.12699999809E+01 0. -1.
</event>
<event>
 5   0  0.1720129E-05  0.2614368E+04  0.7818609E-02  0.8363337E-01
        2   -1    0    0  501    0  0.00000000000E+00  0.00000000000E+00  0.15045164630E+04  0.15045164630E+04  0.25500000920E-02 0.  1.
       -2   -1    0    0    0  501  0.00000000000E+00  0.00000000000E+00 -0.11357338092E+04  0.11357338092E+04  0.25500000920E-02 0. -1.
    10030    2    1    2    0    0  0.00000000000E+00  0.00000000000E+00  0.36878265387E+03  0.26402502722E+04  0.26143681558E+04 0.  0.
        3    1    3    3  502    0  0.91370793597E+03  0.86312648430E+03 -0.17816230983E+03  0.12694846746E+04  0.10100000352E+00 0. -1.
       -3    1    3    3    0  502 -0.91370793597E+03 -0.86312648430E+03  0.54694496370E+03  0.13707655976E+04  0.10100000352E+00 0.  1.
</event>
<event>
 5   0  0.6993678E-06  0.2536798E+04  0.7818609E-02  0.8389992E-01
       -1   -1    0    0    0  501  0.00000000000E+00  0.00000000000E+00  0.10716202629E+04  0.10716202629E+04  0.50400001928E-02 0. -1.
        1   -1    0    0  501    0  0.00000000000E+00  0.00000000000E+00 -0.15013119060E+04  0.15013119060E+04  0.50400001928E-02 0.  1.
    10030    2    1    2    0    0  0.00000000000E+00  0.00000000000E+00 -0.42969164310E+03  0.25729321689E+04  0.25367981862E+04 0.  0.
        1    1    3    3  502    0 -0.29843824734E+03 -0.10362611680E+04 -0.89214031962E+03  0.13995774168E+04  0.50400001928E-02 0.  1.
       -1    1    3    3    0  502  0.29843824734E+03  0.10362611680E+04  0.46244867652E+03  0.11733547521E+04  0.50400001928E-02 0. -1.
</event>
<event>
 5   0  0.1720129E-05  0.2478790E+04  0.7818609E-02  0.8410581E-01
        2   -1    0    0  501    0  0.00000000000E+00  0.00000000000E+00  0.14043281008E+04  0.14043281008E+04  0.25500000920E-02 0.  1.
       -2   -1    0    0    0  501  0.00000000000E+00  0.00000000000E+00 -0.10938330268E+04  0.10938330268E+04  0.25500000920E-02 0. -1.
    10030    2    1    2    0    0  0.00000000000E+00  0.00000000000E+00  0.31049507402E+03  0.24981611276E+04  0.24787903962E+04 0.  0.
        3    1    3    3  502    0 -0.35704943553E+03  0.70339742643E+03  0.11186720091E+04  0.13688240621E+04  0.10100000352E+00 0.  1.
       -3    1    3    3    0  502  0.35704943553E+03 -0.70339742643E+03 -0.80817693505E+03  0.11293370655E+04  0.10100000352E+00 0. -1.
</event>
<event>
 5   0  0.7138294E-06  0.2491917E+04  0.7818609E-02  0.8405871E-01
       -1   -1    0    0    0  501  0.00000000000E+00  0.00000000000E+00  0.12033110079E+04  0.12033110079E+04  0.50400001928E-02 0. -1.
        1   -1    0    0  501    0  0.00000000000E+00  0.00000000000E+00 -0.12901174912E+04  0.12901174912E+04  0.50400001928E-02 0.  1.
    10030    2    1    2    0    0  0.00000000000E+00  0.00000000000E+00 -0.86806483318E+02  0.24934284991E+04  0.24919169959E+04 0.  0.
        2    1    3    3  502    0 -0.12412633365E+04 -0.75635000965E+02 -0.12063331294E+03  0.12494029454E+04  0.25500000920E-02 0.  1.
       -2    1    3    3    0  502  0.12412633365E+04  0.75635000965E+02  0.33826829618E+02  0.12440255537E+04  0.25500000920E-02 0. -1.
</event>
<event>
 5   0  0.1702345E-05  0.2600183E+04  0.7818609E-02  0.8368139E-01
       -2   -1    0    0    0  501  0.00000000000E+00  0.00000000000E+00  0.15696513544E+04  0.15696513544E+04  0.25500000920E-02 0.  1.
        2   -1    0    0  501    0  0.00000000000E+00  0.00000000000E+00 -0.10768234291E+04  0.10768234291E+04  0.25500000920E-02 0. -1.
    10030    2    1    2    0    0  0.00000000000E+00  0.00000000000E+00  0.49282792528E+03  0.26464747835E+04  0.26001825735E+04 0.  0.
        1    1    3    3  502    0  0.95874332805E+03  0.36012881511E+03  0.10615187379E+04  0.14750266314E+04  0.50400001928E-02 0.  1.
       -1    1    3    3    0  502 -0.95874332805E+03 -0.36012881511E+03 -0.56869081259E+03  0.11714481520E+04  0.50400001928E-02 0. -1.
</event>
<event>
 5   0  0.1681731E-05  0.2623655E+04  0.7818609E-02  0.8360210E-01
       -2   -1    0    0    0  501  0.00000000000E+00  0.00000000000E+00  0.13462366648E+04  0.13462366648E+04  0.25500000920E-02 0.  1.
        2   -1    0    0  501    0  0.00000000000E+00  0.00000000000E+00 -0.12782975113E+04  0.12782975113E+04  0.25500000920E-02 0. -1.
    10030    2    1    2    0    0  0.00000000000E+00  0.00000000000E+00  0.67939153440E+02  0.26245341761E+04  0.26236546863E+04 0.  0.
        2    1    3    3  502    0  0.89590148124E+03 -0.95816512650E+03  0.47054654216E+02  0.13126058107E+04  0.25500000920E-02 0.  1.
       -2    1    3    3    0  502 -0.89590148124E+03  0.95816512650E+03  0.20884499224E+02  0.13119283654E+04  0.25500000920E-02 0. -1.
</event>
<event>
 5   0  0.5840500E-06  0.2593238E+04  0.7818609E-02  0.8370502E-01
       -3   -1    0    0    0  501  0.00000000000E+00  0.00000000000E+00  0.10308760376E+04  0.10308760426E+04  0.10100000352E+00 0. -1.
        3   -1    0    0  501    0  0.00000000000E+00  0.00000000000E+00 -0.16308661157E+04  0.16308661188E+04  0.10100000352E+00 0.  1.
    10030    2    1    2    0    0  0.00000000000E+00  0.00000000000E+00 -0.59999007804E+03  0.26617421613E+04  0.25932379836E+04 0.  0.
        1    1    3    3  502    0  0.66052891470E+02  0.72502379263E+03 -0.14012774024E+04  0.15791139423E+04  0.50400001928E-02 0.  1.
       -1    1    3    3    0  502 -0.66052891470E+02 -0.72502379263E+03  0.80128732437E+03  0.10826282190E+04  0.50400001928E-02 0. -1.
</event>
<event>
 5   0  0.6918420E-06  0.2657421E+04  0.7818609E-02  0.8348954E-01
       -1   -1    0    0    0  501  0.00000000000E+00  0.00000000000E+00  0.76663914667E+03  0.76663914668E+03  0.50400001928E-02 0. -1.
        1   -1    0    0  501    0  0.00000000000E+00  0.00000000000E+00 -0.23028719587E+04  0.23028719587E+04  0.50400001928E-02 0.  1.
    10030    2    1    2    0    0  0.00000000000E+00  0.00000000000E+00 -0.15362328121E+04  0.30695111054E+04  0.26574211509E+04 0.  0.
        4    1    3    3  502    0 -0.31104255454E+01  0.12319670268E+04 -0.13430098890E+04  0.18224789724E+04  0.12699999809E+01 0.  1.
       -4    1    3    3    0  502  0.31104255454E+01 -0.12319670268E+04 -0.19322292307E+03  0.12470321330E+04  0.12699999809E+01 0. -1.
</event>
<event>
 5   0  0.1677971E-05  0.2547297E+04  0.7818609E-02  0.8386327E-01
       -2   -1    0    0    0  501  0.00000000000E+00  0.00000000000E+00  0.15192644554E+04  0.15192644554E+04  0.25500000920E-02 0.  1.
        2   -1    0    0  501    0  0.00000000000E+00  0.00000000000E+00 -0.10677407214E+04  0.10677407214E+04  0.25500000920E-02 0. -1.
    10030    2    1    2    0    0  0.00000000000E+00  0.00000000000E+00  0.45152373401E+03  0.25870051768E+04  0.25472970189E+04 0.  0.
        4    1    3    3  502    0  0.13321317614E+03  0.46565622367E+03 -0.97056389759E+03  0.10847015079E+04  0.12699999809E+01 0. -1.
       -4    1    3    3    0  502 -0.13321317614E+03 -0.46565622367E+03  0.14220876316E+04  0.15023036690E+04  0.12699999809E+01 0.  1.
</event>
<event>
 5   0  0.1869956E-05  0.2599511E+04  0.7818609E-02  0.8368367E-01
        2   -1    0    0  501    0  0.00000000000E+00  0.00000000000E+00  0.73121681401E+03  0.73121681401E+03  0.25500000920E-02 0. -1.
       -2   -1    0    0    0  501  0.00000000000E+00  0.00000000000E+00 -0.23103474113E+04  0.23103474113E+04  0.25500000920E-02 0.  1.
    10030    2    1    2    0    0  0.00000000000E+00  0.00000000000E+00 -0.15791305973E+04  0.30415642253E+04  0.25995113951E+04 0.  0.
        5    1    3    3  502    0 -0.20737801324E+02 -0.84005692032E+03 -0.19497575936E+04  0.21231350522E+04  0.46999998093E+01 0.  1.
       -5    1    3    3    0  502  0.20737801324E+02  0.84005692032E+03  0.37062699630E+03  0.91842917319E+03  0.46999998093E+01 0. -1.
</event>
<event>
 5   0  0.6993678E-06  0.2616050E+04  0.7818609E-02  0.8362770E-01
       -1   -1    0    0    0  501  0.00000000000E+00  0.00000000000E+00  0.16804989367E+04  0.16804989367E+04  0.50400001928E-02 0.  1.
        1   -1    0    0  501    0  0.00000000000E+00  0.00000000000E+00 -0.10181079760E+04  0.10181079760E+04  0.50400001928E-02 0. -1.
    10030    2    1    2    0    0  0.00000000000E+00  0.00000000000E+00  0.66239096072E+03  0.26986069128E+04  0.26160499775E+04 0.  0.
        1    1    3    3  502    0 -0.27852182351E+03 -0.30388758758E+03  0.16117437093E+04  0.16636225103E+04  0.50400001928E-02 0.  1.
       -1    1    3    3    0  502  0.27852182351E+03  0.30388758758E+03 -0.94935274862E+03  0.10349844025E+04  0.50400001928E-02 0. -1.
</event>
<event>
 5   0  0.1677971E-05  0.2598602E+04  0.7818609E-02  0.8368676E-01
       -2   -1    0    0    0  501  0.00000000000E+00  0.00000000000E+00  0.77116151084E+03  0.77116151085E+03  0.25500000920E-02 0.  1.
        2   -1    0    0  501    0  0.00000000000E+00  0.00000000000E+00 -0.21891433765E+04  0.21891433765E+04  0.25500000920E-02 0. -1.
    10030    2    1    2    0    0  0.00000000000E+00  0.00000000000E+00 -0.14179818657E+04  0.29603048874E+04  0.25986020193E+04 0.  0.
        4    1    3    3  502    0 -0.50414385824E+03  0.22842913671E+03  0.63014802608E+03  0.83870677115E+03  0.12699999809E+01 0.  1.
       -4    1    3    3    0  502  0.50414385824E+03 -0.22842913671E+03 -0.20481298918E+04  0.21215981162E+04  0.12699999809E+01 0. -1.
</event>
<event>
 5   0  0.6984287E-06  0.2593980E+04  0.7818609E-02  0.8370249E-01
        1   -1    0    0  501    0  0.00000000000E+00  0.00000000000E+00  0.14275219945E+04  0.14275219945E+04  0.50400001928E-02 0.  1.
       -1   -1    0    0    0  501  0.00000000000E+00  0.00000000000E+00 -0.11783938059E+04  0.11783938059E+04  0.50400001928E-02 0. -1.
    10030    2    1    2    0    0  0.00000000000E+00  0.00000000000E+00  0.24912818860E+03  0.26059158004E+04  0.25939800124E+04 0.  0.
        3    1    3    3  502    0  0.97219496244E+03  0.73970171401E+03  0.56229991569E+03  0.13448058879E+04  0.10100000352E+00 0.  1.
       -3    1    3    3    0  502 -0.97219496244E+03 -0.73970171401E+03 -0.31317172709E+03  0.12611099126E+04  0.10100000352E+00 0. -1.
</event>
<event>
 5   0  0.7138294E-06  0.2590447E+04  0.7818609E-02  0.8371453E-01
       -1   -1    0    0    0  501  0.00000000000E+00  0.00000000000E+00  0.11072306215E+04  0.11072306215E+04  0.50400001928E-02 0. -1.
        1   -1    0    0  501    0  0.00000000000E+00  0.00000000000E+00 -0.15151347117E+04  0.15151347117E+04  0.50400001928E-02 0.  1.
    10030    2    1    2    0    0  0.00000000000E+00  0.00000000000E+00 -0.40790409017E+03  0.26223653332E+04  0.25904467171E+04 0.  0.
        2    1    3    3  502    0 -0.11116625136E+04  0.34089579374E+03  0.37369262554E+03  0.12213311037E+04  0.25500000920E-02 0. -1.
       -2    1    3    3    0  502  0.11116625136E+04 -0.34089579374E+03 -0.78159671571E+03  0.14010342296E+04  0.25500000920E-02 0.  1.
</event>
<event>
 5   0  0.7138294E-06  0.2625892E+04  0.7818609E-02  0.8359459E-01
       -1   -1    0    0    0  501  0.00000000000E+00  0.00000000000E+00  0.11433363621E+04  0.11433363621E+04  0.50400001928E-02 0.  1.
        1   -1    0    0  501    0  0.00000000000E+00  0.00000000000E+00 -0.15077162825E+04  0.15077162825E+04  0.50400001928E-02 0. -1.
    10030    2    1    2    0    0  0.00000000000E+00  0.00000000000E+00 -0.36437992039E+03  0.26510526445E+04  0.26258917338E+04 0.  0.
        2    1    3    3  502    0  0.92535941637E+03  0.86784926716E+03 -0.52362339282E+03  0.13724554118E+04  0.25500000920E-02 0. -1.
       -2    1    3    3    0  502 -0.92535941637E+03 -0.86784926716E+03  0.15924347243E+03  0.12785972327E+04  0.25500000920E-02 0.  1.
</event>
<event>
 5   0  0.6993678E-06  0.2766595E+04  0.7818609E-02  0.8313715E-01
       -1   -1    0    0    0  501  0.00000000000E+00  0.00000000000E+00  0.80763112629E+03  0.80763112631E+03  0.50400001928E-02 0. -1.
        1   -1    0    0  501    0  0.00000000000E+00  0.00000000000E+00 -0.23692894750E+04  0.23692894750E+04  0.50400001928E-02 0.  1.
    10030    2    1    2    0    0  0.00000000000E+00  0.00000000000E+00 -0.15616583487E+04  0.31769206013E+04  0.27665949666E+04 0.  0.
        1    1    3    3  502    0 -0.45188048579E+03  0.40864307385E+03  0.64526754194E+03  0.88744314519E+03  0.50400001928E-02 0. -1.
       -1    1    3    3    0  502  0.45188048579E+03 -0.40864307385E+03 -0.22069258907E+04  0.22894774561E+04  0.50400001928E-02 0.  1.
</event>
<event>
 5   0  0.6706225E-06  0.2616044E+04  0.7818609E-02  0.8362772E-01
       -1   -1    0    0    0  501  0.00000000000E+00  0.00000000000E+00  0.13139028614E+04  0.13139028614E+04  0.50400001928E-02 0. -1.
        1   -1    0    0  501    0  0.00000000000E+00  0.00000000000E+00 -0.13021672332E+04  0.13021672332E+04  0.50400001928E-02 0.  1.
    10030    2    1    2    0    0  0.00000000000E+00  0.00000000000E+00  0.11735628194E+02  0.26160700945E+04  0.26160437715E+04 0.  0.
        5    1    3    3  502    0 -0.57644040955E+03  0.47810953863E+02  0.11790504207E+04  0.13132979165E+04  0.46999998093E+01 0. -1.
       -5    1    3    3    0  502  0.57644040955E+03 -0.47810953863E+02 -0.11673147925E+04  0.13027721780E+04  0.46999998093E+01 0.  1.
</event>
<event>
 5   0  0.7138294E-06  0.2562254E+04  0.7818609E-02  0.8381137E-01
       -1   -1    0    0    0  501  0.00000000000E+00  0.00000000000E+00  0.13105706634E+04  0.13105706634E+04  0.50400001928E-02 0.  1.
        1   -1    0    0  501    0  0.00000000000E+00  0.00000000000E+00 -0.12523452519E+04  0.12523452519E+04  0.50400001928E-02 0. -1.
    10030    2    1    2    0    0  0.00000000000E+00  0.00000000000E+00  0.58225411479E+02  0.25629159153E+04  0.25622544351E+04 0.  0.
        2    1    3    3  502    0 -0.41452252339E+03  0.94628954284E+03  0.78693229709E+03  0.12986744247E+04  0.25500000920E-02 0.  1.
       -2    1    3    3    0  502  0.41452252339E+03 -0.94628954284E+03 -0.72870688561E+03  0.12642414905E+04  0.25500000920E-02 0. -1.
</event>
<event>
 5   0  0.1677971E-05  0.2603575E+04  0.7818609E-02  0.8366988E-01
        2   -1    0    0  501    0  0.00000000000E+00  0.00000000000E+00  0.15173419232E+04  0.15173419232E+04  0.25500000920E-02 0. -1.
       -2   -1    0    0    0  501  0.00000000000E+00  0.00000000000E+00 -0.11168545535E+04  0.11168545535E+04  0.25500000920E-02 0.  1.
    10030    2    1    2    0    0  0.00000000000E+00  0.00000000000E+00  0.40048736973E+03  0.26341964767E+04  0.26035746474E+04 0.  0.
        4    1    3    3  502    0 -0.22342229963E+03  0.11501159413E+04  0.77433644717E+03  0.14043798449E+04  0.12699999809E+01 0. -1.
       -4    1    3    3    0  502  0.22342229963E+03 -0.11501159413E+04 -0.37384907744E+03  0.12298166318E+04  0.12699999809E+01 0.  1.
</event>
<event>
 5   0  0.1677971E-05  0.2616210E+04  0.7818609E-02  0.8362716E-01
        2   -1    0    0  501    0  0.00000000000E+00  0.00000000000E+00  0.18450546920E+04  0.18450546920E+04  0.25500000920E-02 0. -1.
       -2   -1    0    0    0  501  0.00000000000E+00  0.00000000000E+00 -0.92741896424E+03  0.92741896424E+03  0.25500000920E-02 0.  1.
    10030    2    1    2    0    0  0.00000000000E+00  0.00000000000E+00  0.91763572772E+03  0.27724736562E+04  0.26162100156E+04 0.  0.
        4    1    3    3  502    0  0.64597618432E+03  0.75049757321E+03  0.13646260092E+04  0.16860419912E+04  0.12699999809E+01 0. -1.
       -4    1    3    3    0  502 -0.64597618432E+03 -0.75049757321E+03 -0.44699028150E+03  0.10864316650E+04  0.12699999809E+01 0.  1.
</event>
<event>
 5   0  0.1702345E-05  0.2099535E+04  0.7818609E-02  0.8561448E-01
       -2   -1    0    0    0  501  0.00000000000E+00  0.00000000000E+00  0.46376990749E+03  0.46376990750E+03  0.25500000920E-02 0. -1.
        2   -1    0    0  501    0  0.00000000000E+00  0.00000000000E+00 -0.23762036927E+04  0.23762036927E+04  0.25500000920E-02 0.  1.
    10030    2    1    2    0    0  0.00000000000E+00  0.00000000000E+00 -0.19124337852E+04  0.28399736002E+04  0.20995349645E+04 0.  0.
        1    1    3    3  502    0 -0.10468626345E+04  0.26527258591E+02 -0.10554947551E+04  0.14868403576E+04  0.50400001928E-02 0. -1.
       -1    1    3    3    0  502  0.10468626345E+04 -0.26527258591E+02 -0.85693903010E+03  0.13531332426E+04  0.50400001928E-02 0.  1.
</event>
<event>
 5   0  0.6918420E-06  0.2611205E+04  0.7818609E-02  0.8364405E-01
        1   -1    0    0  501    0  0.00000000000E+00  0.00000000000E+00  0.16745887432E+04  0.16745887432E+04  0.50400001928E-02 0. -1.
       -1   -1    0    0    0  501  0.00000000000E+00  0.00000000000E+00 -0.10179200668E+04  0.10179200668E+04  0.50400001928E-02 0.  1.
    10030    2    1    2    0    0  0.00000000000E+00  0.00000000000E+00  0.65666867646E+03  0.26925088100E+04  0.26112046916E+04 0.  0.
        4    1    3    3  502    0 -0.10569328179E+04  0.39573644491E+03  0.10051886009E+04  0.15113305567E+04  0.12699999809E+01 0. -1.
       -4    1    3    3    0  502  0.10569328179E+04 -0.39573644491E+03 -0.34851992443E+03  0.11811782533E+04  0.12699999809E+01 0.  1.
</event>
<event>
 5   0  0.6918420E-06  0.2614160E+04  0.7818609E-02  0.8363407E-01
       -1   -1    0    0    0  501  0.00000000000E+00  0.00000000000E+00  0.12298791587E+04  0.12298791587E+04  0.50400001928E-02 0.  1.
        1   -1    0    0  501    0  0.00000000000E+00  0.00000000000E+00 -0.13891268716E+04  0.13891268716E+04  0.50400001928E-02 0. -1.
    10030    2    1    2    0    0  0.00000000000E+00  0.00000000000E+00 -0.15924771288E+03  0.26190060303E+04  0.26141600472E+04 0.  0.
        4    1    3    3  502    0  0.74473226688E+02 -0.12908613518E+04  0.11200875212E+03  0.12978508638E+04  0.12699999809E+01 0.  1.
       -4    1    3    3    0  502 -0.74473226688E+02  0.12908613518E+04 -0.27125646501E+03  0.13211551665E+04  0.12699999809E+01 0. -1.
</event>
<event>
 5   0  0.1869956E-05  0.2613240E+04  0.7818609E-02  0.8363718E-01
       -2   -1    0    0    0  501  0.00000000000E+00  0.00000000000E+00  0.11980936614E+04  0.11980936614E+04  0.25500000920E-02 0. -1.
        2   -1    0    0  501    0  0.00000000000E+00  0.00000000000E+00 -0.14249766213E+04  0.14249766213E+04  0.25500000920E-02 0.  1.
    10030    2    1    2    0    0  0.00000000000E+00  0.00000000000E+00 -0.22688295981E+03  0.26230702827E+04  0.26132397193E+04 0.  0.
        5    1    3    3  502    0 -0.64364626679E+03  0.63743324362E+03 -0.10585948925E+04  0.13932863644E+04  0.46999998093E+01 0.  1.
       -5    1    3    3    0  502  0.64364626679E+03 -0.63743324362E+03  0.83171193265E+03  0.12297839183E+04  0.46999998093E+01 0. -1.
</event>
<event>
 5   0  0.6706225E-06  0.2511233E+04  0.7818609E-02  0.8398994E-01
        1   -1    0    0  501    0  0.00000000000E+00  0.00000000000E+00  0.27595947087E+04  0.27595947088E+04  0.50400001928E-02 0.  1.
       -1   -1    0    0    0  501  0.00000000000E+00  0.00000000000E+00 -0.57130613982E+03  0.57130613984E+03  0.50400001928E-02 0. -1.
    10030    2    1    2    0    0  0.00000000000E+00  0.00000000000E+00  0.21882885689E+04  0.33309008486E+04  0.25112334822E+04 0.  0.
        5    1    3    3  502    0 -0.59737450080E+03  0.10181842373E+04  0.16615520331E+04  0.20382180168E+04  0.46999998093E+01 0. -1.
       -5    1    3    3    0  502  0.59737450080E+03 -0.10181842373E+04  0.52673653582E+03  0.12926828318E+04  0.46999998093E+01 0.  1.
</event>
<event>
 5   0  0.6706225E-06  0.2569149E+04  0.7818609E-02  0.8378757E-01
       -1   -1    0    0    0  501  0.00000000000E+00  0.00000000000E+00  0.97544488075E+03  0.97544488076E+03  0.50400001928E-02 0.  1.
        1   -1    0    0  501    0  0.00000000000E+00  0.00000000000E+00 -0.16916708272E+04  0.16916708272E+04  0.50400001928E-02 0. -1.
    10030    2    1    2    0    0  0.00000000000E+00  0.00000000000E+00 -0.71622594646E+03  0.26671157080E+04  0.25691490018E+04 0.  0.
        5    1    3    3  502    0 -0.29398850081E+03  0.35094638066E+03  0.88786898029E+03  0.99896247020E+03  0.46999998093E+01 0.  1.
       -5    1    3    3    0  502  0.29398850081E+03 -0.35094638066E+03 -0.16040949267E+04  0.16681532378E+04  0.46999998093E+01 0. -1.
</event>
<event>
 5   0  0.1681731E-05  0.2615672E+04  0.7818609E-02  0.8362897E-01
        2   -1    0    0  501    0  0.00000000000E+00  0.00000000000E+00  0.14876312317E+04  0.14876312317E+04  0.25500000920E-02 0. -1.
       -2   -1    0    0    0  501  0.00000000000E+00  0.00000000000E+00 -0.11497706291E+04  0.11497706291E+04  0.25500000920E-02 0.  1.
    10030    2    1    2    0    0  0.00000000000E+00  0.00000000000E+00  0.33786060261E+03  0.26374018608E+04  0.26156717662E+04 0.  0.
        2    1    3    3  502    0 -0.79230179852E+03 -0.10226568252E+04 -0.24668903550E+02  0.12939001804E+04  0.25500000920E-02 0.  1.
       -2    1    3    3    0  502  0.79230179852E+03  0.10226568252E+04  0.36252950616E+03  0.13435016803E+04  0.25500000920E-02 0. -1.
</event>
<event>
 5   0  0.6984287E-06  0.2588540E+04  0.7818609E-02  0.8372104E-01
       -1   -1    0    0    0  501  0.00000000000E+00  0.00000000000E+00  0.21241597845E+04  0.21241597845E+04  0.50400001928E-02 0.  1.
        1   -1    0    0  501    0  0.00000000000E+00  0.00000000000E+00 -0.78861027645E+03  0.78861027646E+03  0.50400001928E-02 0. -1.
    10030    2    1    2    0    0  0.00000000000E+00  0.00000000000E+00  0.13355495081E+04  0.29127700610E+04  0.25885395380E+04 0.  0.
        3    1    3    3  502    0  0.52115829819E+03  0.47470077228E+03 -0.55362714693E+03  0.89635362608E+03  0.10100000352E+00 0. -1.
       -3    1    3    3    0  502 -0.52115829819E+03 -0.47470077228E+03  0.18891766550E+04  0.20164164349E+04  0.10100000352E+00 0.  1.
</event>
<event>
 5   0  0.1720129E-05  0.2605633E+04  0.7818609E-02  0.8366290E-01
       -2   -1    0    0    0  501  0.00000000000E+00  0.00000000000E+00  0.12044020404E+04  0.12044020404E+04  0.25500000920E-02 0. -1.
        2   -1    0    0  501    0  0.00000000000E+00  0.00000000000E+00 -0.14092730632E+04  0.14092730632E+04  0.25500000920E-02 0.  1.
    10030    2    1    2    0    0  0.00000000000E+00  0.00000000000E+00 -0.20487102274E+03  0.26136751036E+04  0.26056333993E+04 0.  0.
        3    1    3    3  502    0 -0.35170345257E+03  0.12223866653E+04 -0.38509743649E+03  0.13289938013E+04  0.10100000352E+00 0.  1.
       -3    1    3    3    0  502  0.35170345257E+03 -0.12223866653E+04  0.18022641375E+03  0.12846813023E+04  0.10100000352E+00 0. -1.
</event>
<event>
 5   0  0.1677971E-05  0.2612461E+04  0.7818609E-02  0.8363981E-01
        2   -1    0    0  501    0  0.00000000000E+00  0.00000000000E+00  0.10722590581E+04  0.10722590581E+04  0.25500000920E-02 0.  1.
       -2   -1    0    0    0  501  0.00000000000E+00  0.00000000000E+00 -0.15912556634E+04  0.15912556634E+04  0.25500000920E-02 0. -1.
    10030    2    1    2    0    0  0.00000000000E+00  0.00000000000E+00 -0.51899660528E+03  0.26635147216E+04  0.26124611376E+04 0.  0.
        4    1    3    3  502    0  0.12946748657E+04  0.31582967736E+02 -0.43328824069E+03  0.13656210324E+04  0.12699999809E+01 0.  1.
       -4    1    3    3    0  502 -0.12946748657E+04 -0.31582967736E+02 -0.85708364582E+02  0.12978936892E+04  0.12699999809E+01 0. -1.
</event>
<event>
 5   0  0.1677971E-05  0.2609554E+04  0.7818609E-02  0.8364963E-01
        2   -1    0    0  501    0  0.00000000000E+00  0.00000000000E+00  0.10033453448E+04  0.10033453448E+04  0.25500000920E-02 0.  1.
       -2   -1    0    0    0  501  0.00000000000E+00  0.00000000000E+00 -0.16967664707E+04  0.16967664707E+04  0.25500000920E-02 0. -1.
    10030    2    1    2    0    0  0.00000000000E+00  0.00000000000E+00 -0.69342112594E+03  0.27001118156E+04  0.26095537853E+04 0.  0.
        4    1    3    3  502    0 -0.56638755960E+03  0.11703310785E+04 -0.45992151325E+03  0.13791298388E+04  0.12699999809E+01 0. -1.
       -4    1    3    3    0  502  0.56638755960E+03 -0.11703310785E+04 -0.23349961269E+03  0.13209819768E+04  0.12699999809E+01 0.  1.
</event>
<event>
 5   0  0.7138294E-06  0.2611811E+04  0.7818609E-02  0.8364200E-01
        1   -1    0    0  501    0  0.00000000000E+00  0.00000000000E+00  0.21964193402E+04  0.21964193402E+04  0.50400001928E-02 0.  1.
       -1   -1    0    0    0  501  0.00000000000E+00  0.00000000000E+00 -0.77644064137E+03  0.77644064139E+03  0.50400001928E-02 0. -1.
    10030    2    1    2    0    0  0.00000000000E+00  0.00000000000E+00  0.14199786989E+04  0.29728599816E+04  0.26118110508E+04 0.  0.
        2    1    3    3  502    0 -0.47957589669E+03  0.29892197600E+03 -0.63006024619E+03  0.84635884957E+03  0.25500000920E-02 0. -1.
       -2    1    3    3    0  502  0.47957589669E+03 -0.29892197600E+03  0.20500389450E+04  0.21265011321E+04  0.25500000920E-02 0.  1.
</event>
<event>
 5   0  0.1702345E-05  0.2594110E+04  0.7818609E-02  0.8370205E-01
        2   -1    0    0  501    0  0.00000000000E+00  0.00000000000E+00  0.12471517598E+04  0.12471517598E+04  0.25500000920E-02 0.  1.
       -2   -1    0    0    0  501  0.00000000000E+00  0.00000000000E+00 -0.13489551470E+04  0.13489551470E+04  0.25500000920E-02 0. -1.
    10030    2    1    2    0    0  0.00000000000E+00  0.00000000000E+00 -0.10180338719E+03  0.25961069069E+04  0.25941100868E+04 0.  0.
        1    1    3    3  502    0  0.93048021152E+03  0.25138014339E+03  0.81773323617E+03  0.12639909201E+04  0.50400001928E-02 0.  1.
       -1    1    3    3    0  502 -0.93048021152E+03 -0.25138014339E+03 -0.91953662337E+03  0.13321159868E+04  0.50400001928E-02 0. -1.
</event>
<event>
 5   0  0.6993678E-06  0.2460019E+04  0.7818609E-02  0.8417369E-01
       -1   -1    0    0    0  501  0.00000000000E+00  0.00000000000E+00  0.65465019039E+03  0.65465019041E+03  0.50400001928E-02 0. -1.
        1   -1    0    0  501    0  0.00000000000E+00  0.00000000000E+00 -0.23110418110E+04  0.23110418110E+04  0.50400001928E-02 0.  1.
    10030    2    1    2    0    0  0.00000000000E+00  0.00000000000E+00 -0.16563916206E+04  0.29656920014E+04  0.24600194809E+04 0.  0.
        1    1    3    3  502    0  0.30957165956E+03  0.90107282577E+03 -0.17660203019E+04  0.20066376246E+04  0.50400001928E-02 0.  1.
       -1    1    3    3    0  502 -0.30957165956E+03 -0.90107282577E+03  0.10962868135E+03  0.95905437674E+03  0.50400001928E-02 0. -1.
</event>
<event>
 5   0  0.6706225E-06  0.2629281E+04  0.7818609E-02  0.8358322E-01
       -1   -1    0    0    0  501  0.00000000000E+00  0.00000000000E+00  0.91190245512E+03  0.91190245514E+03  0.50400001928E-02 0. -1.
        1   -1    0    0  501    0  0.00000000000E+00  0.00000000000E+00 -0.18952468839E+04  0.18952468839E+04  0.50400001928E-02 0.  1.
    10030    2    1    2    0    0  0.00000000000E+00  0.00000000000E+00 -0.98334442874E+03  0.28071493390E+04  0.26292814885E+04 0.  0.
        5    1    3    3  502    0 -0.94889902101E+02 -0.60189179092E+03  0.75202659093E+03  0.96790697123E+03  0.46999998093E+01 0. -1.
       -5    1    3    3    0  502  0.94889902101E+02  0.60189179092E+03 -0.17353710197E+04  0.18392423678E+04  0.46999998093E+01 0.  1.
</event>
<event>
 5   0  0.1702345E-05  0.2635759E+04  0.7818609E-02  0.8356155E-01
        2   -1    0    0  501    0  0.00000000000E+00  0.00000000000E+00  0.18247924968E+04  0.18247924968E+04  0.25500000920E-02 0. -1.
       -2   -1    0    0    0  501  0.00000000000E+00  0.00000000000E+00 -0.95178276686E+03  0.95178276687E+03  0.25500000920E-02 0.  1.
    10030    2    1    2    0    0  0.00000000000E+00  0.00000000000E+00  0.87300972994E+03  0.27765752637E+04  0.26357587534E+04 0.  0.
        1    1    3    3  502    0 -0.10501913971E+04  0.72550162728E+03  0.78197615979E+03  0.14969105839E+04  0.50400001928E-02 0.  1.
       -1    1    3    3    0  502  0.10501913971E+04 -0.72550162728E+03  0.91033570147E+02  0.12796646798E+04  0.50400001928E-02 0. -1.
</event>
<event>
 5   0  0.6706225E-06  0.2780650E+04  0.7818609E-02  0.8309301E-01
        1   -1    0    0  501    0  0.00000000000E+00  0.00000000000E+00  0.18195458073E+04  0.18195458073E+04  0.50400001928E-02 0. -1.
       -1   -1    0    0    0  501  0.00000000000E+00  0.00000000000E+00 -0.10623547780E+04  0.10623547780E+04  0.50400001928E-02 0.  1.
    10030    2    1    2    0    0  0.00000000000E+00  0.00000000000E+00  0.75719102932E+03  0.28819005853E+04  0.27806496955E+04 0.  0.
        5    1    3    3  502    0  0.83564350697E+03 -0.10027490699E+04  0.87474968073E+03  0.15713099191E+04  0.46999998093E+01 0.  1.
       -5    1    3    3    0  502 -0.83564350697E+03  0.10027490699E+04 -0.11755865141E+03  0.13105906662E+04  0.46999998093E+01 0. -1.
</event>
<event>
 5   0  0.6984287E-06  0.2627788E+04  0.7818609E-02  0.8358823E-01
        1   -1    0    0  501    0  0.00000000000E+00  0.00000000000E+00  0.14940233940E+04  0.14940233940E+04  0.50400001928E-02 0.  1.
       -1   -1    0    0    0  501  0.00000000000E+00  0.00000000000E+00 -0.11554822323E+04  0.11554822323E+04  0.50400001928E-02 0. -1.
    10030    2    1    2    0    0  0.00000000000E+00  0.00000000000E+00  0.33854116175E+03  0.26495056263E+04  0.26277880329E+04 0.  0.
        3    1    3    3  502    0  0.11204490104E+04  0.59084775220E+03  0.52116853761E+03  0.13697166517E+04  0.10100000352E+00 0.  1.
       -3    1    3    3    0  502 -0.11204490104E+04 -0.59084775220E+03 -0.18262737585E+03  0.12797889747E+04  0.10100000352E+00 0. -1.
</event>
<event>
 5   0  0.6918420E-06  0.2689941E+04  0.7818609E-02  0.8338276E-01
       -1   -1    0    0    0  501  0.00000000000E+00  0.00000000000E+00  0.20011916708E+04  0.20011916708E+04  0.50400001928E-02 0. -1.
        1   -1    0    0  501    0  0.00000000000E+00  0.00000000000E+00 -0.90393434397E+03  0.90393434399E+03  0.50400001928E-02 0.  1.
    10030    2    1    2    0    0  0.00000000000E+00  0.00000000000E+00  0.10972573269E+04  0.29051260148E+04  0.26899411742E+04 0.  0.
        4    1    3    3  502    0 -0.91593802696E+03 -0.75084133667E+03  0.12369845736E+04  0.17125529569E+04  0.12699999809E+01 0.  1.
       -4    1    3    3    0  502  0.91593802696E+03  0.75084133667E+03 -0.13972724671E+03  0.11925730579E+04  0.12699999809E+01 0. -1.
</event>
<event>
 5   0  0.1869956E-05  0.2494461E+04  0.7818609E-02  0.8404961E-01
        2   -1    0    0  501    0  0.00000000000E+00  0.00000000000E+00  0.19730897856E+04  0.19730897856E+04  0.25500000920E-02 0.  1.
       -2   -1    0    0    0  501  0.00000000000E+00  0.00000000000E+00 -0.78840008662E+03  0.78840008663E+03  0.25500000920E-02 0. -1.
    10030    2    1    2    0    0  0.00000000000E+00  0.00000000000E+00  0.11846896990E+04  0.27614898723E+04  0.24944611906E+04 0.  0.
        5    1    3    3  502    0  0.83693121608E+03 -0.66663520224E+02 -0.42870225210E+03  0.94271183102E+03  0.46999998093E+01 0. -1.
       -5    1    3    3    0  502 -0.83693121608E+03  0.66663520224E+02  0.16133919511E+04  0.18187780412E+04  0.46999998093E+01 0.  1.
</event>
<event>
 5   0  0.1702345E-05  0.2137410E+04  0.7818609E-02  0.8544941E-01
       -2   -1    0    0    0  501  0.00000000000E+00  0.00000000000E+00  0.97172094150E+03  0.97172094150E+03  0.25500000920E-02 0.  1.
        2   -1    0    0  501    0  0.00000000000E+00  0.00000000000E+00 -0.11753687016E+04  0.11753687016E+04  0.25500000920E-02 0. -1.
    10030    2    1    2    0    0  0.00000000000E+00  0.00000000000E+00 -0.20364776009E+03  0.21470896431E+04  0.21374100040E+04 0.  0.
        1    1    3    3  502    0 -0.86330287476E+03 -0.23911218093E+03 -0.68727013272E+03  0.11290733918E+04  0.50400001928E-02 0. -1.
       -1    1    3    3    0  502  0.86330287476E+03  0.23911218093E+03  0.48362237263E+03  0.10180162513E+04  0.50400001928E-02 0.  1.
</event>
<event>
 5   0  0.7138294E-06  0.2628593E+04  0.7818609E-02  0.8358553E-01
        1   -1    0    0  501    0  0.00000000000E+00  0.00000000000E+00  0.13424852974E+04  0.13424852974E+04  0.50400001928E-02 0.  1.
       -1   -1    0    0    0  501  0.00000000000E+00  0.00000000000E+00 -0.12866991428E+04  0.12866991428E+04  0.50400001928E-02 0. -1.
    10030    2    1    2    0    0  0.00000000000E+00  0.00000000000E+00  0.55786154589E+02  0.26291844402E+04  0.26285925370E+04 0.  0.
        2    1    3    3  502    0 -0.12336603589E+04  0.21530823752E+03  0.42685525914E+03  0.13230574177E+04  0.25500000920E-02 0. -1.
       -2    1    3    3    0  502  0.12336603589E+04 -0.21530823752E+03 -0.37106910455E+03  0.13061270224E+04  0.25500000920E-02 0.  1.
</event>
<event>
 5   0  0.6706225E-06  0.2348392E+04  0.7818609E-02  0.8459082E-01
       -1   -1    0    0    0  501  0.00000000000E+00  0.00000000000E+00  0.60719377636E+03  0.60719377638E+03  0.50400001928E-02 0.  1.
        1   -1    0    0  501    0  0.00000000000E+00  0.00000000000E+00 -0.22706688668E+04  0.22706688668E+04  0.50400001928E-02 0. -1.
    10030    2    1    2    0    0  0.00000000000E+00  0.00000000000E+00 -0.16634750905E+04  0.28778626432E+04  0.23483917937E+04 0.  0.
        5    1    3    3  502    0 -0.81306488247E+03 -0.65657759039E+03 -0.17574918052E+03  0.10597539808E+04  0.46999998093E+01 0.  1.
       -5    1    3    3    0  502  0.81306488247E+03  0.65657759039E+03 -0.14877259099E+04  0.18181086624E+04  0.46999998093E+01 0. -1.
</event>
<event>
 5   0  0.1720129E-05  0.2604900E+04  0.7818609E-02  0.8366539E-01
        2   -1    0    0  501    0  0.00000000000E+00  0.00000000000E+00  0.24471434018E+04  0.24471434019E+04  0.25500000920E-02 0.  1.
       -2   -1    0    0    0  501  0.00000000000E+00  0.00000000000E+00 -0.69320683236E+03  0.69320683236E+03  0.25500000920E-02 0. -1.
    10030    2    1    2    0    0  0.00000000000E+00  0.00000000000E+00  0.17539365695E+04  0.31403502342E+04  0.26049004019E+04 0.  0.
        3    1    3    3  502    0  0.27687232224E+03 -0.96990335209E+03  0.18703671972E+04  0.21250045313E+04  0.10100000352E+00 0.  1.
       -3    1    3    3    0  502 -0.27687232224E+03  0.96990335209E+03 -0.11643062774E+03  0.10153457029E+04  0.10100000352E+00 0. -1.
</event>
<event>
 5   0  0.1702345E-05  0.2606663E+04  0.7818609E-02  0.8365941E-01
       -2   -1    0    0    0  501  0.00000000000E+00  0.00000000000E+00  0.84406813064E+03  0.84406813064E+03  0.25500000920E-02 0.  1.
        2   -1    0    0  501    0  0.00000000000E+00  0.00000000000E+00 -0.20124836508E+04  0.20124836508E+04  0.25500000920E-02 0. -1.
    10030    2    1    2    0    0  0.00000000000E+00  0.00000000000E+00 -0.11684155201E+04  0.28565517814E+04  0.26066632411E+04 0.  0.
        1    1    3    3  502    0 -0.65309948792E+03  0.16665237819E+02 -0.18200876188E+04  0.19337878921E+04  0.50400001928E-02 0. -1.
       -1    1    3    3    0  502  0.65309948792E+03 -0.16665237819E+02  0.65167209869E+03  0.92276388936E+03  0.50400001928E-02 0.  1.
</event>
<event>
 5   0  0.5840500E-06  0.2598552E+04  0.7818609E-02  0.8368693E-01
       -3   -1    0    0    0  501  0.00000000000E+00  0.00000000000E+00  0.70325660520E+03  0.70325661246E+03  0.10100000352E+00 0. -1.
        3   -1    0    0  501    0  0.00000000000E+00  0.00000000000E+00 -0.24004294340E+04  0.24004294362E+04  0.10100000352E+00 0.  1.
    10030    2    1    2    0    0  0.00000000000E+00  0.00000000000E+00 -0.16971728288E+04  0.31036860486E+04  0.25985518039E+04 0.  0.
        2    1    3    3  502    0  0.50892629362E+03 -0.11632947443E+04 -0.11775477899E+04  0.17317272972E+04  0.25500000920E-02 0.  1.
       -2    1    3    3    0  502 -0.50892629362E+03  0.11632947443E+04 -0.51962503894E+03  0.13719587514E+04  0.25500000920E-02 0. -1.
</event>
<event>
 5   0  0.7138294E-06  0.2591769E+04  0.7818609E-02  0.8371003E-01
        1   -1    0    0  501    0  0.00000000000E+00  0.00000000000E+00  0.19008834718E+04  0.19008834718E+04  0.50400001928E-02 0. -1.
       -1   -1    0    0    0  501  0.00000000000E+00  0.00000000000E+00 -0.88343988187E+03  0.88343988188E+03  0.50400001928E-02 0.  1.
    10030    2    1    2    0    0  0.00000000000E+00  0.00000000000E+00  0.10174435899E+04  0.27843233537E+04  0.25917687164E+04 0.  0.
        2    1    3    3  502    0  0.14128501282E+03 -0.66069694229E+03 -0.67925304878E+03  0.95805355210E+03  0.25500000920E-02 0.  1.
       -2    1    3    3    0  502 -0.14128501282E+03  0.66069694229E+03  0.16966966387E+04  0.18262698016E+04  0.25500000920E-02 0. -1.
</event>
<event>
 5   0  0.6706225E-06  0.2603909E+04  0.7818609E-02  0.8366875E-01
       -1   -1    0    0    0  501  0.00000000000E+00  0.00000000000E+00  0.83608470055E+03  0.83608470057E+03  0.50400001928E-02 0.  1.
        1   -1    0    0  501    0  0.00000000000E+00  0.00000000000E+00 -0.20274081990E+04  0.20274081990E+04  0.50400001928E-02 0. -1.
    10030    2    1    2    0    0  0.00000000000E+00  0.00000000000E+00 -0.11913234984E+04  0.28634928995E+04  0.26039085829E+04 0.  0.
        5    1    3    3  502    0  0.48568470668E+03 -0.10277497746E+04  0.10236325553E+03  0.11413411232E+04  0.46999998093E+01 0. -1.
       -5    1    3    3    0  502 -0.48568470668E+03  0.10277497746E+04 -0.12936867540E+04  0.17221517763E+04  0.46999998093E+01 0.  1.
</event>
<event>
 5   0  0.7138294E-06  0.2590719E+04  0.7818609E-02  0.8371361E-01
        1   -1    0    0  501    0  0.00000000000E+00  0.00000000000E+00  0.57328248196E+03  0.57328248198E+03  0.50400001928E-02 0. -1.
       -1   -1    0    0    0  501  0.00000000000E+00  0.00000000000E+00 -0.29269266323E+04  0.29269266323E+04  0.50400001928E-02 0.  1.
    10030    2    1    2    0    0  0.00000000000E+00  0.00000000000E+00 -0.23536441504E+04  0.35002091143E+04  0.25907186373E+04 0.  0.
        2    1    3    3  502    0  0.29733650602E+03 -0.79441467380E+03 -0.24995147455E+04  0.26395222361E+04  0.25500000920E-02 0.  1.
       -2    1    3    3    0  502 -0.29733650602E+03  0.79441467380E+03  0.14587059518E+03  0.86068687820E+03  0.25500000920E-02 0. -1.
</event>
<event>
 5   0  0.6706225E-06  0.2598615E+04  0.7818609E-02  0.8368672E-01
       -1   -1    0    0    0  501  0.00000000000E+00  0.00000000000E+00  0.77359985634E+03  0.77359985636E+03  0.50400001928E-02 0. -1.
        1   -1    0    0  501    0  0.00000000000E+00  0.00000000000E+00 -0.21822648864E+04  0.21822648864E+04  0.50400001928E-02 0.  1.
    10030    2    1    2    0    0  0.00000000000E+00  0.00000000000E+00 -0.14086650300E+04  0.29558647427E+04  0.25986148638E+04 0.  0.
        5    1    3    3  502    0 -0.45999775793E+03 -0.12659831801E+03 -0.20790113503E+04  0.21330577480E+04  0.46999998093E+01 0.  1.
       -5    1    3    3    0  502  0.45999775793E+03  0.12659831801E+03  0.67034632032E+03  0.82280699474E+03  0.46999998093E+01 0. -1.
</event>
<event>
 5   0  0.7138294E-06  0.2543764E+04  0.7818609E-02  0.8387558E-01
       -1   -1    0    0    0  501  0.00000000000E+00  0.00000000000E+00  0.89929772851E+03  0.89929772852E+03  0.50400001928E-02 0. -1.
        1   -1    0    0  501    0  0.00000000000E+00  0.00000000000E+00 -0.17988304971E+04  0.17988304971E+04  0.50400001928E-02 0.  1.
    10030    2    1    2    0    0  0.00000000000E+00  0.00000000000E+00 -0.89953276862E+03  0.26981282257E+04  0.25437642816E+04 0.  0.
        2    1    3    3  502    0 -0.67886152070E+03  0.71439564263E+03 -0.13025914094E+04  0.16333886489E+04  0.25500000920E-02 0.  1.
       -2    1    3    3    0  502  0.67886152070E+03 -0.71439564263E+03  0.40305864075E+03  0.10647395768E+04  0.25500000920E-02 0. -1.
</event>
<event>
 5   0  0.1720129E-05  0.2603475E+04  0.7818609E-02  0.8367022E-01
        2   -1    0    0  501    0  0.00000000000E+00  0.00000000000E+00  0.13369035054E+04  0.13369035054E+04  0.25500000920E-02 0. -1.
       -2   -1    0    0    0  501  0.00000000000E+00  0.00000000000E+00 -0.12674968671E+04  0.12674968671E+04  0.25500000920E-02 0.  1.
    10030    2    1    2    0    0  0.00000000000E+00  0.00000000000E+00  0.69406638236E+02  0.26044003725E+04  0.26034753732E+04 0.  0.
        3    1    3    3  502    0  0.11843466980E+04 -0.52295705227E+03  0.17024985556E+03  0.13058124686E+04  0.10100000352E+00 0.  1.
       -3    1    3    3    0  502 -0.11843466980E+04  0.52295705227E+03 -0.10084321732E+03  0.12985879039E+04  0.10100000352E+00 0. -1.
</event>
<event>
 5   0  0.1681731E-05  0.2444932E+04  0.7818609E-02  0.8422871E-01
       -2   -1    0    0    0  501  0.00000000000E+00  0.00000000000E+00  0.11457112410E+04  0.11457112410E+04  0.25500000920E-02 0.  1.
        2   -1    0    0  501    0  0.00000000000E+00  0.00000000000E+00 -0.13043631650E+04  0.13043631650E+04  0.25500000920E-02 0. -1.
    10030    2    1    2    0    0  0.00000000000E+00  0.00000000000E+00 -0.15865192391E+03  0.24500744060E+04  0.24449323430E+04 0.  0.
        2    1    3    3  502    0  0.29315152112E+03  0.52801445345E+03 -0.11444284281E+04  0.12940067637E+04  0.25500000920E-02 0. -1.
       -2    1    3    3    0  502 -0.29315152112E+03 -0.52801445345E+03  0.98577650419E+03  0.11560676423E+04  0.25500000920E-02 0.  1.
</event>
<event>
 5   0  0.1702345E-05  0.2630849E+04  0.7818609E-02  0.8357798E-01
        2   -1    0    0  501    0  0.00000000000E+00  0.00000000000E+00  0.18396706255E+04  0.18396706255E+04  0.25500000920E-02 0.  1.
       -2   -1    0    0    0  501  0.00000000000E+00  0.00000000000E+00 -0.94057116611E+03  0.94057116611E+03  0.25500000920E-02 0. -1.
    10030    2    1    2    0    0  0.00000000000E+00  0.00000000000E+00  0.89909945937E+03  0.27802417916E+04  0.26308486429E+04 0.  0.
        1    1    3    3  502    0  0.11675761206E+04 -0.17097859609E+03 -0.16472655479E+03  0.11914707363E+04  0.50400001928E-02 0.  1.
       -1    1    3    3    0  502 -0.11675761206E+04  0.17097859609E+03  0.10638260142E+04  0.15887710553E+04  0.50400001928E-02 0. -1.
</event>
<event>
 5   0  0.7138294E-06  0.2571663E+04  0.7818609E-02  0.8377891E-01
       -1   -1    0    0    0  501  0.00000000000E+00  0.00000000000E+00  0.11632134047E+04  0.11632134047E+04  0.50400001928E-02 0.  1.
        1   -1    0    0  501    0  0.00000000000E+00  0.00000000000E+00 -0.14213751547E+04  0.14213751547E+04  0.50400001928E-02 0. -1.
    10030    2    1    2    0    0  0.00000000000E+00  0.00000000000E+00 -0.25816174996E+03  0.25845885594E+04  0.25716629897E+04 0.  0.
        2    1    3    3  502    0 -0.76722517611E+03 -0.98548348402E+03  0.17831662993E+03  0.12615898655E+04  0.25500000920E-02 0. -1.
       -2    1    3    3    0  502  0.76722517611E+03  0.98548348402E+03 -0.43647837990E+03  0.13229986940E+04  0.25500000920E-02 0.  1.
</event>
<event>
 5   0  0.1677971E-05  0.2598806E+04  0.7818609E-02  0.8368607E-01
       -2   -1    0    0    0  501  0.00000000000E+00  0.00000000000E+00  0.92304389830E+03  0.92304389831E+03  0.25500000920E-02 0.  1.
        2   -1    0    0  501    0  0.00000000000E+00  0.00000000000E+00 -0.18292172939E+04  0.18292172939E+04  0.25500000920E-02 0. -1.
    10030    2    1    2    0    0  0.00000000000E+00  0.00000000000E+00 -0.90617339562E+03  0.27522611922E+04  0.25988057733E+04 0.  0.
        4    1    3    3  502    0  0.11216581608E+04 -0.55914468142E+03 -0.81639811402E+03  0.14957497444E+04  0.12699999809E+01 0. -1.
       -4    1    3    3    0  502 -0.11216581608E+04  0.55914468142E+03 -0.89775281597E+02  0.12565114478E+04  0.12699999809E+01 0.  1.
</event>
<event>
 5   0  0.6993678E-06  0.2598434E+04  0.7818609E-02  0.8368733E-01
        1   -1    0    0  501    0  0.00000000000E+00  0.00000000000E+00  0.17273640010E+04  0.17273640010E+04  0.50400001928E-02 0. -1.
       -1   -1    0    0    0  501  0.00000000000E+00  0.00000000000E+00 -0.97719132629E+03  0.97719132630E+03  0.50400001928E-02 0.  1.
    10030    2    1    2    0    0  0.00000000000E+00  0.00000000000E+00  0.75017267474E+03  0.27045553273E+04  0.25984342356E+04 0.  0.
        1    1    3    3  502    0  0.36092557421E+03 -0.34723474361E+03  0.16228477363E+04  0.16983739319E+04  0.50400001928E-02 0. -1.
       -1    1    3    3    0  502 -0.36092557421E+03  0.34723474361E+03 -0.87267506160E+03  0.10061813954E+04  0.50400001928E-02 0.  1.
</event>
<event>
 5   0  0.6918420E-06  0.2621480E+04  0.7818609E-02  0.8360941E-01
        1   -1    0    0  501    0  0.00000000000E+00  0.00000000000E+00  0.20907454285E+04  0.20907454285E+04  0.50400001928E-02 0. -1.
       -1   -1    0    0    0  501  0.00000000000E+00  0.00000000000E+00 -0.82173529628E+03  0.82173529630E+03  0.50400001928E-02 0.  1.
    10030    2    1    2    0    0  0.00000000000E+00  0.00000000000E+00  0.12690101322E+04  0.29124807248E+04  0.26214799745E+04 0.  0.
        4    1    3    3  502    0 -0.35060184953E+03  0.65168381967E+02  0.20358135204E+04  0.20668107987E+04  0.12699999809E+01 0. -1.
       -4    1    3    3    0  502  0.35060184953E+03 -0.65168381967E+02 -0.76680338818E+03  0.84566992611E+03  0.12699999809E+01 0.  1.
</event>
<event>
 5   0  0.1720129E-05  0.2587305E+04  0.7818609E-02  0.8372526E-01
       -2   -1    0    0    0  501  0.00000000000E+00  0.00000000000E+00  0.13677524212E+04  0.13677524212E+04  0.25500000920E-02 0. -1.
        2   -1    0    0  501    0  0.00000000000E+00  0.00000000000E+00 -0.12235668561E+04  0.12235668561E+04  0.25500000920E-02 0.  1.
    10030    2    1    2    0    0  0.00000000000E+00  0.00000000000E+00  0.14418556513E+03  0.25913192773E+04  0.25873047984E+04 0.  0.
        3    1    3    3  502    0 -0.31141460192E+03  0.11991225504E+03 -0.11797179260E+04  0.12260066877E+04  0.10100000352E+00 0.  1.
       -3    1    3    3    0  502  0.31141460192E+03 -0.11991225504E+03  0.13239034911E+04  0.13653125896E+04  0.10100000352E+00 0. -1.
</event>
<event>
 5   0  0.6706225E-06  0.2562934E+04  0.7818609E-02  0.8380902E-01
        1   -1    0    0  501    0  0.00000000000E+00  0.00000000000E+00  0.11510490659E+04  0.11510490659E+04  0.50400001928E-02 0.  1.
       -1   -1    0    0    0  501  0.00000000000E+00  0.00000000000E+00 -0.14266619340E+04  0.14266619340E+04  0.50400001928E-02 0. -1.
    10030    2    1    2    0    0  0.00000000000E+00  0.00000000000E+00 -0.27561286809E+03  0.25777110000E+04  0.25629341674E+04 0.  0.
        5    1    3    3  502    0  0.24576398583E+03 -0.91833712382E+03 -0.10020586400E+04  0.13812626896E+04  0.46999998093E+01 0. -1.
       -5    1    3    3    0  502 -0.24576398583E+03  0.91833712382E+03  0.72644577196E+03  0.11964483103E+04  0.46999998093E+01 0.  1.
</event>
<event>
 5   0  0.1720129E-05  0.2605974E+04  0.7818609E-02  0.8366175E-01
       -2   -1    0    0    0  501  0.00000000000E+00  0.00000000000E+00  0.11441408526E+04  0.11441408526E+04  0.25500000920E-02 0.  1.
        2   -1    0    0  501    0  0.00000000000E+00  0.00000000000E+00 -0.14838865039E+04  0.14838865039E+04  0.25500000920E-02 0. -1.
    10030    2    1    2    0    0  0.00000000000E+00  0.00000000000E+00 -0.33974565130E+03  0.26280273565E+04  0.26059740365E+04 0.  0.
        3    1    3    3  502    0 -0.58727975842E+03 -0.69156266201E+03 -0.11129976665E+04  0.14359388030E+04  0.10100000352E+00 0.  1.
       -3    1    3    3    0  502  0.58727975842E+03  0.69156266201E+03  0.77325201519E+03  0.11920885535E+04  0.10100000352E+00 0. -1.
</event>
<event>
 5   0  0.6918420E-06  0.2446267E+04  0.7818609E-02  0.8422382E-01
       -1   -1    0    0    0  501  0.00000000000E+00  0.00000000000E+00  0.10555254916E+04  0.10555254916E+04  0.50400001928E-02 0.  1.
        1   -1    0    0  501    0  0.00000000000E+00  0.00000000000E+00 -0.14173557312E+04  0.14173557312E+04  0.50400001928E-02 0. -1.
    10030    2    1    2    0    0  0.00000000000E+00  0.00000000000E+00 -0.36183023961E+03  0.24728812228E+04  0.24462666289E+04 0.  0.
        4    1    3    3  502    0  0.89958089788E+02 -0.47738534723E+03  0.95382344147E+03  0.10704064639E+04  0.12699999809E+01 0.  1.
       -4    1    3    3    0  502 -0.89958089788E+02  0.47738534723E+03 -0.13156536811E+04  0.14024747588E+04  0.12699999809E+01 0. -1.
</event>
<event>
 5   0  0.6706225E-06  0.2592167E+04  0.7818609E-02  0.8370867E-01
        1   -1    0    0  501    0  0.00000000000E+00  0.00000000000E+00  0.16169836502E+04  0.16169836502E+04  0.50400001928E-02 0.  1.
       -1   -1    0    0    0  501  0.00000000000E+00  0.00000000000E+00 -0.10388675529E+04  0.10388675529E+04  0.50400001928E-02 0. -1.
    10030    2    1    2    0    0  0.00000000000E+00  0.00000000000E+00  0.57811609733E+03  0.26558512031E+04  0.25921665439E+04 0.  0.
        5    1    3    3  502    0 -0.58735941656E+03 -0.10664755604E+04  0.74432677219E+03  0.14270268529E+04  0.46999998093E+01 0.  1.
       -5    1    3    3    0  502  0.58735941656E+03  0.10664755604E+04 -0.16621067486E+03  0.12288243502E+04  0.46999998093E+01 0. -1.
</event>
<event>
 5   0  0.1720129E-05  0.2608804E+04  0.7818609E-02  0.8365217E-01
        2   -1    0    0  501    0  0.00000000000E+00  0.00000000000E+00  0.11355060801E+04  0.11355060801E+04  0.25500000920E-02 0.  1.
       -2   -1    0    0    0  501  0.00000000000E+00  0.00000000000E+00 -0.14984191076E+04  0.14984191076E+04  0.25500000920E-02 0. -1.
    10030    2    1    2    0    0  0.00000000000E+00  0.00000000000E+00 -0.36291302752E+03  0.26339251878E+04  0.26088035628E+04 0.  0.
        3    1    3    3  502    0 -0.61482042804E+03 -0.10778556362E+04 -0.58743189326E+03  0.13728995487E+04  0.10100000352E+00 0. -1.
       -3    1    3    3    0  502  0.61482042804E+03  0.10778556362E+04  0.22451886575E+03  0.12610256391E+04  0.10100000352E+00 0.  1.
</event>
<event>
 5   0  0.6993678E-06  0.2602955E+04  0.7818609E-02  0.8367198E-01
        1   -1    0    0  501    0  0.00000000000E+00  0.00000000000E+00  0.11682045770E+04  0.11682045771E+04  0.50400001928E-02 0. -1.
       -1   -1    0    0    0  501  0.00000000000E+00  0.00000000000E+00 -0.14499549701E+04  0.14499549701E+04  0.50400001928E-02 0.  1.
    10030    2    1    2    0    0  0.00000000000E+00  0.00000000000E+00 -0.28175039302E+03  0.26181595471E+04  0.26029552686E+04 0.  0.
        1    1    3    3  502    0  0.10247964799E+04 -0.77492776085E+03 -0.34974937600E+03  0.13315575413E+04  0.50400001928E-02 0.  1.
       -1    1    3    3    0  502 -0.10247964799E+04  0.77492776085E+03  0.67998982975E+02  0.12866020058E+04  0.50400001928E-02 0. -1.
</event>
<event>
 5   0  0.1869956E-05  0.2573356E+04  0.7818609E-02  0.8377308E-01
        2   -1    0    0  501    0  0.00000000000E+00  0.00000000000E+00  0.17971629987E+04  0.17971629987E+04  0.25500000920E-02 0.  1.
       -2   -1    0    0    0  501  0.00000000000E+00  0.00000000000E+00 -0.92119623286E+03  0.92119623287E+03  0.25500000920E-02 0. -1.
    10030    2    1    2    0    0  0.00000000000E+00  0.00000000000E+00  0.87596676582E+03  0.27183592315E+04  0.25733556180E+04 0.  0.
        5    1    3    3  502    0  0.10837261341E+04  0.81173157048E+02  0.11656119105E+04  0.15936513517E+04  0.46999998093E+01 0.  1.
       -5    1    3    3    0  502 -0.10837261341E+04 -0.81173157048E+02 -0.28964514464E+03  0.11247078798E+04  0.46999998093E+01 0. -1.
</event>
<event>
 5   0  0.7138294E-06  0.2593935E+04  0.7818609E-02  0.8370264E-01
        1   -1    0    0  501    0  0.00000000000E+00  0.00000000000E+00  0.14522758276E+04  0.14522758276E+04  0.50400001928E-02 0.  1.
       -1   -1    0    0    0  501  0.00000000000E+00  0.00000000000E+00 -0.11582683244E+04  0.11582683244E+04  0.50400001928E-02 0. -1.
    10030    2    1    2    0    0  0.00000000000E+00  0.00000000000E+00  0.29400750319E+03  0.26105441520E+04  0.25939353033E+04 0.  0.
        2    1    3    3  502    0 -0.81365533036E+03  0.17399343556E+03  0.11482691785E+04  0.14180376647E+04  0.25500000920E-02 0.  1.
       -2    1    3    3    0  502  0.81365533036E+03 -0.17399343556E+03 -0.85426167536E+03  0.11925064873E+04  0.25500000920E-02 0. -1.
</event>
<event>
 5   0  0.6984287E-06  0.2626632E+04  0.7818609E-02  0.8359211E-01
        1   -1    0    0  501    0  0.00000000000E+00  0.00000000000E+00  0.18287261138E+04  0.18287261138E+04  0.50400001928E-02 0.  1.
       -1   -1    0    0    0  501  0.00000000000E+00  0.00000000000E+00 -0.94316966666E+03  0.94316966667E+03  0.50400001928E-02 0. -1.
    10030    2    1    2    0    0  0.00000000000E+00  0.00000000000E+00  0.88555644714E+03  0.27718957805E+04  0.26266320635E+04 0.  0.
        3    1    3    3  502    0  0.80861895228E+03  0.10176772691E+04  0.24459627210E+03  0.13226333508E+04  0.10100000352E+00 0.  1.
       -3    1    3    3    0  502 -0.80861895228E+03 -0.10176772691E+04  0.64096017504E+03  0.14492624297E+04  0.10100000352E+00 0. -1.
</event>
<event>
 5   0  0.6706225E-06  0.2545305E+04  0.7818609E-02  0.8387021E-01
       -1   -1    0    0    0  501  0.00000000000E+00  0.00000000000E+00  0.11490322215E+04  0.11490322216E+04  0.50400001928E-02 0. -1.
        1   -1    0    0  501    0  0.00000000000E+00  0.00000000000E+00 -0.14095728196E+04  0.14095728196E+04  0.50400001928E-02 0.  1.
    10030    2    1    2    0    0  0.00000000000E+00  0.00000000000E+00 -0.26054059806E+03  0.25586050412E+04  0.25453051592E+04 0.  0.
        5    1    3    3  502    0  0.29606431980E+03 -0.37843713935E+03 -0.13148819931E+04  0.13999305324E+04  0.46999998093E+01 0.  1.
       -5    1    3    3    0  502 -0.29606431980E+03  0.37843713935E+03  0.10543413950E+04  0.11586745087E+04  0.46999998093E+01 0. -1.
</event>
<event>
 5   0  0.1681731E-05  0.2583867E+04  0.7818609E-02  0.8373702E-01
        2   -1    0    0  501    0  0.00000000000E+00  0.00000000000E+00  0.14548959293E+04  0.14548959293E+04  0.25500000920E-02 0. -1.
       -2   -1    0    0    0  501  0.00000000000E+00  0.00000000000E+00 -0.11472242357E+04  0.11472242357E+04  0.25500000920E-02 0.  1.
    10030    2    1    2    0    0  0.00000000000E+00  0.00000000000E+00  0.30767169367E+03  0.26021201650E+04  0.25838667694E+04 0.  0.
        2    1    3    3  502    0 -0.32740895767E+03  0.11803513940E+04  0.56742656859E+03  0.13499625735E+04  0.25500000920E-02 0. -1.
       -2    1    3    3    0  502  0.32740895767E+03 -0.11803513940E+04 -0.25975487492E+03  0.12521575915E+04  0.25500000920E-02 0.  1.
</event>
<event>
 5   0  0.1702345E-05  0.2562784E+04  0.7818609E-02  0.8380954E-01
       -2   -1    0    0    0  501  0.00000000000E+00  0.00000000000E+00  0.14893484453E+04  0.14893484454E+04  0.25500000920E-02 0. -1.
        2   -1    0    0  501    0  0.00000000000E+00  0.00000000000E+00 -0.11024720279E+04  0.11024720279E+04  0.25500000920E-02 0.  1.
    10030    2    1    2    0    0  0.00000000000E+00  0.00000000000E+00  0.38687641748E+03  0.25918204732E+04  0.25627836434E+04 0.  0.
        1    1    3    3  502    0 -0.30407574353E+03  0.11991129115E+04  0.53133627603E+03  0.13463476782E+04  0.50400001928E-02 0. -1.
       -1    1    3    3    0  502  0.30407574353E+03 -0.11991129115E+04 -0.14445985855E+03  0.12454727950E+04  0.50400001928E-02 0.  1.
</event>
<event>
 5   0  0.6993678E-06  0.2445592E+04  0.7818609E-02  0.8422629E-01
       -1   -1    0    0    0  501  0.00000000000E+00  0.00000000000E+00  0.14341219391E+04  0.14341219391E+04  0.50400001928E-02 0. -1.
        1   -1    0    0  501    0  0.00000000000E+00  0.00000000000E+00 -0.10426105469E+04  0.10426105469E+04  0.50400001928E-02 0.  1.
    10030    2    1    2    0    0  0.00000000000E+00  0.00000000000E+00  0.39151139223E+03  0.24767324860E+04  0.24455924920E+04 0.  0.
        1    1    3    3  502    0 -0.26058789026E+03  0.15342155598E+03 -0.10041456186E+04  0.10486909200E+04  0.50400001928E-02 0.  1.
       -1    1    3    3    0  502  0.26058789026E+03 -0.15342155598E+03  0.13956570108E+04  0.14280415660E+04  0.50400001928E-02 0. -1.
</event>
<event>
 5   0  0.6984287E-06  0.2597291E+04  0.7818609E-02  0.8369122E-01
        1   -1    0    0  501    0  0.00000000000E+00  0.00000000000E+00  0.75980104126E+03  0.75980104128E+03  0.50400001928E-02 0. -1.
       -1   -1    0    0    0  501  0.00000000000E+00  0.00000000000E+00 -0.22196339118E+04  0.22196339118E+04  0.50400001928E-02 0.  1.
    10030    2    1    2    0    0  0.00000000000E+00  0.00000000000E+00 -0.14598328705E+04  0.29794349530E+04  0.25972910175E+04 0.  0.
        3    1    3    3  502    0  0.67499151239E+03 -0.10195228389E+02 -0.20025414373E+04  0.21132651757E+04  0.10100000352E+00 0.  1.
       -3    1    3    3    0  502 -0.67499151239E+03  0.10195228389E+02  0.54270856682E+03  0.86616977734E+03  0.10100000352E+00 0. -1.
</event>
<event>
 5   0  0.6984287E-06  0.2604518E+04  0.7818609E-02  0.8366668E-01
       -1   -1    0    0    0  501  0.00000000000E+00  0.00000000000E+00  0.11835286398E+04  0.11835286398E+04  0.50400001928E-02 0. -1.
        1   -1    0    0  501    0  0.00000000000E+00  0.00000000000E+00 -0.14329002677E+04  0.14329002677E+04  0.50400001928E-02 0.  1.
    10030    2    1    2    0    0  0.00000000000E+00  0.00000000000E+00 -0.24937162790E+03  0.26164289074E+04  0.26045180013E+04 0.  0.
        3    1    3    3  502    0 -0.88255683578E+03  0.55666310025E+03 -0.90741408275E+03  0.13828162218E+04  0.10100000352E+00 0.  1.
       -3    1    3    3    0  502  0.88255683578E+03 -0.55666310025E+03  0.65804245485E+03  0.12336126856E+04  0.10100000352E+00 0. -1.
</event>
<event>
 5   0  0.6918420E-06  0.2613487E+04  0.7818609E-02  0.8363634E-01
        1   -1    0    0  501    0  0.00000000000E+00  0.00000000000E+00  0.21638149221E+04  0.21638149221E+04  0.50400001928E-02 0.  1.
       -1   -1    0    0    0  501  0.00000000000E+00  0.00000000000E+00 -0.78915214637E+03  0.78915214638E+03  0.50400001928E-02 0. -1.
    10030    2    1    2    0    0  0.00000000000E+00  0.00000000000E+00  0.13746627757E+04  0.29529670685E+04  0.26134874709E+04 0.  0.
        4    1    3    3  502    0  0.91747991590E+03  0.39700372171E+03 -0.26352512467E+03  0.10338416007E+04  0.12699999809E+01 0. -1.
       -4    1    3    3    0  502 -0.91747991590E+03 -0.39700372171E+03  0.16381879004E+04  0.19191254677E+04  0.12699999809E+01 0.  1.
</event>
<event>
 5   0  0.1702345E-05  0.2589502E+04  0.7818609E-02  0.8371776E-01
        2   -1    0    0  501    0  0.00000000000E+00  0.00000000000E+00  0.16148900325E+04  0.16148900325E+04  0.25500000920E-02 0. -1.
       -2   -1    0    0    0  501  0.00000000000E+00  0.00000000000E+00 -0.10380771798E+04  0.10380771798E+04  0.25500000920E-02 0.  1.
    10030    2    1    2    0    0  0.00000000000E+00  0.00000000000E+00  0.57681285270E+03  0.26529672123E+04  0.25895022615E+04 0.  0.
        1    1    3    3  502    0  0.79301188515E+03  0.49170683409E+03  0.12080345615E+04  0.15264307919E+04  0.50400001928E-02 0. -1.
       -1    1    3    3    0  502 -0.79301188515E+03 -0.49170683409E+03 -0.63122170881E+03  0.11265364203E+04  0.50400001928E-02 0.  1.
</event>
<event>
 5   0  0.1720129E-05  0.2578712E+04  0.7818609E-02  0.8375468E-01
        2   -1    0    0  501    0  0.00000000000E+00  0.00000000000E+00  0.13263231726E+04  0.13263231726E+04  0.25500000920E-02 0.  1.
       -2   -1    0    0    0  501  0.00000000000E+00  0.00000000000E+00 -0.12534196332E+04  0.12534196332E+04  0.25500000920E-02 0. -1.
    10030    2    1    2    0    0  0.00000000000E+00  0.00000000000E+00  0.72903539354E+02  0.25797428059E+04  0.25787124730E+04 0.  0.
        3    1    3    3  502    0  0.20572003869E+03  0.63798205751E+03 -0.10653954258E+04  0.12587331979E+04  0.10100000352E+00 0. -1.
       -3    1    3    3    0  502 -0.20572003869E+03 -0.63798205751E+03  0.11382989651E+04  0.13210096079E+04  0.10100000352E+00 0.  1.
</event>
<event>
 5   0  0.6984287E-06  0.2566027E+04  0.7818609E-02  0.8379834E-01
        1   -1    0    0  501    0  0.00000000000E+00  0.00000000000E+00  0.76746281795E+03  0.76746281796E+03  0.50400001928E-02 0.  1.
       -1   -1    0    0    0  501  0.00000000000E+00  0.00000000000E+00 -0.21448899088E+04  0.21448899088E+04  0.50400001928E-02 0. -1.
    10030    2    1    2    0    0  0.00000000000E+00  0.00000000000E+00 -0.13774270909E+04  0.29123527268E+04  0.25660266979E+04 0.  0.
        3    1    3    3  502    0  0.83799788703E+03 -0.81190553684E+03 -0.12942922218E+04  0.17425910091E+04  0.10100000352E+00 0. -1.
       -3    1    3    3    0  502 -0.83799788703E+03  0.81190553684E+03 -0.83134869040E+02  0.11697617176E+04  0.10100000352E+00 0.  1.
</event>
<event>
 5   0  0.1677971E-05  0.2593009E+04  0.7818609E-02  0.8370580E-01
        2   -1    0    0  501    0  0.00000000000E+00  0.00000000000E+00  0.17171716117E+04  0.17171716117E+04  0.25500000920E-02 0.  1.
       -2   -1    0    0    0  501  0.00000000000E+00  0.00000000000E+00 -0.97889141271E+03  0.97889141271E+03  0.25500000920E-02 0. -1.
    10030    2    1    2    0    0  0.00000000000E+00  0.00000000000E+00  0.73828019902E+03  0.26960630244E+04  0.25930094831E+04 0.  0.
        4    1    3    3  502    0  0.19613893376E+03 -0.78186649192E+03  0.14249462097E+04  0.16371496590E+04  0.12699999809E+01 0.  1.
       -4    1    3    3    0  502 -0.19613893376E+03  0.78186649192E+03 -0.68666601064E+03  0.10589133655E+04  0.12699999809E+01 0. -1.
</event>
<event>
 5   0  0.6984287E-06  0.2593691E+04  0.7818609E-02  0.8370347E-01
        1   -1    0    0  501    0  0.00000000000E+00  0.00000000000E+00  0.12970870716E+04  0.12970870716E+04  0.50400001928E-02 0.  1.
       -1   -1    0    0    0  501  0.00000000000E+00  0.00000000000E+00 -0.12966044068E+04  0.12966044068E+04  0.50400001928E-02 0. -1.
    10030    2    1    2    0    0  0.00000000000E+00  0.00000000000E+00  0.48266480614E+00  0.25936914784E+04  0.25936914335E+04 0.  0.
        3    1    3    3  502    0 -0.87199196461E+03 -0.31665169844E+03  0.90642594206E+03  0.12970143727E+04  0.10100000352E+00 0.  1.
       -3    1    3    3    0  502  0.87199196461E+03  0.31665169844E+03 -0.90594327725E+03  0.12966771056E+04  0.10100000352E+00 0. -1.
</event>
<event>
 5   0  0.6984287E-06  0.2619415E+04  0.7818609E-02  0.8361636E-01
        1   -1    0    0  501    0  0.00000000000E+00  0.00000000000E+00  0.10418138712E+04  0.10418138712E+04  0.50400001928E-02 0.  1.
       -1   -1    0    0    0  501  0.00000000000E+00  0.00000000000E+00 -0.16464872568E+04  0.16464872568E+04  0.50400001928E-02 0. -1.
    10030    2    1    2    0    0  0.00000000000E+00  0.00000000000E+00 -0.60467338561E+03  0.26883011281E+04  0.26194146392E+04 0.  0.
        3    1    3    3  502    0 -0.52389419970E+03 -0.11947405267E+04 -0.42141913127E+03  0.13709355029E+04  0.10100000352E+00 0.  1.
       -3    1    3    3    0  502  0.52389419970E+03  0.11947405267E+04 -0.18325425434E+03  0.13173656252E+04  0.10100000352E+00 0. -1.
</event>
<event>
 5   0  0.1720129E-05  0.2581127E+04  0.7818609E-02  0.8374640E-01
        2   -1    0    0  501    0  0.00000000000E+00  0.00000000000E+00  0.12352383278E+04  0.12352383278E+04  0.25500000920E-02 0.  1.
       -2   -1    0    0    0  501  0.00000000000E+00  0.00000000000E+00 -0.13483667937E+04  0.13483667937E+04  0.25500000920E-02 0. -1.
    10030    2    1    2    0    0  0.00000000000E+00  0.00000000000E+00 -0.11312846590E+03  0.25836051215E+04  0.25811271518E+04 0.  0.
        3    1    3    3  502    0 -0.81105574199E+03 -0.99563712144E+03  0.71815043682E+02  0.12861812100E+04  0.10100000352E+00 0.  1.
       -3    1    3    3    0  502  0.81105574199E+03  0.99563712144E+03 -0.18494350958E+03  0.12974239115E+04  0.10100000352E+00 0. -1.
</event>
<event>
 5   0  0.6918420E-06  0.2615640E+04  0.7818609E-02  0.8362908E-01
       -1   -1    0    0    0  501  0.00000000000E+00  0.00000000000E+00  0.82917819690E+03  0.82917819691E+03  0.50400001928E-02 0.  1.
        1   -1    0    0  501    0  0.00000000000E+00  0.00000000000E+00 -0.20627573703E+04  0.20627573703E+04  0.50400001928E-02 0. -1.
    10030    2    1    2    0    0  0.00000000000E+00  0.00000000000E+00 -0.12335791734E+04  0.28919355672E+04  0.26156402176E+04 0.  0.
        4    1    3    3  502    0 -0.76354218154E+03 -0.90433297455E+03 -0.16198354156E+01  0.11835620088E+04  0.12699999809E+01 0.  1.
       -4    1    3    3    0  502  0.76354218154E+03  0.90433297455E+03 -0.12319593380E+04  0.17083735585E+04  0.12699999809E+01 0. -1.
</event>
<event>
 5   0  0.6984287E-06  0.2594708E+04  0.7818609E-02  0.8370001E-01
       -1   -1    0    0    0  501  0.00000000000E+00  0.00000000000E+00  0.12369332378E+04  0.12369332378E+04  0.50400001928E-02 0.  1.
        1   -1    0    0  501    0  0.00000000000E+00  0.00000000000E+00 -0.13607258155E+04  0.13607258155E+04  0.50400001928E-02 0. -1.
    10030    2    1    2    0    0  0.00000000000E+00  0.00000000000E+00 -0.12379257771E+03  0.25976590534E+04  0.25947076820E+04 0.  0.
        3    1    3    3  502    0 -0.35559081606E+03  0.11439375254E+04 -0.56054826264E+03  0.13225930045E+04  0.10100000352E+00 0. -1.
       -3    1    3    3    0  502  0.35559081606E+03 -0.11439375254E+04  0.43675568493E+03  0.12750660489E+04  0.10100000352E+00 0.  1.
</event>
<event>
 5   0  0.1681731E-05  0.2608674E+04  0.7818609E-02  0.8365261E-01
       -2   -1    0    0    0  501  0.00000000000E+00  0.00000000000E+00  0.15104662622E+04  0.15104662622E+04  0.25500000920E-02 0. -1.
        2   -1    0    0  501    0  0.00000000000E+00  0.00000000000E+00 -0.11263376964E+04  0.11263376964E+04  0.25500000920E-02 0.  1.
    10030    2    1    2    0    0  0.00000000000E+00  0.00000000000E+00  0.38412856578E+03  0.26368039586E+04  0.26086740618E+04 0.  0.
        2    1    3    3  502    0  0.54782552678E+03 -0.11796305285E+04  0.92749502428E+02  0.13039338410E+04  0.25500000920E-02 0. -1.
       -2    1    3    3    0  502 -0.54782552678E+03  0.11796305285E+04  0.29137906335E+03  0.13328701175E+04  0.25500000920E-02 0.  1.
</event>
<event>
 5   0  0.6918420E-06  0.2717626E+04  0.7818609E-02  0.8329309E-01
       -1   -1    0    0    0  501  0.00000000000E+00  0.00000000000E+00  0.13833888811E+04  0.13833888811E+04  0.50400001928E-02 0.  1.
        1   -1    0    0  501    0  0.00000000000E+00  0.00000000000E+00 -0.13346735865E+04  0.13346735865E+04  0.50400001928E-02 0. -1.
    10030    2    1    2    0    0  0.00000000000E+00  0.00000000000E+00  0.48715294562E+02  0.27180624676E+04  0.27176258752E+04 0.  0.
        4    1    3    3  502    0  0.40771632525E+03  0.29269671335E+03 -0.12385672788E+04  0.13363960808E+04  0.12699999809E+01 0. -1.
       -4    1    3    3    0  502 -0.40771632525E+03 -0.29269671335E+03  0.12872825733E+04  0.13816663868E+04  0.12699999809E+01 0.  1.
</event>
<event>
 5   0  0.1702345E-05  0.2590659E+04  0.7818609E-02  0.8371381E-01
       -2   -1    0    0    0  501  0.00000000000E+00  0.00000000000E+00  0.61932616580E+03  0.61932616580E+03  0.25500000920E-02 0. -1.
        2   -1    0    0  501    0  0.00000000000E+00  0.00000000000E+00 -0.27092006735E+04  0.27092006735E+04  0.25500000920E-02 0.  1.
    10030    2    1    2    0    0  0.00000000000E+00  0.00000000000E+00 -0.20898745077E+04  0.33285268393E+04  0.25906592717E+04 0.  0.
        1    1    3    3  502    0  0.67035197041E+03 -0.69481554951E+03  0.64582489095E+02  0.96763180497E+03  0.50400001928E-02 0. -1.
       -1    1    3    3    0  502 -0.67035197041E+03  0.69481554951E+03 -0.21544569968E+04  0.23608950344E+04  0.50400001928E-02 0.  1.
</event>
<event>
 5   0  0.7138294E-06  0.2525971E+04  0.7818609E-02  0.8393791E-01
        1   -1    0    0  501    0  0.00000000000E+00  0.00000000000E+00  0.18635348473E+04  0.18635348473E+04  0.50400001928E-02 0.  1.
       -1   -1    0    0    0  501  0.00000000000E+00  0.00000000000E+00 -0.85597103477E+03  0.85597103479E+03  0.50400001928E-02 0. -1.
    10030    2    1    2    0    0  0.00000000000E+00  0.00000000000E+00  0.10075638126E+04  0.27195058821E+04  0.25259705870E+04 0.  0.
        2    1    3    3  502    0 -0.80814247244E+03 -0.22566649456E+03  0.15200959226E+04  0.17362923822E+04  0.25500000920E-02 0.  1.
       -2    1    3    3    0  502  0.80814247244E+03  0.22566649456E+03 -0.51253211009E+03  0.98321349991E+03  0.25500000920E-02 0. -1.
</event>
<event>
 5   0  0.6918420E-06  0.2613981E+04  0.7818609E-02  0.8363468E-01
       -1   -1    0    0    0  501  0.00000000000E+00  0.00000000000E+00  0.19837543689E+04  0.19837543689E+04  0.50400001928E-02 0. -1.
        1   -1    0    0  501    0  0.00000000000E+00  0.00000000000E+00 -0.86110667225E+03  0.86110667227E+03  0.50400001928E-02 0.  1.
    10030    2    1    2    0    0  0.00000000000E+00  0.00000000000E+00  0.11226476967E+04  0.28448610412E+04  0.26139809664E+04 0.  0.
        4    1    3    3  502    0 -0.36377098592E+03 -0.12507045966E+04  0.67869753647E+03  0.14687488816E+04  0.12699999809E+01 0.  1.
       -4    1    3    3    0  502  0.36377098592E+03  0.12507045966E+04  0.44395016019E+03  0.13761121596E+04  0.12699999809E+01 0. -1.
</event>
<event>
 5   0  0.1720129E-05  0.2534743E+04  0.7818609E-02  0.8390712E-01
       -2   -1    0    0    0  501  0.00000000000E+00  0.00000000000E+00  0.84365963801E+03  0.84365963802E+03  0.25500000920E-02 0.  1.
        2   -1    0    0  501    0  0.00000000000E+00  0.00000000000E+00 -0.19038852198E+04  0.19038852198E+04  0.25500000920E-02 0. -1.
    10030    2    1    2    0    0  0.00000000000E+00  0.00000000000E+00 -0.10602255818E+04  0.27475448578E+04  0.25347434705E+04 0.  0.
        3    1    3    3  502    0 -0.88144281834E+03  0.75945810890E+03 -0.10748069112E+04  0.15839595852E+04  0.10100000352E+00 0. -1.
       -3    1    3    3    0  502  0.88144281834E+03 -0.75945810890E+03  0.14581329396E+02  0.11635852726E+04  0.10100000352E+00 0.  1.
</event>
<event>
 5   0  0.6984287E-06  0.2586464E+04  0.7818609E-02  0.8372814E-01
       -1   -1    0    0    0  501  0.00000000000E+00  0.00000000000E+00  0.63152609399E+03  0.63152609401E+03  0.50400001928E-02 0. -1.
        1   -1    0    0  501    0  0.00000000000E+00  0.00000000000E+00 -0.26482662809E+04  0.26482662809E+04  0.50400001928E-02 0.  1.
    10030    2    1    2    0    0  0.00000000000E+00  0.00000000000E+00 -0.20167401869E+04  0.32797923749E+04  0.25864641967E+04 0.  0.
        3    1    3    3  502    0  0.17415637597E+03  0.46181496294E+03 -0.25241374643E+04  0.25719396284E+04  0.10100000352E+00 0.  1.
       -3    1    3    3    0  502 -0.17415637597E+03 -0.46181496294E+03  0.50739727745E+03  0.70785274645E+03  0.10100000352E+00 0. -1.
</event>
<event>
 5   0  0.1681731E-05  0.2601198E+04  0.7818609E-02  0.8367794E-01
       -2   -1    0    0    0  501  0.00000000000E+00  0.00000000000E+00  0.10044596529E+04  0.10044596529E+04  0.25500000920E-02 0.  1.
        2   -1    0    0  501    0  0.00000000000E+00  0.00000000000E+00 -0.16840470873E+04  0.16840470873E+04  0.25500000920E-02 0. -1.
    10030    2    1    2    0    0  0.00000000000E+00  0.00000000000E+00 -0.67958743449E+03  0.26885067402E+04  0.26011976878E+04 0.  0.
        2    1    3    3  502    0 -0.99913851944E+03  0.72553695539E+03 -0.76200935856E+03  0.14509789513E+04  0.25500000920E-02 0. -1.
       -2    1    3    3    0  502  0.99913851944E+03 -0.72553695539E+03  0.82421924065E+02  0.12375277889E+04  0.25500000920E-02 0.  1.
</event>
<event>
 5   0  0.1720129E-05  0.2591803E+04  0.7818609E-02  0.8370991E-01
       -2   -1    0    0    0  501  0.00000000000E+00  0.00000000000E+00  0.18007039943E+04  0.18007039943E+04  0.25500000920E-02 0. -1.
        2   -1    0    0  501    0  0.00000000000E+00  0.00000000000E+00 -0.93261365524E+03  0.93261365525E+03  0.25500000920E-02 0.  1.
    10030    2    1    2    0    0  0.00000000000E+00  0.00000000000E+00  0.86809033901E+03  0.27333176495E+04  0.25918033368E+04 0.  0.
        3    1    3    3  502    0  0.72831299102E+02  0.91039165736E+03  0.14036148957E+04  0.16745901449E+04  0.10100000352E+00 0. -1.
       -3    1    3    3    0  502 -0.72831299102E+02 -0.91039165736E+03 -0.53552455668E+03  0.10587275046E+04  0.10100000352E+00 0.  1.
</event>
<event>
 5   0  0.1681731E-05  0.2637820E+04  0.7818609E-02  0.8355467E-01
        2   -1    0    0  501    0  0.00000000000E+00  0.00000000000E+00  0.20054034780E+04  0.20054034780E+04  0.25500000920E-02 0. -1.
       -2   -1    0    0    0  501  0.00000000000E+00  0.00000000000E+00 -0.86741830511E+03  0.86741830512E+03  0.25500000920E-02 0.  1.
    10030    2    1    2    0    0  0.00000000000E+00  0.00000000000E+00  0.11379851729E+04  0.28728217831E+04  0.26378200742E+04 0.  0.
        2    1    3    3  502    0 -0.24533113399E+03  0.58508357193E+03  0.18282990081E+04  0.19352486699E+04  0.25500000920E-02 0. -1.
       -2    1    3    3    0  502  0.24533113399E+03 -0.58508357193E+03 -0.69031383522E+03  0.93757311318E+03  0.25500000920E-02 0.  1.
</event>
<event>
 5   0  0.1681731E-05  0.2612489E+04  0.7818609E-02  0.8363971E-01
        2   -1    0    0  501    0  0.00000000000E+00  0.00000000000E+00  0.29610635056E+04  0.29610635056E+04  0.25500000920E-02 0.  1.
       -2   -1    0    0    0  501  0.00000000000E+00  0.00000000000E+00 -0.57623729997E+03  0.57623729997E+03  0.25500000920E-02 0. -1.
    10030    2    1    2    0    0  0.00000000000E+00  0.00000000000E+00  0.23848262057E+04  0.35373008056E+04  0.26124894178E+04 0.  0.
        2    1    3    3  502    0 -0.74198638360E+03  0.13760125331E+02 -0.26308063207E+03  0.78736557804E+03  0.25500000920E-02 0. -1.
       -2    1    3    3    0  502  0.74198638360E+03 -0.13760125331E+02  0.26479068377E+04  0.27499352276E+04  0.25500000920E-02 0.  1.
</event>
<event>
 5   0  0.6706225E-06  0.2616847E+04  0.7818609E-02  0.8362501E-01
        1   -1    0    0  501    0  0.00000000000E+00  0.00000000000E+00  0.19851895287E+04  0.19851895287E+04  0.50400001928E-02 0. -1.
       -1   -1    0    0    0  501  0.00000000000E+00  0.00000000000E+00 -0.86237238189E+03  0.86237238191E+03  0.50400001928E-02 0.  1.
    10030    2    1    2    0    0  0.00000000000E+00  0.00000000000E+00  0.11228171468E+04  0.28475619106E+04  0.26168474334E+04 0.  0.
        5    1    3    3  502    0  0.99955061013E+03 -0.83917213895E+03  0.66255075698E+03  0.14636621525E+04  0.46999998093E+01 0.  1.
       -5    1    3    3    0  502 -0.99955061013E+03  0.83917213895E+03  0.46026638985E+03  0.13838997582E+04  0.46999998093E+01 0. -1.
</event>
<event>
 5   0  0.6993678E-06  0.2585203E+04  0.7818609E-02  0.8373245E-01
        1   -1    0    0  501    0  0.00000000000E+00  0.00000000000E+00  0.21457966325E+04  0.21457966325E+04  0.50400001928E-02 0.  1.
       -1   -1    0    0    0  501  0.00000000000E+00  0.00000000000E+00 -0.77864724405E+03  0.77864724407E+03  0.50400001928E-02 0. -1.
    10030    2    1    2    0    0  0.00000000000E+00  0.00000000000E+00  0.13671493885E+04  0.29244438766E+04  0.25852029972E+04 0.  0.
        1    1    3    3  502    0  0.21561310955E+03 -0.85938966204E+02 -0.75487985963E+03  0.78975826771E+03  0.50400001928E-02 0. -1.
       -1    1    3    3    0  502 -0.21561310955E+03  0.85938966204E+02  0.21220292481E+04  0.21346856089E+04  0.50400001928E-02 0.  1.
</event>
<event>
 5   0  0.1681731E-05  0.2599545E+04  0.7818609E-02  0.8368356E-01
        2   -1    0    0  501    0  0.00000000000E+00  0.00000000000E+00  0.22074546374E+04  0.22074546374E+04  0.25500000920E-02 0.  1.
       -2   -1    0    0    0  501  0.00000000000E+00  0.00000000000E+00 -0.76531988151E+03  0.76531988152E+03  0.25500000920E-02 0. -1.
    10030    2    1    2    0    0  0.00000000000E+00  0.00000000000E+00  0.14421347559E+04  0.29727745189E+04  0.25995452845E+04 0.  0.
        2    1    3    3  502    0  0.27431756984E+03  0.11280090614E+04  0.52536289374E+02  0.11620734200E+04  0.25500000920E-02 0. -1.
       -2    1    3    3    0  502 -0.27431756984E+03 -0.11280090614E+04  0.13895984665E+04  0.18107010990E+04  0.25500000920E-02 0.  1.
</event>
<event>
 5   0  0.1681731E-05  0.2603451E+04  0.7818609E-02  0.8367030E-01
        2   -1    0    0  501    0  0.00000000000E+00  0.00000000000E+00  0.23166959171E+04  0.23166959171E+04  0.25500000920E-02 0. -1.
       -2   -1    0    0    0  501  0.00000000000E+00  0.00000000000E+00 -0.73142514048E+03  0.73142514049E+03  0.25500000920E-02 0.  1.
    10030    2    1    2    0    0  0.00000000000E+00  0.00000000000E+00  0.15852707767E+04  0.30481210576E+04  0.26034512760E+04 0.  0.
        2    1    3    3  502    0  0.11004869698E+04 -0.35405624655E+03  0.92048477199E+02  0.11596983740E+04  0.25500000920E-02 0.  1.
       -2    1    3    3    0  502 -0.11004869698E+04  0.35405624655E+03  0.14932222995E+04  0.18884226836E+04  0.25500000920E-02 0. -1.
</event>
<event>
 5   0  0.5840500E-06  0.2371400E+04  0.7818609E-02  0.8450289E-01
       -3   -1    0    0    0  501  0.00000000000E+00  0.00000000000E+00  0.10143701272E+04  0.10143701323E+04  0.10100000352E+00 0. -1.
        3   -1    0    0  501    0  0.00000000000E+00  0.00000000000E+00 -0.13859682763E+04  0.13859682800E+04  0.10100000352E+00 0.  1.
    10030    2    1    2    0    0  0.00000000000E+00  0.00000000000E+00 -0.37159814911E+03  0.24003384123E+04  0.23714002844E+04 0.  0.
        5    1    3    3  502    0  0.70970149210E+03  0.29264429339E+03  0.72885715083E+03  0.10585706054E+04  0.46999998093E+01 0. -1.
       -5    1    3    3    0  502 -0.70970149210E+03 -0.29264429339E+03 -0.11004552999E+04  0.13417678069E+04  0.46999998093E+01 0.  1.
</event>
<event>
 5   0  0.1720129E-05  0.2601421E+04  0.7818609E-02  0.8367719E-01
        2   -1    0    0  501    0  0.00000000000E+00  0.00000000000E+00  0.15595796336E+04  0.15595796336E+04  0.25500000920E-02 0. -1.
       -2   -1    0    0    0  501  0.00000000000E+00  0.00000000000E+00 -0.10848099456E+04  0.10848099456E+04  0.25500000920E-02 0.  1.
    10030    2    1    2    0    0  0.00000000000E+00  0.00000000000E+00  0.47476968803E+03  0.26443895793E+04  0.26014207638E+04 0.  0.
        3    1    3    3  502    0 -0.19673925628E+03 -0.12857451759E+04  0.23809998696E+03  0.13223231853E+04  0.10100000352E+00 0.  1.
       -3    1    3    3    0  502  0.19673925628E+03  0.12857451759E+04  0.23666970107E+03  0.13220663940E+04  0.10100000352E+00 0. -1.
</event>
<event>
 5   0  0.7138294E-06  0.2602087E+04  0.7818609E-02  0.8367493E-01
       -1   -1    0    0    0  501  0.00000000000E+00  0.00000000000E+00  0.11386203468E+04  0.11386203469E+04  0.50400001928E-02 0. -1.
        1   -1    0    0  501    0  0.00000000000E+00  0.00000000000E+00 -0.14866356917E+04  0.14866356917E+04  0.50400001928E-02 0.  1.
    10030    2    1    2    0    0  0.00000000000E+00  0.00000000000E+00 -0.34801534485E+03  0.26252560385E+04  0.26020865834E+04 0.  0.
        2    1    3    3  502    0 -0.11604655897E+04 -0.22850321485E+03  0.37287008728E+03  0.12401315278E+04  0.25500000920E-02 0.  1.
       -2    1    3    3    0  502  0.11604655897E+04  0.22850321485E+03 -0.72088543213E+03  0.13851245108E+04  0.25500000920E-02 0. -1.
</event>
<event>
 5   0  0.6993678E-06  0.2470906E+04  0.7818609E-02  0.8413424E-01
        1   -1    0    0  501    0  0.00000000000E+00  0.00000000000E+00  0.18985710998E+04  0.18985710998E+04  0.50400001928E-02 0.  1.
       -1   -1    0    0    0  501  0.00000000000E+00  0.00000000000E+00 -0.80394371698E+03  0.80394371699E+03  0.50400001928E-02 0. -1.
    10030    2    1    2    0    0  0.00000000000E+00  0.00000000000E+00  0.10946273828E+04  0.27025148168E+04  0.24709061552E+04 0.  0.
        1    1    3    3  502    0 -0.37166121554E+03 -0.76214382144E+03  0.15300624410E+04  0.17493102461E+04  0.50400001928E-02 0.  1.
       -1    1    3    3    0  502  0.37166121554E+03  0.76214382144E+03 -0.43543505818E+03  0.95320457071E+03  0.50400001928E-02 0. -1.
</event>
<event>
 5   0  0.1681731E-05  0.2611811E+04  0.7818609E-02  0.8364200E-01
        2   -1    0    0  501    0  0.00000000000E+00  0.00000000000E+00  0.13192154251E+04  0.13192154251E+04  0.25500000920E-02 0.  1.
       -2   -1    0    0    0  501  0.00000000000E+00  0.00000000000E+00 -0.12927299407E+04  0.12927299407E+04  0.25500000920E-02 0. -1.
    10030    2    1    2    0    0  0.00000000000E+00  0.00000000000E+00  0.26485484427E+02  0.26119453658E+04  0.26118110791E+04 0.  0.
        2    1    3    3  502    0 -0.23288258584E+03 -0.94467979756E+03 -0.85785603664E+03  0.12971396217E+04  0.25500000920E-02 0. -1.
       -2    1    3    3    0  502  0.23288258584E+03  0.94467979756E+03  0.88434152107E+03  0.13148057441E+04  0.25500000920E-02 0.  1.
</event>
<event>
 5   0  0.1869956E-05  0.2625419E+04  0.7818609E-02  0.8359618E-01
       -2   -1    0    0    0  501  0.00000000000E+00  0.00000000000E+00  0.18466342295E+04  0.18466342295E+04  0.25500000920E-02 0. -1.
        2   -1    0    0  501    0  0.00000000000E+00  0.00000000000E+00 -0.93316059553E+03  0.93316059553E+03  0.25500000920E-02 0.  1.
    10030    2    1    2    0    0  0.00000000000E+00  0.00000000000E+00  0.91347363401E+03  0.27797948251E+04  0.26254190503E+04 0.  0.
        5    1    3    3  502    0  0.34464667539E+03  0.71320595734E+03  0.15650637714E+04  0.17541068288E+04  0.46999998093E+01 0. -1.
       -5    1    3    3    0  502 -0.34464667539E+03 -0.71320595734E+03 -0.65159013740E+03  0.10256879962E+04  0.46999998093E+01 0.  1.
</event>
<event>
 5   0  0.7138294E-06  0.2520331E+04  0.7818609E-02  0.8395778E-01
        1   -1    0    0  501    0  0.00000000000E+00  0.00000000000E+00  0.20133266361E+04  0.20133266361E+04  0.50400001928E-02 0.  1.
       -1   -1    0    0    0  501  0.00000000000E+00  0.00000000000E+00 -0.78875308312E+03  0.78875308313E+03  0.50400001928E-02 0. -1.
    10030    2    1    2    0    0  0.00000000000E+00  0.00000000000E+00  0.12245735530E+04  0.28020797193E+04  0.25203314001E+04 0.  0.
        2    1    3    3  502    0  0.81033304841E+03 -0.26303465528E+03 -0.42005738689E+03  0.94988161763E+03  0.25500000920E-02 0. -1.
       -2    1    3    3    0  502 -0.81033304841E+03  0.26303465528E+03  0.16446309399E+04  0.18521981016E+04  0.25500000920E-02 0.  1.
</event>
<event>
 5   0  0.6706225E-06  0.2597945E+04  0.7818609E-02  0.8368900E-01
       -1   -1    0    0    0  501  0.00000000000E+00  0.00000000000E+00  0.85842066688E+03  0.85842066689E+03  0.50400001928E-02 0. -1.
        1   -1    0    0  501    0  0.00000000000E+00  0.00000000000E+00 -0.19656206806E+04  0.19656206806E+04  0.50400001928E-02 0.  1.
    10030    2    1    2    0    0  0.00000000000E+00  0.00000000000E+00 -0.11072000137E+04  0.28240413475E+04  0.25979448920E+04 0.  0.
        5    1    3    3  502    0 -0.69444144418E+03  0.98165586098E+03 -0.10876954880E+04  0.16214193515E+04  0.46999998093E+01 0.  1.
       -5    1    3    3    0  502  0.69444144418E+03 -0.98165586098E+03 -0.19504525738E+02  0.12026219960E+04  0.46999998093E+01 0. -1.
</event>
<event>
 5   0  0.1677971E-05  0.2631251E+04  0.7818609E-02  0.8357663E-01
       -2   -1    0    0    0  501  0.00000000000E+00  0.00000000000E+00  0.90027941929E+03  0.90027941930E+03  0.25500000920E-02 0.  1.
        2   -1    0    0  501    0  0.00000000000E+00  0.00000000000E+00 -0.19225922719E+04  0.19225922719E+04  0.25500000920E-02 0. -1.
    10030    2    1    2    0    0  0.00000000000E+00  0.00000000000E+00 -0.10223128526E+04  0.28228716912E+04  0.26312508464E+04 0.  0.
        4    1    3    3  502    0  0.45147008585E+02 -0.49896262899E+03 -0.18162455853E+04  0.18840784475E+04  0.12699999809E+01 0. -1.
       -4    1    3    3    0  502 -0.45147008585E+02  0.49896262899E+03  0.79393273265E+03  0.93879324368E+03  0.12699999809E+01 0.  1.
</event>
<event>
 5   0  0.6984287E-06  0.2581266E+04  0.7818609E-02  0.8374593E-01
       -1   -1    0    0    0  501  0.00000000000E+00  0.00000000000E+00  0.87059469152E+03  0.87059469154E+03  0.50400001928E-02 0.  1.
        1   -1    0    0  501    0  0.00000000000E+00  0.00000000000E+00 -0.19133284041E+04  0.19133284041E+04  0.50400001928E-02 0. -1.
    10030    2    1    2    0    0  0.00000000000E+00  0.00000000000E+00 -0.10427337125E+04  0.27839230956E+04  0.25812660086E+04 0.  0.
        3    1    3    3  502    0  0.12077948819E+03  0.15922613928E+03  0.85380533651E+03  0.87688323684E+03  0.10100000352E+00 0.  1.
       -3    1    3    3    0  502 -0.12077948819E+03 -0.15922613928E+03 -0.18965390490E+04  0.19070398588E+04  0.10100000352E+00 0. -1.
</event>
<event>
 5   0  0.7138294E-06  0.2584149E+04  0.7818609E-02  0.8373605E-01
        1   -1    0    0  501    0  0.00000000000E+00  0.00000000000E+00  0.16767641617E+04  0.16767641617E+04  0.50400001928E-02 0.  1.
       -1   -1    0    0    0  501  0.00000000000E+00  0.00000000000E+00 -0.99564187934E+03  0.99564187935E+03  0.50400001928E-02 0. -1.
    10030    2    1    2    0    0  0.00000000000E+00  0.00000000000E+00  0.68112228232E+03  0.26724060410E+04  0.25841490833E+04 0.  0.
        2    1    3    3  502    0 -0.34533082967E+03  0.62559515443E+03 -0.77269598355E+03  0.10524646133E+04  0.25500000920E-02 0. -1.
       -2    1    3    3    0  502  0.34533082967E+03 -0.62559515443E+03  0.14538182659E+04  0.16199414278E+04  0.25500000920E-02 0.  1.
</event>
<event>
 5   0  0.1681731E-05  0.2650776E+04  0.7818609E-02  0.8351156E-01
        2   -1    0    0  501    0  0.00000000000E+00  0.00000000000E+00  0.15260402565E+04  0.15260402565E+04  0.25500000920E-02 0. -1.
       -2   -1    0    0    0  501  0.00000000000E+00  0.00000000000E+00 -0.11511183175E+04  0.11511183175E+04  0.25500000920E-02 0.  1.
    10030    2    1    2    0    0  0.00000000000E+00  0.00000000000E+00  0.37492193906E+03  0.26771585740E+04  0.26507756544E+04 0.  0.
        2    1    3    3  502    0  0.10501857559E+04  0.82177421147E+02 -0.62491393574E+03  0.12248104660E+04  0.25500000920E-02 0.  1.
       -2    1    3    3    0  502 -0.10501857559E+04 -0.82177421147E+02  0.99983587479E+03  0.14523481081E+04  0.25500000920E-02 0. -1.
</event>
<event>
 5   0  0.1720129E-05  0.2629690E+04  0.7818609E-02  0.8358186E-01
        2   -1    0    0  501    0  0.00000000000E+00  0.00000000000E+00  0.19204907300E+04  0.19204907300E+04  0.25500000920E-02 0. -1.
       -2   -1    0    0    0  501  0.00000000000E+00  0.00000000000E+00 -0.90019564089E+03  0.90019564090E+03  0.25500000920E-02 0.  1.
    10030    2    1    2    0    0  0.00000000000E+00  0.00000000000E+00  0.10202950891E+04  0.28206863709E+04  0.26296900072E+04 0.  0.
        3    1    3    3  502    0  0.53523948774E+03  0.11992957258E+04  0.44208976735E+03  0.13857254128E+04  0.10100000352E+00 0. -1.
       -3    1    3    3    0  502 -0.53523948774E+03 -0.11992957258E+04  0.57820532178E+03  0.14349609581E+04  0.10100000352E+00 0.  1.
</event>
<event>
 5   0  0.6918420E-06  0.2617475E+04  0.7818609E-02  0.8362289E-01
       -1   -1    0    0    0  501  0.00000000000E+00  0.00000000000E+00  0.14364312734E+04  0.14364312734E+04  0.50400001928E-02 0.  1.
        1   -1    0    0  501    0  0.00000000000E+00  0.00000000000E+00 -0.11923956406E+04  0.11923956406E+04  0.50400001928E-02 0. -1.
    10030    2    1    2    0    0  0.00000000000E+00  0.00000000000E+00  0.24403563282E+03  0.26288269140E+04  0.26174754161E+04 0.  0.
        4    1    3    3  502    0  0.96415226592E+03 -0.88034653053E+03  0.21292649802E+03  0.13228525663E+04  0.12699999809E+01 0.  1.
       -4    1    3    3    0  502 -0.96415226592E+03  0.88034653053E+03  0.31109134797E+02  0.13059743477E+04  0.12699999809E+01 0. -1.
</event>
<event>
 5   0  0.1720129E-05  0.2596325E+04  0.7818609E-02  0.8369450E-01
        2   -1    0    0  501    0  0.00000000000E+00  0.00000000000E+00  0.18508516764E+04  0.18508516764E+04  0.25500000920E-02 0. -1.
       -2   -1    0    0    0  501  0.00000000000E+00  0.00000000000E+00 -0.91051399973E+03  0.91051399974E+03  0.25500000920E-02 0.  1.
    10030    2    1    2    0    0  0.00000000000E+00  0.00000000000E+00  0.94033767670E+03  0.27613656762E+04  0.25963253747E+04 0.  0.
        3    1    3    3  502    0 -0.31670663569E+03 -0.37685729032E+02 -0.86819519133E+03  0.92492497410E+03  0.10100000352E+00 0.  1.
       -3    1    3    3    0  502  0.31670663569E+03  0.37685729032E+02  0.18085328680E+04  0.18364407021E+04  0.10100000352E+00 0. -1.
</event>
<event>
 5   0  0.6984287E-06  0.2600115E+04  0.7818609E-02  0.8368162E-01
        1   -1    0    0  501    0  0.00000000000E+00  0.00000000000E+00  0.15094835601E+04  0.15094835601E+04  0.50400001928E-02 0. -1.
       -1   -1    0    0    0  501  0.00000000000E+00  0.00000000000E+00 -0.11196869934E+04  0.11196869934E+04  0.50400001928E-02 0.  1.
    10030    2    1    2    0    0  0.00000000000E+00  0.00000000000E+00  0.38979656670E+03  0.26291705535E+04  0.26001146967E+04 0.  0.
        3    1    3    3  502    0  0.52339404018E+03  0.75447144752E+03 -0.73570158803E+03  0.11766160475E+04  0.10100000352E+00 0.  1.
       -3    1    3    3    0  502 -0.52339404018E+03 -0.75447144752E+03  0.11254981547E+04  0.14525545060E+04  0.10100000352E+00 0. -1.
</event>
<event>
 5   0  0.1681731E-05  0.2603609E+04  0.7818609E-02  0.8366976E-01
       -2   -1    0    0    0  501  0.00000000000E+00  0.00000000000E+00  0.12959087010E+04  0.12959087010E+04  0.25500000920E-02 0. -1.
        2   -1    0    0  501    0  0.00000000000E+00  0.00000000000E+00 -0.13077270233E+04  0.13077270233E+04  0.25500000920E-02 0.  1.
    10030    2    1    2    0    0  0.00000000000E+00  0.00000000000E+00 -0.11818322274E+02  0.26036357243E+04  0.26036089015E+04 0.  0.
        2    1    3    3  502    0 -0.52270743851E+02 -0.10825593399E+04 -0.72704617148E+03  0.13050912193E+04  0.25500000920E-02 0.  1.
       -2    1    3    3    0  502  0.52270743851E+02  0.10825593399E+04  0.71522784921E+03  0.12985445050E+04  0.25500000920E-02 0. -1.
</event>
<event>
 5   0  0.1720129E-05  0.2610978E+04  0.7818609E-02  0.8364482E-01
       -2   -1    0    0    0  501  0.00000000000E+00  0.00000000000E+00  0.10189005499E+04  0.10189005499E+04  0.25500000920E-02 0.  1.
        2   -1    0    0  501    0  0.00000000000E+00  0.00000000000E+00 -0.16726866715E+04  0.16726866715E+04  0.25500000920E-02 0. -1.
    10030    2    1    2    0    0  0.00000000000E+00  0.00000000000E+00 -0.65378612158E+03  0.26915872214E+04  0.26109778777E+04 0.  0.
        3    1    3    3  502    0 -0.74969958928E+03 -0.93752941552E+03  0.20206695375E+03  0.12173093046E+04  0.10100000352E+00 0. -1.
       -3    1    3    3    0  502  0.74969958928E+03  0.93752941552E+03 -0.85585307534E+03  0.14742779168E+04  0.10100000352E+00 0.  1.
</event>
<event>
 5   0  0.1702345E-05  0.2542190E+04  0.7818609E-02  0.8388107E-01
       -2   -1    0    0    0  501  0.00000000000E+00  0.00000000000E+00  0.14683054399E+04  0.14683054399E+04  0.25500000920E-02 0.  1.
        2   -1    0    0  501    0  0.00000000000E+00  0.00000000000E+00 -0.11003723940E+04  0.11003723940E+04  0.25500000920E-02 0. -1.
    10030    2    1    2    0    0  0.00000000000E+00  0.00000000000E+00  0.36793304592E+03  0.25686778338E+04  0.25421902147E+04 0.  0.
        1    1    3    3  502    0  0.52385458771E+03 -0.52429971346E+02 -0.98502791410E+03  0.11168941412E+04  0.50400001928E-02 0. -1.
       -1    1    3    3    0  502 -0.52385458771E+03  0.52429971346E+02  0.13529609600E+04  0.14517836927E+04  0.50400001928E-02 0.  1.
</event>
<event>
 5   0  0.6993678E-06  0.2600804E+04  0.7818609E-02  0.8367928E-01
        1   -1    0    0  501    0  0.00000000000E+00  0.00000000000E+00  0.88901419915E+03  0.88901419917E+03  0.50400001928E-02 0.  1.
       -1   -1    0    0    0  501  0.00000000000E+00  0.00000000000E+00 -0.19021577713E+04  0.19021577713E+04  0.50400001928E-02 0. -1.
    10030    2    1    2    0    0  0.00000000000E+00  0.00000000000E+00 -0.10131435721E+04  0.27911719704E+04  0.26008039278E+04 0.  0.
        1    1    3    3  502    0 -0.96095848469E+03 -0.87802307747E+02  0.42895391458E+03  0.10560075357E+04  0.50400001928E-02 0.  1.
       -1    1    3    3    0  502  0.96095848469E+03  0.87802307747E+02 -0.14420974867E+04  0.17351644348E+04  0.50400001928E-02 0. -1.
</event>
<event>
 5   0  0.1720129E-05  0.2465138E+04  0.7818609E-02  0.8415511E-01
       -2   -1    0    0    0  501  0.00000000000E+00  0.00000000000E+00  0.88096834927E+03  0.88096834927E+03  0.25500000920E-02 0.  1.
        2   -1    0    0  501    0  0.00000000000E+00  0.00000000000E+00 -0.17244964695E+04  0.17244964695E+04  0.25500000920E-02 0. -1.
    10030    2    1    2    0    0  0.00000000000E+00  0.00000000000E+00 -0.84352812019E+03  0.26054648187E+04  0.24651383799E+04 0.  0.
        3    1    3    3  502    0  0.75448147319E+03 -0.20685815487E+03 -0.14284500961E+04  0.16286504465E+04  0.10100000352E+00 0. -1.
       -3    1    3    3    0  502 -0.75448147319E+03  0.20685815487E+03  0.58492197594E+03  0.97681437221E+03  0.10100000352E+00 0.  1.
</event>
<event>
 5   0  0.6918420E-06  0.2618142E+04  0.7818609E-02  0.8362065E-01
       -1   -1    0    0    0  501  0.00000000000E+00  0.00000000000E+00  0.15591681770E+04  0.15591681770E+04  0.50400001928E-02 0. -1.
        1   -1    0    0  501    0  0.00000000000E+00  0.00000000000E+00 -0.10990905206E+04  0.10990905206E+04  0.50400001928E-02 0.  1.
    10030    2    1    2    0    0  0.00000000000E+00  0.00000000000E+00  0.46007765633E+03  0.26582586976E+04  0.26181420614E+04 0.  0.
        4    1    3    3  502    0 -0.10438297363E+04 -0.30057192631E+03  0.97180916189E+03  0.14575111188E+04  0.12699999809E+01 0.  1.
       -4    1    3    3    0  502  0.10438297363E+04  0.30057192631E+03 -0.51173150556E+03  0.12007475788E+04  0.12699999809E+01 0. -1.
</event>
<event>
 5   0  0.1869956E-05  0.2572810E+04  0.7818609E-02  0.8377496E-01
        2   -1    0    0  501    0  0.00000000000E+00  0.00000000000E+00  0.15117093801E+04  0.15117093801E+04  0.25500000920E-02 0. -1.
       -2   -1    0    0    0  501  0.00000000000E+00  0.00000000000E+00 -0.10946797928E+04  0.10946797928E+04  0.25500000920E-02 0.  1.
    10030    2    1    2    0    0  0.00000000000E+00  0.00000000000E+00  0.41702958730E+03  0.26063891730E+04  0.25728099122E+04 0.  0.
        5    1    3    3  502    0  0.77015645580E+03  0.41260542284E+03  0.11649939962E+04  0.14562339450E+04  0.46999998093E+01 0. -1.
       -5    1    3    3    0  502 -0.77015645580E+03 -0.41260542284E+03 -0.74796440892E+03  0.11501552279E+04  0.46999998093E+01 0.  1.
</event>
<event>
 5   0  0.6918420E-06  0.2651174E+04  0.7818609E-02  0.8351023E-01
       -1   -1    0    0    0  501  0.00000000000E+00  0.00000000000E+00  0.10284456630E+04  0.10284456630E+04  0.50400001928E-02 0.  1.
        1   -1    0    0  501    0  0.00000000000E+00  0.00000000000E+00 -0.17085790404E+04  0.17085790404E+04  0.50400001928E-02 0. -1.
    10030    2    1    2    0    0  0.00000000000E+00  0.00000000000E+00 -0.68013337740E+03  0.27370247035E+04  0.26511738563E+04 0.  0.
        4    1    3    3  502    0 -0.23110248306E+03 -0.12184714284E+04 -0.82330329542E+03  0.14885936009E+04  0.12699999809E+01 0. -1.
       -4    1    3    3    0  502  0.23110248306E+03  0.12184714284E+04  0.14316991802E+03  0.12484311026E+04  0.12699999809E+01 0.  1.
</event>
<event>
 5   0  0.6984287E-06  0.2605882E+04  0.7818609E-02  0.8366206E-01
        1   -1    0    0  501    0  0.00000000000E+00  0.00000000000E+00  0.11771377057E+04  0.11771377057E+04  0.50400001928E-02 0. -1.
       -1   -1    0    0    0  501  0.00000000000E+00  0.00000000000E+00 -0.14421896808E+04  0.14421896808E+04  0.50400001928E-02 0.  1.
    10030    2    1    2    0    0  0.00000000000E+00  0.00000000000E+00 -0.26505197502E+03  0.26193273865E+04  0.26058824625E+04 0.  0.
        3    1    3    3  502    0  0.31314779468E+03  0.81447357792E+03 -0.11051064984E+04  0.14080799457E+04  0.10100000352E+00 0.  1.
       -3    1    3    3    0  502 -0.31314779468E+03 -0.81447357792E+03  0.84005452339E+03  0.12112474408E+04  0.10100000352E+00 0. -1.
</event>
<event>
 5   0  0.1702345E-05  0.2598445E+04  0.7818609E-02  0.8368730E-01
       -2   -1    0    0    0  501  0.00000000000E+00  0.00000000000E+00  0.14468961799E+04  0.14468961799E+04  0.25500000920E-02 0.  1.
        2   -1    0    0  501    0  0.00000000000E+00  0.00000000000E+00 -0.11666204038E+04  0.11666204038E+04  0.25500000920E-02 0. -1.
    10030    2    1    2    0    0  0.00000000000E+00  0.00000000000E+00  0.28027577616E+03  0.26135165837E+04  0.25984446160E+04 0.  0.
        1    1    3    3  502    0  0.34297791177E+03 -0.86484854095E+03 -0.77197486908E+03  0.12089425318E+04  0.50400001928E-02 0. -1.
       -1    1    3    3    0  502 -0.34297791177E+03  0.86484854095E+03  0.10522506452E+04  0.14045740519E+04  0.50400001928E-02 0.  1.
</event>
<event>
 5   0  0.1677971E-05  0.2696963E+04  0.7818609E-02  0.8335991E-01
        2   -1    0    0  501    0  0.00000000000E+00  0.00000000000E+00  0.18654974001E+04  0.18654974001E+04  0.25500000920E-02 0.  1.
       -2   -1    0    0    0  501  0.00000000000E+00  0.00000000000E+00 -0.97475464834E+03  0.97475464834E+03  0.25500000920E-02 0. -1.
    10030    2    1    2    0    0  0.00000000000E+00  0.00000000000E+00  0.89074275180E+03  0.28402520485E+04  0.26969629306E+04 0.  0.
        4    1    3    3  502    0 -0.78578640200E+03  0.75109774529E+03  0.12857614104E+04  0.16836840885E+04  0.12699999809E+01 0.  1.
       -4    1    3    3    0  502  0.78578640200E+03 -0.75109774529E+03 -0.39501865856E+03  0.11565679600E+04  0.12699999809E+01 0. -1.
</event>
<event>
 5   0  0.1720129E-05  0.2626526E+04  0.7818609E-02  0.8359246E-01
        2   -1    0    0  501    0  0.00000000000E+00  0.00000000000E+00  0.24335325210E+04  0.24335325210E+04  0.25500000920E-02 0.  1.
       -2   -1    0    0    0  501  0.00000000000E+00  0.00000000000E+00 -0.70870647180E+03  0.70870647180E+03  0.25500000920E-02 0. -1.
    10030    2    1    2    0    0  0.00000000000E+00  0.00000000000E+00  0.17248260492E+04  0.31422389928E+04  0.26265264110E+04 0.  0.
        3    1    3    3  502    0 -0.23371490364E+03  0.12201273043E+04  0.13718478259E+04  0.18507565379E+04  0.10100000352E+00 0.  1.
       -3    1    3    3    0  502  0.23371490364E+03 -0.12201273043E+04  0.35297822325E+03  0.12914824549E+04  0.10100000352E+00 0. -1.
</event>
<event>
 5   0  0.6918420E-06  0.2583819E+04  0.7818609E-02  0.8373718E-01
        1   -1    0    0  501    0  0.00000000000E+00  0.00000000000E+00  0.20456830126E+04  0.20456830126E+04  0.50400001928E-02 0.  1.
       -1   -1    0    0    0  501  0.00000000000E+00  0.00000000000E+00 -0.81587931881E+03  0.81587931882E+03  0.50400001928E-02 0. -1.
    10030    2    1    2    0    0  0.00000000000E+00  0.00000000000E+00  0.12298036938E+04  0.28615623314E+04  0.25838192374E+04 0.  0.
        4    1    3    3  502    0 -0.56758506191E+03  0.81461471240E+03 -0.30055967159E+03  0.10373464519E+04  0.12699999809E+01 0. -1.
       -4    1    3    3    0  502  0.56758506191E+03 -0.81461471240E+03  0.15303633654E+04  0.18242158795E+04  0.12699999809E+01 0.  1.
</event>
<event>
 5   0  0.7138294E-06  0.2535830E+04  0.7818609E-02  0.8390331E-01
       -1   -1    0    0    0  501  0.00000000000E+00  0.00000000000E+00  0.81729317989E+03  0.81729317991E+03  0.50400001928E-02 0. -1.
        1   -1    0    0  501    0  0.00000000000E+00  0.00000000000E+00 -0.19669906708E+04  0.19669906708E+04  0.50400001928E-02 0.  1.
    10030    2    1    2    0    0  0.00000000000E+00  0.00000000000E+00 -0.11496974909E+04  0.27842838507E+04  0.25358296947E+04 0.  0.
        2    1    3    3  502    0 -0.12671845624E+04  0.80881978206E+01 -0.52844797786E+03  0.13729819370E+04  0.25500000920E-02 0.  1.
       -2    1    3    3    0  502  0.12671845624E+04 -0.80881978206E+01 -0.62124951301E+03  0.14113019137E+04  0.25500000920E-02 0. -1.
</event>
<event>
 5   0  0.1869956E-05  0.2584497E+04  0.7818609E-02  0.8373486E-01
        2   -1    0    0  501    0  0.00000000000E+00  0.00000000000E+00  0.19019846953E+04  0.19019846953E+04  0.25500000920E-02 0. -1.
       -2   -1    0    0    0  501  0.00000000000E+00  0.00000000000E+00 -0.87798058866E+03  0.87798058866E+03  0.25500000920E-02 0.  1.
    10030    2    1    2    0    0  0.00000000000E+00  0.00000000000E+00  0.10240041066E+04  0.27799652840E+04  0.25844965795E+04 0.  0.
        5    1    3    3  502    0  0.12128365433E+04 -0.24658778975E+02  0.33010262038E+02  0.12135453447E+04  0.46999998093E+01 0.  1.
       -5    1    3    3    0  502 -0.12128365433E+04  0.24658778975E+02  0.99099384461E+03  0.15664199393E+04  0.46999998093E+01 0. -1.
</event>
<event>
 5   0  0.6993678E-06  0.2599407E+04  0.7818609E-02  0.8368403E-01
        1   -1    0    0  501    0  0.00000000000E+00  0.00000000000E+00  0.20937122659E+04  0.20937122660E+04  0.50400001928E-02 0.  1.
       -1   -1    0    0    0  501  0.00000000000E+00  0.00000000000E+00 -0.80681083333E+03  0.80681083334E+03  0.50400001928E-02 0. -1.
    10030    2    1    2    0    0  0.00000000000E+00  0.00000000000E+00  0.12869014326E+04  0.29005230993E+04  0.25994074233E+04 0.  0.
        1    1    3    3  502    0  0.34037727223E+03  0.20508980964E+03 -0.73735859192E+03  0.83762534021E+03  0.50400001928E-02 0. -1.
       -1    1    3    3    0  502 -0.34037727223E+03 -0.20508980964E+03  0.20242600245E+04  0.20628977591E+04  0.50400001928E-02 0.  1.
</event>
<event>
 5   0  0.1720129E-05  0.2495841E+04  0.7818609E-02  0.8404469E-01
        2   -1    0    0  501    0  0.00000000000E+00  0.00000000000E+00  0.13689763127E+04  0.13689763127E+04  0.25500000920E-02 0.  1.
       -2   -1    0    0    0  501  0.00000000000E+00  0.00000000000E+00 -0.11375691305E+04  0.11375691305E+04  0.25500000920E-02 0. -1.
    10030    2    1    2    0    0  0.00000000000E+00  0.00000000000E+00  0.23140718215E+03  0.25065454432E+04  0.24958406950E+04 0.  0.
        3    1    3    3  502    0  0.12400168415E+04  0.13682685651E+03  0.84882754901E+02  0.12504273063E+04  0.10100000352E+00 0. -1.
       -3    1    3    3    0  502 -0.12400168415E+04 -0.13682685651E+03  0.14652442725E+03  0.12561181369E+04  0.10100000352E+00 0.  1.
</event>
<event>
 5   0  0.7138294E-06  0.2609425E+04  0.7818609E-02  0.8365007E-01
       -1   -1    0    0    0  501  0.00000000000E+00  0.00000000000E+00  0.94918413445E+03  0.94918413447E+03  0.50400001928E-02 0. -1.
        1   -1    0    0  501    0  0.00000000000E+00  0.00000000000E+00 -0.17934082519E+04  0.17934082519E+04  0.50400001928E-02 0.  1.
    10030    2    1    2    0    0  0.00000000000E+00  0.00000000000E+00 -0.84422411742E+03  0.27425923863E+04  0.26094249629E+04 0.  0.
        2    1    3    3  502    0 -0.12497307894E+04 -0.36040958920E+03 -0.53008004125E+03  0.14045308711E+04  0.25500000920E-02 0.  1.
       -2    1    3    3    0  502  0.12497307894E+04  0.36040958920E+03 -0.31414407617E+03  0.13380615152E+04  0.25500000920E-02 0. -1.
</event>
<event>
 5   0  0.6918420E-06  0.2590727E+04  0.7818609E-02  0.8371358E-01
        1   -1    0    0  501    0  0.00000000000E+00  0.00000000000E+00  0.16216785157E+04  0.16216785157E+04  0.50400001928E-02 0.  1.
       -1   -1    0    0    0  501  0.00000000000E+00  0.00000000000E+00 -0.10347096666E+04  0.10347096666E+04  0.50400001928E-02 0. -1.
    10030    2    1    2    0    0  0.00000000000E+00  0.00000000000E+00  0.58696884906E+03  0.26563881823E+04  0.25907268758E+04 0.  0.
        4    1    3    3  502    0  0.65732507627E+02  0.28077382705E+03  0.15883491508E+04  0.16143138921E+04  0.12699999809E+01 0.  1.
       -4    1    3    3    0  502 -0.65732507627E+02 -0.28077382705E+03 -0.10013803018E+04  0.10420742901E+04  0.12699999809E+01 0. -1.
</event>
<event>
 5   0  0.5840500E-06  0.2599599E+04  0.7818609E-02  0.8368338E-01
       -3   -1    0    0    0  501  0.00000000000E+00  0.00000000000E+00  0.17967400891E+04  0.17967400920E+04  0.10100000352E+00 0.  1.
        3   -1    0    0  501    0  0.00000000000E+00  0.00000000000E+00 -0.94030201224E+03  0.94030201766E+03  0.10100000352E+00 0. -1.
    10030    2    1    2    0    0  0.00000000000E+00  0.00000000000E+00  0.85643807689E+03  0.27370421096E+04  0.25995986864E+04 0.  0.
        4    1    3    3  502    0  0.79871821691E+03 -0.40265314261E+03  0.14211586767E+04  0.16792182528E+04  0.12699999809E+01 0.  1.
       -4    1    3    3    0  502 -0.79871821691E+03  0.40265314261E+03 -0.56472059983E+03  0.10578238568E+04  0.12699999809E+01 0. -1.
</event>
<event>
 5   0  0.1677971E-05  0.2597847E+04  0.7818609E-02  0.8368933E-01
       -2   -1    0    0    0  501  0.00000000000E+00  0.00000000000E+00  0.12048112230E+04  0.12048112230E+04  0.25500000920E-02 0.  1.
        2   -1    0    0  501    0  0.00000000000E+00  0.00000000000E+00 -0.14003875345E+04  0.14003875345E+04  0.25500000920E-02 0. -1.
    10030    2    1    2    0    0  0.00000000000E+00  0.00000000000E+00 -0.19557631150E+03  0.26051987575E+04  0.25978472766E+04 0.  0.
        4    1    3    3  502    0 -0.87989225279E+03  0.37038141876E+03 -0.98108044350E+03  0.13689095008E+04  0.12699999809E+01 0. -1.
       -4    1    3    3    0  502  0.87989225279E+03 -0.37038141876E+03  0.78550413201E+03  0.12362892567E+04  0.12699999809E+01 0.  1.
</event>
<event>
 5   0  0.6706225E-06  0.2583072E+04  0.7818609E-02  0.8373974E-01
       -1   -1    0    0    0  501  0.00000000000E+00  0.00000000000E+00  0.10266965955E+04  0.10266965955E+04  0.50400001928E-02 0. -1.
        1   -1    0    0  501    0  0.00000000000E+00  0.00000000000E+00 -0.16246919915E+04  0.16246919915E+04  0.50400001928E-02 0.  1.
    10030    2    1    2    0    0  0.00000000000E+00  0.00000000000E+00 -0.59799539597E+03  0.26513885870E+04  0.25830723849E+04 0.  0.
        5    1    3    3  502    0 -0.31914265648E+03 -0.27363009928E+03 -0.15524908397E+04  0.16084077107E+04  0.46999998093E+01 0.  1.
       -5    1    3    3    0  502  0.31914265648E+03  0.27363009928E+03  0.95449544370E+03  0.10429808764E+04  0.46999998093E+01 0. -1.
</event>
<event>
 5   0  0.1681731E-05  0.2354455E+04  0.7818609E-02  0.8456755E-01
       -2   -1    0    0    0  501  0.00000000000E+00  0.00000000000E+00  0.69584215528E+03  0.69584215529E+03  0.25500000920E-02 0.  1.
        2   -1    0    0  501    0  0.00000000000E+00  0.00000000000E+00 -0.19916360481E+04  0.19916360481E+04  0.25500000920E-02 0. -1.
    10030    2    1    2    0    0  0.00000000000E+00  0.00000000000E+00 -0.12957938928E+04  0.26874782034E+04  0.23544547736E+04 0.  0.
        2    1    3    3  502    0  0.95389603198E+03 -0.47793161959E+03 -0.80003566446E+02  0.10699237559E+04  0.25500000920E-02 0. -1.
       -2    1    3    3    0  502 -0.95389603198E+03  0.47793161959E+03 -0.12157903264E+04  0.16175544475E+04  0.25500000920E-02 0.  1.
</event>
<event>
 5   0  0.6918420E-06  0.2602824E+04  0.7818609E-02  0.8367243E-01
        1   -1    0    0  501    0  0.00000000000E+00  0.00000000000E+00  0.14088177626E+04  0.14088177626E+04  0.50400001928E-02 0.  1.
       -1   -1    0    0    0  501  0.00000000000E+00  0.00000000000E+00 -0.12021942938E+04  0.12021942938E+04  0.50400001928E-02 0. -1.
    10030    2    1    2    0    0  0.00000000000E+00  0.00000000000E+00  0.20662346885E+03  0.26110120564E+04  0.26028236015E+04 0.  0.
        4    1    3    3  502    0 -0.97781914799E+03 -0.70579361719E+03 -0.38750879360E+03  0.12666647521E+04  0.12699999809E+01 0. -1.
       -4    1    3    3    0  502  0.97781914799E+03  0.70579361719E+03  0.59413226245E+03  0.13443473042E+04  0.12699999809E+01 0.  1.
</event>
<event>
 5   0  0.6993678E-06  0.2583009E+04  0.7818609E-02  0.8373995E-01
       -1   -1    0    0    0  501  0.00000000000E+00  0.00000000000E+00  0.10126409206E+04  0.10126409207E+04  0.50400001928E-02 0.  1.
        1   -1    0    0  501    0  0.00000000000E+00  0.00000000000E+00 -0.16471628520E+04  0.16471628520E+04  0.50400001928E-02 0. -1.
    10030    2    1    2    0    0  0.00000000000E+00  0.00000000000E+00 -0.63452193140E+03  0.26598037727E+04  0.25830094905E+04 0.  0.
        1    1    3    3  502    0  0.23656133719E+03 -0.96436779829E+02 -0.16208864926E+04  0.16408943722E+04  0.50400001928E-02 0. -1.
       -1    1    3    3    0  502 -0.23656133719E+03  0.96436779829E+02  0.98636456122E+03  0.10189094005E+04  0.50400001928E-02 0.  1.
</event>
<event>
 5   0  0.1681731E-05  0.2595040E+04  0.7818609E-02  0.8369888E-01
       -2   -1    0    0    0  501  0.00000000000E+00  0.00000000000E+00  0.10261866899E+04  0.10261866899E+04  0.25500000920E-02 0.  1.
        2   -1    0    0  501    0  0.00000000000E+00  0.00000000000E+00 -0.16405959985E+04  0.16405959985E+04  0.25500000920E-02 0. -1.
    10030    2    1    2    0    0  0.00000000000E+00  0.00000000000E+00 -0.61440930862E+03  0.26667826884E+04  0.25950397124E+04 0.  0.
        2    1    3    3  502    0  0.69798690158E+03 -0.83620350444E+03 -0.10317759439E+04  0.15003278355E+04  0.25500000920E-02 0. -1.
       -2    1    3    3    0  502 -0.69798690158E+03  0.83620350444E+03  0.41736663529E+03  0.11664548529E+04  0.25500000920E-02 0.  1.
</event>
<event>
 5   0  0.1677971E-05  0.2597112E+04  0.7818609E-02  0.8369183E-01
       -2   -1    0    0    0  501  0.00000000000E+00  0.00000000000E+00  0.12793727476E+04  0.12793727476E+04  0.25500000920E-02 0. -1.
        2   -1    0    0  501    0  0.00000000000E+00  0.00000000000E+00 -0.13180270920E+04  0.13180270920E+04  0.25500000920E-02 0.  1.
    10030    2    1    2    0    0  0.00000000000E+00  0.00000000000E+00 -0.38654344367E+02  0.25973998396E+04  0.25971121979E+04 0.  0.
        4    1    3    3  502    0 -0.10848347732E+03  0.12871994932E+04 -0.15198849623E+03  0.13006741775E+04  0.12699999809E+01 0. -1.
       -4    1    3    3    0  502  0.10848347732E+03 -0.12871994932E+04  0.11333415187E+03  0.12967256622E+04  0.12699999809E+01 0.  1.
</event>
<event>
 5   0  0.7138294E-06  0.2564177E+04  0.7818609E-02  0.8380472E-01
        1   -1    0    0  501    0  0.00000000000E+00  0.00000000000E+00  0.12174211219E+04  0.12174211219E+04  0.50400001928E-02 0. -1.
       -1   -1    0    0    0  501  0.00000000000E+00  0.00000000000E+00 -0.13501910217E+04  0.13501910217E+04  0.50400001928E-02 0.  1.
    10030    2    1    2    0    0  0.00000000000E+00  0.00000000000E+00 -0.13276989981E+03  0.25676121436E+04  0.25641771143E+04 0.  0.
        2    1    3    3  502    0 -0.47498121592E+03 -0.19373088370E+03  0.11101836769E+04  0.12229663149E+04  0.25500000920E-02 0. -1.
       -2    1    3    3    0  502  0.47498121592E+03  0.19373088370E+03 -0.12429535767E+04  0.13446458287E+04  0.25500000920E-02 0.  1.
</event>
<event>
 5   0  0.6993678E-06  0.2600080E+04  0.7818609E-02  0.8368174E-01
       -1   -1    0    0    0  501  0.00000000000E+00  0.00000000000E+00  0.19925658407E+04  0.19925658408E+04  0.50400001928E-02 0. -1.
        1   -1    0    0  501    0  0.00000000000E+00  0.00000000000E+00 -0.84820504654E+03  0.84820504655E+03  0.50400001928E-02 0.  1.
    10030    2    1    2    0    0  0.00000000000E+00  0.00000000000E+00  0.11443607942E+04  0.28407708873E+04  0.26000803078E+04 0.  0.
        1    1    3    3  502    0  0.61163725806E+03  0.11463489865E+04  0.61965716975E+03  0.14395107302E+04  0.50400001928E-02 0. -1.
       -1    1    3    3    0  502 -0.61163725806E+03 -0.11463489865E+04  0.52470362446E+03  0.14012601571E+04  0.50400001928E-02 0.  1.
</event>
<event>
 5   0  0.6993678E-06  0.2830260E+04  0.7818609E-02  0.8293935E-01
        1   -1    0    0  501    0  0.00000000000E+00  0.00000000000E+00  0.20338541764E+04  0.20338541764E+04  0.50400001928E-02 0. -1.
       -1   -1    0    0    0  501  0.00000000000E+00  0.00000000000E+00 -0.98462984116E+03  0.98462984117E+03  0.50400001928E-02 0.  1.
    10030    2    1    2    0    0  0.00000000000E+00  0.00000000000E+00  0.10492243353E+04  0.30184840176E+04  0.28302604224E+04 0.  0.
        1    1    3    3  502    0 -0.39703825670E+02 -0.86654115478E+03  0.17170587968E+04  0.19237361769E+04  0.50400001928E-02 0. -1.
       -1    1    3    3    0  502  0.39703825670E+02  0.86654115478E+03 -0.66783446152E+03  0.10947478407E+04  0.50400001928E-02 0.  1.
</event>
<event>
 5   0  0.1677971E-05  0.2938144E+04  0.7818609E-02  0.8261618E-01
       -2   -1    0    0    0  501  0.00000000000E+00  0.00000000000E+00  0.18776409405E+04  0.18776409405E+04  0.25500000920E-02 0. -1.
        2   -1    0    0  501    0  0.00000000000E+00  0.00000000000E+00 -0.11494064528E+04  0.11494064528E+04  0.25500000920E-02 0.  1.
    10030    2    1    2    0    0  0.00000000000E+00  0.00000000000E+00  0.72823448768E+03  0.30270473933E+04  0.29381440489E+04 0.  0.
        4    1    3    3  502    0  0.68440820695E+03 -0.12856104038E+04  0.16604409478E+03  0.14658720812E+04  0.12699999809E+01 0.  1.
       -4    1    3    3    0  502 -0.68440820695E+03  0.12856104038E+04  0.56219039290E+03  0.15611753121E+04  0.12699999809E+01 0. -1.
</event>
<event>
 5   0  0.6984287E-06  0.2601772E+04  0.7818609E-02  0.8367599E-01
        1   -1    0    0  501    0  0.00000000000E+00  0.00000000000E+00  0.24284054992E+04  0.24284054992E+04  0.50400001928E-02 0. -1.
       -1   -1    0    0    0  501  0.00000000000E+00  0.00000000000E+00 -0.69687894780E+03  0.69687894782E+03  0.50400001928E-02 0.  1.
    10030    2    1    2    0    0  0.00000000000E+00  0.00000000000E+00  0.17315265514E+04  0.31252844470E+04  0.26017722184E+04 0.  0.
        3    1    3    3  502    0  0.10034012729E+04 -0.81430390153E+03  0.68598327276E+03  0.14630372583E+04  0.10100000352E+00 0.  1.
       -3    1    3    3    0  502 -0.10034012729E+04  0.81430390153E+03  0.10455432786E+04  0.16622471887E+04  0.10100000352E+00 0. -1.
</event>
<event>
 5   0  0.6993678E-06  0.2581248E+04  0.7818609E-02  0.8374599E-01
       -1   -1    0    0    0  501  0.00000000000E+00  0.00000000000E+00  0.16256471992E+04  0.16256471992E+04  0.50400001928E-02 0.  1.
        1   -1    0    0  501    0  0.00000000000E+00  0.00000000000E+00 -0.10246447571E+04  0.10246447571E+04  0.50400001928E-02 0. -1.
    10030    2    1    2    0    0  0.00000000000E+00  0.00000000000E+00  0.60100244209E+03  0.26502919564E+04  0.25812484419E+04 0.  0.
        1    1    3    3  502    0  0.58476617783E+03  0.12779808587E+03  0.14745135130E+04  0.15913748564E+04  0.50400001928E-02 0.  1.
       -1    1    3    3    0  502 -0.58476617783E+03 -0.12779808587E+03 -0.87351107095E+03  0.10589171000E+04  0.50400001928E-02 0. -1.
</event>
<event>
 5   0  0.6993678E-06  0.2608442E+04  0.7818609E-02  0.8365339E-01
       -1   -1    0    0    0  501  0.00000000000E+00  0.00000000000E+00  0.13381725049E+04  0.13381725049E+04  0.50400001928E-02 0.  1.
        1   -1    0    0  501    0  0.00000000000E+00  0.00000000000E+00 -0.12711308758E+04  0.12711308758E+04  0.50400001928E-02 0. -1.
    10030    2    1    2    0    0  0.00000000000E+00  0.00000000000E+00  0.67041629159E+02  0.26093033807E+04  0.26084419780E+04 0.  0.
        1    1    3    3  502    0  0.70080829077E+03  0.43271940082E+03 -0.97805694729E+03  0.12786609138E+04  0.50400001928E-02 0. -1.
       -1    1    3    3    0  502 -0.70080829077E+03 -0.43271940082E+03  0.10450985765E+04  0.13306424669E+04  0.50400001928E-02 0.  1.
</event>
<event>
 5   0  0.1677971E-05  0.2579666E+04  0.7818609E-02  0.8375141E-01
       -2   -1    0    0    0  501  0.00000000000E+00  0.00000000000E+00  0.10327242255E+04  0.10327242255E+04  0.25500000920E-02 0. -1.
        2   -1    0    0  501    0  0.00000000000E+00  0.00000000000E+00 -0.16109517098E+04  0.16109517098E+04  0.25500000920E-02 0.  1.
    10030    2    1    2    0    0  0.00000000000E+00  0.00000000000E+00 -0.57822748431E+03  0.26436759353E+04  0.25796657588E+04 0.  0.
        4    1    3    3  502    0  0.10271296471E+04 -0.47721211711E+03  0.34340495531E+03  0.11834928360E+04  0.12699999809E+01 0.  1.
       -4    1    3    3    0  502 -0.10271296471E+04  0.47721211711E+03 -0.92163243962E+03  0.14601830993E+04  0.12699999809E+01 0. -1.
</event>
<event>
 5   0  0.1720129E-05  0.2601783E+04  0.7818609E-02  0.8367596E-01
       -2   -1    0    0    0  501  0.00000000000E+00  0.00000000000E+00  0.73639012307E+03  0.73639012307E+03  0.25500000920E-02 0. -1.
        2   -1    0    0  501    0  0.00000000000E+00  0.00000000000E+00 -0.22981270569E+04  0.22981270569E+04  0.25500000920E-02 0.  1.
    10030    2    1    2    0    0  0.00000000000E+00  0.00000000000E+00 -0.15617369338E+04  0.30345171800E+04  0.26017825169E+04 0.  0.
        3    1    3    3  502    0  0.11467755760E+04 -0.54137722137E+03 -0.11191714036E+04  0.16913687234E+04  0.10100000352E+00 0. -1.
       -3    1    3    3    0  502 -0.11467755760E+04  0.54137722137E+03 -0.44256553020E+03  0.13431484566E+04  0.10100000352E+00 0.  1.
</event>
<event>
 5   0  0.1869956E-05  0.2555916E+04  0.7818609E-02  0.8383332E-01
       -2   -1    0    0    0  501  0.00000000000E+00  0.00000000000E+00  0.17240314874E+04  0.17240314874E+04  0.25500000920E-02 0.  1.
        2   -1    0    0  501    0  0.00000000000E+00  0.00000000000E+00 -0.94730070083E+03  0.94730070083E+03  0.25500000920E-02 0. -1.
    10030    2    1    2    0    0  0.00000000000E+00  0.00000000000E+00  0.77673078658E+03  0.26713321882E+04  0.25559156764E+04 0.  0.
        5    1    3    3  502    0 -0.92408345495E+02  0.11127314867E+04 -0.26135181428E+03  0.11467508555E+04  0.46999998093E+01 0. -1.
       -5    1    3    3    0  502  0.92408345495E+02 -0.11127314867E+04  0.10380826009E+04  0.15245813327E+04  0.46999998093E+01 0.  1.
</event>
<event>
 5   0  0.1720129E-05  0.2611211E+04  0.7818609E-02  0.8364403E-01
       -2   -1    0    0    0  501  0.00000000000E+00  0.00000000000E+00  0.10171050439E+04  0.10171050439E+04  0.25500000920E-02 0. -1.
        2   -1    0    0  501    0  0.00000000000E+00  0.00000000000E+00 -0.16759389354E+04  0.16759389354E+04  0.25500000920E-02 0.  1.
    10030    2    1    2    0    0  0.00000000000E+00  0.00000000000E+00 -0.65883389152E+03  0.26930439793E+04  0.26112111707E+04 0.  0.
        3    1    3    3  502    0 -0.12263558628E+04  0.39600960729E+03 -0.54534304302E+03  0.13993467604E+04  0.10100000352E+00 0. -1.
       -3    1    3    3    0  502  0.12263558628E+04 -0.39600960729E+03 -0.11349084850E+03  0.12936972189E+04  0.10100000352E+00 0.  1.
</event>
<event>
 5   0  0.6706225E-06  0.2603387E+04  0.7818609E-02  0.8367051E-01
        1   -1    0    0  501    0  0.00000000000E+00  0.00000000000E+00  0.13681242055E+04  0.13681242055E+04  0.50400001928E-02 0.  1.
       -1   -1    0    0    0  501  0.00000000000E+00  0.00000000000E+00 -0.12384888583E+04  0.12384888583E+04  0.50400001928E-02 0. -1.
    10030    2    1    2    0    0  0.00000000000E+00  0.00000000000E+00  0.12963534719E+03  0.26066130638E+04  0.26033874742E+04 0.  0.
        5    1    3    3  502    0 -0.63240957509E+03 -0.46629992276E+03 -0.97425762543E+03  0.12516299371E+04  0.46999998093E+01 0. -1.
       -5    1    3    3    0  502  0.63240957509E+03  0.46629992276E+03  0.11038929726E+04  0.13549831267E+04  0.46999998093E+01 0.  1.
</event>
<event>
 5   0  0.1869956E-05  0.2626462E+04  0.7818609E-02  0.8359268E-01
       -2   -1    0    0    0  501  0.00000000000E+00  0.00000000000E+00  0.10793838330E+04  0.10793838330E+04  0.25500000920E-02 0. -1.
        2   -1    0    0  501    0  0.00000000000E+00  0.00000000000E+00 -0.15977403053E+04  0.15977403053E+04  0.25500000920E-02 0.  1.
    10030    2    1    2    0    0  0.00000000000E+00  0.00000000000E+00 -0.51835647225E+03  0.26771241383E+04  0.26264615397E+04 0.  0.
        5    1    3    3  502    0  0.52113406312E+02  0.11643065640E+04 -0.87601872240E+03  0.14579974191E+04  0.46999998093E+01 0.  1.
       -5    1    3    3    0  502 -0.52113406312E+02 -0.11643065640E+04  0.35766225015E+03  0.12191267191E+04  0.46999998093E+01 0. -1.
</event>
<event>
 5   0  0.1681731E-05  0.2583478E+04  0.7818609E-02  0.8373835E-01
       -2   -1    0    0    0  501  0.00000000000E+00  0.00000000000E+00  0.88430615804E+03  0.88430615804E+03  0.25500000920E-02 0.  1.
        2   -1    0    0  501    0  0.00000000000E+00  0.00000000000E+00 -0.18868918885E+04  0.18868918885E+04  0.25500000920E-02 0. -1.
    10030    2    1    2    0    0  0.00000000000E+00  0.00000000000E+00 -0.10025857304E+04  0.27711980465E+04  0.25834783657E+04 0.  0.
        2    1    3    3  502    0 -0.51785468723E+03  0.38213818724E+03  0.70008192717E+03  0.95095624294E+03  0.25500000920E-02 0.  1.
       -2    1    3    3    0  502  0.51785468723E+03 -0.38213818724E+03 -0.17026676576E+04  0.18202418036E+04  0.25500000920E-02 0. -1.
</event>
<event>
 5   0  0.1869956E-05  0.2499066E+04  0.7818609E-02  0.8403318E-01
        2   -1    0    0  501    0  0.00000000000E+00  0.00000000000E+00  0.11481785239E+04  0.11481785239E+04  0.25500000920E-02 0.  1.
       -2   -1    0    0    0  501  0.00000000000E+00  0.00000000000E+00 -0.13598341601E+04  0.13598341601E+04  0.25500000920E-02 0. -1.
    10030    2    1    2    0    0  0.00000000000E+00  0.00000000000E+00 -0.21165563621E+03  0.25080126840E+04  0.24990657283E+04 0.  0.
        5    1    3    3  502    0  0.91494688654E+03 -0.76367743661E+03 -0.48264409770E+03  0.12858065358E+04  0.46999998093E+01 0. -1.
       -5    1    3    3    0  502 -0.91494688654E+03  0.76367743661E+03  0.27098846149E+03  0.12222061482E+04  0.46999998093E+01 0.  1.
</event>
<event>
 5   0  0.6993678E-06  0.2599829E+04  0.7818609E-02  0.8368259E-01
       -1   -1    0    0    0  501  0.00000000000E+00  0.00000000000E+00  0.12700207849E+04  0.12700207849E+04  0.50400001928E-02 0. -1.
        1   -1    0    0  501    0  0.00000000000E+00  0.00000000000E+00 -0.13305120786E+04  0.13305120786E+04  0.50400001928E-02 0.  1.
    10030    2    1    2    0    0  0.00000000000E+00  0.00000000000E+00 -0.60491293726E+02  0.26005328636E+04  0.25998292209E+04 0.  0.
        1    1    3    3  502    0  0.41870222617E+02  0.12597957063E+04 -0.34804165576E+03  0.13076587213E+04  0.50400001928E-02 0.  1.
       -1    1    3    3    0  502 -0.41870222617E+02 -0.12597957063E+04  0.28755036203E+03  0.12928741423E+04  0.50400001928E-02 0. -1.
</event>
<event>
 5   0  0.1681731E-05  0.2618749E+04  0.7818609E-02  0.8361860E-01
        2   -1    0    0  501    0  0.00000000000E+00  0.00000000000E+00  0.14591016492E+04  0.14591016492E+04  0.25500000920E-02 0. -1.
       -2   -1    0    0    0  501  0.00000000000E+00  0.00000000000E+00 -0.11750118902E+04  0.11750118902E+04  0.25500000920E-02 0.  1.
    10030    2    1    2    0    0  0.00000000000E+00  0.00000000000E+00  0.28408975894E+03  0.26341135394E+04  0.26187491570E+04 0.  0.
        2    1    3    3  502    0 -0.36251938381E+03 -0.74537299277E+03  0.11616292640E+04  0.14270191831E+04  0.25500000920E-02 0. -1.
       -2    1    3    3    0  502  0.36251938381E+03  0.74537299277E+03 -0.87753950508E+03  0.12070943563E+04  0.25500000920E-02 0.  1.
</event>
<event>
 5   0  0.6706225E-06  0.2580318E+04  0.7818609E-02  0.8374918E-01
       -1   -1    0    0    0  501  0.00000000000E+00  0.00000000000E+00  0.92370507153E+03  0.92370507154E+03  0.50400001928E-02 0. -1.
        1   -1    0    0  501    0  0.00000000000E+00  0.00000000000E+00 -0.18019929378E+04  0.18019929378E+04  0.50400001928E-02 0.  1.
    10030    2    1    2    0    0  0.00000000000E+00  0.00000000000E+00 -0.87828786623E+03  0.27256980093E+04  0.25803178219E+04 0.  0.
        5    1    3    3  502    0  0.11935207439E+04  0.17088281094E+03  0.45848450789E+02  0.12065723649E+04  0.46999998093E+01 0.  1.
       -5    1    3    3    0  502 -0.11935207439E+04 -0.17088281094E+03 -0.92413631702E+03  0.15191256445E+04  0.46999998093E+01 0. -1.
</event>
<event>
 5   0  0.6984287E-06  0.2272258E+04  0.7818609E-02  0.8488940E-01
       -1   -1    0    0    0  501  0.00000000000E+00  0.00000000000E+00  0.10376440648E+04  0.10376440648E+04  0.50400001928E-02 0. -1.
        1   -1    0    0  501    0  0.00000000000E+00  0.00000000000E+00 -0.12439612238E+04  0.12439612239E+04  0.50400001928E-02 0.  1.
    10030    2    1    2    0    0  0.00000000000E+00  0.00000000000E+00 -0.20631715901E+03  0.22816052887E+04  0.22722578910E+04 0.  0.
        3    1    3    3  502    0 -0.78353670051E+03 -0.13207306130E+03  0.71222621285E+03  0.10670704021E+04  0.10100000352E+00 0. -1.
       -3    1    3    3    0  502  0.78353670051E+03  0.13207306130E+03 -0.91854337187E+03  0.12145348866E+04  0.10100000352E+00 0.  1.
</event>
<event>
 5   0  0.1677971E-05  0.2702223E+04  0.7818609E-02  0.8334284E-01
        2   -1    0    0  501    0  0.00000000000E+00  0.00000000000E+00  0.80210709702E+03  0.80210709702E+03  0.25500000920E-02 0.  1.
       -2   -1    0    0    0  501  0.00000000000E+00  0.00000000000E+00 -0.22758831800E+04  0.22758831800E+04  0.25500000920E-02 0. -1.
    10030    2    1    2    0    0  0.00000000000E+00  0.00000000000E+00 -0.14737760830E+04  0.30779902770E+04  0.27022228262E+04 0.  0.
        4    1    3    3  502    0 -0.45513258368E+03  0.12617784396E+04 -0.55226937367E+03  0.14505976607E+04  0.12699999809E+01 0.  1.
       -4    1    3    3    0  502  0.45513258368E+03 -0.12617784396E+04 -0.92150670930E+03  0.16273926163E+04  0.12699999809E+01 0. -1.
</event>
<event>
 5   0  0.6706225E-06  0.2644325E+04  0.7818609E-02  0.8353299E-01
        1   -1    0    0  501    0  0.00000000000E+00  0.00000000000E+00  0.20047530574E+04  0.20047530574E+04  0.50400001928E-02 0.  1.
       -1   -1    0    0    0  501  0.00000000000E+00  0.00000000000E+00 -0.87198454078E+03  0.87198454080E+03  0.50400001928E-02 0. -1.
    10030    2    1    2    0    0  0.00000000000E+00  0.00000000000E+00  0.11327685166E+04  0.28767375982E+04  0.26443249983E+04 0.  0.
        5    1    3    3  502    0  0.52929696289E+03 -0.33894582498E+03 -0.69905897706E+03  0.94007717268E+03  0.46999998093E+01 0. -1.
       -5    1    3    3    0  502 -0.52929696289E+03  0.33894582498E+03  0.18318274937E+04  0.19366604255E+04  0.46999998093E+01 0.  1.
</event>
<event>
 5   0  0.6993678E-06  0.2612395E+04  0.7818609E-02  0.8364003E-01
        1   -1    0    0  501    0  0.00000000000E+00  0.00000000000E+00  0.76021089002E+03  0.76021089003E+03  0.50400001928E-02 0. -1.
       -1   -1    0    0    0  501  0.00000000000E+00  0.00000000000E+00 -0.22443136408E+04  0.22443136408E+04  0.50400001928E-02 0.  1.
    10030    2    1    2    0    0  0.00000000000E+00  0.00000000000E+00 -0.14841027508E+04  0.30045245308E+04  0.26123948173E+04 0.  0.
        1    1    3    3  502    0 -0.51869697773E+03 -0.86240561142E+03 -0.16997235250E+04  0.19753101161E+04  0.50400001928E-02 0.  1.
       -1    1    3    3    0  502  0.51869697773E+03  0.86240561142E+03  0.21562077417E+03  0.10292144148E+04  0.50400001928E-02 0. -1.
</event>
<event>
 5   0  0.6706225E-06  0.2605639E+04  0.7818609E-02  0.8366288E-01
       -1   -1    0    0    0  501  0.00000000000E+00  0.00000000000E+00  0.75938091613E+03  0.75938091615E+03  0.50400001928E-02 0.  1.
        1   -1    0    0  501    0  0.00000000000E+00  0.00000000000E+00 -0.22351610259E+04  0.22351610259E+04  0.50400001928E-02 0. -1.
    10030    2    1    2    0    0  0.00000000000E+00  0.00000000000E+00 -0.14757801098E+04  0.29945419420E+04  0.26056389831E+04 0.  0.
        5    1    3    3  502    0  0.22983361722E+03 -0.52591924086E+03  0.60624729500E+03  0.83484873612E+03  0.46999998093E+01 0.  1.
       -5    1    3    3    0  502 -0.22983361722E+03  0.52591924086E+03 -0.20820274048E+04  0.21596932059E+04  0.46999998093E+01 0. -1.
</event>
<event>
 5   0  0.1720129E-05  0.2548878E+04  0.7818609E-02  0.8385777E-01
       -2   -1    0    0    0  501  0.00000000000E+00  0.00000000000E+00  0.61484903031E+03  0.61484903032E+03  0.25500000920E-02 0. -1.
        2   -1    0    0  501    0  0.00000000000E+00  0.00000000000E+00 -0.26416152047E+04  0.26416152047E+04  0.25500000920E-02 0.  1.
    10030    2    1    2    0    0  0.00000000000E+00  0.00000000000E+00 -0.20267661743E+04  0.32564642350E+04  0.25488778292E+04 0.  0.
        3    1    3    3  502    0 -0.10273415573E+04 -0.45954232982E+03 -0.24939469075E+03  0.11527391510E+04  0.10100000352E+00 0. -1.
       -3    1    3    3    0  502  0.10273415573E+04  0.45954232982E+03 -0.17773714836E+04  0.21037250840E+04  0.10100000352E+00 0.  1.
</event>
<event>
 5   0  0.6993678E-06  0.2654177E+04  0.7818609E-02  0.8350028E-01
       -1   -1    0    0    0  501  0.00000000000E+00  0.00000000000E+00  0.10095613596E+04  0.10095613596E+04  0.50400001928E-02 0. -1.
        1   -1    0    0  501    0  0.00000000000E+00  0.00000000000E+00 -0.17444838131E+04  0.17444838131E+04  0.50400001928E-02 0.  1.
    10030    2    1    2    0    0  0.00000000000E+00  0.00000000000E+00 -0.73492245348E+03  0.27540451727E+04  0.26541766709E+04 0.  0.
        1    1    3    3  502    0 -0.12226563379E+04 -0.43691410483E+03 -0.82574534198E+02  0.13010000036E+04  0.50400001928E-02 0. -1.
       -1    1    3    3    0  502  0.12226563379E+04  0.43691410483E+03 -0.65234791928E+03  0.14530451691E+04  0.50400001928E-02 0.  1.
</event>
<event>
 5   0  0.5840500E-06  0.2576611E+04  0.7818609E-02  0.8376190E-01
       -3   -1    0    0    0  501  0.00000000000E+00  0.00000000000E+00  0.15531528470E+04  0.15531528502E+04  0.10100000352E+00 0. -1.
        3   -1    0    0  501    0  0.00000000000E+00  0.00000000000E+00 -0.10686206035E+04  0.10686206083E+04  0.10100000352E+00 0.  1.
    10030    2    1    2    0    0  0.00000000000E+00  0.00000000000E+00  0.48453224344E+03  0.26217734585E+04  0.25766110636E+04 0.  0.
        2    1    3    3  502    0 -0.10903886089E+04  0.22401614023E+03  0.90217084384E+03  0.14328442975E+04  0.25500000920E-02 0. -1.
       -2    1    3    3    0  502  0.10903886089E+04 -0.22401614023E+03 -0.41763860040E+03  0.11889291610E+04  0.25500000920E-02 0.  1.
</event>
<event>
 5   0  0.1869956E-05  0.2590366E+04  0.7818609E-02  0.8371481E-01
        2   -1    0    0  501    0  0.00000000000E+00  0.00000000000E+00  0.16954938139E+04  0.16954938139E+04  0.25500000920E-02 0.  1.
       -2   -1    0    0    0  501  0.00000000000E+00  0.00000000000E+00 -0.98938702908E+03  0.98938702909E+03  0.25500000920E-02 0. -1.
    10030    2    1    2    0    0  0.00000000000E+00  0.00000000000E+00  0.70610678481E+03  0.26848808430E+04  0.25903664508E+04 0.  0.
        5    1    3    3  502    0 -0.22003276343E+03 -0.76209523271E+03  0.14142630741E+04  0.16215318971E+04  0.46999998093E+01 0.  1.
       -5    1    3    3    0  502  0.22003276343E+03  0.76209523271E+03 -0.70815628924E+03  0.10633489459E+04  0.46999998093E+01 0. -1.
</event>
<event>
 5   0  0.6706225E-06  0.2592455E+04  0.7818609E-02  0.8370769E-01
       -1   -1    0    0    0  501  0.00000000000E+00  0.00000000000E+00  0.96927482352E+03  0.96927482354E+03  0.50400001928E-02 0. -1.
        1   -1    0    0  501    0  0.00000000000E+00  0.00000000000E+00 -0.17334670791E+04  0.17334670791E+04  0.50400001928E-02 0.  1.
    10030    2    1    2    0    0  0.00000000000E+00  0.00000000000E+00 -0.76419225555E+03  0.27027419026E+04  0.25924552048E+04 0.  0.
        5    1    3    3  502    0  0.65061162725E+03  0.37829009730E+03 -0.14823527729E+04  0.16624652539E+04  0.46999998093E+01 0.  1.
       -5    1    3    3    0  502 -0.65061162725E+03 -0.37829009730E+03  0.71816051731E+03  0.10402766487E+04  0.46999998093E+01 0. -1.
</event>
<event>
 5   0  0.1677971E-05  0.2619758E+04  0.7818609E-02  0.8361521E-01
        2   -1    0    0  501    0  0.00000000000E+00  0.00000000000E+00  0.16406893417E+04  0.16406893417E+04  0.25500000920E-02 0. -1.
       -2   -1    0    0    0  501  0.00000000000E+00  0.00000000000E+00 -0.10457699383E+04  0.10457699383E+04  0.25500000920E-02 0.  1.
    10030    2    1    2    0    0  0.00000000000E+00  0.00000000000E+00  0.59491940346E+03  0.26864592800E+04  0.26197584558E+04 0.  0.
        4    1    3    3  502    0 -0.68200688857E+03 -0.11180379702E+04  0.32339554213E+03  0.13489731608E+04  0.12699999809E+01 0.  1.
       -4    1    3    3    0  502  0.68200688857E+03  0.11180379702E+04  0.27152386133E+03  0.13374861192E+04  0.12699999809E+01 0. -1.
</event>
<event>
 5   0  0.6918420E-06  0.2588489E+04  0.7818609E-02  0.8372122E-01
       -1   -1    0    0    0  501  0.00000000000E+00  0.00000000000E+00  0.69230637079E+03  0.69230637081E+03  0.50400001928E-02 0.  1.
        1   -1    0    0  501    0  0.00000000000E+00  0.00000000000E+00 -0.24195492777E+04  0.24195492777E+04  0.50400001928E-02 0. -1.
    10030    2    1    2    0    0  0.00000000000E+00  0.00000000000E+00 -0.17272429069E+04  0.31118556485E+04  0.25884894278E+04 0.  0.
        4    1    3    3  502    0  0.11614435103E+04  0.52247808091E+02 -0.17997075380E+03  0.11764658713E+04  0.12699999809E+01 0.  1.
       -4    1    3    3    0  502 -0.11614435103E+04 -0.52247808091E+02 -0.15472721531E+04  0.19353897772E+04  0.12699999809E+01 0. -1.
</event>
<event>
 5   0  0.7138294E-06  0.2578104E+04  0.7818609E-02  0.8375677E-01
       -1   -1    0    0    0  501  0.00000000000E+00  0.00000000000E+00  0.22813217121E+04  0.22813217121E+04  0.50400001928E-02 0.  1.
        1   -1    0    0  501    0  0.00000000000E+00  0.00000000000E+00 -0.72837400546E+03  0.72837400548E+03  0.50400001928E-02 0. -1.
    10030    2    1    2    0    0  0.00000000000E+00  0.00000000000E+00  0.15529477066E+04  0.30096957176E+04  0.25781042905E+04 0.  0.
        2    1    3    3  502    0  0.83940453130E+02  0.12191731892E+04  0.12552901081E+04  0.17519082511E+04  0.25500000920E-02 0.  1.
       -2    1    3    3    0  502 -0.83940453130E+02 -0.12191731892E+04  0.29765759855E+03  0.12577874665E+04  0.25500000920E-02 0. -1.
</event>
<event>
 5   0  0.6984287E-06  0.2603231E+04  0.7818609E-02  0.8367105E-01
       -1   -1    0    0    0  501  0.00000000000E+00  0.00000000000E+00  0.99658131799E+03  0.99658131801E+03  0.50400001928E-02 0.  1.
        1   -1    0    0  501    0  0.00000000000E+00  0.00000000000E+00 -0.17000140787E+04  0.17000140787E+04  0.50400001928E-02 0. -1.
    10030    2    1    2    0    0  0.00000000000E+00  0.00000000000E+00 -0.70343276070E+03  0.26965953967E+04  0.26032305093E+04 0.  0.
        3    1    3    3  502    0 -0.79961294591E+03  0.10189258400E+04 -0.48522459421E+03  0.13831245958E+04  0.10100000352E+00 0.  1.
       -3    1    3    3    0  502  0.79961294591E+03 -0.10189258400E+04 -0.21820816649E+03  0.13134708009E+04  0.10100000352E+00 0. -1.
</event>
<event>
 5   0  0.1720129E-05  0.2596297E+04  0.7818609E-02  0.8369460E-01
       -2   -1    0    0    0  501  0.00000000000E+00  0.00000000000E+00  0.23117390774E+04  0.23117390774E+04  0.25500000920E-02 0. -1.
        2   -1    0    0  501    0  0.00000000000E+00  0.00000000000E+00 -0.72897040810E+03  0.72897040810E+03  0.25500000920E-02 0.  1.
    10030    2    1    2    0    0  0.00000000000E+00  0.00000000000E+00  0.15827686693E+04  0.30407094855E+04  0.25962968849E+04 0.  0.
        3    1    3    3  502    0 -0.11267801776E+02  0.11887677585E+04  0.14020733191E+04  0.18382343021E+04  0.10100000352E+00 0. -1.
       -3    1    3    3    0  502  0.11267801776E+02 -0.11887677585E+04  0.18069535019E+03  0.12024751834E+04  0.10100000352E+00 0.  1.
</event>
<event>
 5   0  0.7138294E-06  0.2591161E+04  0.7818609E-02  0.8371210E-01
        1   -1    0    0  501    0  0.00000000000E+00  0.00000000000E+00  0.98122891074E+03  0.98122891076E+03  0.50400001928E-02 0. -1.
       -1   -1    0    0    0  501  0.00000000000E+00  0.00000000000E+00 -0.17106391362E+04  0.17106391362E+04  0.50400001928E-02 0.  1.
    10030    2    1    2    0    0  0.00000000000E+00  0.00000000000E+00 -0.72941022547E+03  0.26918680470E+04  0.25911608027E+04 0.  0.
        2    1    3    3  502    0  0.93628058731E+03 -0.75840267910E+03  0.12996582953E+03  0.12118940047E+04  0.25500000920E-02 0. -1.
       -2    1    3    3    0  502 -0.93628058731E+03  0.75840267910E+03 -0.85937605499E+03  0.14799740423E+04  0.25500000920E-02 0.  1.
</event>
<event>
 5   0  0.7138294E-06  0.2565599E+04  0.7818609E-02  0.8379981E-01
        1   -1    0    0  501    0  0.00000000000E+00  0.00000000000E+00  0.13578813821E+04  0.13578813821E+04  0.50400001928E-02 0.  1.
       -1   -1    0    0    0  501  0.00000000000E+00  0.00000000000E+00 -0.12118695522E+04  0.12118695522E+04  0.50400001928E-02 0. -1.
    10030    2    1    2    0    0  0.00000000000E+00  0.00000000000E+00  0.14601182996E+03  0.25697509343E+04  0.25655994250E+04 0.  0.
        2    1    3    3  502    0  0.51290910136E+03 -0.54779274820E+03  0.11150847633E+04  0.13440858122E+04  0.25500000920E-02 0.  1.
       -2    1    3    3    0  502 -0.51290910136E+03  0.54779274820E+03 -0.96907293336E+03  0.12256651221E+04  0.25500000920E-02 0. -1.
</event>
<event>
 5   0  0.1869956E-05  0.2616617E+04  0.7818609E-02  0.8362579E-01
       -2   -1    0    0    0  501  0.00000000000E+00  0.00000000000E+00  0.84599222862E+03  0.84599222862E+03  0.25500000920E-02 0. -1.
        2   -1    0    0  501    0  0.00000000000E+00  0.00000000000E+00 -0.20232704998E+04  0.20232704998E+04  0.25500000920E-02 0.  1.
    10030    2    1    2    0    0  0.00000000000E+00  0.00000000000E+00 -0.11772782712E+04  0.28692627284E+04  0.26166169909E+04 0.  0.
        5    1    3    3  502    0  0.79404647375E+03  0.97557384937E+03 -0.19419207450E+03  0.12727870167E+04  0.46999998093E+01 0. -1.
       -5    1    3    3    0  502 -0.79404647375E+03 -0.97557384937E+03 -0.98308619668E+03  0.15964757117E+04  0.46999998093E+01 0.  1.
</event>
<event>
 5   0  0.1677971E-05  0.2633446E+04  0.7818609E-02  0.8356928E-01
       -2   -1    0    0    0  501  0.00000000000E+00  0.00000000000E+00  0.54216509185E+03  0.54216509186E+03  0.25500000920E-02 0.  1.
        2   -1    0    0  501    0  0.00000000000E+00  0.00000000000E+00 -0.31978442044E+04  0.31978442044E+04  0.25500000920E-02 0. -1.
    10030    2    1    2    0    0  0.00000000000E+00  0.00000000000E+00 -0.26556791126E+04  0.37400092963E+04  0.26334460289E+04 0.  0.
        4    1    3    3  502    0 -0.28400217552E+03  0.10478507912E+04 -0.23859659260E+04  0.26213514700E+04  0.12699999809E+01 0. -1.
       -4    1    3    3    0  502  0.28400217552E+03 -0.10478507912E+04 -0.26971318659E+03  0.11186578263E+04  0.12699999809E+01 0.  1.
</event>
<event>
 5   0  0.7138294E-06  0.2599422E+04  0.7818609E-02  0.8368398E-01
       -1   -1    0    0    0  501  0.00000000000E+00  0.00000000000E+00  0.89949452908E+03  0.89949452910E+03  0.50400001928E-02 0.  1.
        1   -1    0    0  501    0  0.00000000000E+00  0.00000000000E+00 -0.18779974427E+04  0.18779974427E+04  0.50400001928E-02 0. -1.
    10030    2    1    2    0    0  0.00000000000E+00  0.00000000000E+00 -0.97850291361E+03  0.27774919718E+04  0.25994218014E+04 0.  0.
        2    1    3    3  502    0  0.82075409154E+02 -0.17683111992E+03 -0.18622861937E+04  0.18724624121E+04  0.25500000920E-02 0. -1.
       -2    1    3    3    0  502 -0.82075409154E+02  0.17683111992E+03  0.88378328005E+03  0.90502955966E+03  0.25500000920E-02 0.  1.
</event>
<event>
 5   0  0.6984287E-06  0.2583892E+04  0.7818609E-02  0.8373694E-01
        1   -1    0    0  501    0  0.00000000000E+00  0.00000000000E+00  0.17291256988E+04  0.17291256989E+04  0.50400001928E-02 0. -1.
       -1   -1    0    0    0  501  0.00000000000E+00  0.00000000000E+00 -0.96529932340E+03  0.96529932341E+03  0.50400001928E-02 0.  1.
    10030    2    1    2    0    0  0.00000000000E+00  0.00000000000E+00  0.76382637545E+03  0.26944250223E+04  0.25838915358E+04 0.  0.
        3    1    3    3  502    0 -0.41531983431E+03 -0.11162909852E+04 -0.14002578231E+03  0.11992511656E+04  0.10100000352E+00 0.  1.
       -3    1    3    3    0  502  0.41531983431E+03  0.11162909852E+04  0.90385215776E+03  0.14951738566E+04  0.10100000352E+00 0. -1.
</event>
<event>
 5   0  0.6984287E-06  0.2595652E+04  0.7818609E-02  0.8369680E-01
        1   -1    0    0  501    0  0.00000000000E+00  0.00000000000E+00  0.26526358133E+04  0.26526358133E+04  0.50400001928E-02 0.  1.
       -1   -1    0    0    0  501  0.00000000000E+00  0.00000000000E+00 -0.63497285447E+03  0.63497285449E+03  0.50400001928E-02 0. -1.
    10030    2    1    2    0    0  0.00000000000E+00  0.00000000000E+00  0.20176629588E+04  0.32876086678E+04  0.25956515439E+04 0.  0.
        3    1    3    3  502    0  0.60607028353E+03  0.18552396566E+03 -0.42560484325E+03  0.76346566604E+03  0.10100000352E+00 0. -1.
       -3    1    3    3    0  502 -0.60607028353E+03 -0.18552396566E+03  0.24432678021E+04  0.25241430018E+04  0.10100000352E+00 0.  1.
</event>
<event>
 5   0  0.1681731E-05  0.2665254E+04  0.7818609E-02  0.8346368E-01
        2   -1    0    0  501    0  0.00000000000E+00  0.00000000000E+00  0.26008933345E+04  0.26008933345E+04  0.25500000920E-02 0. -1.
       -2   -1    0    0    0  501  0.00000000000E+00  0.00000000000E+00 -0.68280194569E+03  0.68280194569E+03  0.25500000920E-02 0.  1.
    10030    2    1    2    0    0  0.00000000000E+00  0.00000000000E+00  0.19180913888E+04  0.32836952802E+04  0.26652542313E+04 0.  0.
        2    1    3    3  502    0  0.12481817881E+04 -0.45167416431E+03  0.11044455412E+04  0.17267794533E+04  0.25500000920E-02 0.  1.
       -2    1    3    3    0  502 -0.12481817881E+04  0.45167416431E+03  0.81364584756E+03  0.15569158269E+04  0.25500000920E-02 0. -1.
</event>
<event>
 5   0  0.6993678E-06  0.2606831E+04  0.7818609E-02  0.8365884E-01
       -1   -1    0    0    0  501  0.00000000000E+00  0.00000000000E+00  0.98447319339E+03  0.98447319340E+03  0.50400001928E-02 0.  1.
        1   -1    0    0  501    0  0.00000000000E+00  0.00000000000E+00 -0.17256869575E+04  0.17256869575E+04  0.50400001928E-02 0. -1.
    10030    2    1    2    0    0  0.00000000000E+00  0.00000000000E+00 -0.74121376410E+03  0.27101601509E+04  0.26068314482E+04 0.  0.
        1    1    3    3  502    0 -0.35115110876E+03 -0.12017217633E+04  0.63248635380E+01  0.12519913344E+04  0.50400001928E-02 0.  1.
       -1    1    3    3    0  502  0.35115110876E+03  0.12017217633E+04 -0.74753862764E+03  0.14581688165E+04  0.50400001928E-02 0. -1.
</event>
<event>
 5   0  0.1869956E-05  0.2590704E+04  0.7818609E-02  0.8371366E-01
        2   -1    0    0  501    0  0.00000000000E+00  0.00000000000E+00  0.14422421433E+04  0.14422421433E+04  0.25500000920E-02 0.  1.
       -2   -1    0    0    0  501  0.00000000000E+00  0.00000000000E+00 -0.11634223736E+04  0.11634223736E+04  0.25500000920E-02 0. -1.
    10030    2    1    2    0    0  0.00000000000E+00  0.00000000000E+00  0.27881976970E+03  0.26056645169E+04  0.25907039797E+04 0.  0.
        5    1    3    3  502    0 -0.41435046391E+03  0.10095501553E+04  0.84132019900E+03  0.13779403435E+04  0.46999998093E+01 0.  1.
       -5    1    3    3    0  502  0.41435046391E+03 -0.10095501553E+04 -0.56250042930E+03  0.12277241734E+04  0.46999998093E+01 0. -1.
</event>
<event>
 5   0  0.6984287E-06  0.2403812E+04  0.7818609E-02  0.8438078E-01
        1   -1    0    0  501    0  0.00000000000E+00  0.00000000000E+00  0.12869617879E+04  0.12869617879E+04  0.50400001928E-02 0.  1.
       -1   -1    0    0    0  501  0.00000000000E+00  0.00000000000E+00 -0.11224716605E+04  0.11224716605E+04  0.50400001928E-02 0. -1.
    10030    2    1    2    0    0  0.00000000000E+00  0.00000000000E+00  0.16449012745E+03  0.24094334484E+04  0.24038120850E+04 0.  0.
        3    1    3    3  502    0  0.38452536314E+03  0.49383760240E+03  0.11107258552E+04  0.12749302993E+04  0.10100000352E+00 0.  1.
       -3    1    3    3    0  502 -0.38452536314E+03 -0.49383760240E+03 -0.94623572780E+03  0.11345031491E+04  0.10100000352E+00 0. -1.
</event>
<event>
 5   0  0.1681731E-05  0.2607340E+04  0.7818609E-02  0.8365712E-01
       -2   -1    0    0    0  501  0.00000000000E+00  0.00000000000E+00  0.98948419719E+03  0.98948419719E+03  0.25500000920E-02 0.  1.
        2   -1    0    0  501    0  0.00000000000E+00  0.00000000000E+00 -0.17176180247E+04  0.17176180247E+04  0.25500000920E-02 0. -1.
    10030    2    1    2    0    0  0.00000000000E+00  0.00000000000E+00 -0.72813382752E+03  0.27071022219E+04  0.26073403247E+04 0.  0.
        2    1    3    3  502    0  0.20793150228E+03 -0.55348298658E+03  0.84227415469E+03  0.10290795294E+04  0.25500000920E-02 0.  1.
       -2    1    3    3    0  502 -0.20793150228E+03  0.55348298658E+03 -0.15704079822E+04  0.16780226925E+04  0.25500000920E-02 0. -1.
</event>
<event>
 5   0  0.5840500E-06  0.2586867E+04  0.7818609E-02  0.8372676E-01
       -3   -1    0    0    0  501  0.00000000000E+00  0.00000000000E+00  0.18725991092E+04  0.18725991119E+04  0.10100000352E+00 0. -1.
        3   -1    0    0  501    0  0.00000000000E+00  0.00000000000E+00 -0.89339503133E+03  0.89339503704E+03  0.10100000352E+00 0.  1.
    10030    2    1    2    0    0  0.00000000000E+00  0.00000000000E+00  0.97920407784E+03  0.27659941489E+04  0.25868674117E+04 0.  0.
        5    1    3    3  502    0 -0.32300474302E+03  0.89763705755E+03  0.14235028144E+04  0.17136121801E+04  0.46999998093E+01 0. -1.
       -5    1    3    3    0  502  0.32300474302E+03 -0.89763705755E+03 -0.44429873655E+03  0.10523819689E+04  0.46999998093E+01 0.  1.
</event>
<event>
 5   0  0.1869956E-05  0.2602239E+04  0.7818609E-02  0.8367441E-01
       -2   -1    0    0    0  501  0.00000000000E+00  0.00000000000E+00  0.14617443484E+04  0.14617443484E+04  0.25500000920E-02 0. -1.
        2   -1    0    0  501    0  0.00000000000E+00  0.00000000000E+00 -0.11581447655E+04  0.11581447655E+04  0.25500000920E-02 0.  1.
    10030    2    1    2    0    0  0.00000000000E+00  0.00000000000E+00  0.30359958290E+03  0.26198891139E+04  0.26022387020E+04 0.  0.
        5    1    3    3  502    0 -0.11661779805E+04 -0.56374681240E+03  0.28051792015E+02  0.12956043160E+04  0.46999998093E+01 0. -1.
       -5    1    3    3    0  502  0.11661779805E+04  0.56374681240E+03  0.27554779089E+03  0.13242847978E+04  0.46999998093E+01 0.  1.
</event>
<event>
 5   0  0.6993678E-06  0.2288610E+04  0.7818609E-02  0.8482426E-01
       -1   -1    0    0    0  501  0.00000000000E+00  0.00000000000E+00  0.12134215109E+04  0.12134215109E+04  0.50400001928E-02 0. -1.
        1   -1    0    0  501    0  0.00000000000E+00  0.00000000000E+00 -0.10791249480E+04  0.10791249480E+04  0.50400001928E-02 0.  1.
    10030    2    1    2    0    0  0.00000000000E+00  0.00000000000E+00  0.13429656295E+03  0.22925464589E+04  0.22886095559E+04 0.  0.
        1    1    3    3  502    0 -0.89179844586E+03  0.19043646062E+03 -0.62531715468E+03  0.11057088484E+04  0.50400001928E-02 0.  1.
       -1    1    3    3    0  502  0.89179844586E+03 -0.19043646062E+03  0.75961371763E+03  0.11868376105E+04  0.50400001928E-02 0. -1.
</event>
<event>
 5   0  0.6918420E-06  0.2603750E+04  0.7818609E-02  0.8366928E-01
       -1   -1    0    0    0  501  0.00000000000E+00  0.00000000000E+00  0.10159285318E+04  0.10159285318E+04  0.50400001928E-02 0. -1.
        1   -1    0    0  501    0  0.00000000000E+00  0.00000000000E+00 -0.16683050595E+04  0.16683050595E+04  0.50400001928E-02 0.  1.
    10030    2    1    2    0    0  0.00000000000E+00  0.00000000000E+00 -0.65237652768E+03  0.26842335914E+04  0.26037501491E+04 0.  0.
        4    1    3    3  502    0  0.77202320170E+03 -0.72458350049E+03 -0.11071232924E+04  0.15319153601E+04  0.12699999809E+01 0. -1.
       -4    1    3    3    0  502 -0.77202320170E+03  0.72458350049E+03  0.45474676469E+03  0.11523182312E+04  0.12699999809E+01 0.  1.
</event>
<event>
 5   0  0.1720129E-05  0.2640399E+04  0.7818609E-02  0.8354607E-01
       -2   -1    0    0    0  501  0.00000000000E+00  0.00000000000E+00  0.17328395667E+04  0.17328395667E+04  0.25500000920E-02 0. -1.
        2   -1    0    0  501    0  0.00000000000E+00  0.00000000000E+00 -0.10058208629E+04  0.10058208629E+04  0.25500000920E-02 0.  1.
    10030    2    1    2    0    0  0.00000000000E+00  0.00000000000E+00  0.72701870382E+03  0.27386604296E+04  0.26403985974E+04 0.  0.
        3    1    3    3  502    0 -0.81786274772E+03  0.10098401016E+04  0.12192585901E+03  0.13051982341E+04  0.10100000352E+00 0.  1.
       -3    1    3    3    0  502  0.81786274772E+03 -0.10098401016E+04  0.60509284481E+03  0.14334621955E+04  0.10100000352E+00 0. -1.
</event>
<event>
 5   0  0.6706225E-06  0.2582049E+04  0.7818609E-02  0.8374324E-01
        1   -1    0    0  501    0  0.00000000000E+00  0.00000000000E+00  0.21965537514E+04  0.21965537514E+04  0.50400001928E-02 0. -1.
       -1   -1    0    0    0  501  0.00000000000E+00  0.00000000000E+00 -0.75879965567E+03  0.75879965569E+03  0.50400001928E-02 0.  1.
    10030    2    1    2    0    0  0.00000000000E+00  0.00000000000E+00  0.14377540958E+04  0.29553534071E+04  0.25820489773E+04 0.  0.
        5    1    3    3  502    0  0.47942294576E+03  0.11675406085E+04  0.40809818503E+03  0.13264854512E+04  0.46999998093E+01 0.  1.
       -5    1    3    3    0  502 -0.47942294576E+03 -0.11675406085E+04  0.10296559107E+04  0.16288679560E+04  0.46999998093E+01 0. -1.
</event>
<event>
 5   0  0.1702345E-05  0.2583200E+04  0.7818609E-02  0.8373930E-01
        2   -1    0    0  501    0  0.00000000000E+00  0.00000000000E+00  0.23618345153E+04  0.23618345153E+04  0.25500000920E-02 0. -1.
       -2   -1    0    0    0  501  0.00000000000E+00  0.00000000000E+00 -0.70632820341E+03  0.70632820341E+03  0.25500000920E-02 0.  1.
    10030    2    1    2    0    0  0.00000000000E+00  0.00000000000E+00  0.16555063119E+04  0.30681627187E+04  0.25831998219E+04 0.  0.
        1    1    3    3  502    0 -0.48285094116E+03  0.78405374866E+03  0.19035212484E+04  0.21145397739E+04  0.50400001928E-02 0. -1.
       -1    1    3    3    0  502  0.48285094116E+03 -0.78405374866E+03 -0.24801493651E+03  0.95362294484E+03  0.50400001928E-02 0.  1.
</event>
<event>
 5   0  0.6993678E-06  0.2572189E+04  0.7818609E-02  0.8377710E-01
       -1   -1    0    0    0  501  0.00000000000E+00  0.00000000000E+00  0.10381086533E+04  0.10381086533E+04  0.50400001928E-02 0.  1.
        1   -1    0    0  501    0  0.00000000000E+00  0.00000000000E+00 -0.15933198090E+04  0.15933198091E+04  0.50400001928E-02 0. -1.
    10030    2    1    2    0    0  0.00000000000E+00  0.00000000000E+00 -0.55521115579E+03  0.26314284623E+04  0.25721890142E+04 0.  0.
        1    1    3    3  502    0  0.12704863771E+04  0.17281687011E+03 -0.38010170257E+03  0.13373401247E+04  0.50400001928E-02 0. -1.
       -1    1    3    3    0  502 -0.12704863771E+04 -0.17281687011E+03 -0.17510945323E+03  0.12940883376E+04  0.50400001928E-02 0.  1.
</event>
<event>
 5   0  0.1681731E-05  0.2601679E+04  0.7818609E-02  0.8367631E-01
        2   -1    0    0  501    0  0.00000000000E+00  0.00000000000E+00  0.12011909840E+04  0.12011909840E+04  0.25500000920E-02 0. -1.
       -2   -1    0    0    0  501  0.00000000000E+00  0.00000000000E+00 -0.14087551123E+04  0.14087551123E+04  0.25500000920E-02 0.  1.
    10030    2    1    2    0    0  0.00000000000E+00  0.00000000000E+00 -0.20756412831E+03  0.26099460964E+04  0.26016794112E+04 0.  0.
        2    1    3    3  502    0 -0.13214148711E+03 -0.12566041198E+04  0.20650422662E+03  0.12802965602E+04  0.25500000920E-02 0. -1.
       -2    1    3    3    0  502  0.13214148711E+03  0.12566041198E+04 -0.41406835493E+03  0.13296495362E+04  0.25500000920E-02 0.  1.
</event>
<event>
 5   0  0.6984287E-06  0.2640992E+04  0.7818609E-02  0.8354409E-01
       -1   -1    0    0    0  501  0.00000000000E+00  0.00000000000E+00  0.90301330327E+03  0.90301330329E+03  0.50400001928E-02 0. -1.
        1   -1    0    0  501    0  0.00000000000E+00  0.00000000000E+00 -0.19309896025E+04  0.19309896025E+04  0.50400001928E-02 0.  1.
    10030    2    1    2    0    0  0.00000000000E+00  0.00000000000E+00 -0.10279762992E+04  0.28340029058E+04  0.26409917073E+04 0.  0.
        3    1    3    3  502    0 -0.20689234470E+03  0.88495046736E+03  0.51402718979E+03  0.10441100201E+04  0.10100000352E+00 0. -1.
       -3    1    3    3    0  502  0.20689234470E+03 -0.88495046736E+03 -0.15420034890E+04  0.17898928857E+04  0.10100000352E+00 0.  1.
</event>
<event>
 5   0  0.1677971E-05  0.2592468E+04  0.7818609E-02  0.8370764E-01
        2   -1    0    0  501    0  0.00000000000E+00  0.00000000000E+00  0.12262807493E+04  0.12262807493E+04  0.25500000920E-02 0. -1.
       -2   -1    0    0    0  501  0.00000000000E+00  0.00000000000E+00 -0.13701778069E+04  0.13701778069E+04  0.25500000920E-02 0.  1.
    10030    2    1    2    0    0  0.00000000000E+00  0.00000000000E+00 -0.14389705762E+03  0.25964585562E+04  0.25924680656E+04 0.  0.
        4    1    3    3  502    0 -0.10262487222E+04  0.61764807502E+03  0.42433966423E+03  0.12707247333E+04  0.12699999809E+01 0. -1.
       -4    1    3    3    0  502  0.10262487222E+04 -0.61764807502E+03 -0.56823672185E+03  0.13257338229E+04  0.12699999809E+01 0.  1.
</event>
<event>
 5   0  0.1702345E-05  0.2639264E+04  0.7818609E-02  0.8354985E-01
        2   -1    0    0  501    0  0.00000000000E+00  0.00000000000E+00  0.16504194820E+04  0.16504194820E+04  0.25500000920E-02 0.  1.
       -2   -1    0    0    0  501  0.00000000000E+00  0.00000000000E+00 -0.10551427498E+04  0.10551427498E+04  0.25500000920E-02 0. -1.
    10030    2    1    2    0    0  0.00000000000E+00  0.00000000000E+00  0.59527673222E+03  0.27055622318E+04  0.26392636477E+04 0.  0.
        1    1    3    3  502    0  0.12533995023E+04  0.40098012184E+03  0.19702618315E+03  0.13306444632E+04  0.50400001928E-02 0. -1.
       -1    1    3    3    0  502 -0.12533995023E+04 -0.40098012184E+03  0.39825054907E+03  0.13749177686E+04  0.50400001928E-02 0.  1.
</event>
<event>
 5   0  0.6984287E-06  0.2436632E+04  0.7818609E-02  0.8425915E-01
        1   -1    0    0  501    0  0.00000000000E+00  0.00000000000E+00  0.13936625477E+04  0.13936625477E+04  0.50400001928E-02 0.  1.
       -1   -1    0    0    0  501  0.00000000000E+00  0.00000000000E+00 -0.10650314001E+04  0.10650314001E+04  0.50400001928E-02 0. -1.
    10030    2    1    2    0    0  0.00000000000E+00  0.00000000000E+00  0.32863114759E+03  0.24586939478E+04  0.24366324092E+04 0.  0.
        3    1    3    3  502    0 -0.59096408302E+03  0.10652704215E+04  0.14821030184E+03  0.12271943294E+04  0.10100000352E+00 0.  1.
       -3    1    3    3    0  502  0.59096408302E+03 -0.10652704215E+04  0.18042084575E+03  0.12314996184E+04  0.10100000352E+00 0. -1.
</event>
<event>
 5   0  0.6706225E-06  0.2556822E+04  0.7818609E-02  0.8383017E-01
       -1   -1    0    0    0  501  0.00000000000E+00  0.00000000000E+00  0.99818220338E+03  0.99818220339E+03  0.50400001928E-02 0. -1.
        1   -1    0    0  501    0  0.00000000000E+00  0.00000000000E+00 -0.16373113485E+04  0.16373113485E+04  0.50400001928E-02 0.  1.
    10030    2    1    2    0    0  0.00000000000E+00  0.00000000000E+00 -0.63912914511E+03  0.26354935519E+04  0.25568222852E+04 0.  0.
        5    1    3    3  502    0  0.61719543611E+02  0.12695005640E+04 -0.17796234136E+03  0.12834070551E+04  0.46999998093E+01 0.  1.
       -5    1    3    3    0  502 -0.61719543611E+02 -0.12695005640E+04 -0.46116680375E+03  0.13520864968E+04  0.46999998093E+01 0. -1.
</event>
<event>
 5   0  0.6984287E-06  0.2536985E+04  0.7818609E-02  0.8389927E-01
       -1   -1    0    0    0  501  0.00000000000E+00  0.00000000000E+00  0.77774255458E+03  0.77774255459E+03  0.50400001928E-02 0. -1.
        1   -1    0    0  501    0  0.00000000000E+00  0.00000000000E+00 -0.20689025974E+04  0.20689025974E+04  0.50400001928E-02 0.  1.
    10030    2    1    2    0    0  0.00000000000E+00  0.00000000000E+00 -0.12911600429E+04  0.28466451520E+04  0.25369852907E+04 0.  0.
        3    1    3    3  502    0  0.19775505536E+02  0.92373348652E+03  0.32964216879E+03  0.98098858015E+03  0.10100000352E+00 0. -1.
       -3    1    3    3    0  502 -0.19775505536E+02 -0.92373348652E+03 -0.16208022116E+04  0.18656565719E+04  0.10100000352E+00 0.  1.
</event>
<event>
 5   0  0.6706225E-06  0.2585098E+04  0.7818609E-02  0.8373281E-01
        1   -1    0    0  501    0  0.00000000000E+00  0.00000000000E+00  0.96890750660E+03  0.96890750661E+03  0.50400001928E-02 0.  1.
       -1   -1    0    0    0  501  0.00000000000E+00  0.00000000000E+00 -0.17242961844E+04  0.17242961844E+04  0.50400001928E-02 0. -1.
    10030    2    1    2    0    0  0.00000000000E+00  0.00000000000E+00 -0.75538867775E+03  0.26932036910E+04  0.25850984636E+04 0.  0.
        5    1    3    3  502    0 -0.94885719519E+03 -0.40998151397E+03 -0.11861929771E+04  0.15733692153E+04  0.46999998093E+01 0. -1.
       -5    1    3    3    0  502  0.94885719519E+03  0.40998151397E+03  0.43080429934E+03  0.11198344757E+04  0.46999998093E+01 0.  1.
</event>
<event>
 5   0  0.1681731E-05  0.2573913E+04  0.7818609E-02  0.8377117E-01
        2   -1    0    0  501    0  0.00000000000E+00  0.00000000000E+00  0.81226265364E+03  0.81226265364E+03  0.25500000920E-02 0.  1.
       -2   -1    0    0    0  501  0.00000000000E+00  0.00000000000E+00 -0.20390661775E+04  0.20390661775E+04  0.25500000920E-02 0. -1.
    10030    2    1    2    0    0  0.00000000000E+00  0.00000000000E+00 -0.12268035238E+04  0.28513288311E+04  0.25739132109E+04 0.  0.
        2    1    3    3  502    0 -0.41226921533E+03 -0.75810723325E+03  0.44426092897E+03  0.97059788586E+03  0.25500000920E-02 0.  1.
       -2    1    3    3    0  502  0.41226921533E+03  0.75810723325E+03 -0.16710644528E+04  0.18807309453E+04  0.25500000920E-02 0. -1.
</event>
<event>
 5   0  0.6984287E-06  0.2638899E+04  0.7818609E-02  0.8355107E-01
       -1   -1    0    0    0  501  0.00000000000E+00  0.00000000000E+00  0.14295078945E+04  0.14295078945E+04  0.50400001928E-02 0.  1.
        1   -1    0    0  501    0  0.00000000000E+00  0.00000000000E+00 -0.12178641325E+04  0.12178641325E+04  0.50400001928E-02 0. -1.
    10030    2    1    2    0    0  0.00000000000E+00  0.00000000000E+00  0.21164376194E+03  0.26473720270E+04  0.26388985519E+04 0.  0.
        3    1    3    3  502    0 -0.10711401634E+04 -0.53277422142E+03  0.66416694102E+03  0.13683228261E+04  0.10100000352E+00 0.  1.
       -3    1    3    3    0  502  0.10711401634E+04  0.53277422142E+03 -0.45252317909E+03  0.12790492009E+04  0.10100000352E+00 0. -1.
</event>
<event>
 5   0  0.1702345E-05  0.2583277E+04  0.7818609E-02  0.8373904E-01
       -2   -1    0    0    0  501  0.00000000000E+00  0.00000000000E+00  0.88287715180E+03  0.88287715180E+03  0.25500000920E-02 0. -1.
        2   -1    0    0  501    0  0.00000000000E+00  0.00000000000E+00 -0.18896511750E+04  0.18896511750E+04  0.25500000920E-02 0.  1.
    10030    2    1    2    0    0  0.00000000000E+00  0.00000000000E+00 -0.10067740232E+04  0.27725283268E+04  0.25832768704E+04 0.  0.
        1    1    3    3  502    0  0.28858104439E+03  0.92653178008E+03  0.41146248127E+03  0.10540595487E+04  0.50400001928E-02 0. -1.
       -1    1    3    3    0  502 -0.28858104439E+03 -0.92653178008E+03 -0.14182365045E+04  0.17184687781E+04  0.50400001928E-02 0.  1.
</event>
<event>
 5   0  0.1677971E-05  0.2629683E+04  0.7818609E-02  0.8358188E-01
       -2   -1    0    0    0  501  0.00000000000E+00  0.00000000000E+00  0.15489106073E+04  0.15489106073E+04  0.25500000920E-02 0.  1.
        2   -1    0    0  501    0  0.00000000000E+00  0.00000000000E+00 -0.11161446750E+04  0.11161446750E+04  0.25500000920E-02 0. -1.
    10030    2    1    2    0    0  0.00000000000E+00  0.00000000000E+00  0.43276593228E+03  0.26650552822E+04  0.26296831188E+04 0.  0.
        4    1    3    3  502    0  0.79890128997E+03  0.95875425248E+03 -0.20313404851E+03  0.12644042243E+04  0.12699999809E+01 0. -1.
       -4    1    3    3    0  502 -0.79890128997E+03 -0.95875425248E+03  0.63589998078E+03  0.14006510580E+04  0.12699999809E+01 0.  1.
</event>
<event>
 5   0  0.6706225E-06  0.2562688E+04  0.7818609E-02  0.8380987E-01
        1   -1    0    0  501    0  0.00000000000E+00  0.00000000000E+00  0.21943132960E+04  0.21943132960E+04  0.50400001928E-02 0. -1.
       -1   -1    0    0    0  501  0.00000000000E+00  0.00000000000E+00 -0.74822597116E+03  0.74822597118E+03  0.50400001928E-02 0.  1.
    10030    2    1    2    0    0  0.00000000000E+00  0.00000000000E+00  0.14460873248E+04  0.29425392672E+04  0.25626878054E+04 0.  0.
        5    1    3    3  502    0 -0.32641821401E+03 -0.60806225167E+02 -0.69796111303E+03  0.77292823261E+03  0.46999998093E+01 0.  1.
       -5    1    3    3    0  502  0.32641821401E+03  0.60806225167E+02  0.21440484378E+04  0.21696110346E+04  0.46999998093E+01 0. -1.
</event>
<event>
 5   0  0.1720129E-05  0.2551546E+04  0.7818609E-02  0.8384849E-01
       -2   -1    0    0    0  501  0.00000000000E+00  0.00000000000E+00  0.12054162484E+04  0.12054162484E+04  0.25500000920E-02 0. -1.
        2   -1    0    0  501    0  0.00000000000E+00  0.00000000000E+00 -0.13502357859E+04  0.13502357859E+04  0.25500000920E-02 0.  1.
    10030    2    1    2    0    0  0.00000000000E+00  0.00000000000E+00 -0.14481953750E+03  0.25556520342E+04  0.25515455359E+04 0.  0.
        3    1    3    3  502    0 -0.15427987206E+02 -0.15013761829E+03  0.11964427092E+04  0.12059247463E+04  0.10100000352E+00 0. -1.
       -3    1    3    3    0  502  0.15427987206E+02  0.15013761829E+03 -0.13412622467E+04  0.13497272879E+04  0.10100000352E+00 0.  1.
</event>
<event>
 5   0  0.1702345E-05  0.2613254E+04  0.7818609E-02  0.8363713E-01
        2   -1    0    0  501    0  0.00000000000E+00  0.00000000000E+00  0.23710981847E+04  0.23710981847E+04  0.25500000920E-02 0. -1.
       -2   -1    0    0    0  501  0.00000000000E+00  0.00000000000E+00 -0.72003536646E+03  0.72003536646E+03  0.25500000920E-02 0.  1.
    10030    2    1    2    0    0  0.00000000000E+00  0.00000000000E+00  0.16510628182E+04  0.30911335511E+04  0.26132543315E+04 0.  0.
        1    1    3    3  502    0  0.53352774706E+03  0.44783124564E+03 -0.48209628002E+03  0.84712543622E+03  0.50400001928E-02 0.  1.
       -1    1    3    3    0  502 -0.53352774706E+03 -0.44783124564E+03  0.21331590982E+04  0.22440081149E+04  0.50400001928E-02 0. -1.
</event>
<event>
 5   0  0.7138294E-06  0.2576197E+04  0.7818609E-02  0.8376332E-01
        1   -1    0    0  501    0  0.00000000000E+00  0.00000000000E+00  0.85238685205E+03  0.85238685207E+03  0.50400001928E-02 0. -1.
       -1   -1    0    0    0  501  0.00000000000E+00  0.00000000000E+00 -0.19465321076E+04  0.19465321076E+04  0.50400001928E-02 0.  1.
    10030    2    1    2    0    0  0.00000000000E+00  0.00000000000E+00 -0.10941452555E+04  0.27989189597E+04  0.25761974890E+04 0.  0.
        2    1    3    3  502    0 -0.77864126546E+03  0.57835272802E+03 -0.14679497237E+04  0.17594460746E+04  0.25500000920E-02 0.  1.
       -2    1    3    3    0  502  0.77864126546E+03 -0.57835272802E+03  0.37380446815E+03  0.10394728850E+04  0.25500000920E-02 0. -1.
</event>
<event>
 5   0  0.6706225E-06  0.2543107E+04  0.7818609E-02  0.8387787E-01
       -1   -1    0    0    0  501  0.00000000000E+00  0.00000000000E+00  0.14857625487E+04  0.14857625487E+04  0.50400001928E-02 0. -1.
        1   -1    0    0  501    0  0.00000000000E+00  0.00000000000E+00 -0.10882281202E+04  0.10882281202E+04  0.50400001928E-02 0.  1.
    10030    2    1    2    0    0  0.00000000000E+00  0.00000000000E+00  0.39753442847E+03  0.25739906689E+04  0.25431072218E+04 0.  0.
        5    1    3    3  502    0  0.44497241842E+03 -0.57236402163E+03  0.12560704076E+04  0.14502882421E+04  0.46999998093E+01 0. -1.
       -5    1    3    3    0  502 -0.44497241842E+03  0.57236402163E+03 -0.85853597915E+03  0.11237024268E+04  0.46999998093E+01 0.  1.
</event>
<event>
 5   0  0.6993678E-06  0.2598116E+04  0.7818609E-02  0.8368841E-01
        1   -1    0    0  501    0  0.00000000000E+00  0.00000000000E+00  0.26558932514E+04  0.26558932514E+04  0.50400001928E-02 0. -1.
       -1   -1    0    0    0  501  0.00000000000E+00  0.00000000000E+00 -0.63539890594E+03  0.63539890596E+03  0.50400001928E-02 0.  1.
    10030    2    1    2    0    0  0.00000000000E+00  0.00000000000E+00  0.20204943455E+04  0.32912921574E+04  0.25981159838E+04 0.  0.
        1    1    3    3  502    0  0.96669029235E+03 -0.86118561563E+03  0.87486618088E+03  0.15625369181E+04  0.50400001928E-02 0.  1.
       -1    1    3    3    0  502 -0.96669029235E+03  0.86118561563E+03  0.11456281646E+04  0.17287552393E+04  0.50400001928E-02 0. -1.
</event>
<event>
 5   0  0.1869956E-05  0.2213450E+04  0.7818609E-02  0.8512851E-01
        2   -1    0    0  501    0  0.00000000000E+00  0.00000000000E+00  0.14392816926E+04  0.14392816926E+04  0.25500000920E-02 0. -1.
       -2   -1    0    0    0  501  0.00000000000E+00  0.00000000000E+00 -0.85100834640E+03  0.85100834640E+03  0.25500000920E-02 0.  1.
    10030    2    1    2    0    0  0.00000000000E+00  0.00000000000E+00  0.58827334625E+03  0.22902900390E+04  0.22134504587E+04 0.  0.
        5    1    3    3  502    0  0.70202621211E+03 -0.11794025444E+01 -0.59112004742E+03  0.91776205737E+03  0.46999998093E+01 0.  1.
       -5    1    3    3    0  502 -0.70202621211E+03  0.11794025444E+01  0.11793933937E+04  0.13725279817E+04  0.46999998093E+01 0. -1.
</event>
<event>
 5   0  0.1720129E-05  0.2593516E+04  0.7818609E-02  0.8370407E-01
        2   -1    0    0  501    0  0.00000000000E+00  0.00000000000E+00  0.14450064287E+04  0.14450064287E+04  0.25500000920E-02 0. -1.
       -2   -1    0    0    0  501  0.00000000000E+00  0.00000000000E+00 -0.11637188504E+04  0.11637188504E+04  0.25500000920E-02 0.  1.
    10030    2    1    2    0    0  0.00000000000E+00  0.00000000000E+00  0.28128757829E+03  0.26087252791E+04  0.25935159302E+04 0.  0.
        3    1    3    3  502    0 -0.33211839679E+03  0.10459194612E+04 -0.55429935467E+03  0.12294299222E+04  0.10100000352E+00 0.  1.
       -3    1    3    3    0  502  0.33211839679E+03 -0.10459194612E+04  0.83558693296E+03  0.13792953569E+04  0.10100000352E+00 0. -1.
</event>
<event>
 5   0  0.1677971E-05  0.2604839E+04  0.7818609E-02  0.8366559E-01
        2   -1    0    0  501    0  0.00000000000E+00  0.00000000000E+00  0.23695888134E+04  0.23695888134E+04  0.25500000920E-02 0.  1.
       -2   -1    0    0    0  501  0.00000000000E+00  0.00000000000E+00 -0.71586099894E+03  0.71586099895E+03  0.25500000920E-02 0. -1.
    10030    2    1    2    0    0  0.00000000000E+00  0.00000000000E+00  0.16537278145E+04  0.30854498124E+04  0.26048387398E+04 0.  0.
        4    1    3    3  502    0 -0.12888852001E+04 -0.18207900733E+03  0.87872283899E+03  0.15705200619E+04  0.12699999809E+01 0. -1.
       -4    1    3    3    0  502  0.12888852001E+04  0.18207900733E+03  0.77500497548E+03  0.15149297505E+04  0.12699999809E+01 0.  1.
</event>
<event>
 5   0  0.1720129E-05  0.2596296E+04  0.7818609E-02  0.8369460E-01
        2   -1    0    0  501    0  0.00000000000E+00  0.00000000000E+00  0.15016974728E+04  0.15016974728E+04  0.25500000920E-02 0. -1.
       -2   -1    0    0    0  501  0.00000000000E+00  0.00000000000E+00 -0.11221889279E+04  0.11221889279E+04  0.25500000920E-02 0.  1.
    10030    2    1    2    0    0  0.00000000000E+00  0.00000000000E+00  0.37950854487E+03  0.26238864007E+04  0.25962960363E+04 0.  0.
        3    1    3    3  502    0  0.10282346498E+03 -0.10726877358E+04  0.92129495915E+03  0.14177503502E+04  0.10100000352E+00 0. -1.
       -3    1    3    3    0  502 -0.10282346498E+03  0.10726877358E+04 -0.54178641428E+03  0.12061360505E+04  0.10100000352E+00 0.  1.
</event>
<event>
 5   0  0.6706225E-06  0.2604827E+04  0.7818609E-02  0.8366563E-01
        1   -1    0    0  501    0  0.00000000000E+00  0.00000000000E+00  0.18284949131E+04  0.18284949131E+04  0.50400001928E-02 0.  1.
       -1   -1    0    0    0  501  0.00000000000E+00  0.00000000000E+00 -0.92769233658E+03  0.92769233659E+03  0.50400001928E-02 0. -1.
    10030    2    1    2    0    0  0.00000000000E+00  0.00000000000E+00  0.90080257656E+03  0.27561872497E+04  0.26048268414E+04 0.  0.
        5    1    3    3  502    0 -0.49488368342E+03  0.34728647371E+03 -0.77020782764E+03  0.97916287853E+03  0.46999998093E+01 0. -1.
       -5    1    3    3    0  502  0.49488368342E+03 -0.34728647371E+03  0.16710104042E+04  0.17770243712E+04  0.46999998093E+01 0.  1.
</event>
<event>
 5   0  0.6918420E-06  0.2646692E+04  0.7818609E-02  0.8352512E-01
        1   -1    0    0  501    0  0.00000000000E+00  0.00000000000E+00  0.17000268273E+04  0.17000268273E+04  0.50400001928E-02 0. -1.
       -1   -1    0    0    0  501  0.00000000000E+00  0.00000000000E+00 -0.10301277161E+04  0.10301277162E+04  0.50400001928E-02 0.  1.
    10030    2    1    2    0    0  0.00000000000E+00  0.00000000000E+00  0.66989911116E+03  0.27301545435E+04  0.26466920886E+04 0.  0.
        4    1    3    3  502    0  0.93197970351E+03 -0.75704224871E+03 -0.23896205604E+03  0.12242563503E+04  0.12699999809E+01 0. -1.
       -4    1    3    3    0  502 -0.93197970351E+03  0.75704224871E+03  0.90886116720E+03  0.15058981932E+04  0.12699999809E+01 0.  1.
</event>
<event>
 5   0  0.6706225E-06  0.2589151E+04  0.7818609E-02  0.8371896E-01
        1   -1    0    0  501    0  0.00000000000E+00  0.00000000000E+00  0.16250979478E+04  0.16250979478E+04  0.50400001928E-02 0.  1.
       -1   -1    0    0    0  501  0.00000000000E+00  0.00000000000E+00 -0.10312768281E+04  0.10312768281E+04  0.50400001928E-02 0. -1.
    10030    2    1    2    0    0  0.00000000000E+00  0.00000000000E+00  0.59382111965E+03  0.26563747759E+04  0.25891511018E+04 0.  0.
        5    1    3    3  502    0 -0.44556862421E+03 -0.11757585985E+04  0.61307399931E+03  0.13988643607E+04  0.46999998093E+01 0.  1.
       -5    1    3    3    0  502  0.44556862421E+03  0.11757585985E+04 -0.19252879658E+02  0.12575104152E+04  0.46999998093E+01 0. -1.
</event>
<event>
 5   0  0.6918420E-06  0.2626931E+04  0.7818609E-02  0.8359110E-01
       -1   -1    0    0    0  501  0.00000000000E+00  0.00000000000E+00  0.17862995290E+04  0.17862995290E+04  0.50400001928E-02 0.  1.
        1   -1    0    0  501    0  0.00000000000E+00  0.00000000000E+00 -0.96579098850E+03  0.96579098851E+03  0.50400001928E-02 0. -1.
    10030    2    1    2    0    0  0.00000000000E+00  0.00000000000E+00  0.82050854053E+03  0.27520905176E+04  0.26269312804E+04 0.  0.
        4    1    3    3  502    0 -0.11763231734E+04  0.18336018185E+03 -0.17100746995E+03  0.12027478258E+04  0.12699999809E+01 0. -1.
       -4    1    3    3    0  502  0.11763231734E+04 -0.18336018185E+03  0.99151601048E+03  0.15493426918E+04  0.12699999809E+01 0.  1.
</event>
<event>
 5   0  0.1720129E-05  0.2624675E+04  0.7818609E-02  0.8359868E-01
       -2   -1    0    0    0  501  0.00000000000E+00  0.00000000000E+00  0.14060403682E+04  0.14060403682E+04  0.25500000920E-02 0.  1.
        2   -1    0    0  501    0  0.00000000000E+00  0.00000000000E+00 -0.12248790767E+04  0.12248790767E+04  0.25500000920E-02 0. -1.
    10030    2    1    2    0    0  0.00000000000E+00  0.00000000000E+00  0.18116129146E+03  0.26309194449E+04  0.26246747822E+04 0.  0.
        3    1    3    3  502    0  0.79683505111E+03 -0.10382572915E+04 -0.61118883403E+01  0.13088016150E+04  0.10100000352E+00 0.  1.
       -3    1    3    3    0  502 -0.79683505111E+03  0.10382572915E+04  0.18727317980E+03  0.13221178299E+04  0.10100000352E+00 0. -1.
</event>
<event>
 5   0  0.6984287E-06  0.2882314E+04  0.7818609E-02  0.8278159E-01
        1   -1    0    0  501    0  0.00000000000E+00  0.00000000000E+00  0.10730341605E+04  0.10730341605E+04  0.50400001928E-02 0.  1.
       -1   -1    0    0    0  501  0.00000000000E+00  0.00000000000E+00 -0.19355701309E+04  0.19355701309E+04  0.50400001928E-02 0. -1.
    10030    2    1    2    0    0  0.00000000000E+00  0.00000000000E+00 -0.86253597037E+03  0.30086042914E+04  0.28823135641E+04 0.  0.
        3    1    3    3  502    0  0.37795426045E+02 -0.12843288527E+03  0.10665291843E+04  0.10748990704E+04  0.10100000352E+00 0.  1.
       -3    1    3    3    0  502 -0.37795426045E+02  0.12843288527E+03 -0.19290651547E+04  0.19337052210E+04  0.10100000352E+00 0. -1.
</event>
<event>
 5   0  0.1869956E-05  0.2519341E+04  0.7818609E-02  0.8396128E-01
       -2   -1    0    0    0  501  0.00000000000E+00  0.00000000000E+00  0.10169217314E+04  0.10169217314E+04  0.25500000920E-02 0. -1.
        2   -1    0    0  501    0  0.00000000000E+00  0.00000000000E+00 -0.15603651186E+04  0.15603651186E+04  0.25500000920E-02 0.  1.
    10030    2    1    2    0    0  0.00000000000E+00  0.00000000000E+00 -0.54344338722E+03  0.25772868500E+04  0.25193405471E+04 0.  0.
        5    1    3    3  502    0  0.24657928471E+02  0.96638545474E+03  0.55446655355E+03  0.11144344348E+04  0.46999998093E+01 0. -1.
       -5    1    3    3    0  502 -0.24657928471E+02 -0.96638545474E+03 -0.10979099408E+04  0.14628524152E+04  0.46999998093E+01 0.  1.
</event>
<event>
 5   0  0.1720129E-05  0.2395822E+04  0.7818609E-02  0.8441070E-01
        2   -1    0    0  501    0  0.00000000000E+00  0.00000000000E+00  0.11824000851E+04  0.11824000851E+04  0.25500000920E-02 0. -1.
       -2   -1    0    0    0  501  0.00000000000E+00  0.00000000000E+00 -0.12136249867E+04  0.12136249867E+04  0.25500000920E-02 0.  1.
    10030    2    1    2    0    0  0.00000000000E+00  0.00000000000E+00 -0.31224901622E+02  0.23960250718E+04  0.23958216024E+04 0.  0.
        3    1    3    3  502    0 -0.89305222504E+03 -0.27589933526E+03 -0.76489404348E+03  0.12077771433E+04  0.10100000352E+00 0.  1.
       -3    1    3    3    0  502  0.89305222504E+03  0.27589933526E+03  0.73366914186E+03  0.11882479286E+04  0.10100000352E+00 0. -1.
</event>
<event>
 5   0  0.6984287E-06  0.2585414E+04  0.7818609E-02  0.8373173E-01
       -1   -1    0    0    0  501  0.00000000000E+00  0.00000000000E+00  0.79220933891E+03  0.79220933892E+03  0.50400001928E-02 0.  1.
        1   -1    0    0  501    0  0.00000000000E+00  0.00000000000E+00 -0.21094056501E+04  0.21094056501E+04  0.50400001928E-02 0. -1.
    10030    2    1    2    0    0  0.00000000000E+00  0.00000000000E+00 -0.13171963112E+04  0.29016149891E+04  0.25854135883E+04 0.  0.
        3    1    3    3  502    0 -0.51359363127E+03  0.63396356920E+03  0.46673150385E+03  0.93996092049E+03  0.10100000352E+00 0.  1.
       -3    1    3    3    0  502  0.51359363127E+03 -0.63396356920E+03 -0.17839278151E+04  0.19616540686E+04  0.10100000352E+00 0. -1.
</event>
<event>
 5   0  0.1677971E-05  0.2588180E+04  0.7818609E-02  0.8372227E-01
        2   -1    0    0  501    0  0.00000000000E+00  0.00000000000E+00  0.17194038135E+04  0.17194038135E+04  0.25500000920E-02 0.  1.
       -2   -1    0    0    0  501  0.00000000000E+00  0.00000000000E+00 -0.97398196205E+03  0.97398196206E+03  0.25500000920E-02 0. -1.
    10030    2    1    2    0    0  0.00000000000E+00  0.00000000000E+00  0.74542185145E+03  0.26933857756E+04  0.25881795145E+04 0.  0.
        4    1    3    3  502    0  0.78161767253E+03  0.40268442606E+03  0.13608263694E+04  0.16201638663E+04  0.12699999809E+01 0.  1.
       -4    1    3    3    0  502 -0.78161767253E+03 -0.40268442606E+03 -0.61540451794E+03  0.10732219093E+04  0.12699999809E+01 0. -1.
</event>
<event>
 5   0  0.5840500E-06  0.2591060E+04  0.7818609E-02  0.8371244E-01
        4   -1    0    0  501    0  0.00000000000E+00  0.00000000000E+00  0.13375203003E+04  0.13375209032E+04  0.12699999809E+01 0.  1.
       -4   -1    0    0    0  501  0.00000000000E+00  0.00000000000E+00 -0.12548565032E+04  0.12548571459E+04  0.12699999809E+01 0. -1.
    10030    2    1    2    0    0  0.00000000000E+00  0.00000000000E+00  0.82663797089E+02  0.25923780491E+04  0.25910597535E+04 0.  0.
        1    1    3    3  502    0 -0.40364640950E+03  0.11331249323E+04 -0.44005230189E+03  0.12808390080E+04  0.50400001928E-02 0.  1.
       -1    1    3    3    0  502  0.40364640950E+03 -0.11331249323E+04  0.52271609898E+03  0.13115390411E+04  0.50400001928E-02 0. -1.
</event>
<event>
 5   0  0.7138294E-06  0.2634388E+04  0.7818609E-02  0.8356613E-01
        1   -1    0    0  501    0  0.00000000000E+00  0.00000000000E+00  0.13260520820E+04  0.13260520820E+04  0.50400001928E-02 0.  1.
       -1   -1    0    0    0  501  0.00000000000E+00  0.00000000000E+00 -0.13083949983E+04  0.13083949983E+04  0.50400001928E-02 0. -1.
    10030    2    1    2    0    0  0.00000000000E+00  0.00000000000E+00  0.17657083680E+02  0.26344470803E+04  0.26343879073E+04 0.  0.
        2    1    3    3  502    0  0.11000185542E+04 -0.62896843689E+03  0.36850007075E+03  0.13196341979E+04  0.25500000920E-02 0. -1.
       -2    1    3    3    0  502 -0.11000185542E+04  0.62896843689E+03 -0.35084298707E+03  0.13148128824E+04  0.25500000920E-02 0.  1.
</event>
<event>
 5   0  0.6918420E-06  0.2591334E+04  0.7818609E-02  0.8371151E-01
       -1   -1    0    0    0  501  0.00000000000E+00  0.00000000000E+00  0.14869794354E+04  0.14869794354E+04  0.50400001928E-02 0.  1.
        1   -1    0    0  501    0  0.00000000000E+00  0.00000000000E+00 -0.11289685065E+04  0.11289685065E+04  0.50400001928E-02 0. -1.
    10030    2    1    2    0    0  0.00000000000E+00  0.00000000000E+00  0.35801092891E+03  0.26159479420E+04  0.25913339827E+04 0.  0.
        4    1    3    3  502    0 -0.15395343091E+03  0.12818604556E+04  0.68958761333E+02  0.12929133034E+04  0.12699999809E+01 0.  1.
       -4    1    3    3    0  502  0.15395343091E+03 -0.12818604556E+04  0.28905216758E+03  0.13230346386E+04  0.12699999809E+01 0. -1.
</event>
<event>
 5   0  0.6984287E-06  0.2592011E+04  0.7818609E-02  0.8370920E-01
       -1   -1    0    0    0  501  0.00000000000E+00  0.00000000000E+00  0.91168073748E+03  0.91168073749E+03  0.50400001928E-02 0.  1.
        1   -1    0    0  501    0  0.00000000000E+00  0.00000000000E+00 -0.18423450675E+04  0.18423450675E+04  0.50400001928E-02 0. -1.
    10030    2    1    2    0    0  0.00000000000E+00  0.00000000000E+00 -0.93066433006E+03  0.27540258050E+04  0.25920111959E+04 0.  0.
        3    1    3    3  502    0  0.12817432160E+04 -0.13546819475E+03 -0.60950907827E+03  0.14257344178E+04  0.10100000352E+00 0. -1.
       -3    1    3    3    0  502 -0.12817432160E+04  0.13546819475E+03 -0.32115525179E+03  0.13282913872E+04  0.10100000352E+00 0.  1.
</event>
<event>
 5   0  0.6706225E-06  0.2505925E+04  0.7818609E-02  0.8400878E-01
        1   -1    0    0  501    0  0.00000000000E+00  0.00000000000E+00  0.11914694027E+04  0.11914694027E+04  0.50400001928E-02 0. -1.
       -1   -1    0    0    0  501  0.00000000000E+00  0.00000000000E+00 -0.13176288747E+04  0.13176288748E+04  0.50400001928E-02 0.  1.
    10030    2    1    2    0    0  0.00000000000E+00  0.00000000000E+00 -0.12615947209E+03  0.25090982774E+04  0.25059245706E+04 0.  0.
        5    1    3    3  502    0  0.29876576343E+03  0.63324903648E+03 -0.11034467202E+04  0.13068596244E+04  0.46999998093E+01 0.  1.
       -5    1    3    3    0  502 -0.29876576343E+03 -0.63324903648E+03  0.97728724808E+03  0.12022386530E+04  0.46999998093E+01 0. -1.
</event>
<event>
 5   0  0.1702345E-05  0.2724213E+04  0.7818609E-02  0.8327191E-01
       -2   -1    0    0    0  501  0.00000000000E+00  0.00000000000E+00  0.15531795885E+04  0.15531795885E+04  0.25500000920E-02 0. -1.
        2   -1    0    0  501    0  0.00000000000E+00  0.00000000000E+00 -0.11945396343E+04  0.11945396343E+04  0.25500000920E-02 0.  1.
    10030    2    1    2    0    0  0.00000000000E+00  0.00000000000E+00  0.35863995420E+03  0.27477192229E+04  0.27242133380E+04 0.  0.
        1    1    3    3  502    0  0.89055557402E+03  0.84895079244E+03  0.76876639189E+03  0.14507957967E+04  0.50400001928E-02 0. -1.
       -1    1    3    3    0  502 -0.89055557402E+03 -0.84895079244E+03 -0.41012643769E+03  0.12969234262E+04  0.50400001928E-02 0.  1.
</event>
<event>
 5   0  0.6993678E-06  0.2602917E+04  0.7818609E-02  0.8367211E-01
        1   -1    0    0  501    0  0.00000000000E+00  0.00000000000E+00  0.11662926417E+04  0.11662926417E+04  0.50400001928E-02 0. -1.
       -1   -1    0    0    0  501  0.00000000000E+00  0.00000000000E+00 -0.14522894970E+04  0.14522894970E+04  0.50400001928E-02 0.  1.
    10030    2    1    2    0    0  0.00000000000E+00  0.00000000000E+00 -0.28599685532E+03  0.26185821387E+04  0.26029172511E+04 0.  0.
        1    1    3    3  502    0  0.74396294310E+03  0.80076958246E+03  0.56771037155E+03  0.12316687261E+04  0.50400001928E-02 0. -1.
       -1    1    3    3    0  502 -0.74396294310E+03 -0.80076958246E+03 -0.85370722687E+03  0.13869134126E+04  0.50400001928E-02 0.  1.
</event>
<event>
 5   0  0.1702345E-05  0.2592061E+04  0.7818609E-02  0.8370903E-01
       -2   -1    0    0    0  501  0.00000000000E+00  0.00000000000E+00  0.78897831400E+03  0.78897831401E+03  0.25500000920E-02 0.  1.
        2   -1    0    0  501    0  0.00000000000E+00  0.00000000000E+00 -0.21289488554E+04  0.21289488554E+04  0.25500000920E-02 0. -1.
    10030    2    1    2    0    0  0.00000000000E+00  0.00000000000E+00 -0.13399705414E+04  0.29179271694E+04  0.25920605537E+04 0.  0.
        1    1    3    3  502    0 -0.47864949023E+03  0.60390320053E+03  0.50308015658E+03  0.92026846848E+03  0.50400001928E-02 0.  1.
       -1    1    3    3    0  502  0.47864949023E+03 -0.60390320053E+03 -0.18430506980E+04  0.19976587009E+04  0.50400001928E-02 0. -1.
</event>
<event>
 5   0  0.6984287E-06  0.2597265E+04  0.7818609E-02  0.8369131E-01
        1   -1    0    0  501    0  0.00000000000E+00  0.00000000000E+00  0.11862615489E+04  0.11862615489E+04  0.50400001928E-02 0.  1.
       -1   -1    0    0    0  501  0.00000000000E+00  0.00000000000E+00 -0.14216477578E+04  0.14216477578E+04  0.50400001928E-02 0. -1.
    10030    2    1    2    0    0  0.00000000000E+00  0.00000000000E+00 -0.23538620889E+03  0.26079093068E+04  0.25972647699E+04 0.  0.
        3    1    3    3  502    0 -0.27506398349E+03  0.55137170726E+02 -0.13908588510E+04  0.14188687946E+04  0.10100000352E+00 0. -1.
       -3    1    3    3    0  502  0.27506398349E+03 -0.55137170726E+02  0.11554726421E+04  0.11890405122E+04  0.10100000352E+00 0.  1.
</event>
<event>
 5   0  0.7138294E-06  0.2630488E+04  0.7818609E-02  0.8357918E-01
       -1   -1    0    0    0  501  0.00000000000E+00  0.00000000000E+00  0.11373656023E+04  0.11373656023E+04  0.50400001928E-02 0. -1.
        1   -1    0    0  501    0  0.00000000000E+00  0.00000000000E+00 -0.15209412514E+04  0.15209412514E+04  0.50400001928E-02 0.  1.
    10030    2    1    2    0    0  0.00000000000E+00  0.00000000000E+00 -0.38357564915E+03  0.26583068537E+04  0.26304876069E+04 0.  0.
        2    1    3    3  502    0 -0.60412297451E+03 -0.39881068790E+03  0.91793829019E+03  0.11690274752E+04  0.25500000920E-02 0. -1.
       -2    1    3    3    0  502  0.60412297451E+03  0.39881068790E+03 -0.13015139393E+04  0.14892793786E+04  0.25500000920E-02 0.  1.
</event>
<event>
 5   0  0.6706225E-06  0.2622248E+04  0.7818609E-02  0.8360683E-01
        1   -1    0    0  501    0  0.00000000000E+00  0.00000000000E+00  0.15480175764E+04  0.15480175764E+04  0.50400001928E-02 0. -1.
       -1   -1    0    0    0  501  0.00000000000E+00  0.00000000000E+00 -0.11104821412E+04  0.11104821412E+04  0.50400001928E-02 0.  1.
    10030    2    1    2    0    0  0.00000000000E+00  0.00000000000E+00  0.43753543523E+03  0.26584997176E+04  0.26222477936E+04 0.  0.
        5    1    3    3  502    0 -0.51949019010E+03 -0.61190907938E+03  0.12697871798E+04  0.15022264646E+04  0.46999998093E+01 0.  1.
       -5    1    3    3    0  502  0.51949019010E+03  0.61190907938E+03 -0.83225174460E+03  0.11562732529E+04  0.46999998093E+01 0. -1.
</event>
<event>
 5   0  0.1869956E-05  0.2600041E+04  0.7818609E-02  0.8368187E-01
       -2   -1    0    0    0  501  0.00000000000E+00  0.00000000000E+00  0.12492349481E+04  0.12492349481E+04  0.25500000920E-02 0.  1.
        2   -1    0    0  501    0  0.00000000000E+00  0.00000000000E+00 -0.13528707958E+04  0.13528707958E+04  0.25500000920E-02 0. -1.
    10030    2    1    2    0    0  0.00000000000E+00  0.00000000000E+00 -0.10363584773E+03  0.26021057439E+04  0.26000411369E+04 0.  0.
        5    1    3    3  502    0  0.59063463619E+03 -0.77111937587E+03  0.81290349165E+03  0.12666130198E+04  0.46999998093E+01 0.  1.
       -5    1    3    3    0  502 -0.59063463619E+03  0.77111937587E+03 -0.91653933937E+03  0.13354927240E+04  0.46999998093E+01 0. -1.
</event>
<event>
 5   0  0.1869956E-05  0.2556975E+04  0.7818609E-02  0.8382965E-01
       -2   -1    0    0    0  501  0.00000000000E+00  0.00000000000E+00  0.10238262444E+04  0.10238262444E+04  0.25500000920E-02 0.  1.
        2   -1    0    0  501    0  0.00000000000E+00  0.00000000000E+00 -0.15964912943E+04  0.15964912943E+04  0.25500000920E-02 0. -1.
    10030    2    1    2    0    0  0.00000000000E+00  0.00000000000E+00 -0.57266504995E+03  0.26203175387E+04  0.25569745294E+04 0.  0.
        5    1    3    3  502    0  0.10170289919E+04 -0.72856358780E+03 -0.16455728688E+02  0.12511777463E+04  0.46999998093E+01 0.  1.
       -5    1    3    3    0  502 -0.10170289919E+04  0.72856358780E+03 -0.55620932127E+03  0.13691397923E+04  0.46999998093E+01 0. -1.
</event>
<event>
 5   0  0.1869956E-05  0.2607029E+04  0.7818609E-02  0.8365818E-01
       -2   -1    0    0    0  501  0.00000000000E+00  0.00000000000E+00  0.12846630997E+04  0.12846630997E+04  0.25500000920E-02 0.  1.
        2   -1    0    0  501    0  0.00000000000E+00  0.00000000000E+00 -0.13226421392E+04  0.13226421392E+04  0.25500000920E-02 0. -1.
    10030    2    1    2    0    0  0.00000000000E+00  0.00000000000E+00 -0.37979039444E+02  0.26073052389E+04  0.26070286154E+04 0.  0.
        5    1    3    3  502    0  0.10677685233E+04  0.34410620048E+03 -0.68282855714E+03  0.13133223615E+04  0.46999998093E+01 0. -1.
       -5    1    3    3    0  502 -0.10677685233E+04 -0.34410620048E+03  0.64484951769E+03  0.12939828774E+04  0.46999998093E+01 0.  1.
</event>
<event>
 5   0  0.6918420E-06  0.2545653E+04  0.7818609E-02  0.8386900E-01
        1   -1    0    0  501    0  0.00000000000E+00  0.00000000000E+00  0.21587838020E+04  0.21587838020E+04  0.50400001928E-02 0.  1.
       -1   -1    0    0    0  501  0.00000000000E+00  0.00000000000E+00 -0.75046267457E+03  0.75046267459E+03  0.50400001928E-02 0. -1.
    10030    2    1    2    0    0  0.00000000000E+00  0.00000000000E+00  0.14083211274E+04  0.29092464766E+04  0.25456525025E+04 0.  0.
        4    1    3    3  502    0 -0.20722545656E+03  0.11225492947E+04  0.13476310954E+04  0.17661173492E+04  0.12699999809E+01 0.  1.
       -4    1    3    3    0  502  0.20722545656E+03 -0.11225492947E+04  0.60690031937E+02  0.11431291273E+04  0.12699999809E+01 0. -1.
</event>
<event>
 5   0  0.1681731E-05  0.2597384E+04  0.7818609E-02  0.8369090E-01
        2   -1    0    0  501    0  0.00000000000E+00  0.00000000000E+00  0.32044076736E+04  0.32044076736E+04  0.25500000920E-02 0.  1.
       -2   -1    0    0    0  501  0.00000000000E+00  0.00000000000E+00 -0.52633769908E+03  0.52633769908E+03  0.25500000920E-02 0. -1.
    10030    2    1    2    0    0  0.00000000000E+00  0.00000000000E+00  0.26780699745E+04  0.37307453727E+04  0.25973837312E+04 0.  0.
        2    1    3    3  502    0 -0.18183805295E+03 -0.50033448867E+03 -0.36241590065E+03  0.64400695889E+03  0.25500000920E-02 0. -1.
       -2    1    3    3    0  502  0.18183805295E+03  0.50033448867E+03  0.30404858752E+04  0.30867384138E+04  0.25500000920E-02 0.  1.
</event>
<event>
 5   0  0.1720129E-05  0.2559061E+04  0.7818609E-02  0.8382242E-01
       -2   -1    0    0    0  501  0.00000000000E+00  0.00000000000E+00  0.58073916335E+03  0.58073916335E+03  0.25500000920E-02 0.  1.
        2   -1    0    0  501    0  0.00000000000E+00  0.00000000000E+00 -0.28191619243E+04  0.28191619243E+04  0.25500000920E-02 0. -1.
    10030    2    1    2    0    0  0.00000000000E+00  0.00000000000E+00 -0.22384227609E+04  0.33999010876E+04  0.25590605599E+04 0.  0.
        3    1    3    3  502    0  0.66221012446E+03 -0.73883051195E+03 -0.21926505517E+04  0.24066801255E+04  0.10100000352E+00 0. -1.
       -3    1    3    3    0  502 -0.66221012446E+03  0.73883051195E+03 -0.45772209243E+02  0.99322096216E+03  0.10100000352E+00 0.  1.
</event>
<event>
 5   0  0.6984287E-06  0.2606938E+04  0.7818609E-02  0.8365848E-01
        1   -1    0    0  501    0  0.00000000000E+00  0.00000000000E+00  0.18228862545E+04  0.18228862546E+04  0.50400001928E-02 0.  1.
       -1   -1    0    0    0  501  0.00000000000E+00  0.00000000000E+00 -0.93205543497E+03  0.93205543498E+03  0.50400001928E-02 0. -1.
    10030    2    1    2    0    0  0.00000000000E+00  0.00000000000E+00  0.89083081958E+03  0.27549416895E+04  0.26069376985E+04 0.  0.
        3    1    3    3  502    0  0.34754076098E+03  0.11992337535E+04  0.84094351680E+03  0.15053677905E+04  0.10100000352E+00 0. -1.
       -3    1    3    3    0  502 -0.34754076098E+03 -0.11992337535E+04  0.49887302781E+02  0.12495738990E+04  0.10100000352E+00 0.  1.
</event>
<event>
 5   0  0.1720129E-05  0.2602035E+04  0.7818609E-02  0.8367510E-01
       -2   -1    0    0    0  501  0.00000000000E+00  0.00000000000E+00  0.13011775184E+04  0.13011775184E+04  0.25500000920E-02 0. -1.
        2   -1    0    0  501    0  0.00000000000E+00  0.00000000000E+00 -0.13008579013E+04  0.13008579013E+04  0.25500000920E-02 0.  1.
    10030    2    1    2    0    0  0.00000000000E+00  0.00000000000E+00  0.31961709787E+00  0.26020354196E+04  0.26020354000E+04 0.  0.
        3    1    3    3  502    0 -0.61814178537E+03 -0.11220090310E+04  0.22741190174E+03  0.13010456240E+04  0.10100000352E+00 0.  1.
       -3    1    3    3    0  502  0.61814178537E+03  0.11220090310E+04 -0.22709228465E+03  0.13009897956E+04  0.10100000352E+00 0. -1.
</event>
<event>
 5   0  0.6918420E-06  0.2630058E+04  0.7818609E-02  0.8358062E-01
       -1   -1    0    0    0  501  0.00000000000E+00  0.00000000000E+00  0.15283826515E+04  0.15283826515E+04  0.50400001928E-02 0.  1.
        1   -1    0    0  501    0  0.00000000000E+00  0.00000000000E+00 -0.11314585006E+04  0.11314585006E+04  0.50400001928E-02 0. -1.
    10030    2    1    2    0    0  0.00000000000E+00  0.00000000000E+00  0.39692415089E+03  0.26598411521E+04  0.26300582071E+04 0.  0.
        4    1    3    3  502    0  0.14428046336E+03  0.20851847568E+03  0.15034240806E+04  0.15246581210E+04  0.12699999809E+01 0.  1.
       -4    1    3    3    0  502 -0.14428046336E+03 -0.20851847568E+03 -0.11064999297E+04  0.11351830311E+04  0.12699999809E+01 0. -1.
</event>
<event>
 5   0  0.1869956E-05  0.2535580E+04  0.7818609E-02  0.8390418E-01
       -2   -1    0    0    0  501  0.00000000000E+00  0.00000000000E+00  0.85121493660E+03  0.85121493661E+03  0.25500000920E-02 0. -1.
        2   -1    0    0  501    0  0.00000000000E+00  0.00000000000E+00 -0.18882327933E+04  0.18882327933E+04  0.25500000920E-02 0.  1.
    10030    2    1    2    0    0  0.00000000000E+00  0.00000000000E+00 -0.10370178567E+04  0.27394477299E+04  0.25355803734E+04 0.  0.
        5    1    3    3  502    0  0.81134443385E+03  0.13270520402E+03  0.52416605143E+03  0.97501928236E+03  0.46999998093E+01 0. -1.
       -5    1    3    3    0  502 -0.81134443385E+03 -0.13270520402E+03 -0.15611839081E+04  0.17644284476E+04  0.46999998093E+01 0.  1.
</event>
<event>
 5   0  0.6984287E-06  0.2599614E+04  0.7818609E-02  0.8368332E-01
        1   -1    0    0  501    0  0.00000000000E+00  0.00000000000E+00  0.92832175289E+03  0.92832175290E+03  0.50400001928E-02 0.  1.
       -1   -1    0    0    0  501  0.00000000000E+00  0.00000000000E+00 -0.18199483977E+04  0.18199483977E+04  0.50400001928E-02 0. -1.
    10030    2    1    2    0    0  0.00000000000E+00  0.00000000000E+00 -0.89162664481E+03  0.27482701506E+04  0.25996135765E+04 0.  0.
        3    1    3    3  502    0  0.47332041775E+03 -0.10191611419E+04  0.24482493456E+03  0.11500699587E+04  0.10100000352E+00 0.  1.
       -3    1    3    3    0  502 -0.47332041775E+03  0.10191611419E+04 -0.11364515794E+04  0.15982001919E+04  0.10100000352E+00 0. -1.
</event>
<event>
 5   0  0.1681731E-05  0.2591605E+04  0.7818609E-02  0.8371058E-01
        2   -1    0    0  501    0  0.00000000000E+00  0.00000000000E+00  0.11882562965E+04  0.11882562965E+04  0.25500000920E-02 0.  1.
       -2   -1    0    0    0  501  0.00000000000E+00  0.00000000000E+00 -0.14130829510E+04  0.14130829510E+04  0.25500000920E-02 0. -1.
    10030    2    1    2    0    0  0.00000000000E+00  0.00000000000E+00 -0.22482665447E+03  0.26013392476E+04  0.25916054592E+04 0.  0.
        2    1    3    3  502    0 -0.61930455882E+03 -0.12004056262E+03  0.10237198891E+04  0.12024767294E+04  0.25500000920E-02 0.  1.
       -2    1    3    3    0  502  0.61930455882E+03  0.12004056262E+03 -0.12485465436E+04  0.13988625182E+04  0.25500000920E-02 0. -1.
</event>
<event>
 5   0  0.6706225E-06  0.2570507E+04  0.7818609E-02  0.8378289E-01
       -1   -1    0    0    0  501  0.00000000000E+00  0.00000000000E+00  0.72218795343E+03  0.72218795344E+03  0.50400001928E-02 0.  1.
        1   -1    0    0  501    0  0.00000000000E+00  0.00000000000E+00 -0.22873229084E+04  0.22873229084E+04  0.50400001928E-02 0. -1.
    10030    2    1    2    0    0  0.00000000000E+00  0.00000000000E+00 -0.15651349550E+04  0.30095108618E+04  0.25705073819E+04 0.  0.
        5    1    3    3  502    0 -0.87044780984E+03 -0.94204665703E+03 -0.68656550907E+03  0.14548283685E+04  0.46999998093E+01 0. -1.
       -5    1    3    3    0  502  0.87044780984E+03  0.94204665703E+03 -0.87856944589E+03  0.15546824933E+04  0.46999998093E+01 0.  1.
</event>
<event>
 5   0  0.7138294E-06  0.2521704E+04  0.7818609E-02  0.8395294E-01
       -1   -1    0    0    0  501  0.00000000000E+00  0.00000000000E+00  0.12439275499E+04  0.12439275499E+04  0.50400001928E-02 0. -1.
        1   -1    0    0  501    0  0.00000000000E+00  0.00000000000E+00 -0.12780062624E+04  0.12780062625E+04  0.50400001928E-02 0.  1.
    10030    2    1    2    0    0  0.00000000000E+00  0.00000000000E+00 -0.34078712555E+02  0.25219338124E+04  0.25217035502E+04 0.  0.
        2    1    3    3  502    0 -0.10670945472E+04 -0.61666916674E+03  0.24902170976E+03  0.12573716419E+04  0.25500000920E-02 0. -1.
       -2    1    3    3    0  502  0.10670945472E+04  0.61666916674E+03 -0.28310042232E+03  0.12645621705E+04  0.25500000920E-02 0.  1.
</event>
<event>
 5   0  0.6706225E-06  0.2597540E+04  0.7818609E-02  0.8369037E-01
        1   -1    0    0  501    0  0.00000000000E+00  0.00000000000E+00  0.17846571555E+04  0.17846571555E+04  0.50400001928E-02 0.  1.
       -1   -1    0    0    0  501  0.00000000000E+00  0.00000000000E+00 -0.94516947884E+03  0.94516947885E+03  0.50400001928E-02 0. -1.
    10030    2    1    2    0    0  0.00000000000E+00  0.00000000000E+00  0.83948767668E+03  0.27298266344E+04  0.25975399697E+04 0.  0.
        5    1    3    3  502    0 -0.95552402188E+03 -0.19810036570E+03 -0.48093948059E+03  0.10879314249E+04  0.46999998093E+01 0. -1.
       -5    1    3    3    0  502  0.95552402188E+03  0.19810036570E+03  0.13204271573E+04  0.16418952095E+04  0.46999998093E+01 0.  1.
</event>
<event>
 5   0  0.1869956E-05  0.2556621E+04  0.7818609E-02  0.8383087E-01
        2   -1    0    0  501    0  0.00000000000E+00  0.00000000000E+00  0.17883058368E+04  0.17883058368E+04  0.25500000920E-02 0.  1.
       -2   -1    0    0    0  501  0.00000000000E+00  0.00000000000E+00 -0.91375731279E+03  0.91375731279E+03  0.25500000920E-02 0. -1.
    10030    2    1    2    0    0  0.00000000000E+00  0.00000000000E+00  0.87454852403E+03  0.27020631496E+04  0.25566208447E+04 0.  0.
        5    1    3    3  502    0  0.50622313581E+03 -0.47912249065E+03 -0.69524240308E+03  0.98448174859E+03  0.46999998093E+01 0. -1.
       -5    1    3    3    0  502 -0.50622313581E+03  0.47912249065E+03  0.15697909271E+04  0.17175814010E+04  0.46999998093E+01 0.  1.
</event>
<event>
 5   0  0.6706225E-06  0.2337151E+04  0.7818609E-02  0.8463415E-01
        1   -1    0    0  501    0  0.00000000000E+00  0.00000000000E+00  0.13923849532E+04  0.13923849532E+04  0.50400001928E-02 0. -1.
       -1   -1    0    0    0  501  0.00000000000E+00  0.00000000000E+00 -0.98074099447E+03  0.98074099449E+03  0.50400001928E-02 0.  1.
    10030    2    1    2    0    0  0.00000000000E+00  0.00000000000E+00  0.41164395868E+03  0.23731259476E+04  0.23371512605E+04 0.  0.
        5    1    3    3  502    0 -0.71176695032E+03  0.16656104666E+03  0.11315527101E+04  0.13471408239E+04  0.46999998093E+01 0. -1.
       -5    1    3    3    0  502  0.71176695032E+03 -0.16656104666E+03 -0.71990875137E+03  0.10259851237E+04  0.46999998093E+01 0.  1.
</event>
<event>
 5   0  0.1702345E-05  0.2566193E+04  0.7818609E-02  0.8379776E-01
        2   -1    0    0  501    0  0.00000000000E+00  0.00000000000E+00  0.23168992999E+04  0.23168992999E+04  0.25500000920E-02 0.  1.
       -2   -1    0    0    0  501  0.00000000000E+00  0.00000000000E+00 -0.71057757833E+03  0.71057757833E+03  0.25500000920E-02 0. -1.
    10030    2    1    2    0    0  0.00000000000E+00  0.00000000000E+00  0.16063217216E+04  0.30274768783E+04  0.25661930510E+04 0.  0.
        1    1    3    3  502    0  0.41695001504E+03  0.11254076474E+04  0.13385496236E+04  0.17978055464E+04  0.50400001928E-02 0. -1.
       -1    1    3    3    0  502 -0.41695001504E+03 -0.11254076474E+04  0.26777209804E+03  0.12296713319E+04  0.50400001928E-02 0.  1.
</event>
<event>
 5   0  0.1869956E-05  0.2608815E+04  0.7818609E-02  0.8365213E-01
       -2   -1    0    0    0  501  0.00000000000E+00  0.00000000000E+00  0.57077243301E+03  0.57077243302E+03  0.25500000920E-02 0.  1.
        2   -1    0    0  501    0  0.00000000000E+00  0.00000000000E+00 -0.29810113106E+04  0.29810113106E+04  0.25500000920E-02 0. -1.
    10030    2    1    2    0    0  0.00000000000E+00  0.00000000000E+00 -0.24102388775E+04  0.35517837436E+04  0.26088151169E+04 0.  0.
        5    1    3    3  502    0  0.74282826803E+03 -0.37511801199E+03  0.16241400321E+03  0.84788428287E+03  0.46999998093E+01 0.  1.
       -5    1    3    3    0  502 -0.74282826803E+03  0.37511801199E+03 -0.25726528808E+04  0.27038994607E+04  0.46999998093E+01 0. -1.
</event>
<event>
 5   0  0.1869956E-05  0.2604852E+04  0.7818609E-02  0.8366555E-01
       -2   -1    0    0    0  501  0.00000000000E+00  0.00000000000E+00  0.19367712135E+04  0.19367712135E+04  0.25500000920E-02 0.  1.
        2   -1    0    0  501    0  0.00000000000E+00  0.00000000000E+00 -0.87584607682E+03  0.87584607682E+03  0.25500000920E-02 0. -1.
    10030    2    1    2    0    0  0.00000000000E+00  0.00000000000E+00  0.10609251366E+04  0.28126172903E+04  0.26048519874E+04 0.  0.
        5    1    3    3  502    0 -0.96427580803E+02 -0.12177279123E+04  0.42616332624E+02  0.12222920226E+04  0.46999998093E+01 0. -1.
       -5    1    3    3    0  502  0.96427580803E+02  0.12177279123E+04  0.10183088040E+04  0.15903252677E+04  0.46999998093E+01 0.  1.
</event>
<event>
 5   0  0.6706225E-06  0.2608631E+04  0.7818609E-02  0.8365275E-01
        1   -1    0    0  501    0  0.00000000000E+00  0.00000000000E+00  0.14642140225E+04  0.14642140225E+04  0.50400001928E-02 0. -1.
       -1   -1    0    0    0  501  0.00000000000E+00  0.00000000000E+00 -0.11618785374E+04  0.11618785375E+04  0.50400001928E-02 0.  1.
    10030    2    1    2    0    0  0.00000000000E+00  0.00000000000E+00  0.30233548509E+03  0.26260925600E+04  0.26086309413E+04 0.  0.
        5    1    3    3  502    0  0.19537485202E+02 -0.12796571451E+04  0.40447205369E+03  0.13422085734E+04  0.46999998093E+01 0. -1.
       -5    1    3    3    0  502 -0.19537485202E+02  0.12796571451E+04 -0.10213656861E+03  0.12838839866E+04  0.46999998093E+01 0.  1.
</event>
<event>
 5   0  0.6706225E-06  0.2602182E+04  0.7818609E-02  0.8367460E-01
       -1   -1    0    0    0  501  0.00000000000E+00  0.00000000000E+00  0.97700471743E+03  0.97700471744E+03  0.50400001928E-02 0.  1.
        1   -1    0    0  501    0  0.00000000000E+00  0.00000000000E+00 -0.17326818854E+04  0.17326818854E+04  0.50400001928E-02 0. -1.
    10030    2    1    2    0    0  0.00000000000E+00  0.00000000000E+00 -0.75567716792E+03  0.27096866028E+04  0.26021824500E+04 0.  0.
        5    1    3    3  502    0  0.84228625672E+03  0.79102721694E+03 -0.10005804462E+04  0.15285134987E+04  0.46999998093E+01 0. -1.
       -5    1    3    3    0  502 -0.84228625672E+03 -0.79102721694E+03  0.24490327833E+03  0.11811731041E+04  0.46999998093E+01 0.  1.
</event>
<event>
 5   0  0.1869956E-05  0.2240563E+04  0.7818609E-02  0.8501732E-01
        2   -1    0    0  501    0  0.00000000000E+00  0.00000000000E+00  0.15381928268E+04  0.15381928268E+04  0.25500000920E-02 0.  1.
       -2   -1    0    0    0  501  0.00000000000E+00  0.00000000000E+00 -0.81591227299E+03  0.81591227300E+03  0.25500000920E-02 0. -1.
    10030    2    1    2    0    0  0.00000000000E+00  0.00000000000E+00  0.72228055381E+03  0.23541050998E+04  0.22405627915E+04 0.  0.
        5    1    3    3  502    0 -0.24961761862E+03 -0.84498290829E+03  0.10880858804E+04  0.14000921556E+04  0.46999998093E+01 0.  1.
       -5    1    3    3    0  502  0.24961761862E+03  0.84498290829E+03 -0.36580532663E+03  0.95401294426E+03  0.46999998093E+01 0. -1.
</event>
<event>
 5   0  0.6918420E-06  0.2697060E+04  0.7818609E-02  0.8335959E-01
       -1   -1    0    0    0  501  0.00000000000E+00  0.00000000000E+00  0.11220856454E+04  0.11220856454E+04  0.50400001928E-02 0.  1.
        1   -1    0    0  501    0  0.00000000000E+00  0.00000000000E+00 -0.16206727169E+04  0.16206727170E+04  0.50400001928E-02 0. -1.
    10030    2    1    2    0    0  0.00000000000E+00  0.00000000000E+00 -0.49858707154E+03  0.27427583624E+04  0.26970603194E+04 0.  0.
        4    1    3    3  502    0 -0.95786157547E+03  0.63798052041E+03 -0.96406389216E+03  0.15013123403E+04  0.12699999809E+01 0. -1.
       -4    1    3    3    0  502  0.95786157547E+03 -0.63798052041E+03  0.46547682062E+03  0.12414460220E+04  0.12699999809E+01 0.  1.
</event>
<event>
 5   0  0.1702345E-05  0.2636396E+04  0.7818609E-02  0.8355942E-01
       -2   -1    0    0    0  501  0.00000000000E+00  0.00000000000E+00  0.61606400919E+03  0.61606400919E+03  0.25500000920E-02 0. -1.
        2   -1    0    0  501    0  0.00000000000E+00  0.00000000000E+00 -0.28205609331E+04  0.28205609331E+04  0.25500000920E-02 0.  1.
    10030    2    1    2    0    0  0.00000000000E+00  0.00000000000E+00 -0.22044969239E+04  0.34366249423E+04  0.26363960830E+04 0.  0.
        1    1    3    3  502    0  0.10778819293E+04 -0.74314946726E+03 -0.90222756605E+03  0.15900047689E+04  0.50400001928E-02 0.  1.
       -1    1    3    3    0  502 -0.10778819293E+04  0.74314946726E+03 -0.13022693579E+04  0.18466201734E+04  0.50400001928E-02 0. -1.
</event>
<event>
 5   0  0.6706225E-06  0.2606547E+04  0.7818609E-02  0.8365981E-01
        1   -1    0    0  501    0  0.00000000000E+00  0.00000000000E+00  0.72408219798E+03  0.72408219799E+03  0.50400001928E-02 0.  1.
       -1   -1    0    0    0  501  0.00000000000E+00  0.00000000000E+00 -0.23457591361E+04  0.23457591361E+04  0.50400001928E-02 0. -1.
    10030    2    1    2    0    0  0.00000000000E+00  0.00000000000E+00 -0.16216769382E+04  0.30698413341E+04  0.26065474722E+04 0.  0.
        5    1    3    3  502    0 -0.10193981663E+04  0.72146164392E+03 -0.37202738702E+03  0.13031139596E+04  0.46999998093E+01 0.  1.
       -5    1    3    3    0  502  0.10193981663E+04 -0.72146164392E+03 -0.12496495511E+04  0.17667273745E+04  0.46999998093E+01 0. -1.
</event>
<event>
 5   0  0.6993678E-06  0.2575197E+04  0.7818609E-02  0.8376675E-01
        1   -1    0    0  501    0  0.00000000000E+00  0.00000000000E+00  0.11909267445E+04  0.11909267445E+04  0.50400001928E-02 0. -1.
       -1   -1    0    0    0  501  0.00000000000E+00  0.00000000000E+00 -0.13921178821E+04  0.13921178821E+04  0.50400001928E-02 0.  1.
    10030    2    1    2    0    0  0.00000000000E+00  0.00000000000E+00 -0.20119113761E+03  0.25830446266E+04  0.25751974039E+04 0.  0.
        1    1    3    3  502    0 -0.76466949255E+03  0.10076814045E+04  0.14048902213E+03  0.12727444406E+04  0.50400001928E-02 0. -1.
       -1    1    3    3    0  502  0.76466949255E+03 -0.10076814045E+04 -0.34168015974E+03  0.13103001860E+04  0.50400001928E-02 0.  1.
</event>
<event>
 5   0  0.6993678E-06  0.2583946E+04  0.7818609E-02  0.8373675E-01
       -1   -1    0    0    0  501  0.00000000000E+00  0.00000000000E+00  0.14076575675E+04  0.14076575675E+04  0.50400001928E-02 0.  1.
        1   -1    0    0  501    0  0.00000000000E+00  0.00000000000E+00 -0.11857958155E+04  0.11857958156E+04  0.50400001928E-02 0. -1.
    10030    2    1    2    0    0  0.00000000000E+00  0.00000000000E+00  0.22186175195E+03  0.25934533831E+04  0.25839461707E+04 0.  0.
        1    1    3    3  502    0  0.82658285141E+03 -0.20581471385E+03 -0.86403165416E+03  0.12133217241E+04  0.50400001928E-02 0. -1.
       -1    1    3    3    0  502 -0.82658285141E+03  0.20581471385E+03  0.10858934061E+04  0.13801316590E+04  0.50400001928E-02 0.  1.
</event>
<event>
 5   0  0.6918420E-06  0.2608044E+04  0.7818609E-02  0.8365474E-01
       -1   -1    0    0    0  501  0.00000000000E+00  0.00000000000E+00  0.13401756023E+04  0.13401756023E+04  0.50400001928E-02 0. -1.
        1   -1    0    0  501    0  0.00000000000E+00  0.00000000000E+00 -0.12688433738E+04  0.12688433738E+04  0.50400001928E-02 0.  1.
    10030    2    1    2    0    0  0.00000000000E+00  0.00000000000E+00  0.71332228529E+02  0.26090189761E+04  0.26080436597E+04 0.  0.
        4    1    3    3  502    0 -0.12496065377E+04 -0.33131932959E+03 -0.13522611212E+03  0.12998371865E+04  0.12699999809E+01 0.  1.
       -4    1    3    3    0  502  0.12496065377E+04  0.33131932959E+03  0.20655834064E+03  0.13091817896E+04  0.12699999809E+01 0. -1.
</event>
<event>
 5   0  0.1677971E-05  0.2605620E+04  0.7818609E-02  0.8366295E-01
        2   -1    0    0  501    0  0.00000000000E+00  0.00000000000E+00  0.18322898735E+04  0.18322898735E+04  0.25500000920E-02 0.  1.
       -2   -1    0    0    0  501  0.00000000000E+00  0.00000000000E+00 -0.92633466430E+03  0.92633466431E+03  0.25500000920E-02 0. -1.
    10030    2    1    2    0    0  0.00000000000E+00  0.00000000000E+00  0.90595520923E+03  0.27586245378E+04  0.26056197918E+04 0.  0.
        4    1    3    3  502    0  0.74550552887E+03  0.86330433063E+01  0.15841054841E+04  0.17507840588E+04  0.12699999809E+01 0.  1.
       -4    1    3    3    0  502 -0.74550552887E+03 -0.86330433063E+01 -0.67815027484E+03  0.10078404790E+04  0.12699999809E+01 0. -1.
</event>
<event>
 5   0  0.1702345E-05  0.2608457E+04  0.7818609E-02  0.8365334E-01
        2   -1    0    0  501    0  0.00000000000E+00  0.00000000000E+00  0.15175712037E+04  0.15175712037E+04  0.25500000920E-02 0.  1.
       -2   -1    0    0    0  501  0.00000000000E+00  0.00000000000E+00 -0.11208780041E+04  0.11208780041E+04  0.25500000920E-02 0. -1.
    10030    2    1    2    0    0  0.00000000000E+00  0.00000000000E+00  0.39669319965E+03  0.26384492078E+04  0.26084571546E+04 0.  0.
        1    1    3    3  502    0 -0.30326552196E+03  0.12167375812E+04 -0.16437362797E+03  0.12646892930E+04  0.50400001928E-02 0. -1.
       -1    1    3    3    0  502  0.30326552196E+03 -0.12167375812E+04  0.56106682761E+03  0.13737599148E+04  0.50400001928E-02 0.  1.
</event>
<event>
 5   0  0.6918420E-06  0.2597760E+04  0.7818609E-02  0.8368962E-01
        1   -1    0    0  501    0  0.00000000000E+00  0.00000000000E+00  0.16045451019E+04  0.16045451019E+04  0.50400001928E-02 0. -1.
       -1   -1    0    0    0  501  0.00000000000E+00  0.00000000000E+00 -0.10514441713E+04  0.10514441713E+04  0.50400001928E-02 0.  1.
    10030    2    1    2    0    0  0.00000000000E+00  0.00000000000E+00  0.55310093066E+03  0.26559892732E+04  0.25977602622E+04 0.  0.
        4    1    3    3  502    0 -0.50922974528E+03  0.41953397924E+03  0.14204516937E+04  0.15662082621E+04  0.12699999809E+01 0. -1.
       -4    1    3    3    0  502  0.50922974528E+03 -0.41953397924E+03 -0.86735076303E+03  0.10897810111E+04  0.12699999809E+01 0.  1.
</event>
<event>
 5   0  0.1869956E-05  0.2586511E+04  0.7818609E-02  0.8372798E-01
       -2   -1    0    0    0  501  0.00000000000E+00  0.00000000000E+00  0.75879445331E+03  0.75879445331E+03  0.25500000920E-02 0.  1.
        2   -1    0    0  501    0  0.00000000000E+00  0.00000000000E+00 -0.22041671259E+04  0.22041671260E+04  0.25500000920E-02 0. -1.
    10030    2    1    2    0    0  0.00000000000E+00  0.00000000000E+00 -0.14453726726E+04  0.29629615793E+04  0.25865110008E+04 0.  0.
        5    1    3    3  502    0 -0.45449201315E+03 -0.40563625313E+03  0.58412956861E+03  0.84399834289E+03  0.46999998093E+01 0.  1.
       -5    1    3    3    0  502  0.45449201315E+03  0.40563625313E+03 -0.20295022413E+04  0.21189632364E+04  0.46999998093E+01 0. -1.
</event>
<event>
 5   0  0.1720129E-05  0.2606042E+04  0.7818609E-02  0.8366152E-01
       -2   -1    0    0    0  501  0.00000000000E+00  0.00000000000E+00  0.14052524864E+04  0.14052524864E+04  0.25500000920E-02 0.  1.
        2   -1    0    0  501    0  0.00000000000E+00  0.00000000000E+00 -0.12082265150E+04  0.12082265150E+04  0.25500000920E-02 0. -1.
    10030    2    1    2    0    0  0.00000000000E+00  0.00000000000E+00  0.19702597142E+03  0.26134790014E+04  0.26060416837E+04 0.  0.
        3    1    3    3  502    0  0.92180390613E+03  0.67451794761E+03  0.72733227533E+03  0.13541451739E+04  0.10100000352E+00 0. -1.
       -3    1    3    3    0  502 -0.92180390613E+03 -0.67451794761E+03 -0.53030630391E+03  0.12593338275E+04  0.10100000352E+00 0.  1.
</event>
<event>
 5   0  0.1677971E-05  0.2558323E+04  0.7818609E-02  0.8382497E-01
        2   -1    0    0  501    0  0.00000000000E+00  0.00000000000E+00  0.89411053560E+03  0.89411053560E+03  0.25500000920E-02 0. -1.
       -2   -1    0    0    0  501  0.00000000000E+00  0.00000000000E+00 -0.18300349393E+04  0.18300349393E+04  0.25500000920E-02 0.  1.
    10030    2    1    2    0    0  0.00000000000E+00  0.00000000000E+00 -0.93592440374E+03  0.27241454749E+04  0.25583225127E+04 0.  0.
        4    1    3    3  502    0  0.50274843315E+03 -0.10614167442E+04  0.71733492918E+02  0.11766515197E+04  0.12699999809E+01 0. -1.
       -4    1    3    3    0  502 -0.50274843315E+03  0.10614167442E+04 -0.10076578967E+04  0.15474939552E+04  0.12699999809E+01 0.  1.
</event>
<event>
 5   0  0.1681731E-05  0.2550231E+04  0.7818609E-02  0.8385306E-01
       -2   -1    0    0    0  501  0.00000000000E+00  0.00000000000E+00  0.60913950665E+03  0.60913950666E+03  0.25500000920E-02 0.  1.
        2   -1    0    0  501    0  0.00000000000E+00  0.00000000000E+00 -0.26692076727E+04  0.26692076727E+04  0.25500000920E-02 0. -1.
    10030    2    1    2    0    0  0.00000000000E+00  0.00000000000E+00 -0.20600681661E+04  0.32783471794E+04  0.25502312404E+04 0.  0.
        2    1    3    3  502    0  0.10653724555E+04  0.44564161174E+03 -0.17250479219E+04  0.20759107033E+04  0.25500000920E-02 0. -1.
       -2    1    3    3    0  502 -0.10653724555E+04 -0.44564161174E+03 -0.33502024416E+03  0.12024364761E+04  0.25500000920E-02 0.  1.
</event>
<event>
 5   0  0.1681731E-05  0.2607585E+04  0.7818609E-02  0.8365629E-01
       -2   -1    0    0    0  501  0.00000000000E+00  0.00000000000E+00  0.80246124217E+03  0.80246124218E+03  0.25500000920E-02 0. -1.
        2   -1    0    0  501    0  0.00000000000E+00  0.00000000000E+00 -0.21183263159E+04  0.21183263159E+04  0.25500000920E-02 0.  1.
    10030    2    1    2    0    0  0.00000000000E+00  0.00000000000E+00 -0.13158650737E+04  0.29207875581E+04  0.26075849108E+04 0.  0.
        2    1    3    3  502    0  0.52596565248E+03 -0.38086255965E+03  0.60842775239E+03  0.88987666944E+03  0.25500000920E-02 0. -1.
       -2    1    3    3    0  502 -0.52596565248E+03  0.38086255965E+03 -0.19242928261E+04  0.20309108886E+04  0.25500000920E-02 0.  1.
</event>
<event>
 5   0  0.1681731E-05  0.2503927E+04  0.7818609E-02  0.8401588E-01
        2   -1    0    0  501    0  0.00000000000E+00  0.00000000000E+00  0.12107134319E+04  0.12107134319E+04  0.25500000920E-02 0. -1.
       -2   -1    0    0    0  501  0.00000000000E+00  0.00000000000E+00 -0.12946185590E+04  0.12946185590E+04  0.25500000920E-02 0.  1.
    10030    2    1    2    0    0  0.00000000000E+00  0.00000000000E+00 -0.83905127061E+02  0.25053319909E+04  0.25039265793E+04 0.  0.
        2    1    3    3  502    0  0.79089995744E+03 -0.54783912389E+03 -0.84350246985E+03  0.12795104005E+04  0.25500000920E-02 0.  1.
       -2    1    3    3    0  502 -0.79089995744E+03  0.54783912389E+03  0.75959734279E+03  0.12258215904E+04  0.25500000920E-02 0. -1.
</event>
<event>
 5   0  0.1720129E-05  0.2594746E+04  0.7818609E-02  0.8369988E-01
        2   -1    0    0  501    0  0.00000000000E+00  0.00000000000E+00  0.88847993411E+03  0.88847993411E+03  0.25500000920E-02 0. -1.
       -2   -1    0    0    0  501  0.00000000000E+00  0.00000000000E+00 -0.18944453002E+04  0.18944453002E+04  0.25500000920E-02 0.  1.
    10030    2    1    2    0    0  0.00000000000E+00  0.00000000000E+00 -0.10059653661E+04  0.27829252343E+04  0.25947459494E+04 0.  0.
        3    1    3    3  502    0 -0.11794720983E+04  0.78363981252E+02  0.70472596983E+02  0.11841713311E+04  0.10100000352E+00 0. -1.
       -3    1    3    3    0  502  0.11794720983E+04 -0.78363981252E+02 -0.10764379630E+04  0.15987539031E+04  0.10100000352E+00 0.  1.
</event>
<event>
 5   0  0.1677971E-05  0.2591267E+04  0.7818609E-02  0.8371174E-01
       -2   -1    0    0    0  501  0.00000000000E+00  0.00000000000E+00  0.11885838796E+04  0.11885838796E+04  0.25500000920E-02 0.  1.
        2   -1    0    0  501    0  0.00000000000E+00  0.00000000000E+00 -0.14123242326E+04  0.14123242326E+04  0.25500000920E-02 0. -1.
    10030    2    1    2    0    0  0.00000000000E+00  0.00000000000E+00 -0.22374035300E+03  0.26009081121E+04  0.25912667293E+04 0.  0.
        4    1    3    3  502    0 -0.11131180568E+04 -0.16834292472E+03  0.53183733631E+03  0.12450798022E+04  0.12699999809E+01 0. -1.
       -4    1    3    3    0  502  0.11131180568E+04  0.16834292472E+03 -0.75557768931E+03  0.13558283099E+04  0.12699999809E+01 0.  1.
</event>
<event>
 5   0  0.1702345E-05  0.2601605E+04  0.7818609E-02  0.8367656E-01
       -2   -1    0    0    0  501  0.00000000000E+00  0.00000000000E+00  0.96453455963E+03  0.96453455963E+03  0.25500000920E-02 0.  1.
        2   -1    0    0  501    0  0.00000000000E+00  0.00000000000E+00 -0.17543040124E+04  0.17543040124E+04  0.25500000920E-02 0. -1.
    10030    2    1    2    0    0  0.00000000000E+00  0.00000000000E+00 -0.78976945273E+03  0.27188385720E+04  0.26016047725E+04 0.  0.
        1    1    3    3  502    0  0.60418895073E+03  0.56434788149E+03 -0.14444070636E+04  0.16642850071E+04  0.50400001928E-02 0. -1.
       -1    1    3    3    0  502 -0.60418895073E+03 -0.56434788149E+03  0.65463761089E+03  0.10545535649E+04  0.50400001928E-02 0.  1.
</event>
<event>
 5   0  0.6993678E-06  0.2603532E+04  0.7818609E-02  0.8367003E-01
       -1   -1    0    0    0  501  0.00000000000E+00  0.00000000000E+00  0.17797678414E+04  0.17797678415E+04  0.50400001928E-02 0.  1.
        1   -1    0    0  501    0  0.00000000000E+00  0.00000000000E+00 -0.95214347216E+03  0.95214347217E+03  0.50400001928E-02 0. -1.
    10030    2    1    2    0    0  0.00000000000E+00  0.00000000000E+00  0.82762436929E+03  0.27319113136E+04  0.26035317031E+04 0.  0.
        1    1    3    3  502    0 -0.66461755371E+03 -0.48212398709E+03  0.14737887177E+04  0.16870723802E+04  0.50400001928E-02 0.  1.
       -1    1    3    3    0  502  0.66461755371E+03  0.48212398709E+03 -0.64616434840E+03  0.10448389334E+04  0.50400001928E-02 0. -1.
</event>
<event>
 5   0  0.6984287E-06  0.2629596E+04  0.7818609E-02  0.8358217E-01
        1   -1    0    0  501    0  0.00000000000E+00  0.00000000000E+00  0.37696310670E+04  0.37696310670E+04  0.50400001928E-02 0.  1.
       -1   -1    0    0    0  501  0.00000000000E+00  0.00000000000E+00 -0.45858423260E+03  0.45858423263E+03  0.50400001928E-02 0. -1.
    10030    2    1    2    0    0  0.00000000000E+00  0.00000000000E+00  0.33110468344E+04  0.42282152997E+04  0.26295956877E+04 0.  0.
        3    1    3    3  502    0 -0.12952942152E+04 -0.20599568007E+03  0.18035235153E+04  0.22300041266E+04  0.10100000352E+00 0.  1.
       -3    1    3    3    0  502  0.12952942152E+04  0.20599568007E+03  0.15075233191E+04  0.19982111731E+04  0.10100000352E+00 0. -1.
</event>
<event>
 5   0  0.6993678E-06  0.2605688E+04  0.7818609E-02  0.8366272E-01
       -1   -1    0    0    0  501  0.00000000000E+00  0.00000000000E+00  0.98951032335E+03  0.98951032336E+03  0.50400001928E-02 0.  1.
        1   -1    0    0  501    0  0.00000000000E+00  0.00000000000E+00 -0.17153960333E+04  0.17153960333E+04  0.50400001928E-02 0. -1.
    10030    2    1    2    0    0  0.00000000000E+00  0.00000000000E+00 -0.72588570993E+03  0.27049063567E+04  0.26056876893E+04 0.  0.
        1    1    3    3  502    0  0.53824009736E+03 -0.57339212913E+03  0.71532020281E+03  0.10630916841E+04  0.50400001928E-02 0.  1.
       -1    1    3    3    0  502 -0.53824009736E+03  0.57339212913E+03 -0.14412059127E+04  0.16418146726E+04  0.50400001928E-02 0. -1.
</event>
<event>
 5   0  0.1677971E-05  0.2570684E+04  0.7818609E-02  0.8378228E-01
       -2   -1    0    0    0  501  0.00000000000E+00  0.00000000000E+00  0.11672879613E+04  0.11672879613E+04  0.25500000920E-02 0.  1.
        2   -1    0    0  501    0  0.00000000000E+00  0.00000000000E+00 -0.14153349903E+04  0.14153349903E+04  0.25500000920E-02 0. -1.
    10030    2    1    2    0    0  0.00000000000E+00  0.00000000000E+00 -0.24804702896E+03  0.25826229516E+04  0.25706835631E+04 0.  0.
        4    1    3    3  502    0  0.32761742961E+03 -0.94530936099E+03 -0.93471550217E+03  0.13691740762E+04  0.12699999809E+01 0. -1.
       -4    1    3    3    0  502 -0.32761742961E+03  0.94530936099E+03  0.68666847321E+03  0.12134488754E+04  0.12699999809E+01 0.  1.
</event>
<event>
 5   0  0.1681731E-05  0.2590842E+04  0.7818609E-02  0.8371319E-01
        2   -1    0    0  501    0  0.00000000000E+00  0.00000000000E+00  0.15650158273E+04  0.15650158273E+04  0.25500000920E-02 0. -1.
       -2   -1    0    0    0  501  0.00000000000E+00  0.00000000000E+00 -0.10722675383E+04  0.10722675383E+04  0.25500000920E-02 0.  1.
    10030    2    1    2    0    0  0.00000000000E+00  0.00000000000E+00  0.49274828899E+03  0.26372833656E+04  0.25908420782E+04 0.  0.
        2    1    3    3  502    0 -0.21598303597E+03 -0.12673526399E+04  0.40823475497E+03  0.13488836128E+04  0.25500000920E-02 0.  1.
       -2    1    3    3    0  502  0.21598303597E+03  0.12673526399E+04  0.84513534013E+02  0.12883997528E+04  0.25500000920E-02 0. -1.
</event>
<event>
 5   0  0.1681731E-05  0.2591820E+04  0.7818609E-02  0.8370985E-01
       -2   -1    0    0    0  501  0.00000000000E+00  0.00000000000E+00  0.15014460915E+04  0.15014460915E+04  0.25500000920E-02 0. -1.
        2   -1    0    0  501    0  0.00000000000E+00  0.00000000000E+00 -0.11185105566E+04  0.11185105566E+04  0.25500000920E-02 0.  1.
    10030    2    1    2    0    0  0.00000000000E+00  0.00000000000E+00  0.38293553492E+03  0.26199566481E+04  0.25918204440E+04 0.  0.
        2    1    3    3  502    0 -0.42426423783E+03  0.12244324276E+04  0.17915397038E+03  0.13081785269E+04  0.25500000920E-02 0.  1.
       -2    1    3    3    0  502  0.42426423783E+03 -0.12244324276E+04  0.20378156454E+03  0.13117781212E+04  0.25500000920E-02 0. -1.
</event>
<event>
 5   0  0.1702345E-05  0.2582118E+04  0.7818609E-02  0.8374301E-01
       -2   -1    0    0    0  501  0.00000000000E+00  0.00000000000E+00  0.27126238579E+04  0.27126238579E+04  0.25500000920E-02 0. -1.
        2   -1    0    0  501    0  0.00000000000E+00  0.00000000000E+00 -0.61447284948E+03  0.61447284949E+03  0.25500000920E-02 0.  1.
    10030    2    1    2    0    0  0.00000000000E+00  0.00000000000E+00  0.20981510084E+04  0.33270967074E+04  0.25821182866E+04 0.  0.
        1    1    3    3  502    0 -0.72228703474E+03  0.42680143230E+02  0.24268304148E+04  0.25323953122E+04  0.50400001928E-02 0. -1.
       -1    1    3    3    0  502  0.72228703474E+03 -0.42680143230E+02 -0.32867940642E+03  0.79470139512E+03  0.50400001928E-02 0.  1.
</event>
<event>
 5   0  0.1869956E-05  0.2600404E+04  0.7818609E-02  0.8368064E-01
       -2   -1    0    0    0  501  0.00000000000E+00  0.00000000000E+00  0.12018365528E+04  0.12018365528E+04  0.25500000920E-02 0. -1.
        2   -1    0    0  501    0  0.00000000000E+00  0.00000000000E+00 -0.14066181179E+04  0.14066181179E+04  0.25500000920E-02 0.  1.
    10030    2    1    2    0    0  0.00000000000E+00  0.00000000000E+00 -0.20478156509E+03  0.26084546707E+04  0.26004038685E+04 0.  0.
        5    1    3    3  502    0  0.19112820015E+03  0.66346459982E+03 -0.12075220320E+04  0.13909877109E+04  0.46999998093E+01 0.  1.
       -5    1    3    3    0  502 -0.19112820015E+03 -0.66346459982E+03  0.10027404669E+04  0.12174669598E+04  0.46999998093E+01 0. -1.
</event>
<event>
 5   0  0.7138294E-06  0.2628072E+04  0.7818609E-02  0.8358728E-01
       -1   -1    0    0    0  501  0.00000000000E+00  0.00000000000E+00  0.13383456780E+04  0.13383456780E+04  0.50400001928E-02 0.  1.
        1   -1    0    0  501    0  0.00000000000E+00  0.00000000000E+00 -0.12901675623E+04  0.12901675623E+04  0.50400001928E-02 0. -1.
    10030    2    1    2    0    0  0.00000000000E+00  0.00000000000E+00  0.48178115706E+02  0.26285132403E+04  0.26280716740E+04 0.  0.
        2    1    3    3  502    0  0.12279360625E+03  0.12454818773E+04 -0.37646144492E+03  0.13069149153E+04  0.25500000920E-02 0. -1.
       -2    1    3    3    0  502 -0.12279360625E+03 -0.12454818773E+04  0.42463956062E+03  0.13215983250E+04  0.25500000920E-02 0.  1.
</event>
<event>
 5   0  0.6984287E-06  0.2620835E+04  0.7818609E-02  0.8361158E-01
       -1   -1    0    0    0  501  0.00000000000E+00  0.00000000000E+00  0.70622928575E+03  0.70622928577E+03  0.50400001928E-02 0.  1.
        1   -1    0    0  501    0  0.00000000000E+00  0.00000000000E+00 -0.24314970222E+04  0.24314970222E+04  0.50400001928E-02 0. -1.
    10030    2    1    2    0    0  0.00000000000E+00  0.00000000000E+00 -0.17252677364E+04  0.31377263079E+04  0.26208352908E+04 0.  0.
        3    1    3    3  502    0  0.10456402791E+04 -0.78309159656E+03 -0.73938171138E+03  0.15010933905E+04  0.10100000352E+00 0. -1.
       -3    1    3    3    0  502 -0.10456402791E+04  0.78309159656E+03 -0.98588602504E+03  0.16366329174E+04  0.10100000352E+00 0.  1.
</event>
<event>
 5   0  0.6993678E-06  0.2584082E+04  0.7818609E-02  0.8373628E-01
       -1   -1    0    0    0  501  0.00000000000E+00  0.00000000000E+00  0.71881329681E+03  0.71881329682E+03  0.50400001928E-02 0. -1.
        1   -1    0    0  501    0  0.00000000000E+00  0.00000000000E+00 -0.23223968494E+04  0.23223968494E+04  0.50400001928E-02 0.  1.
    10030    2    1    2    0    0  0.00000000000E+00  0.00000000000E+00 -0.16035835526E+04  0.30412101462E+04  0.25840818376E+04 0.  0.
        1    1    3    3  502    0 -0.10254738079E+04 -0.31889144742E+03  0.43680344925E+02  0.10748005668E+04  0.50400001928E-02 0. -1.
       -1    1    3    3    0  502  0.10254738079E+04  0.31889144742E+03 -0.16472638975E+04  0.19664095794E+04  0.50400001928E-02 0.  1.
</event>
<event>
 5   0  0.7138294E-06  0.2567950E+04  0.7818609E-02  0.8379170E-01
       -1   -1    0    0    0  501  0.00000000000E+00  0.00000000000E+00  0.85759633075E+03  0.85759633076E+03  0.50400001928E-02 0. -1.
        1   -1    0    0  501    0  0.00000000000E+00  0.00000000000E+00 -0.19223395207E+04  0.19223395207E+04  0.50400001928E-02 0.  1.
    10030    2    1    2    0    0  0.00000000000E+00  0.00000000000E+00 -0.10647431899E+04  0.27799358514E+04  0.25679496252E+04 0.  0.
        2    1    3    3  502    0  0.35126544008E+03  0.78837256940E+03  0.49671952818E+03  0.99581574965E+03  0.25500000920E-02 0.  1.
       -2    1    3    3    0  502 -0.35126544008E+03 -0.78837256940E+03 -0.15614627181E+04  0.17841201018E+04  0.25500000920E-02 0. -1.
</event>
<event>
 5   0  0.1720129E-05  0.2568613E+04  0.7818609E-02  0.8378941E-01
        2   -1    0    0  501    0  0.00000000000E+00  0.00000000000E+00  0.99781845032E+03  0.99781845033E+03  0.25500000920E-02 0. -1.
       -2   -1    0    0    0  501  0.00000000000E+00  0.00000000000E+00 -0.16530492511E+04  0.16530492511E+04  0.25500000920E-02 0.  1.
    10030    2    1    2    0    0  0.00000000000E+00  0.00000000000E+00 -0.65523080083E+03  0.26508677015E+04  0.25686128880E+04 0.  0.
        3    1    3    3  502    0 -0.25942497448E+03 -0.96186753590E+03 -0.11640970160E+04  0.15321920071E+04  0.10100000352E+00 0.  1.
       -3    1    3    3    0  502  0.25942497448E+03  0.96186753590E+03  0.50886621513E+03  0.11186756943E+04  0.10100000352E+00 0. -1.
</event>
<event>
 5   0  0.7138294E-06  0.2599388E+04  0.7818609E-02  0.8368409E-01
        1   -1    0    0  501    0  0.00000000000E+00  0.00000000000E+00  0.94977847686E+03  0.94977847688E+03  0.50400001928E-02 0. -1.
       -1   -1    0    0    0  501  0.00000000000E+00  0.00000000000E+00 -0.17785253316E+04  0.17785253316E+04  0.50400001928E-02 0.  1.
    10030    2    1    2    0    0  0.00000000000E+00  0.00000000000E+00 -0.82874685476E+03  0.27283038085E+04  0.25993884516E+04 0.  0.
        2    1    3    3  502    0 -0.92026466023E+02  0.51053988240E+03 -0.16651471558E+04  0.17440856896E+04  0.25500000920E-02 0.  1.
       -2    1    3    3    0  502  0.92026466023E+02 -0.51053988240E+03  0.83640030109E+03  0.98421811893E+03  0.25500000920E-02 0. -1.
</event>
<event>
 5   0  0.1869956E-05  0.2605663E+04  0.7818609E-02  0.8366280E-01
       -2   -1    0    0    0  501  0.00000000000E+00  0.00000000000E+00  0.94158694789E+03  0.94158694790E+03  0.25500000920E-02 0. -1.
        2   -1    0    0  501    0  0.00000000000E+00  0.00000000000E+00 -0.18026693668E+04  0.18026693668E+04  0.25500000920E-02 0.  1.
    10030    2    1    2    0    0  0.00000000000E+00  0.00000000000E+00 -0.86108241894E+03  0.27442563147E+04  0.26056630229E+04 0.  0.
        5    1    3    3  502    0 -0.33498971069E+03  0.18954365048E+03  0.88033167679E+03  0.96080739634E+03  0.46999998093E+01 0. -1.
       -5    1    3    3    0  502  0.33498971069E+03 -0.18954365048E+03 -0.17414140957E+04  0.17834489184E+04  0.46999998093E+01 0.  1.
</event>
<event>
 5   0  0.1677971E-05  0.2583294E+04  0.7818609E-02  0.8373898E-01
        2   -1    0    0  501    0  0.00000000000E+00  0.00000000000E+00  0.80820439400E+03  0.80820439400E+03  0.25500000920E-02 0. -1.
       -2   -1    0    0    0  501  0.00000000000E+00  0.00000000000E+00 -0.20642701634E+04  0.20642701634E+04  0.25500000920E-02 0.  1.
    10030    2    1    2    0    0  0.00000000000E+00  0.00000000000E+00 -0.12560657694E+04  0.28724745574E+04  0.25832941888E+04 0.  0.
        4    1    3    3  502    0  0.11675018279E+04 -0.56085152901E+02 -0.12392418271E+04  0.17035046174E+04  0.12699999809E+01 0.  1.
       -4    1    3    3    0  502 -0.11675018279E+04  0.56085152901E+02 -0.16823942286E+02  0.11689699400E+04  0.12699999809E+01 0. -1.
</event>
<event>
 5   0  0.6706225E-06  0.2598798E+04  0.7818609E-02  0.8368610E-01
       -1   -1    0    0    0  501  0.00000000000E+00  0.00000000000E+00  0.92862596606E+03  0.92862596607E+03  0.50400001928E-02 0.  1.
        1   -1    0    0  501    0  0.00000000000E+00  0.00000000000E+00 -0.18182108076E+04  0.18182108076E+04  0.50400001928E-02 0. -1.
    10030    2    1    2    0    0  0.00000000000E+00  0.00000000000E+00 -0.88958484154E+03  0.27468367737E+04  0.25987980050E+04 0.  0.
        5    1    3    3  502    0 -0.81640791586E+02  0.41729664429E+01  0.92589635735E+03  0.92950997147E+03  0.46999998093E+01 0.  1.
       -5    1    3    3    0  502  0.81640791586E+02 -0.41729664429E+01 -0.18154811989E+04  0.18173268022E+04  0.46999998093E+01 0. -1.
</event>
<event>
 5   0  0.6984287E-06  0.2598908E+04  0.7818609E-02  0.8368572E-01
       -1   -1    0    0    0  501  0.00000000000E+00  0.00000000000E+00  0.12733371017E+04  0.12733371017E+04  0.50400001928E-02 0.  1.
        1   -1    0    0  501    0  0.00000000000E+00  0.00000000000E+00 -0.13261063627E+04  0.13261063627E+04  0.50400001928E-02 0. -1.
    10030    2    1    2    0    0  0.00000000000E+00  0.00000000000E+00 -0.52769261024E+02  0.25994434644E+04  0.25989077955E+04 0.  0.
        3    1    3    3  502    0  0.14686268457E+03  0.12727761851E+04  0.19057609155E+03  0.12953173829E+04  0.10100000352E+00 0. -1.
       -3    1    3    3    0  502 -0.14686268457E+03 -0.12727761851E+04 -0.24334535257E+03  0.13041260815E+04  0.10100000352E+00 0.  1.
</event>
<event>
 5   0  0.6993678E-06  0.2538862E+04  0.7818609E-02  0.8389270E-01
       -1   -1    0    0    0  501  0.00000000000E+00  0.00000000000E+00  0.17166266548E+04  0.17166266548E+04  0.50400001928E-02 0.  1.
        1   -1    0    0  501    0  0.00000000000E+00  0.00000000000E+00 -0.93873323588E+03  0.93873323589E+03  0.50400001928E-02 0. -1.
    10030    2    1    2    0    0  0.00000000000E+00  0.00000000000E+00  0.77789341893E+03  0.26553598907E+04  0.25388615515E+04 0.  0.
        1    1    3    3  502    0  0.62229351657E+03 -0.47645931859E+03 -0.65546977935E+03  0.10217158777E+04  0.50400001928E-02 0. -1.
       -1    1    3    3    0  502 -0.62229351657E+03  0.47645931859E+03  0.14333631983E+04  0.16336440130E+04  0.50400001928E-02 0.  1.
</event>
<event>
 5   0  0.6706225E-06  0.2602014E+04  0.7818609E-02  0.8367517E-01
        1   -1    0    0  501    0  0.00000000000E+00  0.00000000000E+00  0.17747355601E+04  0.17747355602E+04  0.50400001928E-02 0.  1.
       -1   -1    0    0    0  501  0.00000000000E+00  0.00000000000E+00 -0.95373055259E+03  0.95373055260E+03  0.50400001928E-02 0. -1.
    10030    2    1    2    0    0  0.00000000000E+00  0.00000000000E+00  0.82100500755E+03  0.27284661128E+04  0.26020142402E+04 0.  0.
        5    1    3    3  502    0  0.10066719778E+04  0.18492569787E+03 -0.43165361416E+03  0.11108253315E+04  0.46999998093E+01 0.  1.
       -5    1    3    3    0  502 -0.10066719778E+04 -0.18492569787E+03  0.12526586217E+04  0.16176407812E+04  0.46999998093E+01 0. -1.
</event>
<event>
 5   0  0.1681731E-05  0.2600681E+04  0.7818609E-02  0.8367970E-01
        2   -1    0    0  501    0  0.00000000000E+00  0.00000000000E+00  0.89754146881E+03  0.89754146881E+03  0.25500000920E-02 0.  1.
       -2   -1    0    0    0  501  0.00000000000E+00  0.00000000000E+00 -0.18839079026E+04  0.18839079026E+04  0.25500000920E-02 0. -1.
    10030    2    1    2    0    0  0.00000000000E+00  0.00000000000E+00 -0.98636643383E+03  0.27814493715E+04  0.26006810385E+04 0.  0.
        2    1    3    3  502    0 -0.57590528048E+02 -0.15188423887E+03 -0.18730144287E+04  0.18800448242E+04  0.25500000920E-02 0. -1.
       -2    1    3    3    0  502  0.57590528048E+02  0.15188423887E+03  0.88664799488E+03  0.90140454723E+03  0.25500000920E-02 0.  1.
</event>
<event>
 5   0  0.7138294E-06  0.2578451E+04  0.7818609E-02  0.8375558E-01
       -1   -1    0    0    0  501  0.00000000000E+00  0.00000000000E+00  0.12079375621E+04  0.12079375621E+04  0.50400001928E-02 0.  1.
        1   -1    0    0  501    0  0.00000000000E+00  0.00000000000E+00 -0.13759839868E+04  0.13759839868E+04  0.50400001928E-02 0. -1.
    10030    2    1    2    0    0  0.00000000000E+00  0.00000000000E+00 -0.16804642472E+03  0.25839215490E+04  0.25784512736E+04 0.  0.
        2    1    3    3  502    0 -0.69515344934E+03  0.24205803207E+01  0.10040327840E+04  0.12211985951E+04  0.25500000920E-02 0.  1.
       -2    1    3    3    0  502  0.69515344934E+03 -0.24205803207E+01 -0.11720792087E+04  0.13627229538E+04  0.25500000920E-02 0. -1.
</event>
<event>
 5   0  0.1869956E-05  0.2603050E+04  0.7818609E-02  0.8367166E-01
       -2   -1    0    0    0  501  0.00000000000E+00  0.00000000000E+00  0.10227672850E+04  0.10227672850E+04  0.25500000920E-02 0. -1.
        2   -1    0    0  501    0  0.00000000000E+00  0.00000000000E+00 -0.16562589773E+04  0.16562589773E+04  0.25500000920E-02 0.  1.
    10030    2    1    2    0    0  0.00000000000E+00  0.00000000000E+00 -0.63349169225E+03  0.26790262623E+04  0.26030501321E+04 0.  0.
        5    1    3    3  502    0  0.12371681355E+04 -0.12499071769E+03 -0.71233115398E+03  0.14330545830E+04  0.46999998093E+01 0. -1.
       -5    1    3    3    0  502 -0.12371681355E+04  0.12499071769E+03  0.78839461728E+02  0.12459716793E+04  0.46999998093E+01 0.  1.
</event>
<event>
 5   0  0.6993678E-06  0.2655338E+04  0.7818609E-02  0.8349643E-01
        1   -1    0    0  501    0  0.00000000000E+00  0.00000000000E+00  0.18892067602E+04  0.18892067602E+04  0.50400001928E-02 0. -1.
       -1   -1    0    0    0  501  0.00000000000E+00  0.00000000000E+00 -0.93303998006E+03  0.93303998007E+03  0.50400001928E-02 0.  1.
    10030    2    1    2    0    0  0.00000000000E+00  0.00000000000E+00  0.95616678016E+03  0.28222467403E+04  0.26553383498E+04 0.  0.
        1    1    3    3  502    0 -0.17534340737E+03  0.75338010630E+03  0.16249745602E+04  0.17996858660E+04  0.50400001928E-02 0. -1.
       -1    1    3    3    0  502  0.17534340737E+03 -0.75338010630E+03 -0.66880777999E+03  0.10225608743E+04  0.50400001928E-02 0.  1.
</event>
<event>
 5   0  0.1720129E-05  0.2591869E+04  0.7818609E-02  0.8370968E-01
       -2   -1    0    0    0  501  0.00000000000E+00  0.00000000000E+00  0.74485455653E+03  0.74485455653E+03  0.25500000920E-02 0. -1.
        2   -1    0    0  501    0  0.00000000000E+00  0.00000000000E+00 -0.22547309118E+04  0.22547309118E+04  0.25500000920E-02 0.  1.
    10030    2    1    2    0    0  0.00000000000E+00  0.00000000000E+00 -0.15098763553E+04  0.29995854684E+04  0.25918692818E+04 0.  0.
        3    1    3    3  502    0  0.11496404923E+04 -0.58442956598E+03 -0.90230917938E+03  0.15739736480E+04  0.10100000352E+00 0.  1.
       -3    1    3    3    0  502 -0.11496404923E+04  0.58442956598E+03 -0.60756717594E+03  0.14256118204E+04  0.10100000352E+00 0. -1.
</event>
<event>
 5   0  0.1869956E-05  0.2518506E+04  0.7818609E-02  0.8396422E-01
       -2   -1    0    0    0  501  0.00000000000E+00  0.00000000000E+00  0.77398956209E+03  0.77398956209E+03  0.25500000920E-02 0. -1.
        2   -1    0    0  501    0  0.00000000000E+00  0.00000000000E+00 -0.20487584629E+04  0.20487584629E+04  0.25500000920E-02 0.  1.
    10030    2    1    2    0    0  0.00000000000E+00  0.00000000000E+00 -0.12747689009E+04  0.28227480250E+04  0.25185056407E+04 0.  0.
        5    1    3    3  502    0  0.41841289702E+03 -0.11713964687E+04 -0.41759124275E+03  0.13121141624E+04  0.46999998093E+01 0.  1.
       -5    1    3    3    0  502 -0.41841289702E+03  0.11713964687E+04 -0.85717765810E+03  0.15106338626E+04  0.46999998093E+01 0. -1.
</event>
<event>
 5   0  0.1869956E-05  0.2612932E+04  0.7818609E-02  0.8363822E-01
        2   -1    0    0  501    0  0.00000000000E+00  0.00000000000E+00  0.24053709897E+04  0.24053709897E+04  0.25500000920E-02 0. -1.
       -2   -1    0    0    0  501  0.00000000000E+00  0.00000000000E+00 -0.70960070210E+03  0.70960070210E+03  0.25500000920E-02 0.  1.
    10030    2    1    2    0    0  0.00000000000E+00  0.00000000000E+00  0.16957702876E+04  0.31149716918E+04  0.26129316433E+04 0.  0.
        5    1    3    3  502    0 -0.82167873361E+03 -0.84863152971E+02 -0.35875104897E+03  0.90060096665E+03  0.46999998093E+01 0.  1.
       -5    1    3    3    0  502  0.82167873361E+03  0.84863152971E+02  0.20545213366E+04  0.22143707252E+04  0.46999998093E+01 0. -1.
</event>
<event>
 5   0  0.1720129E-05  0.2597552E+04  0.7818609E-02  0.8369033E-01
       -2   -1    0    0    0  501  0.00000000000E+00  0.00000000000E+00  0.11463947927E+04  0.11463947927E+04  0.25500000920E-02 0. -1.
        2   -1    0    0  501    0  0.00000000000E+00  0.00000000000E+00 -0.14714119856E+04  0.14714119856E+04  0.25500000920E-02 0.  1.
    10030    2    1    2    0    0  0.00000000000E+00  0.00000000000E+00 -0.32501719288E+03  0.26178067784E+04  0.25975519539E+04 0.  0.
        3    1    3    3  502    0 -0.62131284539E+03 -0.44518395374E+03 -0.12207444270E+04  0.14402900301E+04  0.10100000352E+00 0.  1.
       -3    1    3    3    0  502  0.62131284539E+03  0.44518395374E+03  0.89572723408E+03  0.11775167483E+04  0.10100000352E+00 0. -1.
</event>
<event>
 5   0  0.6993678E-06  0.2592752E+04  0.7818609E-02  0.8370667E-01
        1   -1    0    0  501    0  0.00000000000E+00  0.00000000000E+00  0.14366915708E+04  0.14366915708E+04  0.50400001928E-02 0. -1.
       -1   -1    0    0    0  501  0.00000000000E+00  0.00000000000E+00 -0.11697644398E+04  0.11697644398E+04  0.50400001928E-02 0.  1.
    10030    2    1    2    0    0  0.00000000000E+00  0.00000000000E+00  0.26692713101E+03  0.26064560107E+04  0.25927519824E+04 0.  0.
        1    1    3    3  502    0 -0.12889861444E+04  0.13729809065E+03  0.11742100981E+03  0.13015850874E+04  0.50400001928E-02 0.  1.
       -1    1    3    3    0  502  0.12889861444E+04 -0.13729809065E+03  0.14950612120E+03  0.13048709233E+04  0.50400001928E-02 0. -1.
</event>
<event>
 5   0  0.6918420E-06  0.2587294E+04  0.7818609E-02  0.8372530E-01
        1   -1    0    0  501    0  0.00000000000E+00  0.00000000000E+00  0.17793377323E+04  0.17793377323E+04  0.50400001928E-02 0. -1.
       -1   -1    0    0    0  501  0.00000000000E+00  0.00000000000E+00 -0.94053092719E+03  0.94053092720E+03  0.50400001928E-02 0.  1.
    10030    2    1    2    0    0  0.00000000000E+00  0.00000000000E+00  0.83880680506E+03  0.27198686595E+04  0.25872936958E+04 0.  0.
        4    1    3    3  502    0 -0.91587659862E+03 -0.86267333584E+03  0.73562481926E+03  0.14574569345E+04  0.12699999809E+01 0. -1.
       -4    1    3    3    0  502  0.91587659862E+03  0.86267333584E+03  0.10318198580E+03  0.12624117250E+04  0.12699999809E+01 0.  1.
</event>
<event>
 5   0  0.6706225E-06  0.2603132E+04  0.7818609E-02  0.8367138E-01
        1   -1    0    0  501    0  0.00000000000E+00  0.00000000000E+00  0.29272853669E+04  0.29272853669E+04  0.50400001928E-02 0. -1.
       -1   -1    0    0    0  501  0.00000000000E+00  0.00000000000E+00 -0.57871837197E+03  0.57871837199E+03  0.50400001928E-02 0.  1.
    10030    2    1    2    0    0  0.00000000000E+00  0.00000000000E+00  0.23485669950E+04  0.35060037389E+04  0.26031318229E+04 0.  0.
        5    1    3    3  502    0 -0.37025231869E+02  0.70091650783E+03  0.26505319976E+04  0.27418965661E+04  0.46999998093E+01 0. -1.
       -5    1    3    3    0  502  0.37025231869E+02 -0.70091650783E+03 -0.30196500266E+03  0.76410717283E+03  0.46999998093E+01 0.  1.
</event>
<event>
 5   0  0.1681731E-05  0.2614801E+04  0.7818609E-02  0.8363191E-01
       -2   -1    0    0    0  501  0.00000000000E+00  0.00000000000E+00  0.10126401488E+04  0.10126401488E+04  0.25500000920E-02 0. -1.
        2   -1    0    0  501    0  0.00000000000E+00  0.00000000000E+00 -0.16879595358E+04  0.16879595358E+04  0.25500000920E-02 0.  1.
    10030    2    1    2    0    0  0.00000000000E+00  0.00000000000E+00 -0.67531938699E+03  0.27005996847E+04  0.26148006391E+04 0.  0.
        2    1    3    3  502    0  0.52951864470E+03 -0.10525525215E+04  0.24753500776E+03  0.12039644454E+04  0.25500000920E-02 0. -1.
       -2    1    3    3    0  502 -0.52951864470E+03  0.10525525215E+04 -0.92285439475E+03  0.14966352393E+04  0.25500000920E-02 0.  1.
</event>
<event>
 5   0  0.6984287E-06  0.2621121E+04  0.7818609E-02  0.8361062E-01
        1   -1    0    0  501    0  0.00000000000E+00  0.00000000000E+00  0.23199288017E+04  0.23199288017E+04  0.50400001928E-02 0.  1.
       -1   -1    0    0    0  501  0.00000000000E+00  0.00000000000E+00 -0.74035410758E+03  0.74035410760E+03  0.50400001928E-02 0. -1.
    10030    2    1    2    0    0  0.00000000000E+00  0.00000000000E+00  0.15795746941E+04  0.30602829093E+04  0.26211209950E+04 0.  0.
        3    1    3    3  502    0 -0.79505646447E+03 -0.84190663754E+03  0.73244933693E+02  0.11602958237E+04  0.10100000352E+00 0. -1.
       -3    1    3    3    0  502  0.79505646447E+03  0.84190663754E+03  0.15063297604E+04  0.18999870856E+04  0.10100000352E+00 0.  1.
</event>
<event>
 5   0  0.6918420E-06  0.2595521E+04  0.7818609E-02  0.8369724E-01
       -1   -1    0    0    0  501  0.00000000000E+00  0.00000000000E+00  0.18662429959E+04  0.18662429959E+04  0.50400001928E-02 0. -1.
        1   -1    0    0  501    0  0.00000000000E+00  0.00000000000E+00 -0.90244553908E+03  0.90244553909E+03  0.50400001928E-02 0.  1.
    10030    2    1    2    0    0  0.00000000000E+00  0.00000000000E+00  0.96379745686E+03  0.27686885350E+04  0.25955212706E+04 0.  0.
        4    1    3    3  502    0  0.10832627256E+04  0.56804463927E+02  0.12418152665E+04  0.16488758743E+04  0.12699999809E+01 0. -1.
       -4    1    3    3    0  502 -0.10832627256E+04 -0.56804463927E+02 -0.27801780966E+03  0.11198126607E+04  0.12699999809E+01 0.  1.
</event>
<event>
 5   0  0.1677971E-05  0.2579356E+04  0.7818609E-02  0.8375247E-01
        2   -1    0    0  501    0  0.00000000000E+00  0.00000000000E+00  0.22775075092E+04  0.22775075092E+04  0.25500000920E-02 0.  1.
       -2   -1    0    0    0  501  0.00000000000E+00  0.00000000000E+00 -0.73030266407E+03  0.73030266408E+03  0.25500000920E-02 0. -1.
    10030    2    1    2    0    0  0.00000000000E+00  0.00000000000E+00  0.15472048451E+04  0.30078101733E+04  0.25793563549E+04 0.  0.
        4    1    3    3  502    0  0.97282916757E+03 -0.63202574848E+03  0.14305834621E+04  0.18418533576E+04  0.12699999809E+01 0.  1.
       -4    1    3    3    0  502 -0.97282916757E+03  0.63202574848E+03  0.11662138297E+03  0.11659568156E+04  0.12699999809E+01 0. -1.
</event>
<event>
 5   0  0.6918420E-06  0.2551976E+04  0.7818609E-02  0.8384699E-01
       -1   -1    0    0    0  501  0.00000000000E+00  0.00000000000E+00  0.68505060120E+03  0.68505060122E+03  0.50400001928E-02 0.  1.
        1   -1    0    0  501    0  0.00000000000E+00  0.00000000000E+00 -0.23766793349E+04  0.23766793349E+04  0.50400001928E-02 0. -1.
    10030    2    1    2    0    0  0.00000000000E+00  0.00000000000E+00 -0.16916287337E+04  0.30617299361E+04  0.25519761811E+04 0.  0.
        4    1    3    3  502    0  0.10945588429E+04 -0.56588218861E+03 -0.12434768067E+04  0.17505764461E+04  0.12699999809E+01 0. -1.
       -4    1    3    3    0  502 -0.10945588429E+04  0.56588218861E+03 -0.44815192699E+03  0.13111534900E+04  0.12699999809E+01 0.  1.
</event>
<event>
 5   0  0.6918420E-06  0.2586433E+04  0.7818609E-02  0.8372824E-01
        1   -1    0    0  501    0  0.00000000000E+00  0.00000000000E+00  0.14110554772E+04  0.14110554772E+04  0.50400001928E-02 0.  1.
       -1   -1    0    0    0  501  0.00000000000E+00  0.00000000000E+00 -0.11852180957E+04  0.11852180957E+04  0.50400001928E-02 0. -1.
    10030    2    1    2    0    0  0.00000000000E+00  0.00000000000E+00  0.22583738155E+03  0.25962735729E+04  0.25864326673E+04 0.  0.
        4    1    3    3  502    0 -0.62146616571E+03  0.65736042292E+02  0.12494214567E+04  0.13969957093E+04  0.12699999809E+01 0.  1.
       -4    1    3    3    0  502  0.62146616571E+03 -0.65736042292E+02 -0.10235840752E+04  0.11992778636E+04  0.12699999809E+01 0. -1.
</event>
<event>
 5   0  0.6993678E-06  0.2302134E+04  0.7818609E-02  0.8477080E-01
        1   -1    0    0  501    0  0.00000000000E+00  0.00000000000E+00  0.14759130762E+04  0.14759130762E+04  0.50400001928E-02 0. -1.
       -1   -1    0    0    0  501  0.00000000000E+00  0.00000000000E+00 -0.89771904014E+03  0.89771904015E+03  0.50400001928E-02 0.  1.
    10030    2    1    2    0    0  0.00000000000E+00  0.00000000000E+00  0.57819403608E+03  0.23736321164E+04  0.23021340275E+04 0.  0.
        1    1    3    3  502    0  0.51526907097E+03 -0.78924156719E+02  0.13472371484E+04  0.14445688534E+04  0.50400001928E-02 0. -1.
       -1    1    3    3    0  502 -0.51526907097E+03  0.78924156719E+02 -0.76904311234E+03  0.92906326301E+03  0.50400001928E-02 0.  1.
</event>
<event>
 5   0  0.1702345E-05  0.2394340E+04  0.7818609E-02  0.8441626E-01
       -2   -1    0    0    0  501  0.00000000000E+00  0.00000000000E+00  0.58214537207E+03  0.58214537208E+03  0.25500000920E-02 0.  1.
        2   -1    0    0  501    0  0.00000000000E+00  0.00000000000E+00 -0.24619560380E+04  0.24619560380E+04  0.25500000920E-02 0. -1.
    10030    2    1    2    0    0  0.00000000000E+00  0.00000000000E+00 -0.18798106659E+04  0.30441014101E+04  0.23943402547E+04 0.  0.
        1    1    3    3  502    0 -0.44640998475E+02 -0.32836440423E+03  0.52267209164E+03  0.61887164753E+03  0.50400001928E-02 0.  1.
       -1    1    3    3    0  502  0.44640998475E+02  0.32836440423E+03 -0.24024827576E+04  0.24252297625E+04  0.50400001928E-02 0. -1.
</event>
<event>
 5   0  0.6984287E-06  0.2565205E+04  0.7818609E-02  0.8380117E-01
        1   -1    0    0  501    0  0.00000000000E+00  0.00000000000E+00  0.12789347759E+04  0.12789347759E+04  0.50400001928E-02 0. -1.
       -1   -1    0    0    0  501  0.00000000000E+00  0.00000000000E+00 -0.12862806017E+04  0.12862806017E+04  0.50400001928E-02 0.  1.
    10030    2    1    2    0    0  0.00000000000E+00  0.00000000000E+00 -0.73458258666E+01  0.25652153776E+04  0.25652048597E+04 0.  0.
        3    1    3    3  502    0 -0.80042470901E+03  0.12444283528E+03 -0.99811313653E+03  0.12854553970E+04  0.10100000352E+00 0.  1.
       -3    1    3    3    0  502  0.80042470901E+03 -0.12444283528E+03  0.99076731066E+03  0.12797599807E+04  0.10100000352E+00 0. -1.
</event>
<event>
 5   0  0.1681731E-05  0.2616152E+04  0.7818609E-02  0.8362735E-01
       -2   -1    0    0    0  501  0.00000000000E+00  0.00000000000E+00  0.82985479115E+03  0.82985479115E+03  0.25500000920E-02 0.  1.
        2   -1    0    0  501    0  0.00000000000E+00  0.00000000000E+00 -0.20618828252E+04  0.20618828252E+04  0.25500000920E-02 0. -1.
    10030    2    1    2    0    0  0.00000000000E+00  0.00000000000E+00 -0.12320280340E+04  0.28917376163E+04  0.26161523971E+04 0.  0.
        2    1    3    3  502    0  0.96965355591E+03  0.34882230514E+03 -0.15065903711E+04  0.18252998563E+04  0.25500000920E-02 0. -1.
       -2    1    3    3    0  502 -0.96965355591E+03 -0.34882230514E+03  0.27456233709E+03  0.10664377600E+04  0.25500000920E-02 0.  1.
</event>
<event>
 5   0  0.1720129E-05  0.2591913E+04  0.7818609E-02  0.8370953E-01
       -2   -1    0    0    0  501  0.00000000000E+00  0.00000000000E+00  0.80031965003E+03  0.80031965003E+03  0.25500000920E-02 0. -1.
        2   -1    0    0  501    0  0.00000000000E+00  0.00000000000E+00 -0.20985410839E+04  0.20985410839E+04  0.25500000920E-02 0.  1.
    10030    2    1    2    0    0  0.00000000000E+00  0.00000000000E+00 -0.12982214338E+04  0.28988607339E+04  0.25919133209E+04 0.  0.
        3    1    3    3  502    0  0.61673534174E+03 -0.85455932417E+03  0.19444391843E+03  0.10716541270E+04  0.10100000352E+00 0. -1.
       -3    1    3    3    0  502 -0.61673534174E+03  0.85455932417E+03 -0.14926653523E+04  0.18272066069E+04  0.10100000352E+00 0.  1.
</event>
<event>
 5   0  0.6706225E-06  0.2618445E+04  0.7818609E-02  0.8361963E-01
        1   -1    0    0  501    0  0.00000000000E+00  0.00000000000E+00  0.10393917636E+04  0.10393917636E+04  0.50400001928E-02 0. -1.
       -1   -1    0    0    0  501  0.00000000000E+00  0.00000000000E+00 -0.16491027797E+04  0.16491027797E+04  0.50400001928E-02 0.  1.
    10030    2    1    2    0    0  0.00000000000E+00  0.00000000000E+00 -0.60971101605E+03  0.26884945433E+04  0.26184452231E+04 0.  0.
        5    1    3    3  502    0  0.86330173964E+03 -0.90833805069E+03  0.84328090179E+02  0.12559861563E+04  0.46999998093E+01 0. -1.
       -5    1    3    3    0  502 -0.86330173964E+03  0.90833805069E+03 -0.69403910623E+03  0.14325083871E+04  0.46999998093E+01 0.  1.
</event>
<event>
 5   0  0.1677971E-05  0.2563958E+04  0.7818609E-02  0.8380548E-01
       -2   -1    0    0    0  501  0.00000000000E+00  0.00000000000E+00  0.60882323726E+03  0.60882323726E+03  0.25500000920E-02 0. -1.
        2   -1    0    0  501    0  0.00000000000E+00  0.00000000000E+00 -0.26994217466E+04  0.26994217466E+04  0.25500000920E-02 0.  1.
    10030    2    1    2    0    0  0.00000000000E+00  0.00000000000E+00 -0.20905985093E+04  0.33082449839E+04  0.25639584135E+04 0.  0.
        4    1    3    3  502    0 -0.59654522034E+03 -0.47560169561E+03  0.28401430483E+03  0.81408163658E+03  0.12699999809E+01 0. -1.
       -4    1    3    3    0  502  0.59654522034E+03  0.47560169561E+03 -0.23746128142E+04  0.24941633473E+04  0.12699999809E+01 0.  1.
</event>
<event>
 5   0  0.1677971E-05  0.2563764E+04  0.7818609E-02  0.8380615E-01
       -2   -1    0    0    0  501  0.00000000000E+00  0.00000000000E+00  0.14553082487E+04  0.14553082487E+04  0.25500000920E-02 0. -1.
        2   -1    0    0  501    0  0.00000000000E+00  0.00000000000E+00 -0.11291225935E+04  0.11291225935E+04  0.25500000920E-02 0.  1.
    10030    2    1    2    0    0  0.00000000000E+00  0.00000000000E+00  0.32618565527E+03  0.25844308422E+04  0.25637639705E+04 0.  0.
        4    1    3    3  502    0 -0.53988190306E+03  0.80287819321E+03  0.10107841144E+04  0.13992040599E+04  0.12699999809E+01 0. -1.
       -4    1    3    3    0  502  0.53988190306E+03 -0.80287819321E+03 -0.68459845911E+03  0.11852267823E+04  0.12699999809E+01 0.  1.
</event>
<event>
 5   0  0.1681731E-05  0.2625481E+04  0.7818609E-02  0.8359597E-01
        2   -1    0    0  501    0  0.00000000000E+00  0.00000000000E+00  0.17027473170E+04  0.17027473170E+04  0.25500000920E-02 0.  1.
       -2   -1    0    0    0  501  0.00000000000E+00  0.00000000000E+00 -0.10120627967E+04  0.10120627967E+04  0.25500000920E-02 0. -1.
    10030    2    1    2    0    0  0.00000000000E+00  0.00000000000E+00  0.69068452025E+03  0.27148101137E+04  0.26254806888E+04 0.  0.
        2    1    3    3  502    0 -0.58138113545E+03  0.61936104538E+03 -0.68954744198E+03  0.10941150780E+04  0.25500000920E-02 0. -1.
       -2    1    3    3    0  502  0.58138113545E+03 -0.61936104538E+03  0.13802319622E+04  0.16206950357E+04  0.25500000920E-02 0.  1.
</event>
<event>
 5   0  0.6706225E-06  0.2586018E+04  0.7818609E-02  0.8372966E-01
       -1   -1    0    0    0  501  0.00000000000E+00  0.00000000000E+00  0.14015226451E+04  0.14015226451E+04  0.50400001928E-02 0.  1.
        1   -1    0    0  501    0  0.00000000000E+00  0.00000000000E+00 -0.11928972879E+04  0.11928972879E+04  0.50400001928E-02 0. -1.
    10030    2    1    2    0    0  0.00000000000E+00  0.00000000000E+00  0.20862535721E+03  0.25944199330E+04  0.25860182229E+04 0.  0.
        5    1    3    3  502    0  0.10085480536E+04  0.77944443987E+03 -0.11352789303E+03  0.12796927302E+04  0.46999998093E+01 0. -1.
       -5    1    3    3    0  502 -0.10085480536E+04 -0.77944443987E+03  0.32215325024E+03  0.13147272028E+04  0.46999998093E+01 0.  1.
</event>
<event>
 5   0  0.1720129E-05  0.2559968E+04  0.7818609E-02  0.8381928E-01
       -2   -1    0    0    0  501  0.00000000000E+00  0.00000000000E+00  0.71277765796E+03  0.71277765796E+03  0.25500000920E-02 0.  1.
        2   -1    0    0  501    0  0.00000000000E+00  0.00000000000E+00 -0.22985559886E+04  0.22985559886E+04  0.25500000920E-02 0. -1.
    10030    2    1    2    0    0  0.00000000000E+00  0.00000000000E+00 -0.15857783306E+04  0.30113336465E+04  0.25599682453E+04 0.  0.
        3    1    3    3  502    0  0.10512746515E+04  0.61241521734E+03 -0.32512230921E+03  0.12593392385E+04  0.10100000352E+00 0. -1.
       -3    1    3    3    0  502 -0.10512746515E+04 -0.61241521734E+03 -0.12606560214E+04  0.17519944081E+04  0.10100000352E+00 0.  1.
</event>
<event>
 5   0  0.5840500E-06  0.2598296E+04  0.7818609E-02  0.8368780E-01
       -3   -1    0    0    0  501  0.00000000000E+00  0.00000000000E+00  0.26769509833E+04  0.26769509852E+04  0.10100000352E+00 0.  1.
        3   -1    0    0  501    0  0.00000000000E+00  0.00000000000E+00 -0.63048780490E+03  0.63048781299E+03  0.10100000352E+00 0. -1.
    10030    2    1    2    0    0  0.00000000000E+00  0.00000000000E+00  0.20464631784E+04  0.33074387982E+04  0.25982955689E+04 0.  0.
        4    1    3    3  502    0  0.13656505550E+02 -0.68537941231E+03  0.24279863268E+04  0.25229052013E+04  0.12699999809E+01 0.  1.
       -4    1    3    3    0  502 -0.13656505550E+02  0.68537941231E+03 -0.38152314837E+03  0.78453359687E+03  0.12699999809E+01 0. -1.
</event>
<event>
 5   0  0.6984287E-06  0.2576604E+04  0.7818609E-02  0.8376192E-01
       -1   -1    0    0    0  501  0.00000000000E+00  0.00000000000E+00  0.56141887826E+03  0.56141887829E+03  0.50400001928E-02 0.  1.
        1   -1    0    0  501    0  0.00000000000E+00  0.00000000000E+00 -0.29562989732E+04  0.29562989732E+04  0.50400001928E-02 0. -1.
    10030    2    1    2    0    0  0.00000000000E+00  0.00000000000E+00 -0.23948800950E+04  0.35177178515E+04  0.25766040079E+04 0.  0.
        3    1    3    3  502    0  0.80152032286E+03  0.10083881058E+04 -0.12260987782E+04  0.17783699345E+04  0.10100000352E+00 0.  1.
       -3    1    3    3    0  502 -0.80152032286E+03 -0.10083881058E+04 -0.11687813168E+04  0.17393479171E+04  0.10100000352E+00 0. -1.
</event>
<event>
 5   0  0.5840500E-06  0.2580256E+04  0.7818609E-02  0.8374939E-01
       -3   -1    0    0    0  501  0.00000000000E+00  0.00000000000E+00  0.11256809108E+04  0.11256809153E+04  0.10100000352E+00 0. -1.
        3   -1    0    0  501    0  0.00000000000E+00  0.00000000000E+00 -0.14785985978E+04  0.14785986012E+04  0.10100000352E+00 0.  1.
    10030    2    1    2    0    0  0.00000000000E+00  0.00000000000E+00 -0.35291768700E+03  0.26042795165E+04  0.25802559769E+04 0.  0.
        3    1    3    3  502    0  0.28581421868E+03 -0.11239860229E+01 -0.14462417597E+04  0.14742137799E+04  0.10100000352E+00 0.  1.
       -3    1    3    3    0  502 -0.28581421868E+03  0.11239860229E+01  0.10933240727E+04  0.11300657367E+04  0.10100000352E+00 0. -1.
</event>
<event>
 5   0  0.1677971E-05  0.2732498E+04  0.7818609E-02  0.8324537E-01
       -2   -1    0    0    0  501  0.00000000000E+00  0.00000000000E+00  0.11110590593E+04  0.11110590593E+04  0.25500000920E-02 0.  1.
        2   -1    0    0  501    0  0.00000000000E+00  0.00000000000E+00 -0.16800515715E+04  0.16800515715E+04  0.25500000920E-02 0. -1.
    10030    2    1    2    0    0  0.00000000000E+00  0.00000000000E+00 -0.56899251227E+03  0.27911106308E+04  0.27324981380E+04 0.  0.
        4    1    3    3  502    0  0.10206286497E+04 -0.54355998139E+03  0.45877604508E+03  0.12440327031E+04  0.12699999809E+01 0.  1.
       -4    1    3    3    0  502 -0.10206286497E+04  0.54355998139E+03 -0.10277685573E+04  0.15470779277E+04  0.12699999809E+01 0. -1.
</event>
<event>
 5   0  0.6918420E-06  0.2555730E+04  0.7818609E-02  0.8383396E-01
        1   -1    0    0  501    0  0.00000000000E+00  0.00000000000E+00  0.16312584994E+04  0.16312584994E+04  0.50400001928E-02 0. -1.
       -1   -1    0    0    0  501  0.00000000000E+00  0.00000000000E+00 -0.10010298854E+04  0.10010298855E+04  0.50400001928E-02 0.  1.
    10030    2    1    2    0    0  0.00000000000E+00  0.00000000000E+00  0.63022861394E+03  0.26322883849E+04  0.25557296483E+04 0.  0.
        4    1    3    3  502    0  0.66859682823E+03 -0.77934223181E+03 -0.46828931624E+03  0.11285798729E+04  0.12699999809E+01 0.  1.
       -4    1    3    3    0  502 -0.66859682823E+03  0.77934223181E+03  0.10985179302E+04  0.15037085119E+04  0.12699999809E+01 0. -1.
</event>
<event>
 5   0  0.6984287E-06  0.2482744E+04  0.7818609E-02  0.8409159E-01
       -1   -1    0    0    0  501  0.00000000000E+00  0.00000000000E+00  0.53697362698E+03  0.53697362701E+03  0.50400001928E-02 0.  1.
        1   -1    0    0  501    0  0.00000000000E+00  0.00000000000E+00 -0.28697943419E+04  0.28697943419E+04  0.50400001928E-02 0. -1.
    10030    2    1    2    0    0  0.00000000000E+00  0.00000000000E+00 -0.23328207150E+04  0.34067679690E+04  0.24827435442E+04 0.  0.
        3    1    3    3  502    0 -0.86970971959E+03  0.27065633916E+03 -0.90900123790E+01  0.91089653024E+03  0.10100000352E+00 0.  1.
       -3    1    3    3    0  502  0.86970971959E+03 -0.27065633916E+03 -0.23237307026E+04  0.24958714387E+04  0.10100000352E+00 0. -1.
</event>
<event>
 5   0  0.1681731E-05  0.2611624E+04  0.7818609E-02  0.8364263E-01
        2   -1    0    0  501    0  0.00000000000E+00  0.00000000000E+00  0.12633980350E+04  0.12633980350E+04  0.25500000920E-02 0. -1.
       -2   -1    0    0    0  501  0.00000000000E+00  0.00000000000E+00 -0.13496500118E+04  0.13496500118E+04  0.25500000920E-02 0.  1.
    10030    2    1    2    0    0  0.00000000000E+00  0.00000000000E+00 -0.86251976831E+02  0.26130480467E+04  0.26116241481E+04 0.  0.
        2    1    3    3  502    0  0.70563905834E+03  0.72700041361E+03  0.78114906059E+03  0.12793161990E+04  0.25500000920E-02 0. -1.
       -2    1    3    3    0  502 -0.70563905834E+03 -0.72700041361E+03 -0.86740103742E+03  0.13337318478E+04  0.25500000920E-02 0.  1.
</event>
<event>
 5   0  0.6984287E-06  0.2618266E+04  0.7818609E-02  0.8362023E-01
       -1   -1    0    0    0  501  0.00000000000E+00  0.00000000000E+00  0.89750235680E+03  0.89750235681E+03  0.50400001928E-02 0.  1.
        1   -1    0    0  501    0  0.00000000000E+00  0.00000000000E+00 -0.19095532714E+04  0.19095532714E+04  0.50400001928E-02 0. -1.
    10030    2    1    2    0    0  0.00000000000E+00  0.00000000000E+00 -0.10120509146E+04  0.28070556282E+04  0.26182655034E+04 0.  0.
        3    1    3    3  502    0  0.23180560610E+03 -0.42019524554E+03  0.79980140952E+03  0.93272728505E+03  0.10100000352E+00 0.  1.
       -3    1    3    3    0  502 -0.23180560610E+03  0.42019524554E+03 -0.18118523241E+04  0.18743283431E+04  0.10100000352E+00 0. -1.
</event>
<event>
 5   0  0.1677971E-05  0.2586654E+04  0.7818609E-02  0.8372749E-01
       -2   -1    0    0    0  501  0.00000000000E+00  0.00000000000E+00  0.18173442391E+04  0.18173442391E+04  0.25500000920E-02 0. -1.
        2   -1    0    0  501    0  0.00000000000E+00  0.00000000000E+00 -0.92040576892E+03  0.92040576892E+03  0.25500000920E-02 0.  1.
    10030    2    1    2    0    0  0.00000000000E+00  0.00000000000E+00  0.89693847018E+03  0.27377500080E+04  0.25866535305E+04 0.  0.
        4    1    3    3  502    0 -0.34856206205E+03  0.12451512430E+04  0.41861933899E+03  0.13590956158E+04  0.12699999809E+01 0. -1.
       -4    1    3    3    0  502  0.34856206205E+03 -0.12451512430E+04  0.47831913118E+03  0.13786543922E+04  0.12699999809E+01 0.  1.
</event>
<event>
 5   0  0.1702345E-05  0.2320385E+04  0.7818609E-02  0.8469927E-01
       -2   -1    0    0    0  501  0.00000000000E+00  0.00000000000E+00  0.13642805188E+04  0.13642805188E+04  0.25500000920E-02 0.  1.
        2   -1    0    0  501    0  0.00000000000E+00  0.00000000000E+00 -0.98663463073E+03  0.98663463073E+03  0.25500000920E-02 0. -1.
    10030    2    1    2    0    0  0.00000000000E+00  0.00000000000E+00  0.37764588806E+03  0.23509151495E+04  0.23203848007E+04 0.  0.
        1    1    3    3  502    0 -0.11436322652E+04 -0.16721380202E+03  0.29110264276E+03  0.11918875627E+04  0.50400001928E-02 0. -1.
       -1    1    3    3    0  502  0.11436322652E+04  0.16721380202E+03  0.86543245301E+02  0.11590275868E+04  0.50400001928E-02 0.  1.
</event>
<event>
 5   0  0.1702345E-05  0.2560177E+04  0.7818609E-02  0.8381855E-01
       -2   -1    0    0    0  501  0.00000000000E+00  0.00000000000E+00  0.60478958423E+03  0.60478958424E+03  0.25500000920E-02 0. -1.
        2   -1    0    0  501    0  0.00000000000E+00  0.00000000000E+00 -0.27094151313E+04  0.27094151313E+04  0.25500000920E-02 0.  1.
    10030    2    1    2    0    0  0.00000000000E+00  0.00000000000E+00 -0.21046255471E+04  0.33142047155E+04  0.25601765961E+04 0.  0.
        1    1    3    3  502    0 -0.75370618252E+03  0.10285304204E+04 -0.11980728118E+04  0.17496646243E+04  0.50400001928E-02 0.  1.
       -1    1    3    3    0  502  0.75370618252E+03 -0.10285304204E+04 -0.90655273527E+03  0.15645400912E+04  0.50400001928E-02 0. -1.
</event>
<event>
 5   0  0.1720129E-05  0.2621477E+04  0.7818609E-02  0.8360942E-01
        2   -1    0    0  501    0  0.00000000000E+00  0.00000000000E+00  0.12218372698E+04  0.12218372698E+04  0.25500000920E-02 0.  1.
       -2   -1    0    0    0  501  0.00000000000E+00  0.00000000000E+00 -0.14061081625E+04  0.14061081625E+04  0.25500000920E-02 0. -1.
    10030    2    1    2    0    0  0.00000000000E+00  0.00000000000E+00 -0.18427089270E+03  0.26279454323E+04  0.26214769565E+04 0.  0.
        3    1    3    3  502    0  0.54627916880E+03  0.17239743316E+03 -0.12739819297E+04  0.13968435033E+04  0.10100000352E+00 0. -1.
       -3    1    3    3    0  502 -0.54627916880E+03 -0.17239743316E+03  0.10897110370E+04  0.12311019290E+04  0.10100000352E+00 0.  1.
</event>
<event>
 5   0  0.1869956E-05  0.2604559E+04  0.7818609E-02  0.8366654E-01
       -2   -1    0    0    0  501  0.00000000000E+00  0.00000000000E+00  0.95436941287E+03  0.95436941287E+03  0.25500000920E-02 0. -1.
        2   -1    0    0  501    0  0.00000000000E+00  0.00000000000E+00 -0.17770176082E+04  0.17770176082E+04  0.25500000920E-02 0.  1.
    10030    2    1    2    0    0  0.00000000000E+00  0.00000000000E+00 -0.82264819530E+03  0.27313870210E+04  0.26045585049E+04 0.  0.
        5    1    3    3  502    0 -0.42470296927E+03  0.10900626850E+04  0.18863556901E+03  0.11849956697E+04  0.46999998093E+01 0. -1.
       -5    1    3    3    0  502  0.42470296927E+03 -0.10900626850E+04 -0.10112837643E+04  0.15463913513E+04  0.46999998093E+01 0.  1.
</event>
<event>
 5   0  0.6984287E-06  0.2583811E+04  0.7818609E-02  0.8373721E-01
        1   -1    0    0  501    0  0.00000000000E+00  0.00000000000E+00  0.16869681496E+04  0.16869681496E+04  0.50400001928E-02 0.  1.
       -1   -1    0    0    0  501  0.00000000000E+00  0.00000000000E+00 -0.98936056468E+03  0.98936056470E+03  0.50400001928E-02 0. -1.
    10030    2    1    2    0    0  0.00000000000E+00  0.00000000000E+00  0.69760758493E+03  0.26763287143E+04  0.25838109537E+04 0.  0.
        3    1    3    3  502    0 -0.97317149120E+03 -0.18330591775E+03 -0.51057622449E+03  0.11141597291E+04  0.10100000352E+00 0. -1.
       -3    1    3    3    0  502  0.97317149120E+03  0.18330591775E+03  0.12081838094E+04  0.15621689852E+04  0.10100000352E+00 0.  1.
</event>
<event>
 5   0  0.6918420E-06  0.2624085E+04  0.7818609E-02  0.8360066E-01
       -1   -1    0    0    0  501  0.00000000000E+00  0.00000000000E+00  0.10627649283E+04  0.10627649283E+04  0.50400001928E-02 0.  1.
        1   -1    0    0  501    0  0.00000000000E+00  0.00000000000E+00 -0.16197899662E+04  0.16197899662E+04  0.50400001928E-02 0. -1.
    10030    2    1    2    0    0  0.00000000000E+00  0.00000000000E+00 -0.55702503787E+03  0.26825548946E+04  0.26240853396E+04 0.  0.
        4    1    3    3  502    0  0.12160609684E+04 -0.25576198407E+03  0.15186194002E+03  0.12519113919E+04  0.12699999809E+01 0. -1.
       -4    1    3    3    0  502 -0.12160609684E+04  0.25576198407E+03 -0.70888697790E+03  0.14306435027E+04  0.12699999809E+01 0.  1.
</event>
<event>
 5   0  0.1677971E-05  0.2620658E+04  0.7818609E-02  0.8361218E-01
       -2   -1    0    0    0  501  0.00000000000E+00  0.00000000000E+00  0.15614620591E+04  0.15614620591E+04  0.25500000920E-02 0. -1.
        2   -1    0    0  501    0  0.00000000000E+00  0.00000000000E+00 -0.10995857545E+04  0.10995857545E+04  0.25500000920E-02 0.  1.
    10030    2    1    2    0    0  0.00000000000E+00  0.00000000000E+00  0.46187630463E+03  0.26610478136E+04  0.26206575025E+04 0.  0.
        4    1    3    3  502    0  0.12432256553E+04 -0.48887822129E+02  0.64832049486E+03  0.14029686833E+04  0.12699999809E+01 0. -1.
       -4    1    3    3    0  502 -0.12432256553E+04  0.48887822129E+02 -0.18644419023E+03  0.12580791303E+04  0.12699999809E+01 0.  1.
</event>
<event>
 5   0  0.6984287E-06  0.2601108E+04  0.7818609E-02  0.8367825E-01
       -1   -1    0    0    0  501  0.00000000000E+00  0.00000000000E+00  0.54798841115E+03  0.54798841117E+03  0.50400001928E-02 0. -1.
        1   -1    0    0  501    0  0.00000000000E+00  0.00000000000E+00 -0.30866361012E+04  0.30866361012E+04  0.50400001928E-02 0.  1.
    10030    2    1    2    0    0  0.00000000000E+00  0.00000000000E+00 -0.25386476900E+04  0.36346245123E+04  0.26011080815E+04 0.  0.
        3    1    3    3  502    0 -0.10596756760E+04  0.54603371026E+03 -0.19959060910E+04  0.23248024616E+04  0.10100000352E+00 0.  1.
       -3    1    3    3    0  502  0.10596756760E+04 -0.54603371026E+03 -0.54274159902E+03  0.13098220507E+04  0.10100000352E+00 0. -1.
</event>
<event>
 5   0  0.7138294E-06  0.2687891E+04  0.7818609E-02  0.8338944E-01
       -1   -1    0    0    0  501  0.00000000000E+00  0.00000000000E+00  0.13235013298E+04  0.13235013298E+04  0.50400001928E-02 0. -1.
        1   -1    0    0  501    0  0.00000000000E+00  0.00000000000E+00 -0.13647059419E+04  0.13647059420E+04  0.50400001928E-02 0.  1.
    10030    2    1    2    0    0  0.00000000000E+00  0.00000000000E+00 -0.41204612124E+02  0.26882072718E+04  0.26878914628E+04 0.  0.
        2    1    3    3  502    0 -0.63103025571E+03 -0.34364758844E+03 -0.11564721958E+04  0.13615141528E+04  0.25500000920E-02 0.  1.
       -2    1    3    3    0  502  0.63103025571E+03  0.34364758844E+03  0.11152675837E+04  0.13266931190E+04  0.25500000920E-02 0. -1.
</event>
<event>
 5   0  0.6706225E-06  0.2633968E+04  0.7818609E-02  0.8356754E-01
        1   -1    0    0  501    0  0.00000000000E+00  0.00000000000E+00  0.23110726560E+04  0.23110726560E+04  0.50400001928E-02 0. -1.
       -1   -1    0    0    0  501  0.00000000000E+00  0.00000000000E+00 -0.75049424835E+03  0.75049424837E+03  0.50400001928E-02 0.  1.
    10030    2    1    2    0    0  0.00000000000E+00  0.00000000000E+00  0.15605784076E+04  0.30615669043E+04  0.26339679086E+04 0.  0.
        5    1    3    3  502    0 -0.22357343312E+03 -0.11218715725E+04  0.15387941360E+04  0.19174176353E+04  0.46999998093E+01 0. -1.
       -5    1    3    3    0  502  0.22357343312E+03  0.11218715725E+04  0.21784271580E+02  0.11441492690E+04  0.46999998093E+01 0.  1.
</event>
<event>
 5   0  0.6984287E-06  0.2700734E+04  0.7818609E-02  0.8334767E-01
       -1   -1    0    0    0  501  0.00000000000E+00  0.00000000000E+00  0.12195386804E+04  0.12195386804E+04  0.50400001928E-02 0. -1.
        1   -1    0    0  501    0  0.00000000000E+00  0.00000000000E+00 -0.14952304370E+04  0.14952304370E+04  0.50400001928E-02 0.  1.
    10030    2    1    2    0    0  0.00000000000E+00  0.00000000000E+00 -0.27569175664E+03  0.27147691174E+04  0.27007342365E+04 0.  0.
        3    1    3    3  502    0  0.47966000029E+03  0.10969863418E+04 -0.76562207015E+03  0.14211368388E+04  0.10100000352E+00 0.  1.
       -3    1    3    3    0  502 -0.47966000029E+03 -0.10969863418E+04  0.48993031350E+03  0.12936322786E+04  0.10100000352E+00 0. -1.
</event>
<event>
 5   0  0.6706225E-06  0.2596925E+04  0.7818609E-02  0.8369246E-01
        1   -1    0    0  501    0  0.00000000000E+00  0.00000000000E+00  0.98243062963E+03  0.98243062964E+03  0.50400001928E-02 0. -1.
       -1   -1    0    0    0  501  0.00000000000E+00  0.00000000000E+00 -0.17161569429E+04  0.17161569429E+04  0.50400001928E-02 0.  1.
    10030    2    1    2    0    0  0.00000000000E+00  0.00000000000E+00 -0.73372631328E+03  0.26985875726E+04  0.25969252172E+04 0.  0.
        5    1    3    3  502    0 -0.39943801739E+03  0.82844907905E+03  0.58559019619E+03  0.10903286542E+04  0.46999998093E+01 0. -1.
       -5    1    3    3    0  502  0.39943801739E+03 -0.82844907905E+03 -0.13193165095E+04  0.16082589184E+04  0.46999998093E+01 0.  1.
</event>
<event>
 5   0  0.7138294E-06  0.2604727E+04  0.7818609E-02  0.8366597E-01
       -1   -1    0    0    0  501  0.00000000000E+00  0.00000000000E+00  0.84301531593E+03  0.84301531594E+03  0.50400001928E-02 0. -1.
        1   -1    0    0  501    0  0.00000000000E+00  0.00000000000E+00 -0.20120046568E+04  0.20120046568E+04  0.50400001928E-02 0.  1.
    10030    2    1    2    0    0  0.00000000000E+00  0.00000000000E+00 -0.11689893408E+04  0.28550199727E+04  0.26047270424E+04 0.  0.
        2    1    3    3  502    0 -0.31309894936E+03 -0.11501848145E+04 -0.11594934863E+04  0.16629435361E+04  0.25500000920E-02 0. -1.
       -2    1    3    3    0  502  0.31309894936E+03  0.11501848145E+04 -0.94958545814E+01  0.11920764366E+04  0.25500000920E-02 0.  1.
</event>
<event>
 5   0  0.7138294E-06  0.2599514E+04  0.7818609E-02  0.8368366E-01
       -1   -1    0    0    0  501  0.00000000000E+00  0.00000000000E+00  0.99163168655E+03  0.99163168656E+03  0.50400001928E-02 0.  1.
        1   -1    0    0  501    0  0.00000000000E+00  0.00000000000E+00 -0.17036250899E+04  0.17036250899E+04  0.50400001928E-02 0. -1.
    10030    2    1    2    0    0  0.00000000000E+00  0.00000000000E+00 -0.71199340337E+03  0.26952567765E+04  0.25995142786E+04 0.  0.
        2    1    3    3  502    0 -0.31723768818E+02  0.47712664359E+03  0.89711647252E+03  0.10165993295E+04  0.25500000920E-02 0.  1.
       -2    1    3    3    0  502  0.31723768818E+02 -0.47712664359E+03 -0.16091098759E+04  0.16786574470E+04  0.25500000920E-02 0. -1.
</event>
<event>
 5   0  0.1869956E-05  0.2599976E+04  0.7818609E-02  0.8368209E-01
        2   -1    0    0  501    0  0.00000000000E+00  0.00000000000E+00  0.21415732455E+04  0.21415732455E+04  0.25500000920E-02 0.  1.
       -2   -1    0    0    0  501  0.00000000000E+00  0.00000000000E+00 -0.78912468536E+03  0.78912468536E+03  0.25500000920E-02 0. -1.
    10030    2    1    2    0    0  0.00000000000E+00  0.00000000000E+00  0.13524485601E+04  0.29306979308E+04  0.25999756257E+04 0.  0.
        5    1    3    3  502    0  0.33048443595E+02 -0.11720398844E+04  0.13090421262E+04  0.17573796028E+04  0.46999998093E+01 0.  1.
       -5    1    3    3    0  502 -0.33048443595E+02  0.11720398844E+04  0.43406433913E+02  0.11733183280E+04  0.46999998093E+01 0. -1.
</event>
<event>
 5   0  0.6984287E-06  0.2626433E+04  0.7818609E-02  0.8359278E-01
        1   -1    0    0  501    0  0.00000000000E+00  0.00000000000E+00  0.19520617789E+04  0.19520617789E+04  0.50400001928E-02 0.  1.
       -1   -1    0    0    0  501  0.00000000000E+00  0.00000000000E+00 -0.88344382454E+03  0.88344382455E+03  0.50400001928E-02 0. -1.
    10030    2    1    2    0    0  0.00000000000E+00  0.00000000000E+00  0.10686179544E+04  0.28355056035E+04  0.26264325034E+04 0.  0.
        3    1    3    3  502    0  0.31708528353E+03 -0.10377848143E+04 -0.26415723901E+03  0.11168345692E+04  0.10100000352E+00 0. -1.
       -3    1    3    3    0  502 -0.31708528353E+03  0.10377848143E+04  0.13327751934E+04  0.17186710343E+04  0.10100000352E+00 0.  1.
</event>
<event>
 5   0  0.1869956E-05  0.2601183E+04  0.7818609E-02  0.8367799E-01
        2   -1    0    0  501    0  0.00000000000E+00  0.00000000000E+00  0.11992435570E+04  0.11992435570E+04  0.25500000920E-02 0.  1.
       -2   -1    0    0    0  501  0.00000000000E+00  0.00000000000E+00 -0.14105044987E+04  0.14105044987E+04  0.25500000920E-02 0. -1.
    10030    2    1    2    0    0  0.00000000000E+00  0.00000000000E+00 -0.21126094167E+03  0.26097480556E+04  0.26011831401E+04 0.  0.
        5    1    3    3  502    0 -0.11468891780E+04  0.46066986341E+03  0.30060376236E+03  0.12719890808E+04  0.46999998093E+01 0.  1.
       -5    1    3    3    0  502  0.11468891780E+04 -0.46066986341E+03 -0.51186470402E+03  0.13377589749E+04  0.46999998093E+01 0. -1.
</event>
<event>
 5   0  0.6984287E-06  0.2621649E+04  0.7818609E-02  0.8360884E-01
       -1   -1    0    0    0  501  0.00000000000E+00  0.00000000000E+00  0.13008039854E+04  0.13008039854E+04  0.50400001928E-02 0.  1.
        1   -1    0    0  501    0  0.00000000000E+00  0.00000000000E+00 -0.13209226345E+04  0.13209226345E+04  0.50400001928E-02 0. -1.
    10030    2    1    2    0    0  0.00000000000E+00  0.00000000000E+00 -0.20118649103E+02  0.26217266199E+04  0.26216494253E+04 0.  0.
        3    1    3    3  502    0  0.77208857681E+02 -0.45713850243E+03 -0.12361968092E+04  0.13202724641E+04  0.10100000352E+00 0. -1.
       -3    1    3    3    0  502 -0.77208857681E+02  0.45713850243E+03  0.12160781601E+04  0.13014541558E+04  0.10100000352E+00 0.  1.
</event>
<event>
 5   0  0.1677971E-05  0.2597255E+04  0.7818609E-02  0.8369134E-01
       -2   -1    0    0    0  501  0.00000000000E+00  0.00000000000E+00  0.79451014986E+03  0.79451014986E+03  0.25500000920E-02 0. -1.
        2   -1    0    0  501    0  0.00000000000E+00  0.00000000000E+00 -0.21226069690E+04  0.21226069690E+04  0.25500000920E-02 0.  1.
    10030    2    1    2    0    0  0.00000000000E+00  0.00000000000E+00 -0.13280968192E+04  0.29171171189E+04  0.25972545359E+04 0.  0.
        4    1    3    3  502    0 -0.28675590912E+03  0.11388887327E+04 -0.41599407508E+02  0.11751717409E+04  0.12699999809E+01 0. -1.
       -4    1    3    3    0  502  0.28675590912E+03 -0.11388887327E+04 -0.12864974117E+04  0.17419453780E+04  0.12699999809E+01 0.  1.
</event>
<event>
 5   0  0.6918420E-06  0.2604256E+04  0.7818609E-02  0.8366757E-01
       -1   -1    0    0    0  501  0.00000000000E+00  0.00000000000E+00  0.23218163053E+04  0.23218163053E+04  0.50400001928E-02 0. -1.
        1   -1    0    0  501    0  0.00000000000E+00  0.00000000000E+00 -0.73026354610E+03  0.73026354612E+03  0.50400001928E-02 0.  1.
    10030    2    1    2    0    0  0.00000000000E+00  0.00000000000E+00  0.15915527592E+04  0.30520798514E+04  0.26042563687E+04 0.  0.
        4    1    3    3  502    0 -0.78218999690E+03  0.52582790308E+03 -0.25717451845E+03  0.97696290653E+03  0.12699999809E+01 0.  1.
       -4    1    3    3    0  502  0.78218999690E+03 -0.52582790308E+03  0.18487272776E+04  0.20751169449E+04  0.12699999809E+01 0. -1.
</event>
<event>
 5   0  0.1677971E-05  0.2584309E+04  0.7818609E-02  0.8373551E-01
       -2   -1    0    0    0  501  0.00000000000E+00  0.00000000000E+00  0.74969434212E+03  0.74969434213E+03  0.25500000920E-02 0. -1.
        2   -1    0    0  501    0  0.00000000000E+00  0.00000000000E+00 -0.22271253157E+04  0.22271253157E+04  0.25500000920E-02 0.  1.
    10030    2    1    2    0    0  0.00000000000E+00  0.00000000000E+00 -0.14774309736E+04  0.29768196579E+04  0.25843089973E+04 0.  0.
        4    1    3    3  502    0 -0.23800764376E+02 -0.10665181379E+04  0.10115931083E+03  0.10715699855E+04  0.12699999809E+01 0. -1.
       -4    1    3    3    0  502  0.23800764376E+02  0.10665181379E+04 -0.15785902844E+04  0.19052496723E+04  0.12699999809E+01 0.  1.
</event>
<event>
 5   0  0.1681731E-05  0.2626957E+04  0.7818609E-02  0.8359102E-01
       -2   -1    0    0    0  501  0.00000000000E+00  0.00000000000E+00  0.10965664111E+04  0.10965664111E+04  0.25500000920E-02 0.  1.
        2   -1    0    0  501    0  0.00000000000E+00  0.00000000000E+00 -0.15732974863E+04  0.15732974863E+04  0.25500000920E-02 0. -1.
    10030    2    1    2    0    0  0.00000000000E+00  0.00000000000E+00 -0.47673107518E+03  0.26698638974E+04  0.26269565495E+04 0.  0.
        2    1    3    3  502    0 -0.12616623640E+04 -0.32362652006E+03 -0.41054074731E+03  0.13656755656E+04  0.25500000920E-02 0. -1.
       -2    1    3    3    0  502  0.12616623640E+04  0.32362652006E+03 -0.66190327872E+02  0.13041883318E+04  0.25500000920E-02 0.  1.
</event>
<event>
 5   0  0.6993678E-06  0.2592959E+04  0.7818609E-02  0.8370597E-01
        1   -1    0    0  501    0  0.00000000000E+00  0.00000000000E+00  0.10138953304E+04  0.10138953304E+04  0.50400001928E-02 0.  1.
       -1   -1    0    0    0  501  0.00000000000E+00  0.00000000000E+00 -0.16578231171E+04  0.16578231171E+04  0.50400001928E-02 0. -1.
    10030    2    1    2    0    0  0.00000000000E+00  0.00000000000E+00 -0.64392778674E+03  0.26717184475E+04  0.25929590178E+04 0.  0.
        1    1    3    3  502    0  0.24300839442E+03  0.10250538900E+04 -0.11006096521E+04  0.15235255703E+04  0.50400001928E-02 0. -1.
       -1    1    3    3    0  502 -0.24300839442E+03 -0.10250538900E+04  0.45668186531E+03  0.11481928772E+04  0.50400001928E-02 0.  1.
</event>
<event>
 5   0  0.5840500E-06  0.2578453E+04  0.7818609E-02  0.8375557E-01
        3   -1    0    0  501    0  0.00000000000E+00  0.00000000000E+00  0.11674343388E+04  0.11674343432E+04  0.10100000352E+00 0.  1.
       -3   -1    0    0    0  501  0.00000000000E+00  0.00000000000E+00 -0.14237251083E+04  0.14237251119E+04  0.10100000352E+00 0. -1.
    10030    2    1    2    0    0  0.00000000000E+00  0.00000000000E+00 -0.25629076946E+03  0.25911594551E+04  0.25784534829E+04 0.  0.
        3    1    3    3  502    0  0.47206214672E+03  0.11973640113E+04 -0.20322858487E+03  0.13030061833E+04  0.10100000352E+00 0. -1.
       -3    1    3    3    0  502 -0.47206214672E+03 -0.11973640113E+04 -0.53062184592E+02  0.12881532718E+04  0.10100000352E+00 0.  1.
</event>
<event>
 5   0  0.6993678E-06  0.2635890E+04  0.7818609E-02  0.8356111E-01
        1   -1    0    0  501    0  0.00000000000E+00  0.00000000000E+00  0.21266337630E+04  0.21266337630E+04  0.50400001928E-02 0.  1.
       -1   -1    0    0    0  501  0.00000000000E+00  0.00000000000E+00 -0.81677419536E+03  0.81677419537E+03  0.50400001928E-02 0. -1.
    10030    2    1    2    0    0  0.00000000000E+00  0.00000000000E+00  0.13098595677E+04  0.29434079584E+04  0.26358904231E+04 0.  0.
        1    1    3    3  502    0  0.99040517645E+02  0.13019205456E+04  0.45463394828E+03  0.13825694045E+04  0.50400001928E-02 0.  1.
       -1    1    3    3    0  502 -0.99040517645E+02 -0.13019205456E+04  0.85522561941E+03  0.15608385539E+04  0.50400001928E-02 0. -1.
</event>
<event>
 5   0  0.1869956E-05  0.2585522E+04  0.7818609E-02  0.8373136E-01
       -2   -1    0    0    0  501  0.00000000000E+00  0.00000000000E+00  0.16750447185E+04  0.16750447185E+04  0.25500000920E-02 0. -1.
        2   -1    0    0  501    0  0.00000000000E+00  0.00000000000E+00 -0.99772309827E+03  0.99772309828E+03  0.25500000920E-02 0.  1.
    10030    2    1    2    0    0  0.00000000000E+00  0.00000000000E+00  0.67732162025E+03  0.26727678168E+04  0.25855218478E+04 0.  0.
        5    1    3    3  502    0 -0.52144466789E+03 -0.44258361286E+03  0.14726850589E+04  0.16237635815E+04  0.46999998093E+01 0. -1.
       -5    1    3    3    0  502  0.52144466789E+03  0.44258361286E+03 -0.79536343865E+03  0.10490042353E+04  0.46999998093E+01 0.  1.
</event>
<event>
 5   0  0.1720129E-05  0.2568698E+04  0.7818609E-02  0.8378912E-01
        2   -1    0    0  501    0  0.00000000000E+00  0.00000000000E+00  0.12789115714E+04  0.12789115714E+04  0.25500000920E-02 0.  1.
       -2   -1    0    0    0  501  0.00000000000E+00  0.00000000000E+00 -0.12898094286E+04  0.12898094286E+04  0.25500000920E-02 0. -1.
    10030    2    1    2    0    0  0.00000000000E+00  0.00000000000E+00 -0.10897857218E+02  0.25687210000E+04  0.25686978827E+04 0.  0.
        3    1    3    3  502    0  0.10461640406E+04 -0.44843871402E+03 -0.60042967158E+03  0.12868847193E+04  0.10100000352E+00 0. -1.
       -3    1    3    3    0  502 -0.10461640406E+04  0.44843871402E+03  0.58953181436E+03  0.12818362807E+04  0.10100000352E+00 0.  1.
</event>
<event>
 5   0  0.1720129E-05  0.2763008E+04  0.7818609E-02  0.8314846E-01
       -2   -1    0    0    0  501  0.00000000000E+00  0.00000000000E+00  0.85686239177E+03  0.85686239177E+03  0.25500000920E-02 0.  1.
        2   -1    0    0  501    0  0.00000000000E+00  0.00000000000E+00 -0.22273736765E+04  0.22273736765E+04  0.25500000920E-02 0. -1.
    10030    2    1    2    0    0  0.00000000000E+00  0.00000000000E+00 -0.13705112848E+04  0.30842360683E+04  0.27630075902E+04 0.  0.
        3    1    3    3  502    0  0.13038434653E+04  0.37841564082E+03 -0.39990631487E+03  0.14153201935E+04  0.10100000352E+00 0.  1.
       -3    1    3    3    0  502 -0.13038434653E+04 -0.37841564082E+03 -0.97060496989E+03  0.16689158748E+04  0.10100000352E+00 0. -1.
</event>
<event>
 5   0  0.7138294E-06  0.2605445E+04  0.7818609E-02  0.8366354E-01
       -1   -1    0    0    0  501  0.00000000000E+00  0.00000000000E+00  0.76457306344E+03  0.76457306346E+03  0.50400001928E-02 0. -1.
        1   -1    0    0  501    0  0.00000000000E+00  0.00000000000E+00 -0.22196518812E+04  0.22196518812E+04  0.50400001928E-02 0.  1.
    10030    2    1    2    0    0  0.00000000000E+00  0.00000000000E+00 -0.14550788177E+04  0.29842249447E+04  0.26054450972E+04 0.  0.
        2    1    3    3  502    0 -0.80367268450E+03 -0.13267591209E+03 -0.18919991680E+04  0.20598916314E+04  0.25500000920E-02 0.  1.
       -2    1    3    3    0  502  0.80367268450E+03  0.13267591209E+03  0.43692035027E+03  0.92433331323E+03  0.25500000920E-02 0. -1.
</event>
<event>
 5   0  0.1677971E-05  0.2641965E+04  0.7818609E-02  0.8354085E-01
       -2   -1    0    0    0  501  0.00000000000E+00  0.00000000000E+00  0.26577804066E+04  0.26577804066E+04  0.25500000920E-02 0.  1.
        2   -1    0    0  501    0  0.00000000000E+00  0.00000000000E+00 -0.65656115080E+03  0.65656115081E+03  0.25500000920E-02 0. -1.
    10030    2    1    2    0    0  0.00000000000E+00  0.00000000000E+00  0.20012192558E+04  0.33143415574E+04  0.26419654520E+04 0.  0.
        4    1    3    3  502    0  0.74692511076E+03 -0.80076947978E+03  0.19274665555E+04  0.22168125352E+04  0.12699999809E+01 0.  1.
       -4    1    3    3    0  502 -0.74692511076E+03  0.80076947978E+03  0.73752700287E+02  0.10975290222E+04  0.12699999809E+01 0. -1.
</event>
<event>
 5   0  0.6993678E-06  0.2604806E+04  0.7818609E-02  0.8366571E-01
       -1   -1    0    0    0  501  0.00000000000E+00  0.00000000000E+00  0.11762503624E+04  0.11762503624E+04  0.50400001928E-02 0.  1.
        1   -1    0    0  501    0  0.00000000000E+00  0.00000000000E+00 -0.14420849982E+04  0.14420849982E+04  0.50400001928E-02 0. -1.
    10030    2    1    2    0    0  0.00000000000E+00  0.00000000000E+00 -0.26583463575E+03  0.26183353606E+04  0.26048055603E+04 0.  0.
        1    1    3    3  502    0  0.91232927292E+03 -0.44433820711E+03 -0.95353499569E+03  0.13924834407E+04  0.50400001928E-02 0. -1.
       -1    1    3    3    0  502 -0.91232927292E+03  0.44433820711E+03  0.68770035994E+03  0.12258519199E+04  0.50400001928E-02 0.  1.
</event>
<event>
 5   0  0.1720129E-05  0.2581632E+04  0.7818609E-02  0.8374467E-01
       -2   -1    0    0    0  501  0.00000000000E+00  0.00000000000E+00  0.12071431907E+04  0.12071431907E+04  0.25500000920E-02 0. -1.
        2   -1    0    0  501    0  0.00000000000E+00  0.00000000000E+00 -0.13802887543E+04  0.13802887543E+04  0.25500000920E-02 0.  1.
    10030    2    1    2    0    0  0.00000000000E+00  0.00000000000E+00 -0.17314556355E+03  0.25874319450E+04  0.25816321744E+04 0.  0.
        3    1    3    3  502    0 -0.89021659215E+03 -0.21547871175E+03 -0.99817070711E+03  0.13547182094E+04  0.10100000352E+00 0.  1.
       -3    1    3    3    0  502  0.89021659215E+03  0.21547871175E+03  0.82502514356E+03  0.12327137356E+04  0.10100000352E+00 0. -1.
</event>
<event>
 5   0  0.6993678E-06  0.2631422E+04  0.7818609E-02  0.8357605E-01
        1   -1    0    0  501    0  0.00000000000E+00  0.00000000000E+00  0.79212128118E+03  0.79212128119E+03  0.50400001928E-02 0. -1.
       -1   -1    0    0    0  501  0.00000000000E+00  0.00000000000E+00 -0.21853921859E+04  0.21853921859E+04  0.50400001928E-02 0.  1.
    10030    2    1    2    0    0  0.00000000000E+00  0.00000000000E+00 -0.13932709047E+04  0.29775134671E+04  0.26314221692E+04 0.  0.
        1    1    3    3  502    0  0.83962909552E+03 -0.10083988444E+04 -0.58780668365E+03  0.14378323771E+04  0.50400001928E-02 0.  1.
       -1    1    3    3    0  502 -0.83962909552E+03  0.10083988444E+04 -0.80546422106E+03  0.15396810900E+04  0.50400001928E-02 0. -1.
</event>
<event>
 5   0  0.1869956E-05  0.2596884E+04  0.7818609E-02  0.8369260E-01
       -2   -1    0    0    0  501  0.00000000000E+00  0.00000000000E+00  0.95940483900E+03  0.95940483900E+03  0.25500000920E-02 0.  1.
        2   -1    0    0  501    0  0.00000000000E+00  0.00000000000E+00 -0.17572890583E+04  0.17572890583E+04  0.25500000920E-02 0. -1.
    10030    2    1    2    0    0  0.00000000000E+00  0.00000000000E+00 -0.79788421930E+03  0.27166938973E+04  0.25968839990E+04 0.  0.
        5    1    3    3  502    0  0.12579201647E+04  0.29669867238E+03 -0.52933738664E+03  0.13966436202E+04  0.46999998093E+01 0.  1.
       -5    1    3    3    0  502 -0.12579201647E+04 -0.29669867238E+03 -0.26854683266E+03  0.13200502771E+04  0.46999998093E+01 0. -1.
</event>
<event>
 5   0  0.6918420E-06  0.2596268E+04  0.7818609E-02  0.8369470E-01
        1   -1    0    0  501    0  0.00000000000E+00  0.00000000000E+00  0.14180590071E+04  0.14180590071E+04  0.50400001928E-02 0.  1.
       -1   -1    0    0    0  501  0.00000000000E+00  0.00000000000E+00 -0.11883512869E+04  0.11883512869E+04  0.50400001928E-02 0. -1.
    10030    2    1    2    0    0  0.00000000000E+00  0.00000000000E+00  0.22970772024E+03  0.26064102940E+04  0.25962682805E+04 0.  0.
        4    1    3    3  502    0  0.26882123921E+03  0.12182686919E+04 -0.24530539834E+03  0.12714636509E+04  0.12699999809E+01 0. -1.
       -4    1    3    3    0  502 -0.26882123921E+03 -0.12182686919E+04  0.47501311857E+03  0.13349466431E+04  0.12699999809E+01 0.  1.
</event>
<event>
 5   0  0.1681731E-05  0.2587891E+04  0.7818609E-02  0.8372326E-01
       -2   -1    0    0    0  501  0.00000000000E+00  0.00000000000E+00  0.17707093156E+04  0.17707093156E+04  0.25500000920E-02 0.  1.
        2   -1    0    0  501    0  0.00000000000E+00  0.00000000000E+00 -0.94555028942E+03  0.94555028943E+03  0.25500000920E-02 0. -1.
    10030    2    1    2    0    0  0.00000000000E+00  0.00000000000E+00  0.82515902614E+03  0.27162596050E+04  0.25878908059E+04 0.  0.
        2    1    3    3  502    0  0.74148742916E+03  0.98220593615E+03  0.83210937914E+03  0.14855766986E+04  0.25500000920E-02 0.  1.
       -2    1    3    3    0  502 -0.74148742916E+03 -0.98220593615E+03 -0.69503530019E+01  0.12306829064E+04  0.25500000920E-02 0. -1.
</event>
<event>
 5   0  0.1720129E-05  0.2611810E+04  0.7818609E-02  0.8364201E-01
        2   -1    0    0  501    0  0.00000000000E+00  0.00000000000E+00  0.23151145771E+04  0.23151145771E+04  0.25500000920E-02 0.  1.
       -2   -1    0    0    0  501  0.00000000000E+00  0.00000000000E+00 -0.73663209442E+03  0.73663209442E+03  0.25500000920E-02 0. -1.
    10030    2    1    2    0    0  0.00000000000E+00  0.00000000000E+00  0.15784824827E+04  0.30517466716E+04  0.26118098704E+04 0.  0.
        3    1    3    3  502    0 -0.21572719345E+03 -0.84324323155E+03 -0.34828927227E+03  0.93749815836E+03  0.10100000352E+00 0. -1.
       -3    1    3    3    0  502  0.21572719345E+03  0.84324323155E+03  0.19267717550E+04  0.21142485132E+04  0.10100000352E+00 0.  1.
</event>
<event>
 5   0  0.6706225E-06  0.2598521E+04  0.7818609E-02  0.8368704E-01
        1   -1    0    0  501    0  0.00000000000E+00  0.00000000000E+00  0.21981353106E+04  0.21981353106E+04  0.50400001928E-02 0. -1.
       -1   -1    0    0    0  501  0.00000000000E+00  0.00000000000E+00 -0.76795881012E+03  0.76795881014E+03  0.50400001928E-02 0.  1.
    10030    2    1    2    0    0  0.00000000000E+00  0.00000000000E+00  0.14301765005E+04  0.29660941208E+04  0.25985206389E+04 0.  0.
        5    1    3    3  502    0  0.46645415293E+03  0.11864102394E+04  0.10013785993E+04  0.16210891160E+04  0.46999998093E+01 0. -1.
       -5    1    3    3    0  502 -0.46645415293E+03 -0.11864102394E+04  0.42879790123E+03  0.13450050048E+04  0.46999998093E+01 0.  1.
</event>
<event>
 5   0  0.5840500E-06  0.2489546E+04  0.7818609E-02  0.8406719E-01
       -4   -1    0    0    0  501  0.00000000000E+00  0.00000000000E+00  0.77612146328E+03  0.77612250235E+03  0.12699999809E+01 0.  1.
        4   -1    0    0  501    0  0.00000000000E+00  0.00000000000E+00 -0.19964113554E+04  0.19964117593E+04  0.12699999809E+01 0. -1.
    10030    2    1    2    0    0  0.00000000000E+00  0.00000000000E+00 -0.12202898921E+04  0.27725342617E+04  0.24895459047E+04 0.  0.
        5    1    3    3  502    0  0.13158964453E+01 -0.11681512189E+04 -0.13132015727E+03  0.11755194918E+04  0.46999998093E+01 0.  1.
       -5    1    3    3    0  502 -0.13158964453E+01  0.11681512189E+04 -0.10889697348E+04  0.15970147699E+04  0.46999998093E+01 0. -1.
</event>
<event>
 5   0  0.1677971E-05  0.2542065E+04  0.7818609E-02  0.8388151E-01
        2   -1    0    0  501    0  0.00000000000E+00  0.00000000000E+00  0.22291600862E+04  0.22291600862E+04  0.25500000920E-02 0. -1.
       -2   -1    0    0    0  501  0.00000000000E+00  0.00000000000E+00 -0.72472315559E+03  0.72472315560E+03  0.25500000920E-02 0.  1.
    10030    2    1    2    0    0  0.00000000000E+00  0.00000000000E+00  0.15044369306E+04  0.29538832418E+04  0.25420652486E+04 0.  0.
        4    1    3    3  502    0 -0.87531115760E+03  0.55206523902E+00  0.18231225827E+04  0.20223618598E+04  0.12699999809E+01 0. -1.
       -4    1    3    3    0  502  0.87531115760E+03 -0.55206523902E+00 -0.31868565210E+03  0.93152138202E+03  0.12699999809E+01 0.  1.
</event>
<event>
 5   0  0.1681731E-05  0.2610847E+04  0.7818609E-02  0.8364526E-01
        2   -1    0    0  501    0  0.00000000000E+00  0.00000000000E+00  0.21043057233E+04  0.21043057233E+04  0.25500000920E-02 0.  1.
       -2   -1    0    0    0  501  0.00000000000E+00  0.00000000000E+00 -0.80983043980E+03  0.80983043981E+03  0.25500000920E-02 0. -1.
    10030    2    1    2    0    0  0.00000000000E+00  0.00000000000E+00  0.12944752835E+04  0.29141361631E+04  0.26108472413E+04 0.  0.
        2    1    3    3  502    0 -0.31844454826E+03  0.11990667566E+04  0.11005748897E+04  0.16584429761E+04  0.25500000920E-02 0.  1.
       -2    1    3    3    0  502  0.31844454826E+03 -0.11990667566E+04  0.19390039379E+03  0.12556931870E+04  0.25500000920E-02 0. -1.
</event>
<event>
 5   0  0.7138294E-06  0.2379425E+04  0.7818609E-02  0.8447247E-01
        1   -1    0    0  501    0  0.00000000000E+00  0.00000000000E+00  0.11070146614E+04  0.11070146614E+04  0.50400001928E-02 0.  1.
       -1   -1    0    0    0  501  0.00000000000E+00  0.00000000000E+00 -0.12785885266E+04  0.12785885266E+04  0.50400001928E-02 0. -1.
    10030    2    1    2    0    0  0.00000000000E+00  0.00000000000E+00 -0.17157386519E+03  0.23856031881E+04  0.23794253465E+04 0.  0.
        2    1    3    3  502    0 -0.75820677532E+03  0.90323990381E+03  0.71771992518E+02  0.11814698713E+04  0.25500000920E-02 0.  1.
       -2    1    3    3    0  502  0.75820677532E+03 -0.90323990381E+03 -0.24334585770E+03  0.12041333167E+04  0.25500000920E-02 0. -1.
</event>
<event>
 5   0  0.1681731E-05  0.2611342E+04  0.7818609E-02  0.8364359E-01
       -2   -1    0    0    0  501  0.00000000000E+00  0.00000000000E+00  0.86952752007E+03  0.86952752008E+03  0.25500000920E-02 0.  1.
        2   -1    0    0  501    0  0.00000000000E+00  0.00000000000E+00 -0.19605778719E+04  0.19605778719E+04  0.25500000920E-02 0. -1.
    10030    2    1    2    0    0  0.00000000000E+00  0.00000000000E+00 -0.10910503518E+04  0.28301053919E+04  0.26113417355E+04 0.  0.
        2    1    3    3  502    0  0.93044157486E+00 -0.12799743853E+04 -0.26616957842E+03  0.13073566986E+04  0.25500000920E-02 0.  1.
       -2    1    3    3    0  502 -0.93044157486E+00  0.12799743853E+04 -0.82488077337E+03  0.15227486934E+04  0.25500000920E-02 0. -1.
</event>
<event>
 5   0  0.1869956E-05  0.2593763E+04  0.7818609E-02  0.8370323E-01
        2   -1    0    0  501    0  0.00000000000E+00  0.00000000000E+00  0.18214235165E+04  0.18214235165E+04  0.25500000920E-02 0.  1.
       -2   -1    0    0    0  501  0.00000000000E+00  0.00000000000E+00 -0.92339938138E+03  0.92339938139E+03  0.25500000920E-02 0. -1.
    10030    2    1    2    0    0  0.00000000000E+00  0.00000000000E+00  0.89802413515E+03  0.27448228979E+04  0.25937627867E+04 0.  0.
        5    1    3    3  502    0  0.84730478528E+03 -0.68545594135E+03  0.11928755912E+04  0.16157813939E+04  0.46999998093E+01 0.  1.
       -5    1    3    3    0  502 -0.84730478528E+03  0.68545594135E+03 -0.29485145607E+03  0.11290415040E+04  0.46999998093E+01 0. -1.
</event>
<event>
 5   0  0.1677971E-05  0.2578221E+04  0.7818609E-02  0.8375637E-01
       -2   -1    0    0    0  501  0.00000000000E+00  0.00000000000E+00  0.12393228251E+04  0.12393228251E+04  0.25500000920E-02 0.  1.
        2   -1    0    0  501    0  0.00000000000E+00  0.00000000000E+00 -0.13408982550E+04  0.13408982550E+04  0.25500000920E-02 0. -1.
    10030    2    1    2    0    0  0.00000000000E+00  0.00000000000E+00 -0.10157542989E+03  0.25802210800E+04  0.25782209475E+04 0.  0.
        4    1    3    3  502    0  0.11889648420E+04 -0.48177477577E+03  0.76038142241E+02  0.12851177931E+04  0.12699999809E+01 0.  1.
       -4    1    3    3    0  502 -0.11889648420E+04  0.48177477577E+03 -0.17761357213E+03  0.12951032870E+04  0.12699999809E+01 0. -1.
</event>
<event>
 5   0  0.1681731E-05  0.2268474E+04  0.7818609E-02  0.8490456E-01
       -2   -1    0    0    0  501  0.00000000000E+00  0.00000000000E+00  0.87320197902E+03  0.87320197902E+03  0.25500000920E-02 0.  1.
        2   -1    0    0  501    0  0.00000000000E+00  0.00000000000E+00 -0.14733055259E+04  0.14733055259E+04  0.25500000920E-02 0. -1.
    10030    2    1    2    0    0  0.00000000000E+00  0.00000000000E+00 -0.60010354684E+03  0.23465075049E+04  0.22684737608E+04 0.  0.
        2    1    3    3  502    0  0.34268441613E+02  0.14771871572E+03 -0.14627727123E+04  0.14706118295E+04  0.25500000920E-02 0. -1.
       -2    1    3    3    0  502 -0.34268441613E+02 -0.14771871572E+03  0.86266916550E+03  0.87589567539E+03  0.25500000920E-02 0.  1.
</event>
<event>
 5   0  0.1869956E-05  0.2577844E+04  0.7818609E-02  0.8375766E-01
       -2   -1    0    0    0  501  0.00000000000E+00  0.00000000000E+00  0.98185912953E+03  0.98185912953E+03  0.25500000920E-02 0. -1.
        2   -1    0    0  501    0  0.00000000000E+00  0.00000000000E+00 -0.16920141089E+04  0.16920141089E+04  0.25500000920E-02 0.  1.
    10030    2    1    2    0    0  0.00000000000E+00  0.00000000000E+00 -0.71015497933E+03  0.26738732384E+04  0.25778436726E+04 0.  0.
        5    1    3    3  502    0  0.91178640041E+03  0.63311080701E+03  0.32439271231E+03  0.11564758777E+04  0.46999998093E+01 0. -1.
       -5    1    3    3    0  502 -0.91178640041E+03 -0.63311080701E+03 -0.10345476916E+04  0.15173973607E+04  0.46999998093E+01 0.  1.
</event>
<event>
 5   0  0.6993678E-06  0.2499329E+04  0.7818609E-02  0.8403224E-01
       -1   -1    0    0    0  501  0.00000000000E+00  0.00000000000E+00  0.10805372128E+04  0.10805372128E+04  0.50400001928E-02 0.  1.
        1   -1    0    0  501    0  0.00000000000E+00  0.00000000000E+00 -0.14452642228E+04  0.14452642228E+04  0.50400001928E-02 0. -1.
    10030    2    1    2    0    0  0.00000000000E+00  0.00000000000E+00 -0.36472700998E+03  0.25258014357E+04  0.24993293302E+04 0.  0.
        1    1    3    3  502    0 -0.10210723891E+04 -0.71767520212E+03 -0.24640070304E+03  0.12721477217E+04  0.50400001928E-02 0. -1.
       -1    1    3    3    0  502  0.10210723891E+04  0.71767520212E+03 -0.11832630694E+03  0.12536537139E+04  0.50400001928E-02 0.  1.
</event>
<event>
 5   0  0.1720129E-05  0.2620039E+04  0.7818609E-02  0.8361426E-01
        2   -1    0    0  501    0  0.00000000000E+00  0.00000000000E+00  0.23858327451E+04  0.23858327451E+04  0.25500000920E-02 0. -1.
       -2   -1    0    0    0  501  0.00000000000E+00  0.00000000000E+00 -0.71930883446E+03  0.71930883447E+03  0.25500000920E-02 0.  1.
    10030    2    1    2    0    0  0.00000000000E+00  0.00000000000E+00  0.16665239107E+04  0.31051415796E+04  0.26200386036E+04 0.  0.
        3    1    3    3  502    0  0.17445740160E+03 -0.56251114228E+03 -0.55356555517E+03  0.80826295488E+03  0.10100000352E+00 0.  1.
       -3    1    3    3    0  502 -0.17445740160E+03  0.56251114228E+03  0.22200894659E+04  0.22968786247E+04  0.10100000352E+00 0. -1.
</event>
<event>
 5   0  0.6993678E-06  0.2604376E+04  0.7818609E-02  0.8366716E-01
       -1   -1    0    0    0  501  0.00000000000E+00  0.00000000000E+00  0.26449688881E+04  0.26449688881E+04  0.50400001928E-02 0.  1.
        1   -1    0    0  501    0  0.00000000000E+00  0.00000000000E+00 -0.64110145856E+03  0.64110145858E+03  0.50400001928E-02 0. -1.
    10030    2    1    2    0    0  0.00000000000E+00  0.00000000000E+00  0.20038674296E+04  0.32860703467E+04  0.26043758654E+04 0.  0.
        1    1    3    3  502    0 -0.59651844380E+02  0.13006390302E+04  0.10293802554E+04  0.16597722553E+04  0.50400001928E-02 0. -1.
       -1    1    3    3    0  502  0.59651844380E+02 -0.13006390302E+04  0.97448717417E+03  0.16262980914E+04  0.50400001928E-02 0.  1.
</event>
<event>
 5   0  0.1681731E-05  0.2595014E+04  0.7818609E-02  0.8369897E-01
        2   -1    0    0  501    0  0.00000000000E+00  0.00000000000E+00  0.83720848796E+03  0.83720848796E+03  0.25500000920E-02 0.  1.
       -2   -1    0    0    0  501  0.00000000000E+00  0.00000000000E+00 -0.20108789811E+04  0.20108789811E+04  0.25500000920E-02 0. -1.
    10030    2    1    2    0    0  0.00000000000E+00  0.00000000000E+00 -0.11736704931E+04  0.28480874690E+04  0.25950144132E+04 0.  0.
        2    1    3    3  502    0  0.98173093494E+03  0.78822132167E+03 -0.24249200323E+03  0.12821430701E+04  0.25500000920E-02 0.  1.
       -2    1    3    3    0  502 -0.98173093494E+03 -0.78822132167E+03 -0.93117848989E+03  0.15659443989E+04  0.25500000920E-02 0. -1.
</event>
<event>
 5   0  0.1869956E-05  0.2587314E+04  0.7818609E-02  0.8372523E-01
       -2   -1    0    0    0  501  0.00000000000E+00  0.00000000000E+00  0.11658651960E+04  0.11658651960E+04  0.25500000920E-02 0.  1.
        2   -1    0    0  501    0  0.00000000000E+00  0.00000000000E+00 -0.14354563934E+04  0.14354563934E+04  0.25500000920E-02 0. -1.
    10030    2    1    2    0    0  0.00000000000E+00  0.00000000000E+00 -0.26959119742E+03  0.26013215894E+04  0.25873141668E+04 0.  0.
        5    1    3    3  502    0  0.71332300319E+03  0.22420012201E+03 -0.11961770698E+04  0.14106583832E+04  0.46999998093E+01 0. -1.
       -5    1    3    3    0  502 -0.71332300319E+03 -0.22420012201E+03  0.92658587243E+03  0.11906632062E+04  0.46999998093E+01 0.  1.
</event>
<event>
 5   0  0.6984287E-06  0.2598259E+04  0.7818609E-02  0.8368793E-01
        1   -1    0    0  501    0  0.00000000000E+00  0.00000000000E+00  0.12819122054E+04  0.12819122054E+04  0.50400001928E-02 0. -1.
       -1   -1    0    0    0  501  0.00000000000E+00  0.00000000000E+00 -0.13165779309E+04  0.13165779309E+04  0.50400001928E-02 0.  1.
    10030    2    1    2    0    0  0.00000000000E+00  0.00000000000E+00 -0.34665725484E+02  0.25984901363E+04  0.25982588931E+04 0.  0.
        3    1    3    3  502    0 -0.12058570013E+04  0.25947699038E+03 -0.42519006607E+03  0.13046861763E+04  0.10100000352E+00 0.  1.
       -3    1    3    3    0  502  0.12058570013E+04 -0.25947699038E+03  0.39052434058E+03  0.12938039600E+04  0.10100000352E+00 0. -1.
</event>
<event>
 5   0  0.6993678E-06  0.2527342E+04  0.7818609E-02  0.8393309E-01
        1   -1    0    0  501    0  0.00000000000E+00  0.00000000000E+00  0.14737816514E+04  0.14737816515E+04  0.50400001928E-02 0. -1.
       -1   -1    0    0    0  501  0.00000000000E+00  0.00000000000E+00 -0.10835148682E+04  0.10835148682E+04  0.50400001928E-02 0.  1.
    10030    2    1    2    0    0  0.00000000000E+00  0.00000000000E+00  0.39026678322E+03  0.25572965197E+04  0.25273419491E+04 0.  0.
        1    1    3    3  502    0  0.93088486215E+03 -0.48061194082E+01 -0.66956794106E+03  0.11466869464E+04  0.50400001928E-02 0.  1.
       -1    1    3    3    0  502 -0.93088486215E+03  0.48061194082E+01  0.10598347243E+04  0.14106095733E+04  0.50400001928E-02 0. -1.
</event>
<event>
 5   0  0.6706225E-06  0.2560998E+04  0.7818609E-02  0.8381571E-01
        1   -1    0    0  501    0  0.00000000000E+00  0.00000000000E+00  0.21666242938E+04  0.21666242939E+04  0.50400001928E-02 0.  1.
       -1   -1    0    0    0  501  0.00000000000E+00  0.00000000000E+00 -0.75678932280E+03  0.75678932281E+03  0.50400001928E-02 0. -1.
    10030    2    1    2    0    0  0.00000000000E+00  0.00000000000E+00  0.14098349710E+04  0.29234136167E+04  0.25609983461E+04 0.  0.
        5    1    3    3  502    0  0.10118509569E+04 -0.12093773937E+03 -0.18016964805E+03  0.10348678601E+04  0.46999998093E+01 0. -1.
       -5    1    3    3    0  502 -0.10118509569E+04  0.12093773937E+03  0.15900046191E+04  0.18885457565E+04  0.46999998093E+01 0.  1.
</event>
<event>
 5   0  0.5840500E-06  0.2589115E+04  0.7818609E-02  0.8371908E-01
       -3   -1    0    0    0  501  0.00000000000E+00  0.00000000000E+00  0.14934730331E+04  0.14934730365E+04  0.10100000352E+00 0.  1.
        3   -1    0    0  501    0  0.00000000000E+00  0.00000000000E+00 -0.11221353042E+04  0.11221353087E+04  0.10100000352E+00 0. -1.
    10030    2    1    2    0    0  0.00000000000E+00  0.00000000000E+00  0.37133772891E+03  0.26156083452E+04  0.25891147728E+04 0.  0.
        4    1    3    3  502    0 -0.80113743846E+01  0.26729253998E+03  0.14652663283E+04  0.14894685326E+04  0.12699999809E+01 0.  1.
       -4    1    3    3    0  502  0.80113743846E+01 -0.26729253998E+03 -0.10939285994E+04  0.11261398126E+04  0.12699999809E+01 0. -1.
</event>
<event>
 5   0  0.6984287E-06  0.2582721E+04  0.7818609E-02  0.8374094E-01
       -1   -1    0    0    0  501  0.00000000000E+00  0.00000000000E+00  0.11354738367E+04  0.11354738367E+04  0.50400001928E-02 0. -1.
        1   -1    0    0  501    0  0.00000000000E+00  0.00000000000E+00 -0.14686484955E+04  0.14686484955E+04  0.50400001928E-02 0.  1.
    10030    2    1    2    0    0  0.00000000000E+00  0.00000000000E+00 -0.33317465874E+03  0.26041223322E+04  0.25827210008E+04 0.  0.
        3    1    3    3  502    0  0.70667330897E+03  0.29214969251E+03 -0.12158221997E+04  0.14363015839E+04  0.10100000352E+00 0.  1.
       -3    1    3    3    0  502 -0.70667330897E+03 -0.29214969251E+03  0.88264754094E+03  0.11678207483E+04  0.10100000352E+00 0. -1.
</event>
<event>
 5   0  0.1869956E-05  0.2542762E+04  0.7818609E-02  0.8387908E-01
       -2   -1    0    0    0  501  0.00000000000E+00  0.00000000000E+00  0.20640461449E+04  0.20640461449E+04  0.25500000920E-02 0. -1.
        2   -1    0    0  501    0  0.00000000000E+00  0.00000000000E+00 -0.78312659776E+03  0.78312659776E+03  0.25500000920E-02 0.  1.
    10030    2    1    2    0    0  0.00000000000E+00  0.00000000000E+00  0.12809195472E+04  0.28471727427E+04  0.25427618332E+04 0.  0.
        5    1    3    3  502    0  0.73500454834E+03  0.10051884663E+04  0.92757880311E+03  0.15527588560E+04  0.46999998093E+01 0. -1.
       -5    1    3    3    0  502 -0.73500454834E+03 -0.10051884663E+04  0.35334074407E+03  0.12944138867E+04  0.46999998093E+01 0.  1.
</event>
<event>
 5   0  0.5840500E-06  0.2610179E+04  0.7818609E-02  0.8364752E-01
        3   -1    0    0  501    0  0.00000000000E+00  0.00000000000E+00  0.12826195954E+04  0.12826195993E+04  0.10100000352E+00 0. -1.
       -3   -1    0    0    0  501  0.00000000000E+00  0.00000000000E+00 -0.13279525997E+04  0.13279526035E+04  0.10100000352E+00 0.  1.
    10030    2    1    2    0    0  0.00000000000E+00  0.00000000000E+00 -0.45333004307E+02  0.26105722029E+04  0.26101785657E+04 0.  0.
        4    1    3    3  502    0 -0.12811416133E+04  0.19701739817E+03 -0.17473131641E+03  0.13079267313E+04  0.12699999809E+01 0.  1.
       -4    1    3    3    0  502  0.12811416133E+04 -0.19701739817E+03  0.12939831211E+03  0.13026454716E+04  0.12699999809E+01 0. -1.
</event>
<event>
 5   0  0.1869956E-05  0.2605099E+04  0.7818609E-02  0.8366471E-01
        2   -1    0    0  501    0  0.00000000000E+00  0.00000000000E+00  0.14683825751E+04  0.14683825751E+04  0.25500000920E-02 0.  1.
       -2   -1    0    0    0  501  0.00000000000E+00  0.00000000000E+00 -0.11554446525E+04  0.11554446525E+04  0.25500000920E-02 0. -1.
    10030    2    1    2    0    0  0.00000000000E+00  0.00000000000E+00  0.31293792260E+03  0.26238272276E+04  0.26050986885E+04 0.  0.
        5    1    3    3  502    0 -0.62612131992E+03 -0.80808418823E+03 -0.65654219867E+03  0.12149476166E+04  0.46999998093E+01 0. -1.
       -5    1    3    3    0  502  0.62612131992E+03  0.80808418823E+03  0.96948012127E+03  0.14088796109E+04  0.46999998093E+01 0.  1.
</event>
<event>
 5   0  0.6993678E-06  0.2592820E+04  0.7818609E-02  0.8370644E-01
       -1   -1    0    0    0  501  0.00000000000E+00  0.00000000000E+00  0.11019634598E+04  0.11019634598E+04  0.50400001928E-02 0.  1.
        1   -1    0    0  501    0  0.00000000000E+00  0.00000000000E+00 -0.15251675211E+04  0.15251675212E+04  0.50400001928E-02 0. -1.
    10030    2    1    2    0    0  0.00000000000E+00  0.00000000000E+00 -0.42320406133E+03  0.26271309810E+04  0.25928199925E+04 0.  0.
        1    1    3    3  502    0 -0.51870300856E+03 -0.87831473003E+03 -0.10223083636E+04  0.14441620291E+04  0.50400001928E-02 0. -1.
       -1    1    3    3    0  502  0.51870300856E+03  0.87831473003E+03  0.59910430225E+03  0.11829689519E+04  0.50400001928E-02 0.  1.
</event>
<event>
 5   0  0.6706225E-06  0.2594087E+04  0.7818609E-02  0.8370213E-01
       -1   -1    0    0    0  501  0.00000000000E+00  0.00000000000E+00  0.85524878885E+03  0.85524878886E+03  0.50400001928E-02 0. -1.
        1   -1    0    0  501    0  0.00000000000E+00  0.00000000000E+00 -0.19670547806E+04  0.19670547806E+04  0.50400001928E-02 0.  1.
    10030    2    1    2    0    0  0.00000000000E+00  0.00000000000E+00 -0.11118059918E+04  0.28223035695E+04  0.25940865203E+04 0.  0.
        5    1    3    3  502    0 -0.49181381299E+02  0.12907861163E+04 -0.42831945283E+03  0.13608920787E+04  0.46999998093E+01 0. -1.
       -5    1    3    3    0  502  0.49181381299E+02 -0.12907861163E+04 -0.68348653892E+03  0.14614114907E+04  0.46999998093E+01 0.  1.
</event>
<event>
 5   0  0.1720129E-05  0.2606356E+04  0.7818609E-02  0.8366045E-01
       -2   -1    0    0    0  501  0.00000000000E+00  0.00000000000E+00  0.19941935240E+04  0.19941935240E+04  0.25500000920E-02 0.  1.
        2   -1    0    0  501    0  0.00000000000E+00  0.00000000000E+00 -0.85160915410E+03  0.85160915411E+03  0.25500000920E-02 0. -1.
    10030    2    1    2    0    0  0.00000000000E+00  0.00000000000E+00  0.11425843699E+04  0.28458026781E+04  0.26063564301E+04 0.  0.
        3    1    3    3  502    0 -0.10364929779E+04 -0.37613435533E+03  0.13297126631E+04  0.17274057205E+04  0.10100000352E+00 0.  1.
       -3    1    3    3    0  502  0.10364929779E+04  0.37613435533E+03 -0.18712829320E+03  0.11183969576E+04  0.10100000352E+00 0. -1.
</event>
<event>
 5   0  0.1869956E-05  0.2314509E+04  0.7818609E-02  0.8472222E-01
        2   -1    0    0  501    0  0.00000000000E+00  0.00000000000E+00  0.16716030497E+04  0.16716030497E+04  0.25500000920E-02 0. -1.
       -2   -1    0    0    0  501  0.00000000000E+00  0.00000000000E+00 -0.80116967817E+03  0.80116967817E+03  0.25500000920E-02 0.  1.
    10030    2    1    2    0    0  0.00000000000E+00  0.00000000000E+00  0.87043337148E+03  0.24727727278E+04  0.23145087404E+04 0.  0.
        5    1    3    3  502    0  0.43616205567E+03 -0.92124736835E+03  0.10206665243E+04  0.14424688199E+04  0.46999998093E+01 0. -1.
       -5    1    3    3    0  502 -0.43616205567E+03  0.92124736835E+03 -0.15023315284E+03  0.10303039079E+04  0.46999998093E+01 0.  1.
</event>
<event>
 5   0  0.5840500E-06  0.2589762E+04  0.7818609E-02  0.8371687E-01
       -3   -1    0    0    0  501  0.00000000000E+00  0.00000000000E+00  0.70216962181E+03  0.70216962907E+03  0.10100000352E+00 0. -1.
        3   -1    0    0  501    0  0.00000000000E+00  0.00000000000E+00 -0.23879093508E+04  0.23879093530E+04  0.10100000352E+00 0.  1.
    10030    2    1    2    0    0  0.00000000000E+00  0.00000000000E+00 -0.16857397290E+04  0.30900789820E+04  0.25897624758E+04 0.  0.
        3    1    3    3  502    0  0.34057262782E+03 -0.98537686948E+03  0.73450518429E+02  0.10451565809E+04  0.10100000352E+00 0. -1.
       -3    1    3    3    0  502 -0.34057262782E+03  0.98537686948E+03 -0.17591902474E+04  0.20449224011E+04  0.10100000352E+00 0.  1.
</event>
<event>
 5   0  0.1677971E-05  0.2608559E+04  0.7818609E-02  0.8365300E-01
       -2   -1    0    0    0  501  0.00000000000E+00  0.00000000000E+00  0.11100460782E+04  0.11100460782E+04  0.25500000920E-02 0.  1.
        2   -1    0    0  501    0  0.00000000000E+00  0.00000000000E+00 -0.15324994337E+04  0.15324994337E+04  0.25500000920E-02 0. -1.
    10030    2    1    2    0    0  0.00000000000E+00  0.00000000000E+00 -0.42245335554E+03  0.26425455119E+04  0.26085589786E+04 0.  0.
        4    1    3    3  502    0 -0.12441106331E+04 -0.34925581522E+03 -0.31853387121E+02  0.12925970536E+04  0.12699999809E+01 0.  1.
       -4    1    3    3    0  502  0.12441106331E+04  0.34925581522E+03 -0.39059996842E+03  0.13499484583E+04  0.12699999809E+01 0. -1.
</event>
<event>
 5   0  0.6984287E-06  0.2591781E+04  0.7818609E-02  0.8370998E-01
        1   -1    0    0  501    0  0.00000000000E+00  0.00000000000E+00  0.13151140848E+04  0.13151140848E+04  0.50400001928E-02 0.  1.
       -1   -1    0    0    0  501  0.00000000000E+00  0.00000000000E+00 -0.12769477500E+04  0.12769477500E+04  0.50400001928E-02 0. -1.
    10030    2    1    2    0    0  0.00000000000E+00  0.00000000000E+00  0.38166334830E+02  0.25920618348E+04  0.25917808330E+04 0.  0.
        3    1    3    3  502    0 -0.11788942942E+04 -0.23694388846E+03  0.50224816101E+03  0.13031451910E+04  0.10100000352E+00 0.  1.
       -3    1    3    3    0  502  0.11788942942E+04  0.23694388846E+03 -0.46408182618E+03  0.12889166439E+04  0.10100000352E+00 0. -1.
</event>
<event>
 5   0  0.6918420E-06  0.2435577E+04  0.7818609E-02  0.8426303E-01
       -1   -1    0    0    0  501  0.00000000000E+00  0.00000000000E+00  0.10495794026E+04  0.10495794027E+04  0.50400001928E-02 0.  1.
        1   -1    0    0  501    0  0.00000000000E+00  0.00000000000E+00 -0.14129552593E+04  0.14129552594E+04  0.50400001928E-02 0. -1.
    10030    2    1    2    0    0  0.00000000000E+00  0.00000000000E+00 -0.36337585670E+03  0.24625346620E+04  0.24355769231E+04 0.  0.
        4    1    3    3  502    0 -0.11799996033E+04 -0.30099116449E+03 -0.18524529380E+03  0.12317922620E+04  0.12699999809E+01 0. -1.
       -4    1    3    3    0  502  0.11799996033E+04  0.30099116449E+03 -0.17813056290E+03  0.12307424000E+04  0.12699999809E+01 0.  1.
</event>
<event>
 5   0  0.6918420E-06  0.2601966E+04  0.7818609E-02  0.8367534E-01
       -1   -1    0    0    0  501  0.00000000000E+00  0.00000000000E+00  0.10409371322E+04  0.10409371322E+04  0.50400001928E-02 0.  1.
        1   -1    0    0  501    0  0.00000000000E+00  0.00000000000E+00 -0.16259930151E+04  0.16259930152E+04  0.50400001928E-02 0. -1.
    10030    2    1    2    0    0  0.00000000000E+00  0.00000000000E+00 -0.58505588300E+03  0.26669301473E+04  0.26019658000E+04 0.  0.
        4    1    3    3  502    0 -0.12113713209E+04  0.23757429313E+03 -0.71350499310E+03  0.14258166116E+04  0.12699999809E+01 0. -1.
       -4    1    3    3    0  502  0.12113713209E+04 -0.23757429313E+03  0.12844911011E+03  0.12411135357E+04  0.12699999809E+01 0.  1.
</event>
<event>
 5   0  0.6918420E-06  0.2496799E+04  0.7818609E-02  0.8404127E-01
        1   -1    0    0  501    0  0.00000000000E+00  0.00000000000E+00  0.14959058140E+04  0.14959058141E+04  0.50400001928E-02 0.  1.
       -1   -1    0    0    0  501  0.00000000000E+00  0.00000000000E+00 -0.10418444463E+04  0.10418444463E+04  0.50400001928E-02 0. -1.
    10030    2    1    2    0    0  0.00000000000E+00  0.00000000000E+00  0.45406136776E+03  0.25377502603E+04  0.24967988822E+04 0.  0.
        4    1    3    3  502    0  0.10176883834E+04  0.30847098313E+03  0.89171033063E+03  0.13878014699E+04  0.12699999809E+01 0.  1.
       -4    1    3    3    0  502 -0.10176883834E+04 -0.30847098313E+03 -0.43764896287E+03  0.11499487905E+04  0.12699999809E+01 0. -1.
</event>
<event>
 5   0  0.6993678E-06  0.2574325E+04  0.7818609E-02  0.8376975E-01
       -1   -1    0    0    0  501  0.00000000000E+00  0.00000000000E+00  0.10276360969E+04  0.10276360969E+04  0.50400001928E-02 0. -1.
        1   -1    0    0  501    0  0.00000000000E+00  0.00000000000E+00 -0.16122318346E+04  0.16122318346E+04  0.50400001928E-02 0.  1.
    10030    2    1    2    0    0  0.00000000000E+00  0.00000000000E+00 -0.58459573771E+03  0.26398679315E+04  0.25743252551E+04 0.  0.
        1    1    3    3  502    0 -0.61710608013E+03  0.27683140627E+03  0.83072476607E+03  0.10712418861E+04  0.50400001928E-02 0. -1.
       -1    1    3    3    0  502  0.61710608013E+03 -0.27683140627E+03 -0.14153205038E+04  0.15686260453E+04  0.50400001928E-02 0.  1.
</event>
<event>
 5   0  0.6706225E-06  0.2573405E+04  0.7818609E-02  0.8377291E-01
       -1   -1    0    0    0  501  0.00000000000E+00  0.00000000000E+00  0.18416600755E+04  0.18416600755E+04  0.50400001928E-02 0. -1.
        1   -1    0    0  501    0  0.00000000000E+00  0.00000000000E+00 -0.89897333531E+03  0.89897333532E+03  0.50400001928E-02 0.  1.
    10030    2    1    2    0    0  0.00000000000E+00  0.00000000000E+00  0.94268674020E+03  0.27406334108E+04  0.25734049822E+04 0.  0.
        5    1    3    3  502    0 -0.45542590928E+03 -0.11918051611E+04  0.29387448372E+03  0.13092733111E+04  0.46999998093E+01 0.  1.
       -5    1    3    3    0  502  0.45542590928E+03  0.11918051611E+04  0.64881225647E+03  0.14313600997E+04  0.46999998093E+01 0. -1.
</event>
<event>
 5   0  0.1677971E-05  0.2623863E+04  0.7818609E-02  0.8360140E-01
       -2   -1    0    0    0  501  0.00000000000E+00  0.00000000000E+00  0.87900764743E+03  0.87900764744E+03  0.25500000920E-02 0. -1.
        2   -1    0    0  501    0  0.00000000000E+00  0.00000000000E+00 -0.19580769168E+04  0.19580769168E+04  0.25500000920E-02 0.  1.
    10030    2    1    2    0    0  0.00000000000E+00  0.00000000000E+00 -0.10790692694E+04  0.28370845642E+04  0.26238632465E+04 0.  0.
        4    1    3    3  502    0  0.52382533981E+02 -0.79823788746E+03  0.58478862665E+03  0.99091220883E+03  0.12699999809E+01 0.  1.
       -4    1    3    3    0  502 -0.52382533981E+02  0.79823788746E+03 -0.16638578960E+04  0.18461723554E+04  0.12699999809E+01 0. -1.
</event>
<event>
 5   0  0.6706225E-06  0.2597223E+04  0.7818609E-02  0.8369145E-01
       -1   -1    0    0    0  501  0.00000000000E+00  0.00000000000E+00  0.73801325949E+03  0.73801325951E+03  0.50400001928E-02 0. -1.
        1   -1    0    0  501    0  0.00000000000E+00  0.00000000000E+00 -0.22850424913E+04  0.22850424913E+04  0.50400001928E-02 0.  1.
    10030    2    1    2    0    0  0.00000000000E+00  0.00000000000E+00 -0.15470292318E+04  0.30230557508E+04  0.25972228684E+04 0.  0.
        5    1    3    3  502    0  0.13078225879E+03  0.11933694174E+04 -0.13498026491E+04  0.18064395498E+04  0.46999998093E+01 0.  1.
       -5    1    3    3    0  502 -0.13078225879E+03 -0.11933694174E+04 -0.19722658270E+03  0.12166162010E+04  0.46999998093E+01 0. -1.
</event>
<event>
 5   0  0.1677971E-05  0.2597505E+04  0.7818609E-02  0.8369049E-01
        2   -1    0    0  501    0  0.00000000000E+00  0.00000000000E+00  0.13607369435E+04  0.13607369435E+04  0.25500000920E-02 0.  1.
       -2   -1    0    0    0  501  0.00000000000E+00  0.00000000000E+00 -0.12395917236E+04  0.12395917236E+04  0.25500000920E-02 0. -1.
    10030    2    1    2    0    0  0.00000000000E+00  0.00000000000E+00  0.12114521992E+03  0.26003286670E+04  0.25975051516E+04 0.  0.
        4    1    3    3  502    0 -0.52806311346E+03 -0.57534200393E+03 -0.97828734963E+03  0.12517654831E+04  0.12699999809E+01 0. -1.
       -4    1    3    3    0  502  0.52806311346E+03  0.57534200393E+03  0.10994325695E+04  0.13485631840E+04  0.12699999809E+01 0.  1.
</event>
<event>
 5   0  0.6993678E-06  0.2606117E+04  0.7818609E-02  0.8366126E-01
        1   -1    0    0  501    0  0.00000000000E+00  0.00000000000E+00  0.11024469541E+04  0.11024469541E+04  0.50400001928E-02 0. -1.
       -1   -1    0    0    0  501  0.00000000000E+00  0.00000000000E+00 -0.15401747530E+04  0.15401747530E+04  0.50400001928E-02 0.  1.
    10030    2    1    2    0    0  0.00000000000E+00  0.00000000000E+00 -0.43772779894E+03  0.26426217071E+04  0.26061166246E+04 0.  0.
        1    1    3    3  502    0 -0.84571997329E+03 -0.97655201725E+03 -0.39173611240E+03  0.13499456646E+04  0.50400001928E-02 0.  1.
       -1    1    3    3    0  502  0.84571997329E+03  0.97655201725E+03 -0.45991686541E+02  0.12926760425E+04  0.50400001928E-02 0. -1.
</event>
<event>
 5   0  0.1702345E-05  0.2550226E+04  0.7818609E-02  0.8385308E-01
       -2   -1    0    0    0  501  0.00000000000E+00  0.00000000000E+00  0.73564083242E+03  0.73564083242E+03  0.25500000920E-02 0. -1.
        2   -1    0    0  501    0  0.00000000000E+00  0.00000000000E+00 -0.22101997383E+04  0.22101997383E+04  0.25500000920E-02 0.  1.
    10030    2    1    2    0    0  0.00000000000E+00  0.00000000000E+00 -0.14745589058E+04  0.29458405707E+04  0.25502260098E+04 0.  0.
        1    1    3    3  502    0 -0.32680609725E+03  0.66110827804E+03 -0.19388619394E+04  0.20743799075E+04  0.50400001928E-02 0.  1.
       -1    1    3    3    0  502  0.32680609725E+03 -0.66110827804E+03  0.46430303357E+03  0.87146066319E+03  0.50400001928E-02 0. -1.
</event>
<event>
 5   0  0.6984287E-06  0.2585349E+04  0.7818609E-02  0.8373195E-01
       -1   -1    0    0    0  501  0.00000000000E+00  0.00000000000E+00  0.75386176447E+03  0.75386176448E+03  0.50400001928E-02 0.  1.
        1   -1    0    0  501    0  0.00000000000E+00  0.00000000000E+00 -0.22165971972E+04  0.22165971972E+04  0.50400001928E-02 0. -1.
    10030    2    1    2    0    0  0.00000000000E+00  0.00000000000E+00 -0.14627354327E+04  0.29704589617E+04  0.25853493955E+04 0.  0.
        3    1    3    3  502    0 -0.12512512655E+04  0.28431769634E+03 -0.55137472626E+03  0.13965959977E+04  0.10100000352E+00 0.  1.
       -3    1    3    3    0  502  0.12512512655E+04 -0.28431769634E+03 -0.91136070643E+03  0.15738629639E+04  0.10100000352E+00 0. -1.
</event>
<event>
 5   0  0.1681731E-05  0.2408087E+04  0.7818609E-02  0.8436482E-01
        2   -1    0    0  501    0  0.00000000000E+00  0.00000000000E+00  0.14612420467E+04  0.14612420467E+04  0.25500000920E-02 0.  1.
       -2   -1    0    0    0  501  0.00000000000E+00  0.00000000000E+00 -0.99211574617E+03  0.99211574617E+03  0.25500000920E-02 0. -1.
    10030    2    1    2    0    0  0.00000000000E+00  0.00000000000E+00  0.46912630049E+03  0.24533577928E+04  0.24080874099E+04 0.  0.
        2    1    3    3  502    0 -0.90354782605E+02  0.80053313822E+03  0.11462057862E+04  0.14010014263E+04  0.25500000920E-02 0.  1.
       -2    1    3    3    0  502  0.90354782605E+02 -0.80053313822E+03 -0.67707948574E+03  0.10523563665E+04  0.25500000920E-02 0. -1.
</event>
<event>
 5   0  0.6993678E-06  0.2890440E+04  0.7818609E-02  0.8275728E-01
       -1   -1    0    0    0  501  0.00000000000E+00  0.00000000000E+00  0.14992905870E+04  0.14992905870E+04  0.50400001928E-02 0. -1.
        1   -1    0    0  501    0  0.00000000000E+00  0.00000000000E+00 -0.13930991549E+04  0.13930991549E+04  0.50400001928E-02 0.  1.
    10030    2    1    2    0    0  0.00000000000E+00  0.00000000000E+00  0.10619143207E+03  0.28923897419E+04  0.28904397241E+04 0.  0.
        1    1    3    3  502    0  0.41515804820E+03  0.11050982632E+04  0.88736199761E+03  0.14768241910E+04  0.50400001928E-02 0. -1.
       -1    1    3    3    0  502 -0.41515804820E+03 -0.11050982632E+04 -0.78117056554E+03  0.14155655509E+04  0.50400001928E-02 0.  1.
</event>
<event>
 5   0  0.6984287E-06  0.2612284E+04  0.7818609E-02  0.8364041E-01
       -1   -1    0    0    0  501  0.00000000000E+00  0.00000000000E+00  0.76185097708E+03  0.76185097710E+03  0.50400001928E-02 0.  1.
        1   -1    0    0  501    0  0.00000000000E+00  0.00000000000E+00 -0.22392921146E+04  0.22392921146E+04  0.50400001928E-02 0. -1.
    10030    2    1    2    0    0  0.00000000000E+00  0.00000000000E+00 -0.14774411375E+04  0.30011430917E+04  0.26122839704E+04 0.  0.
        3    1    3    3  502    0  0.86586370250E+03 -0.72663261001E+03 -0.14905793653E+04  0.18707062184E+04  0.10100000352E+00 0.  1.
       -3    1    3    3    0  502 -0.86586370250E+03  0.72663261001E+03  0.13138227764E+02  0.11304368733E+04  0.10100000352E+00 0. -1.
</event>
<event>
 5   0  0.6993678E-06  0.2613542E+04  0.7818609E-02  0.8363616E-01
       -1   -1    0    0    0  501  0.00000000000E+00  0.00000000000E+00  0.77643709567E+03  0.77643709569E+03  0.50400001928E-02 0.  1.
        1   -1    0    0  501    0  0.00000000000E+00  0.00000000000E+00 -0.21993408565E+04  0.21993408565E+04  0.50400001928E-02 0. -1.
    10030    2    1    2    0    0  0.00000000000E+00  0.00000000000E+00 -0.14229037608E+04  0.29757779522E+04  0.26135415260E+04 0.  0.
        1    1    3    3  502    0  0.60067314047E+03 -0.10665950452E+04 -0.12322497541E+04  0.17369146981E+04  0.50400001928E-02 0. -1.
       -1    1    3    3    0  502 -0.60067314047E+03  0.10665950452E+04 -0.19065400677E+03  0.12388632541E+04  0.50400001928E-02 0.  1.
</event>
<event>
 5   0  0.1869956E-05  0.2568943E+04  0.7818609E-02  0.8378828E-01
        2   -1    0    0  501    0  0.00000000000E+00  0.00000000000E+00  0.95445013471E+03  0.95445013471E+03  0.25500000920E-02 0.  1.
       -2   -1    0    0    0  501  0.00000000000E+00  0.00000000000E+00 -0.17286048255E+04  0.17286048255E+04  0.25500000920E-02 0. -1.
    10030    2    1    2    0    0  0.00000000000E+00  0.00000000000E+00 -0.77415469080E+03  0.26830549602E+04  0.25689430578E+04 0.  0.
        5    1    3    3  502    0 -0.15347449537E+03  0.20679132573E+03  0.92720282978E+03  0.96231193003E+03  0.46999998093E+01 0.  1.
       -5    1    3    3    0  502  0.15347449537E+03 -0.20679132573E+03 -0.17013575206E+04  0.17207430302E+04  0.46999998093E+01 0. -1.
</event>
<event>
 5   0  0.1720129E-05  0.2599595E+04  0.7818609E-02  0.8368339E-01
       -2   -1    0    0    0  501  0.00000000000E+00  0.00000000000E+00  0.20665565986E+04  0.20665565986E+04  0.25500000920E-02 0.  1.
        2   -1    0    0  501    0  0.00000000000E+00  0.00000000000E+00 -0.81753056550E+03  0.81753056551E+03  0.25500000920E-02 0. -1.
    10030    2    1    2    0    0  0.00000000000E+00  0.00000000000E+00  0.12490260331E+04  0.28840871641E+04  0.25995947259E+04 0.  0.
        3    1    3    3  502    0  0.69540704822E+03  0.10972784162E+04  0.67238994476E+03  0.14627778825E+04  0.10100000352E+00 0.  1.
       -3    1    3    3    0  502 -0.69540704822E+03 -0.10972784162E+04  0.57663608833E+03  0.14213092816E+04  0.10100000352E+00 0. -1.
</event>
<event>
 5   0  0.1702345E-05  0.2593378E+04  0.7818609E-02  0.8370454E-01
        2   -1    0    0  501    0  0.00000000000E+00  0.00000000000E+00  0.15441888504E+04  0.15441888504E+04  0.25500000920E-02 0.  1.
       -2   -1    0    0    0  501  0.00000000000E+00  0.00000000000E+00 -0.10888582066E+04  0.10888582066E+04  0.25500000920E-02 0. -1.
    10030    2    1    2    0    0  0.00000000000E+00  0.00000000000E+00  0.45533064380E+03  0.26330470570E+04  0.25933782619E+04 0.  0.
        1    1    3    3  502    0  0.61194808288E+03 -0.27995047567E+03 -0.89768870332E+03  0.11219169903E+04  0.50400001928E-02 0. -1.
       -1    1    3    3    0  502 -0.61194808288E+03  0.27995047567E+03  0.13530193471E+04  0.15111300668E+04  0.50400001928E-02 0.  1.
</event>
<event>
 5   0  0.7138294E-06  0.2501804E+04  0.7818609E-02  0.8402343E-01
       -1   -1    0    0    0  501  0.00000000000E+00  0.00000000000E+00  0.10525037505E+04  0.10525037505E+04  0.50400001928E-02 0.  1.
        1   -1    0    0  501    0  0.00000000000E+00  0.00000000000E+00 -0.14866980312E+04  0.14866980312E+04  0.50400001928E-02 0. -1.
    10030    2    1    2    0    0  0.00000000000E+00  0.00000000000E+00 -0.43419428070E+03  0.25392017818E+04  0.25018035525E+04 0.  0.
        2    1    3    3  502    0  0.52981884649E+03 -0.82027108333E+03 -0.10105782710E+04  0.14052832818E+04  0.25500000920E-02 0. -1.
       -2    1    3    3    0  502 -0.52981884649E+03  0.82027108333E+03  0.57638399033E+03  0.11339185000E+04  0.25500000920E-02 0.  1.
</event>
<event>
 5   0  0.6993678E-06  0.2598796E+04  0.7818609E-02  0.8368610E-01
        1   -1    0    0  501    0  0.00000000000E+00  0.00000000000E+00  0.18350184283E+04  0.18350184283E+04  0.50400001928E-02 0. -1.
       -1   -1    0    0    0  501  0.00000000000E+00  0.00000000000E+00 -0.92011923745E+03  0.92011923746E+03  0.50400001928E-02 0.  1.
    10030    2    1    2    0    0  0.00000000000E+00  0.00000000000E+00  0.91489919088E+03  0.27551376658E+04  0.25987964576E+04 0.  0.
        1    1    3    3  502    0  0.73551512721E+03  0.57248771560E+03  0.14172953274E+04  0.16963050233E+04  0.50400001928E-02 0. -1.
       -1    1    3    3    0  502 -0.73551512721E+03 -0.57248771560E+03 -0.50239613652E+03  0.10588326425E+04  0.50400001928E-02 0.  1.
</event>
<event>
 5   0  0.1869956E-05  0.2609484E+04  0.7818609E-02  0.8364987E-01
        2   -1    0    0  501    0  0.00000000000E+00  0.00000000000E+00  0.14209019501E+04  0.14209019501E+04  0.25500000920E-02 0.  1.
       -2   -1    0    0    0  501  0.00000000000E+00  0.00000000000E+00 -0.11980780030E+04  0.11980780030E+04  0.25500000920E-02 0. -1.
    10030    2    1    2    0    0  0.00000000000E+00  0.00000000000E+00  0.22282394714E+03  0.26189799531E+04  0.26094837581E+04 0.  0.
        5    1    3    3  502    0 -0.12635698743E+04  0.23989888601E+02  0.43685259660E+03  0.13371786055E+04  0.46999998093E+01 0.  1.
       -5    1    3    3    0  502  0.12635698743E+04 -0.23989888601E+02 -0.21402864946E+03  0.12818013476E+04  0.46999998093E+01 0. -1.
</event>
<event>
 5   0  0.6706225E-06  0.2585555E+04  0.7818609E-02  0.8373124E-01
       -1   -1    0    0    0  501  0.00000000000E+00  0.00000000000E+00  0.12043650000E+04  0.12043650000E+04  0.50400001928E-02 0.  1.
        1   -1    0    0  501    0  0.00000000000E+00  0.00000000000E+00 -0.13876806433E+04  0.13876806433E+04  0.50400001928E-02 0. -1.
    10030    2    1    2    0    0  0.00000000000E+00  0.00000000000E+00 -0.18331564329E+03  0.25920456433E+04  0.25855552580E+04 0.  0.
        5    1    3    3  502    0 -0.38483949623E+03 -0.12237575734E+04  0.68643133460E+02  0.12846859562E+04  0.46999998093E+01 0. -1.
       -5    1    3    3    0  502  0.38483949623E+03  0.12237575734E+04 -0.25195877675E+03  0.13073596871E+04  0.46999998093E+01 0.  1.
</event>
<event>
 5   0  0.6918420E-06  0.2614984E+04  0.7818609E-02  0.8363129E-01
       -1   -1    0    0    0  501  0.00000000000E+00  0.00000000000E+00  0.81364179006E+03  0.81364179008E+03  0.50400001928E-02 0.  1.
        1   -1    0    0  501    0  0.00000000000E+00  0.00000000000E+00 -0.21010904897E+04  0.21010904898E+04  0.50400001928E-02 0. -1.
    10030    2    1    2    0    0  0.00000000000E+00  0.00000000000E+00 -0.12874486997E+04  0.29147322798E+04  0.26149837684E+04 0.  0.
        4    1    3    3  502    0 -0.75884416348E+03  0.11765442708E+03  0.53580540130E+03  0.93636321458E+03  0.12699999809E+01 0.  1.
       -4    1    3    3    0  502  0.75884416348E+03 -0.11765442708E+03 -0.18232541010E+04  0.19783690652E+04  0.12699999809E+01 0. -1.
</event>
<event>
 5   0  0.1720129E-05  0.2605914E+04  0.7818609E-02  0.8366195E-01
        2   -1    0    0  501    0  0.00000000000E+00  0.00000000000E+00  0.18339260979E+04  0.18339260979E+04  0.25500000920E-02 0. -1.
       -2   -1    0    0    0  501  0.00000000000E+00  0.00000000000E+00 -0.92571699796E+03  0.92571699797E+03  0.25500000920E-02 0.  1.
    10030    2    1    2    0    0  0.00000000000E+00  0.00000000000E+00  0.90820909992E+03  0.27596430958E+04  0.26059137068E+04 0.  0.
        3    1    3    3  502    0  0.20436043928E+03 -0.42848020598E+03 -0.83087631327E+03  0.95692943011E+03  0.10100000352E+00 0.  1.
       -3    1    3    3    0  502 -0.20436043928E+03  0.42848020598E+03  0.17390854132E+04  0.18027136657E+04  0.10100000352E+00 0. -1.
</event>
<event>
 5   0  0.5840500E-06  0.2585421E+04  0.7818609E-02  0.8373170E-01
       -3   -1    0    0    0  501  0.00000000000E+00  0.00000000000E+00  0.13920223737E+04  0.13920223774E+04  0.10100000352E+00 0.  1.
        3   -1    0    0  501    0  0.00000000000E+00  0.00000000000E+00 -0.12004835099E+04  0.12004835141E+04  0.10100000352E+00 0. -1.
    10030    2    1    2    0    0  0.00000000000E+00  0.00000000000E+00  0.19153886382E+03  0.25925058915E+04  0.25854205966E+04 0.  0.
        2    1    3    3  502    0  0.90117716228E+03 -0.21111991438E+03 -0.80914927956E+03  0.12293959707E+04  0.25500000920E-02 0. -1.
       -2    1    3    3    0  502 -0.90117716228E+03  0.21111991438E+03  0.10006881434E+04  0.13631099209E+04  0.25500000920E-02 0.  1.
</event>
<event>
 5   0  0.1869956E-05  0.2592436E+04  0.7818609E-02  0.8370775E-01
       -2   -1    0    0    0  501  0.00000000000E+00  0.00000000000E+00  0.12427246957E+04  0.12427246957E+04  0.25500000920E-02 0. -1.
        2   -1    0    0  501    0  0.00000000000E+00  0.00000000000E+00 -0.13520139218E+04  0.13520139218E+04  0.25500000920E-02 0.  1.
    10030    2    1    2    0    0  0.00000000000E+00  0.00000000000E+00 -0.10928922608E+03  0.25947386175E+04  0.25924359892E+04 0.  0.
        5    1    3    3  502    0 -0.11230404768E+03  0.79767774516E+03 -0.10710548526E+04  0.13401800519E+04  0.46999998093E+01 0.  1.
       -5    1    3    3    0  502  0.11230404768E+03 -0.79767774516E+03  0.96176562648E+03  0.12545585656E+04  0.46999998093E+01 0. -1.
</event>
<event>
 5   0  0.1677971E-05  0.2581511E+04  0.7818609E-02  0.8374509E-01
       -2   -1    0    0    0  501  0.00000000000E+00  0.00000000000E+00  0.12437840154E+04  0.12437840154E+04  0.25500000920E-02 0.  1.
        2   -1    0    0  501    0  0.00000000000E+00  0.00000000000E+00 -0.13395005018E+04  0.13395005018E+04  0.25500000920E-02 0. -1.
    10030    2    1    2    0    0  0.00000000000E+00  0.00000000000E+00 -0.95716486473E+02  0.25832845172E+04  0.25815106529E+04 0.  0.
        4    1    3    3  502    0 -0.90736929519E+03 -0.18921725616E+03  0.85104932583E+03  0.12583357166E+04  0.12699999809E+01 0.  1.
       -4    1    3    3    0  502  0.90736929519E+03  0.18921725616E+03 -0.94676581230E+03  0.13249488006E+04  0.12699999809E+01 0. -1.
</event>
<event>
 5   0  0.1702345E-05  0.2687459E+04  0.7818609E-02  0.8339085E-01
        2   -1    0    0  501    0  0.00000000000E+00  0.00000000000E+00  0.17656935678E+04  0.17656935678E+04  0.25500000920E-02 0. -1.
       -2   -1    0    0    0  501  0.00000000000E+00  0.00000000000E+00 -0.10226063018E+04  0.10226063018E+04  0.25500000920E-02 0.  1.
    10030    2    1    2    0    0  0.00000000000E+00  0.00000000000E+00  0.74308726600E+03  0.27882998696E+04  0.26874592979E+04 0.  0.
        1    1    3    3  502    0 -0.90381832941E+03 -0.16259995165E+03  0.13893121242E+04  0.16653871908E+04  0.50400001928E-02 0. -1.
       -1    1    3    3    0  502  0.90381832941E+03  0.16259995165E+03 -0.64622485820E+03  0.11229126788E+04  0.50400001928E-02 0.  1.
</event>
<event>
 5   0  0.1702345E-05  0.2593842E+04  0.7818609E-02  0.8370296E-01
       -2   -1    0    0    0  501  0.00000000000E+00  0.00000000000E+00  0.78115941300E+03  0.78115941300E+03  0.25500000920E-02 0. -1.
        2   -1    0    0  501    0  0.00000000000E+00  0.00000000000E+00 -0.21532149790E+04  0.21532149790E+04  0.25500000920E-02 0.  1.
    10030    2    1    2    0    0  0.00000000000E+00  0.00000000000E+00 -0.13720555660E+04  0.29343743920E+04  0.25938420530E+04 0.  0.
        1    1    3    3  502    0  0.10336887473E+04  0.21125617524E+03  0.16722098368E+03  0.10682249086E+04  0.50400001928E-02 0.  1.
       -1    1    3    3    0  502 -0.10336887473E+04 -0.21125617524E+03 -0.15392765496E+04  0.18661494834E+04  0.50400001928E-02 0. -1.
</event>
<event>
 5   0  0.7138294E-06  0.2620141E+04  0.7818609E-02  0.8361392E-01
        1   -1    0    0  501    0  0.00000000000E+00  0.00000000000E+00  0.14615806585E+04  0.14615806585E+04  0.50400001928E-02 0.  1.
       -1   -1    0    0    0  501  0.00000000000E+00  0.00000000000E+00 -0.11742660391E+04  0.11742660392E+04  0.50400001928E-02 0. -1.
    10030    2    1    2    0    0  0.00000000000E+00  0.00000000000E+00  0.28731461939E+03  0.26358466977E+04  0.26201408594E+04 0.  0.
        2    1    3    3  502    0 -0.98074524925E+02 -0.12097372719E+04 -0.35245358900E+03  0.12638458814E+04  0.25500000920E-02 0. -1.
       -2    1    3    3    0  502  0.98074524925E+02  0.12097372719E+04  0.63976820839E+03  0.13720008163E+04  0.25500000920E-02 0.  1.
</event>
<event>
 5   0  0.1702345E-05  0.2606776E+04  0.7818609E-02  0.8365903E-01
        2   -1    0    0  501    0  0.00000000000E+00  0.00000000000E+00  0.80602073595E+03  0.80602073596E+03  0.25500000920E-02 0.  1.
       -2   -1    0    0    0  501  0.00000000000E+00  0.00000000000E+00 -0.21076629719E+04  0.21076629719E+04  0.25500000920E-02 0. -1.
    10030    2    1    2    0    0  0.00000000000E+00  0.00000000000E+00 -0.13016422360E+04  0.29136837079E+04  0.26067758322E+04 0.  0.
        1    1    3    3  502    0 -0.10208988948E+04 -0.61368070761E+03 -0.59391071742E+02  0.11926298100E+04  0.50400001928E-02 0.  1.
       -1    1    3    3    0  502  0.10208988948E+04  0.61368070761E+03 -0.12422511642E+04  0.17210538979E+04  0.50400001928E-02 0. -1.
</event>
<event>
 5   0  0.6706225E-06  0.2605337E+04  0.7818609E-02  0.8366391E-01
        1   -1    0    0  501    0  0.00000000000E+00  0.00000000000E+00  0.34729273407E+04  0.34729273407E+04  0.50400001928E-02 0.  1.
       -1   -1    0    0    0  501  0.00000000000E+00  0.00000000000E+00 -0.48862097726E+03  0.48862097729E+03  0.50400001928E-02 0. -1.
    10030    2    1    2    0    0  0.00000000000E+00  0.00000000000E+00  0.29843063634E+04  0.39615483180E+04  0.26053369465E+04 0.  0.
        5    1    3    3  502    0 -0.13056354675E+03 -0.61005083761E+03  0.32309845984E+04  0.32906674747E+04  0.46999998093E+01 0.  1.
       -5    1    3    3    0  502  0.13056354675E+03  0.61005083761E+03 -0.24667823498E+03  0.67088084324E+03  0.46999998093E+01 0. -1.
</event>
<event>
 5   0  0.6984287E-06  0.2590760E+04  0.7818609E-02  0.8371347E-01
        1   -1    0    0  501    0  0.00000000000E+00  0.00000000000E+00  0.87148161007E+03  0.87148161009E+03  0.50400001928E-02 0. -1.
       -1   -1    0    0    0  501  0.00000000000E+00  0.00000000000E+00 -0.19254673428E+04  0.19254673428E+04  0.50400001928E-02 0.  1.
    10030    2    1    2    0    0  0.00000000000E+00  0.00000000000E+00 -0.10539857327E+04  0.27969489529E+04  0.25907600276E+04 0.  0.
        3    1    3    3  502    0 -0.45854067090E+03 -0.81579184885E+03 -0.14939511636E+04  0.17628573331E+04  0.10100000352E+00 0.  1.
       -3    1    3    3    0  502  0.45854067090E+03  0.81579184885E+03  0.43996543087E+03  0.10340916198E+04  0.10100000352E+00 0. -1.
</event>
<event>
 5   0  0.1677971E-05  0.2612401E+04  0.7818609E-02  0.8364001E-01
        2   -1    0    0  501    0  0.00000000000E+00  0.00000000000E+00  0.13084893077E+04  0.13084893077E+04  0.25500000920E-02 0.  1.
       -2   -1    0    0    0  501  0.00000000000E+00  0.00000000000E+00 -0.13039156721E+04  0.13039156721E+04  0.25500000920E-02 0. -1.
    10030    2    1    2    0    0  0.00000000000E+00  0.00000000000E+00  0.45736355933E+01  0.26124049797E+04  0.26124009761E+04 0.  0.
        4    1    3    3  502    0  0.11798466076E+03 -0.50688560744E+03  0.12003306827E+04  0.13082999503E+04  0.12699999809E+01 0.  1.
       -4    1    3    3    0  502 -0.11798466076E+03  0.50688560744E+03 -0.11957570471E+04  0.13041050294E+04  0.12699999809E+01 0. -1.
</event>
<event>
 5   0  0.6993678E-06  0.2596152E+04  0.7818609E-02  0.8369509E-01
       -1   -1    0    0    0  501  0.00000000000E+00  0.00000000000E+00  0.15941418926E+04  0.15941418926E+04  0.50400001928E-02 0.  1.
        1   -1    0    0  501    0  0.00000000000E+00  0.00000000000E+00 -0.10569961696E+04  0.10569961696E+04  0.50400001928E-02 0. -1.
    10030    2    1    2    0    0  0.00000000000E+00  0.00000000000E+00  0.53714572298E+03  0.26511380623E+04  0.25961524411E+04 0.  0.
        1    1    3    3  502    0 -0.94531124458E+03 -0.82924803698E+03 -0.60329779785E+02  0.12589302357E+04  0.50400001928E-02 0.  1.
       -1    1    3    3    0  502  0.94531124458E+03  0.82924803698E+03  0.59747550277E+03  0.13922078266E+04  0.50400001928E-02 0. -1.
</event>
<event>
 5   0  0.1720129E-05  0.2618523E+04  0.7818609E-02  0.8361937E-01
       -2   -1    0    0    0  501  0.00000000000E+00  0.00000000000E+00  0.15095224759E+04  0.15095224759E+04  0.25500000920E-02 0.  1.
        2   -1    0    0  501    0  0.00000000000E+00  0.00000000000E+00 -0.11355677732E+04  0.11355677732E+04  0.25500000920E-02 0. -1.
    10030    2    1    2    0    0  0.00000000000E+00  0.00000000000E+00  0.37395470270E+03  0.26450902491E+04  0.26185225426E+04 0.  0.
        3    1    3    3  502    0 -0.57673041962E+03 -0.29512555238E+03 -0.96230432223E+03  0.11600632256E+04  0.10100000352E+00 0. -1.
       -3    1    3    3    0  502  0.57673041962E+03  0.29512555238E+03  0.13362590249E+04  0.14850270235E+04  0.10100000352E+00 0.  1.
</event>
<event>
 5   0  0.1720129E-05  0.2592222E+04  0.7818609E-02  0.8370848E-01
       -2   -1    0    0    0  501  0.00000000000E+00  0.00000000000E+00  0.12888450589E+04  0.12888450589E+04  0.25500000920E-02 0.  1.
        2   -1    0    0  501    0  0.00000000000E+00  0.00000000000E+00 -0.13034180604E+04  0.13034180604E+04  0.25500000920E-02 0. -1.
    10030    2    1    2    0    0  0.00000000000E+00  0.00000000000E+00 -0.14573001424E+02  0.25922631193E+04  0.25922221563E+04 0.  0.
        3    1    3    3  502    0 -0.54822024306E+03  0.41912122125E+03 -0.11044345884E+04  0.13022994292E+04  0.10100000352E+00 0. -1.
       -3    1    3    3    0  502  0.54822024306E+03 -0.41912122125E+03  0.10898615869E+04  0.12899636902E+04  0.10100000352E+00 0.  1.
</event>
<event>
 5   0  0.1720129E-05  0.2654071E+04  0.7818609E-02  0.8350063E-01
        2   -1    0    0  501    0  0.00000000000E+00  0.00000000000E+00  0.13059576045E+04  0.13059576045E+04  0.25500000920E-02 0.  1.
       -2   -1    0    0    0  501  0.00000000000E+00  0.00000000000E+00 -0.13484540928E+04  0.13484540928E+04  0.25500000920E-02 0. -1.
    10030    2    1    2    0    0  0.00000000000E+00  0.00000000000E+00 -0.42496488289E+02  0.26544116973E+04  0.26540714962E+04 0.  0.
        3    1    3    3  502    0 -0.44315472097E+03  0.44335888675E+02 -0.12714773126E+04  0.13472217132E+04  0.10100000352E+00 0. -1.
       -3    1    3    3    0  502  0.44315472097E+03 -0.44335888675E+02  0.12289808243E+04  0.13071899841E+04  0.10100000352E+00 0.  1.
</event>
<event>
 5   0  0.7138294E-06  0.2593702E+04  0.7818609E-02  0.8370344E-01
       -1   -1    0    0    0  501  0.00000000000E+00  0.00000000000E+00  0.98280317507E+03  0.98280317508E+03  0.50400001928E-02 0. -1.
        1   -1    0    0  501    0  0.00000000000E+00  0.00000000000E+00 -0.17112510697E+04  0.17112510697E+04  0.50400001928E-02 0.  1.
    10030    2    1    2    0    0  0.00000000000E+00  0.00000000000E+00 -0.72844789466E+03  0.26940542448E+04  0.25937023613E+04 0.  0.
        2    1    3    3  502    0  0.67457853407E+03 -0.96981783006E+03  0.19147082426E+03  0.11967722835E+04  0.25500000920E-02 0. -1.
       -2    1    3    3    0  502 -0.67457853407E+03  0.96981783006E+03 -0.91991871891E+03  0.14972819613E+04  0.25500000920E-02 0.  1.
</event>
<event>
 5   0  0.1869956E-05  0.2590761E+04  0.7818609E-02  0.8371346E-01
       -2   -1    0    0    0  501  0.00000000000E+00  0.00000000000E+00  0.92309480771E+03  0.92309480771E+03  0.25500000920E-02 0. -1.
        2   -1    0    0  501    0  0.00000000000E+00  0.00000000000E+00 -0.18178092295E+04  0.18178092295E+04  0.25500000920E-02 0.  1.
    10030    2    1    2    0    0  0.00000000000E+00  0.00000000000E+00 -0.89471442184E+03  0.27409040373E+04  0.25907607077E+04 0.  0.
        5    1    3    3  502    0 -0.69702143388E+03 -0.75807308290E+03  0.38397774075E+03  0.10990790116E+04  0.46999998093E+01 0. -1.
       -5    1    3    3    0  502  0.69702143388E+03  0.75807308290E+03 -0.12786921626E+04  0.16418250257E+04  0.46999998093E+01 0.  1.
</event>
<event>
 5   0  0.1869956E-05  0.2612074E+04  0.7818609E-02  0.8364111E-01
       -2   -1    0    0    0  501  0.00000000000E+00  0.00000000000E+00  0.18126117355E+04  0.18126117355E+04  0.25500000920E-02 0. -1.
        2   -1    0    0  501    0  0.00000000000E+00  0.00000000000E+00 -0.94103598884E+03  0.94103598885E+03  0.25500000920E-02 0.  1.
    10030    2    1    2    0    0  0.00000000000E+00  0.00000000000E+00  0.87157574663E+03  0.27536477243E+04  0.26120741773E+04 0.  0.
        5    1    3    3  502    0 -0.50471916270E+03  0.11121617232E+04 -0.51961108302E+02  0.12224431187E+04  0.46999998093E+01 0.  1.
       -5    1    3    3    0  502  0.50471916270E+03 -0.11121617232E+04  0.92353685493E+03  0.15312046056E+04  0.46999998093E+01 0. -1.
</event>
<event>
 5   0  0.1677971E-05  0.2646986E+04  0.7818609E-02  0.8352414E-01
        2   -1    0    0  501    0  0.00000000000E+00  0.00000000000E+00  0.26867239637E+04  0.26867239637E+04  0.25500000920E-02 0.  1.
       -2   -1    0    0    0  501  0.00000000000E+00  0.00000000000E+00 -0.65195907685E+03  0.65195907686E+03  0.25500000920E-02 0. -1.
    10030    2    1    2    0    0  0.00000000000E+00  0.00000000000E+00  0.20347648869E+04  0.33386830406E+04  0.26469862676E+04 0.  0.
        4    1    3    3  502    0 -0.11403732120E+04 -0.62791217694E+03  0.13182733136E+04  0.18527198674E+04  0.12699999809E+01 0.  1.
       -4    1    3    3    0  502  0.11403732120E+04  0.62791217694E+03  0.71649157323E+03  0.14859631732E+04  0.12699999809E+01 0. -1.
</event>
<event>
 5   0  0.1677971E-05  0.2614969E+04  0.7818609E-02  0.8363134E-01
       -2   -1    0    0    0  501  0.00000000000E+00  0.00000000000E+00  0.13411132519E+04  0.13411132519E+04  0.25500000920E-02 0.  1.
        2   -1    0    0  501    0  0.00000000000E+00  0.00000000000E+00 -0.12746992395E+04  0.12746992395E+04  0.25500000920E-02 0. -1.
    10030    2    1    2    0    0  0.00000000000E+00  0.00000000000E+00  0.66414012400E+02  0.26158124913E+04  0.26149692481E+04 0.  0.
        4    1    3    3  502    0  0.19641737893E+03 -0.84886548984E+03  0.10083864993E+04  0.13326655062E+04  0.12699999809E+01 0.  1.
       -4    1    3    3    0  502 -0.19641737893E+03  0.84886548984E+03 -0.94197248685E+03  0.12831469851E+04  0.12699999809E+01 0. -1.
</event>
<event>
 5   0  0.6918420E-06  0.2606690E+04  0.7818609E-02  0.8365932E-01
       -1   -1    0    0    0  501  0.00000000000E+00  0.00000000000E+00  0.78782407240E+03  0.78782407241E+03  0.50400001928E-02 0.  1.
        1   -1    0    0  501    0  0.00000000000E+00  0.00000000000E+00 -0.21562024643E+04  0.21562024643E+04  0.50400001928E-02 0. -1.
    10030    2    1    2    0    0  0.00000000000E+00  0.00000000000E+00 -0.13683783919E+04  0.29440265367E+04  0.26066900133E+04 0.  0.
        4    1    3    3  502    0 -0.48380600200E+03 -0.11836687579E+04 -0.39943713030E+03  0.13396610056E+04  0.12699999809E+01 0.  1.
       -4    1    3    3    0  502  0.48380600200E+03  0.11836687579E+04 -0.96894126160E+03  0.16043655311E+04  0.12699999809E+01 0. -1.
</event>
<event>
 5   0  0.1720129E-05  0.2623444E+04  0.7818609E-02  0.8360281E-01
        2   -1    0    0  501    0  0.00000000000E+00  0.00000000000E+00  0.21487298930E+04  0.21487298930E+04  0.25500000920E-02 0.  1.
       -2   -1    0    0    0  501  0.00000000000E+00  0.00000000000E+00 -0.80075880152E+03  0.80075880153E+03  0.25500000920E-02 0. -1.
    10030    2    1    2    0    0  0.00000000000E+00  0.00000000000E+00  0.13479710915E+04  0.29494886945E+04  0.26234438236E+04 0.  0.
        3    1    3    3  502    0  0.24940862429E+03 -0.76502769864E+01  0.21218010341E+04  0.21364229045E+04  0.10100000352E+00 0.  1.
       -3    1    3    3    0  502 -0.24940862429E+03  0.76502769864E+01 -0.77382994259E+03  0.81306579000E+03  0.10100000352E+00 0. -1.
</event>
<event>
 5   0  0.6918420E-06  0.2606957E+04  0.7818609E-02  0.8365842E-01
       -1   -1    0    0    0  501  0.00000000000E+00  0.00000000000E+00  0.13267294484E+04  0.13267294485E+04  0.50400001928E-02 0. -1.
        1   -1    0    0  501    0  0.00000000000E+00  0.00000000000E+00 -0.12806354607E+04  0.12806354607E+04  0.50400001928E-02 0.  1.
    10030    2    1    2    0    0  0.00000000000E+00  0.00000000000E+00  0.46093987749E+02  0.26073649092E+04  0.26069574438E+04 0.  0.
        4    1    3    3  502    0  0.67267631053E+03  0.95816816660E+03  0.59626440486E+03  0.13138160098E+04  0.12699999809E+01 0. -1.
       -4    1    3    3    0  502 -0.67267631053E+03 -0.95816816660E+03 -0.55017041711E+03  0.12935488993E+04  0.12699999809E+01 0.  1.
</event>
<event>
 5   0  0.1702345E-05  0.2639666E+04  0.7818609E-02  0.8354851E-01
        2   -1    0    0  501    0  0.00000000000E+00  0.00000000000E+00  0.13838441026E+04  0.13838441026E+04  0.25500000920E-02 0.  1.
       -2   -1    0    0    0  501  0.00000000000E+00  0.00000000000E+00 -0.12587829951E+04  0.12587829951E+04  0.25500000920E-02 0. -1.
    10030    2    1    2    0    0  0.00000000000E+00  0.00000000000E+00  0.12506110749E+03  0.26426270976E+04  0.26396662093E+04 0.  0.
        1    1    3    3  502    0 -0.12744763488E+04  0.28817245127E+03 -0.12375906421E+03  0.13124974786E+04  0.50400001928E-02 0.  1.
       -1    1    3    3    0  502  0.12744763488E+04 -0.28817245127E+03  0.24882017170E+03  0.13301296190E+04  0.50400001928E-02 0. -1.
</event>
<event>
 5   0  0.1681731E-05  0.2329097E+04  0.7818609E-02  0.8466536E-01
       -2   -1    0    0    0  501  0.00000000000E+00  0.00000000000E+00  0.69004106334E+03  0.69004106335E+03  0.25500000920E-02 0.  1.
        2   -1    0    0  501    0  0.00000000000E+00  0.00000000000E+00 -0.19653507643E+04  0.19653507643E+04  0.25500000920E-02 0. -1.
    10030    2    1    2    0    0  0.00000000000E+00  0.00000000000E+00 -0.12753097009E+04  0.26553918276E+04  0.23290965899E+04 0.  0.
        2    1    3    3  502    0  0.50257674439E+03  0.93657854584E+03 -0.11801412978E+04  0.15882368335E+04  0.25500000920E-02 0. -1.
       -2    1    3    3    0  502 -0.50257674439E+03 -0.93657854584E+03 -0.95168403150E+02  0.10671549941E+04  0.25500000920E-02 0.  1.
</event>
<event>
 5   0  0.6918420E-06  0.2980383E+04  0.7818609E-02  0.8249355E-01
       -1   -1    0    0    0  501  0.00000000000E+00  0.00000000000E+00  0.13194292918E+04  0.13194292918E+04  0.50400001928E-02 0. -1.
        1   -1    0    0  501    0  0.00000000000E+00  0.00000000000E+00 -0.16830541091E+04  0.16830541091E+04  0.50400001928E-02 0.  1.
    10030    2    1    2    0    0  0.00000000000E+00  0.00000000000E+00 -0.36362481727E+03  0.30024834009E+04  0.29803831239E+04 0.  0.
        4    1    3    3  502    0 -0.12449125052E+04  0.44938508036E+03 -0.87166399402E+03  0.15847882595E+04  0.12699999809E+01 0.  1.
       -4    1    3    3    0  502  0.12449125052E+04 -0.44938508036E+03  0.50803917675E+03  0.14176951414E+04  0.12699999809E+01 0. -1.
</event>
<event>
 5   0  0.7138294E-06  0.2570187E+04  0.7818609E-02  0.8378399E-01
       -1   -1    0    0    0  501  0.00000000000E+00  0.00000000000E+00  0.23604144582E+04  0.23604144582E+04  0.50400001928E-02 0. -1.
        1   -1    0    0  501    0  0.00000000000E+00  0.00000000000E+00 -0.69965059444E+03  0.69965059446E+03  0.50400001928E-02 0.  1.
    10030    2    1    2    0    0  0.00000000000E+00  0.00000000000E+00  0.16607638637E+04  0.30600650526E+04  0.25701870584E+04 0.  0.
        2    1    3    3  502    0 -0.32287144643E+03 -0.12187192074E+04  0.11267024322E+04  0.16908521071E+04  0.25500000920E-02 0. -1.
       -2    1    3    3    0  502  0.32287144643E+03  0.12187192074E+04  0.53406143156E+03  0.13692129455E+04  0.25500000920E-02 0.  1.
</event>
<event>
 5   0  0.1677971E-05  0.2601162E+04  0.7818609E-02  0.8367807E-01
        2   -1    0    0  501    0  0.00000000000E+00  0.00000000000E+00  0.15114265295E+04  0.15114265295E+04  0.25500000920E-02 0. -1.
       -2   -1    0    0    0  501  0.00000000000E+00  0.00000000000E+00 -0.11191486310E+04  0.11191486310E+04  0.25500000920E-02 0.  1.
    10030    2    1    2    0    0  0.00000000000E+00  0.00000000000E+00  0.39227789851E+03  0.26305751605E+04  0.26011619952E+04 0.  0.
        4    1    3    3  502    0 -0.72554595906E+03  0.75486531604E+03  0.97640117221E+03  0.14316422200E+04  0.12699999809E+01 0. -1.
       -4    1    3    3    0  502  0.72554595906E+03 -0.75486531604E+03 -0.58412327370E+03  0.11989329405E+04  0.12699999809E+01 0.  1.
</event>
<event>
 5   0  0.1677971E-05  0.2608225E+04  0.7818609E-02  0.8365413E-01
        2   -1    0    0  501    0  0.00000000000E+00  0.00000000000E+00  0.21389124452E+04  0.21389124452E+04  0.25500000920E-02 0. -1.
       -2   -1    0    0    0  501  0.00000000000E+00  0.00000000000E+00 -0.79512799782E+03  0.79512799782E+03  0.25500000920E-02 0.  1.
    10030    2    1    2    0    0  0.00000000000E+00  0.00000000000E+00  0.13437844474E+04  0.29340404430E+04  0.26082248140E+04 0.  0.
        4    1    3    3  502    0 -0.71225342840E+03 -0.75457796413E+03 -0.21673269238E+03  0.10600318500E+04  0.12699999809E+01 0.  1.
       -4    1    3    3    0  502  0.71225342840E+03  0.75457796413E+03  0.15605171397E+04  0.18740085930E+04  0.12699999809E+01 0. -1.
</event>
<event>
 5   0  0.6918420E-06  0.2482905E+04  0.7818609E-02  0.8409101E-01
        1   -1    0    0  501    0  0.00000000000E+00  0.00000000000E+00  0.16721466140E+04  0.16721466140E+04  0.50400001928E-02 0.  1.
       -1   -1    0    0    0  501  0.00000000000E+00  0.00000000000E+00 -0.92169196409E+03  0.92169196410E+03  0.50400001928E-02 0. -1.
    10030    2    1    2    0    0  0.00000000000E+00  0.00000000000E+00  0.75045464987E+03  0.25938385781E+04  0.24829048285E+04 0.  0.
        4    1    3    3  502    0 -0.10944847489E+04 -0.41802048599E+03  0.80413707585E+03  0.14210123300E+04  0.12699999809E+01 0.  1.
       -4    1    3    3    0  502  0.10944847489E+04  0.41802048599E+03 -0.53682425985E+02  0.11728262481E+04  0.12699999809E+01 0. -1.
</event>
<event>
 5   0  0.7138294E-06  0.2581931E+04  0.7818609E-02  0.8374365E-01
        1   -1    0    0  501    0  0.00000000000E+00  0.00000000000E+00  0.16377649066E+04  0.16377649066E+04  0.50400001928E-02 0. -1.
       -1   -1    0    0    0  501  0.00000000000E+00  0.00000000000E+00 -0.10176014996E+04  0.10176014997E+04  0.50400001928E-02 0.  1.
    10030    2    1    2    0    0  0.00000000000E+00  0.00000000000E+00  0.62016340694E+03  0.26553664062E+04  0.25819310797E+04 0.  0.
        2    1    3    3  502    0  0.29804880732E+03  0.13214460958E+03  0.15947275326E+04  0.16277134860E+04  0.25500000920E-02 0. -1.
       -2    1    3    3    0  502 -0.29804880732E+03 -0.13214460958E+03 -0.97456412566E+03  0.10276529202E+04  0.25500000920E-02 0.  1.
</event>
<event>
 5   0  0.1869956E-05  0.2604558E+04  0.7818609E-02  0.8366655E-01
        2   -1    0    0  501    0  0.00000000000E+00  0.00000000000E+00  0.13695569479E+04  0.13695569479E+04  0.25500000920E-02 0.  1.
       -2   -1    0    0    0  501  0.00000000000E+00  0.00000000000E+00 -0.12383061113E+04  0.12383061113E+04  0.25500000920E-02 0. -1.
    10030    2    1    2    0    0  0.00000000000E+00  0.00000000000E+00  0.13125083657E+03  0.26078630592E+04  0.26045581110E+04 0.  0.
        5    1    3    3  502    0 -0.12813032246E+04  0.18326996826E+03  0.20927458239E+03  0.13111612317E+04  0.46999998093E+01 0.  1.
       -5    1    3    3    0  502  0.12813032246E+04 -0.18326996826E+03 -0.78023745819E+02  0.12967018275E+04  0.46999998093E+01 0. -1.
</event>
<event>
 5   0  0.1869956E-05  0.2521409E+04  0.7818609E-02  0.8395398E-01
       -2   -1    0    0    0  501  0.00000000000E+00  0.00000000000E+00  0.20235502890E+04  0.20235502890E+04  0.25500000920E-02 0. -1.
        2   -1    0    0  501    0  0.00000000000E+00  0.00000000000E+00 -0.78543908518E+03  0.78543908519E+03  0.25500000920E-02 0.  1.
    10030    2    1    2    0    0  0.00000000000E+00  0.00000000000E+00  0.12381112038E+04  0.28089893741E+04  0.25214087235E+04 0.  0.
        5    1    3    3  502    0  0.69063587052E+03  0.84212947066E+03  0.13264531948E+04  0.17162925505E+04  0.46999998093E+01 0.  1.
       -5    1    3    3    0  502 -0.69063587052E+03 -0.84212947066E+03 -0.88341990999E+02  0.10926968236E+04  0.46999998093E+01 0. -1.
</event>
<event>
 5   0  0.6706225E-06  0.2546674E+04  0.7818609E-02  0.8386544E-01
        1   -1    0    0  501    0  0.00000000000E+00  0.00000000000E+00  0.14454765305E+04  0.14454765305E+04  0.50400001928E-02 0. -1.
       -1   -1    0    0    0  501  0.00000000000E+00  0.00000000000E+00 -0.11216976785E+04  0.11216976785E+04  0.50400001928E-02 0.  1.
    10030    2    1    2    0    0  0.00000000000E+00  0.00000000000E+00  0.32377885201E+03  0.25671742090E+04  0.25466744343E+04 0.  0.
        5    1    3    3  502    0  0.10058052623E+04  0.67238933306E+03  0.56209139606E+03  0.13340616434E+04  0.46999998093E+01 0.  1.
       -5    1    3    3    0  502 -0.10058052623E+04 -0.67238933306E+03 -0.23831254406E+03  0.12331125656E+04  0.46999998093E+01 0. -1.
</event>
<event>
 5   0  0.1681731E-05  0.2495179E+04  0.7818609E-02  0.8404705E-01
        2   -1    0    0  501    0  0.00000000000E+00  0.00000000000E+00  0.13694239702E+04  0.13694239702E+04  0.25500000920E-02 0.  1.
       -2   -1    0    0    0  501  0.00000000000E+00  0.00000000000E+00 -0.11365941354E+04  0.11365941354E+04  0.25500000920E-02 0. -1.
    10030    2    1    2    0    0  0.00000000000E+00  0.00000000000E+00  0.23282983480E+03  0.25060181055E+04  0.24951787538E+04 0.  0.
        2    1    3    3  502    0 -0.27387591659E+03 -0.10392868367E+04 -0.51986233365E+03  0.11938936270E+04  0.25500000920E-02 0. -1.
       -2    1    3    3    0  502  0.27387591659E+03  0.10392868367E+04  0.75269216845E+03  0.13121244785E+04  0.25500000920E-02 0.  1.
</event>
<event>
 5   0  0.6918420E-06  0.2635097E+04  0.7818609E-02  0.8356376E-01
        1   -1    0    0  501    0  0.00000000000E+00  0.00000000000E+00  0.14994276215E+04  0.14994276215E+04  0.50400001928E-02 0. -1.
       -1   -1    0    0    0  501  0.00000000000E+00  0.00000000000E+00 -0.11577308125E+04  0.11577308125E+04  0.50400001928E-02 0.  1.
    10030    2    1    2    0    0  0.00000000000E+00  0.00000000000E+00  0.34169680897E+03  0.26571584340E+04  0.26350966271E+04 0.  0.
        4    1    3    3  502    0  0.32216658157E+03 -0.12245560344E+04 -0.19634750843E+03  0.12813597249E+04  0.12699999809E+01 0.  1.
       -4    1    3    3    0  502 -0.32216658157E+03  0.12245560344E+04  0.53804431739E+03  0.13757987091E+04  0.12699999809E+01 0. -1.
</event>
<event>
 5   0  0.1720129E-05  0.2326698E+04  0.7818609E-02  0.8467468E-01
        2   -1    0    0  501    0  0.00000000000E+00  0.00000000000E+00  0.18929276273E+04  0.18929276273E+04  0.25500000920E-02 0. -1.
       -2   -1    0    0    0  501  0.00000000000E+00  0.00000000000E+00 -0.71496682115E+03  0.71496682116E+03  0.25500000920E-02 0.  1.
    10030    2    1    2    0    0  0.00000000000E+00  0.00000000000E+00  0.11779608061E+04  0.26078944484E+04  0.23266976154E+04 0.  0.
        3    1    3    3  502    0 -0.86468452875E+03  0.59706284610E+03  0.11485304684E+04  0.15566905998E+04  0.10100000352E+00 0. -1.
       -3    1    3    3    0  502  0.86468452875E+03 -0.59706284610E+03  0.29430337750E+02  0.10512038487E+04  0.10100000352E+00 0.  1.
</event>
<event>
 5   0  0.5840500E-06  0.2610522E+04  0.7818609E-02  0.8364636E-01
       -4   -1    0    0    0  501  0.00000000000E+00  0.00000000000E+00  0.12356598833E+04  0.12356605360E+04  0.12699999809E+01 0.  1.
        4   -1    0    0  501    0  0.00000000000E+00  0.00000000000E+00 -0.13787810704E+04  0.13787816553E+04  0.12699999809E+01 0. -1.
    10030    2    1    2    0    0  0.00000000000E+00  0.00000000000E+00 -0.14312118702E+03  0.26144421912E+04  0.26105218438E+04 0.  0.
        1    1    3    3  502    0 -0.82312474745E+03  0.10093930064E+04 -0.15711418705E+03  0.13119045160E+04  0.50400001928E-02 0. -1.
       -1    1    3    3    0  502  0.82312474745E+03 -0.10093930064E+04  0.13993000027E+02  0.13025376752E+04  0.50400001928E-02 0.  1.
</event>
<event>
 5   0  0.1681731E-05  0.2574560E+04  0.7818609E-02  0.8376894E-01
        2   -1    0    0  501    0  0.00000000000E+00  0.00000000000E+00  0.17299264008E+04  0.17299264008E+04  0.25500000920E-02 0. -1.
       -2   -1    0    0    0  501  0.00000000000E+00  0.00000000000E+00 -0.95789615331E+03  0.95789615331E+03  0.25500000920E-02 0.  1.
    10030    2    1    2    0    0  0.00000000000E+00  0.00000000000E+00  0.77203024744E+03  0.26878225541E+04  0.25745600360E+04 0.  0.
        2    1    3    3  502    0 -0.58040600266E+03 -0.11486982605E+04  0.41385321528E+03  0.13519072843E+04  0.25500000920E-02 0. -1.
       -2    1    3    3    0  502  0.58040600266E+03  0.11486982605E+04  0.35817703216E+03  0.13359152697E+04  0.25500000920E-02 0.  1.
</event>
<event>
 5   0  0.6984287E-06  0.2589275E+04  0.7818609E-02  0.8371853E-01
        1   -1    0    0  501    0  0.00000000000E+00  0.00000000000E+00  0.13295093151E+04  0.13295093151E+04  0.50400001928E-02 0. -1.
       -1   -1    0    0    0  501  0.00000000000E+00  0.00000000000E+00 -0.12606799901E+04  0.12606799901E+04  0.50400001928E-02 0.  1.
    10030    2    1    2    0    0  0.00000000000E+00  0.00000000000E+00  0.68829325053E+02  0.25901893052E+04  0.25892746399E+04 0.  0.
        3    1    3    3  502    0  0.36893372853E+03  0.10630847073E+04  0.67481624160E+03  0.13121120993E+04  0.10100000352E+00 0. -1.
       -3    1    3    3    0  502 -0.36893372853E+03 -0.10630847073E+04 -0.60598691655E+03  0.12780772059E+04  0.10100000352E+00 0.  1.
</event>
<event>
 5   0  0.1681731E-05  0.2600502E+04  0.7818609E-02  0.8368031E-01
        2   -1    0    0  501    0  0.00000000000E+00  0.00000000000E+00  0.12138094414E+04  0.12138094414E+04  0.25500000920E-02 0. -1.
       -2   -1    0    0    0  501  0.00000000000E+00  0.00000000000E+00 -0.13928481495E+04  0.13928481495E+04  0.25500000920E-02 0.  1.
    10030    2    1    2    0    0  0.00000000000E+00  0.00000000000E+00 -0.17903870806E+03  0.26066575909E+04  0.26005016703E+04 0.  0.
        2    1    3    3  502    0 -0.56745580814E+03 -0.78901149176E+03  0.77630023653E+03  0.12438598336E+04  0.25500000920E-02 0. -1.
       -2    1    3    3    0  502  0.56745580814E+03  0.78901149176E+03 -0.95533894459E+03  0.13627977573E+04  0.25500000920E-02 0.  1.
</event>
<event>
 5   0  0.6706225E-06  0.2617607E+04  0.7818609E-02  0.8362245E-01
        1   -1    0    0  501    0  0.00000000000E+00  0.00000000000E+00  0.11680354861E+04  0.11680354861E+04  0.50400001928E-02 0. -1.
       -1   -1    0    0    0  501  0.00000000000E+00  0.00000000000E+00 -0.14665362058E+04  0.14665362058E+04  0.50400001928E-02 0.  1.
    10030    2    1    2    0    0  0.00000000000E+00  0.00000000000E+00 -0.29850071971E+03  0.26345716919E+04  0.26176067925E+04 0.  0.
        5    1    3    3  502    0 -0.78832969123E+03 -0.87238013813E+03 -0.72780929225E+03  0.13828373959E+04  0.46999998093E+01 0. -1.
       -5    1    3    3    0  502  0.78832969123E+03  0.87238013813E+03  0.42930857254E+03  0.12517342961E+04  0.46999998093E+01 0.  1.
</event>
<event>
 5   0  0.6918420E-06  0.2583842E+04  0.7818609E-02  0.8373711E-01
       -1   -1    0    0    0  501  0.00000000000E+00  0.00000000000E+00  0.13034976620E+04  0.13034976620E+04  0.50400001928E-02 0. -1.
        1   -1    0    0  501    0  0.00000000000E+00  0.00000000000E+00 -0.12804469937E+04  0.12804469937E+04  0.50400001928E-02 0.  1.
    10030    2    1    2    0    0  0.00000000000E+00  0.00000000000E+00  0.23050668343E+02  0.25839446557E+04  0.25838418393E+04 0.  0.
        4    1    3    3  502    0 -0.74823381105E+03  0.10130084939E+04  0.29966525173E+03  0.12945427458E+04  0.12699999809E+01 0. -1.
       -4    1    3    3    0  502  0.74823381105E+03 -0.10130084939E+04 -0.27661458339E+03  0.12894019099E+04  0.12699999809E+01 0.  1.
</event>
<event>
 5   0  0.1720129E-05  0.2587645E+04  0.7818609E-02  0.8372410E-01
        2   -1    0    0  501    0  0.00000000000E+00  0.00000000000E+00  0.23637972968E+04  0.23637972968E+04  0.25500000920E-02 0. -1.
       -2   -1    0    0    0  501  0.00000000000E+00  0.00000000000E+00 -0.70817257092E+03  0.70817257092E+03  0.25500000920E-02 0.  1.
    10030    2    1    2    0    0  0.00000000000E+00  0.00000000000E+00  0.16556247259E+04  0.30719698677E+04  0.25876448047E+04 0.  0.
        3    1    3    3  502    0  0.11061209210E+04 -0.59276526140E+03  0.45408572854E+03  0.13345665986E+04  0.10100000352E+00 0.  1.
       -3    1    3    3    0  502 -0.11061209210E+04  0.59276526140E+03  0.12015389973E+04  0.17374032691E+04  0.10100000352E+00 0. -1.
</event>
<event>
 5   0  0.6984287E-06  0.2565052E+04  0.7818609E-02  0.8380170E-01
        1   -1    0    0  501    0  0.00000000000E+00  0.00000000000E+00  0.14893881080E+04  0.14893881080E+04  0.50400001928E-02 0.  1.
       -1   -1    0    0    0  501  0.00000000000E+00  0.00000000000E+00 -0.11043950534E+04  0.11043950534E+04  0.50400001928E-02 0. -1.
    10030    2    1    2    0    0  0.00000000000E+00  0.00000000000E+00  0.38499305461E+03  0.25937831615E+04  0.25650519364E+04 0.  0.
        3    1    3    3  502    0  0.11819921499E+04  0.21266974303E+03 -0.26258773837E+03  0.12293438057E+04  0.10100000352E+00 0. -1.
       -3    1    3    3    0  502 -0.11819921499E+04 -0.21266974303E+03  0.64758079298E+03  0.13644393558E+04  0.10100000352E+00 0.  1.
</event>
<event>
 5   0  0.7138294E-06  0.2564601E+04  0.7818609E-02  0.8380326E-01
       -1   -1    0    0    0  501  0.00000000000E+00  0.00000000000E+00  0.81609113541E+03  0.81609113543E+03  0.50400001928E-02 0.  1.
        1   -1    0    0  501    0  0.00000000000E+00  0.00000000000E+00 -0.20148420897E+04  0.20148420897E+04  0.50400001928E-02 0. -1.
    10030    2    1    2    0    0  0.00000000000E+00  0.00000000000E+00 -0.11987509543E+04  0.28309332251E+04  0.25646011532E+04 0.  0.
        2    1    3    3  502    0  0.80774693639E+02  0.10625064160E+04  0.18804159039E+03  0.10820370026E+04  0.25500000920E-02 0.  1.
       -2    1    3    3    0  502 -0.80774693639E+02 -0.10625064160E+04 -0.13867925447E+04  0.17488962225E+04  0.25500000920E-02 0. -1.
</event>
<event>
 5   0  0.7138294E-06  0.2592314E+04  0.7818609E-02  0.8370817E-01
       -1   -1    0    0    0  501  0.00000000000E+00  0.00000000000E+00  0.87194979554E+03  0.87194979556E+03  0.50400001928E-02 0.  1.
        1   -1    0    0  501    0  0.00000000000E+00  0.00000000000E+00 -0.19267422184E+04  0.19267422184E+04  0.50400001928E-02 0. -1.
    10030    2    1    2    0    0  0.00000000000E+00  0.00000000000E+00 -0.10547924229E+04  0.27986920140E+04  0.25923136257E+04 0.  0.
        2    1    3    3  502    0 -0.69428383687E+03  0.31935637159E+03 -0.16576438926E+04  0.18253223860E+04  0.25500000920E-02 0. -1.
       -2    1    3    3    0  502  0.69428383687E+03 -0.31935637159E+03  0.60285146968E+03  0.97336962801E+03  0.25500000920E-02 0.  1.
</event>
<event>
 5   0  0.1677971E-05  0.2607687E+04  0.7818609E-02  0.8365595E-01
        2   -1    0    0  501    0  0.00000000000E+00  0.00000000000E+00  0.19301308283E+04  0.19301308283E+04  0.25500000920E-02 0.  1.
       -2   -1    0    0    0  501  0.00000000000E+00  0.00000000000E+00 -0.88077369717E+03  0.88077369717E+03  0.25500000920E-02 0. -1.
    10030    2    1    2    0    0  0.00000000000E+00  0.00000000000E+00  0.10493571311E+04  0.28109045254E+04  0.26076874549E+04 0.  0.
        4    1    3    3  502    0  0.13657274048E+02  0.76734915093E+03  0.16608574895E+04  0.18296066391E+04  0.12699999809E+01 0.  1.
       -4    1    3    3    0  502 -0.13657274048E+02 -0.76734915093E+03 -0.61150035838E+03  0.98129788635E+03  0.12699999809E+01 0. -1.
</event>
<event>
 5   0  0.6993678E-06  0.2109554E+04  0.7818609E-02  0.8557047E-01
       -1   -1    0    0    0  501  0.00000000000E+00  0.00000000000E+00  0.12172519919E+04  0.12172519919E+04  0.50400001928E-02 0. -1.
        1   -1    0    0  501    0  0.00000000000E+00  0.00000000000E+00 -0.91398829051E+03  0.91398829052E+03  0.50400001928E-02 0.  1.
    10030    2    1    2    0    0  0.00000000000E+00  0.00000000000E+00  0.30326370141E+03  0.21312402824E+04  0.21095535710E+04 0.  0.
        1    1    3    3  502    0  0.43121528109E+03 -0.57376965100E+02  0.11224030457E+04  0.12037555116E+04  0.50400001928E-02 0. -1.
       -1    1    3    3    0  502 -0.43121528109E+03  0.57376965100E+02 -0.81913934427E+03  0.92748477083E+03  0.50400001928E-02 0.  1.
</event>
<event>
 5   0  0.6993678E-06  0.2609248E+04  0.7818609E-02  0.8365067E-01
        1   -1    0    0  501    0  0.00000000000E+00  0.00000000000E+00  0.10695100908E+04  0.10695100908E+04  0.50400001928E-02 0.  1.
       -1   -1    0    0    0  501  0.00000000000E+00  0.00000000000E+00 -0.15914233080E+04  0.15914233081E+04  0.50400001928E-02 0. -1.
    10030    2    1    2    0    0  0.00000000000E+00  0.00000000000E+00 -0.52191321724E+03  0.26609333989E+04  0.26092476208E+04 0.  0.
        1    1    3    3  502    0  0.17853767197E+03  0.54391588337E+02  0.10558249933E+04  0.10721942742E+04  0.50400001928E-02 0.  1.
       -1    1    3    3    0  502 -0.17853767197E+03 -0.54391588337E+02 -0.15777382105E+04  0.15887391247E+04  0.50400001928E-02 0. -1.
</event>
<event>
 5   0  0.1869956E-05  0.2606544E+04  0.7818609E-02  0.8365982E-01
       -2   -1    0    0    0  501  0.00000000000E+00  0.00000000000E+00  0.88893880015E+03  0.88893880016E+03  0.25500000920E-02 0. -1.
        2   -1    0    0  501    0  0.00000000000E+00  0.00000000000E+00 -0.19107247258E+04  0.19107247258E+04  0.25500000920E-02 0.  1.
    10030    2    1    2    0    0  0.00000000000E+00  0.00000000000E+00 -0.10217859256E+04  0.27996635260E+04  0.26065435697E+04 0.  0.
        5    1    3    3  502    0 -0.28232814824E+03 -0.68312344411E+03 -0.16637920562E+04  0.18206023507E+04  0.46999998093E+01 0.  1.
       -5    1    3    3    0  502  0.28232814824E+03  0.68312344411E+03  0.64200613056E+03  0.97906117523E+03  0.46999998093E+01 0. -1.
</event>
<event>
 5   0  0.1702345E-05  0.2584111E+04  0.7818609E-02  0.8373618E-01
        2   -1    0    0  501    0  0.00000000000E+00  0.00000000000E+00  0.19776471246E+04  0.19776471246E+04  0.25500000920E-02 0. -1.
       -2   -1    0    0    0  501  0.00000000000E+00  0.00000000000E+00 -0.84413805831E+03  0.84413805832E+03  0.25500000920E-02 0.  1.
    10030    2    1    2    0    0  0.00000000000E+00  0.00000000000E+00  0.11335090662E+04  0.28217851829E+04  0.25841108364E+04 0.  0.
        1    1    3    3  502    0  0.38678723586E+03  0.58458298111E+02  0.19114304226E+04  0.19510479233E+04  0.50400001928E-02 0. -1.
       -1    1    3    3    0  502 -0.38678723586E+03 -0.58458298111E+02 -0.77792135639E+03  0.87073725957E+03  0.50400001928E-02 0.  1.
</event>
<event>
 5   0  0.1702345E-05  0.2572646E+04  0.7818609E-02  0.8377553E-01
        2   -1    0    0  501    0  0.00000000000E+00  0.00000000000E+00  0.19350473772E+04  0.19350473772E+04  0.25500000920E-02 0.  1.
       -2   -1    0    0    0  501  0.00000000000E+00  0.00000000000E+00 -0.85508321343E+03  0.85508321344E+03  0.25500000920E-02 0. -1.
    10030    2    1    2    0    0  0.00000000000E+00  0.00000000000E+00  0.10799641637E+04  0.27901305906E+04  0.25726457428E+04 0.  0.
        1    1    3    3  502    0 -0.10403722585E+04 -0.75131380975E+03  0.44432334574E+03  0.13580390689E+04  0.50400001928E-02 0. -1.
       -1    1    3    3    0  502  0.10403722585E+04  0.75131380975E+03  0.63564081800E+03  0.14320915217E+04  0.50400001928E-02 0.  1.
</event>
<event>
 5   0  0.6984287E-06  0.2836267E+04  0.7818609E-02  0.8292097E-01
        1   -1    0    0  501    0  0.00000000000E+00  0.00000000000E+00  0.16072473806E+04  0.16072473806E+04  0.50400001928E-02 0. -1.
       -1   -1    0    0    0  501  0.00000000000E+00  0.00000000000E+00 -0.12512714150E+04  0.12512714150E+04  0.50400001928E-02 0.  1.
    10030    2    1    2    0    0  0.00000000000E+00  0.00000000000E+00  0.35597596562E+03  0.28585187956E+04  0.28362670567E+04 0.  0.
        3    1    3    3  502    0  0.81940451109E+03 -0.28503437921E+02  0.13441598716E+04  0.15744846679E+04  0.10100000352E+00 0. -1.
       -3    1    3    3    0  502 -0.81940451109E+03  0.28503437921E+02 -0.98818390601E+03  0.12840341277E+04  0.10100000352E+00 0.  1.
</event>
<event>
 5   0  0.1869956E-05  0.2596407E+04  0.7818609E-02  0.8369423E-01
       -2   -1    0    0    0  501  0.00000000000E+00  0.00000000000E+00  0.81753636000E+03  0.81753636001E+03  0.25500000920E-02 0.  1.
        2   -1    0    0  501    0  0.00000000000E+00  0.00000000000E+00 -0.20614773381E+04  0.20614773381E+04  0.25500000920E-02 0. -1.
    10030    2    1    2    0    0  0.00000000000E+00  0.00000000000E+00 -0.12439409781E+04  0.28790136981E+04  0.25964072710E+04 0.  0.
        5    1    3    3  502    0  0.77793740713E+03 -0.51375150420E+03 -0.16237330250E+04  0.18723403120E+04  0.46999998093E+01 0. -1.
       -5    1    3    3    0  502 -0.77793740713E+03  0.51375150420E+03  0.37979204688E+03  0.10066733861E+04  0.46999998093E+01 0.  1.
</event>
<event>
 5   0  0.1681731E-05  0.2632267E+04  0.7818609E-02  0.8357323E-01
       -2   -1    0    0    0  501  0.00000000000E+00  0.00000000000E+00  0.13510715802E+04  0.13510715802E+04  0.25500000920E-02 0.  1.
        2   -1    0    0  501    0  0.00000000000E+00  0.00000000000E+00 -0.12820988645E+04  0.12820988645E+04  0.25500000920E-02 0. -1.
    10030    2    1    2    0    0  0.00000000000E+00  0.00000000000E+00  0.68972715737E+02  0.26331704446E+04  0.26322669612E+04 0.  0.
        2    1    3    3  502    0 -0.16859171076E+03  0.11488991273E+04 -0.58525430650E+03  0.13003518650E+04  0.25500000920E-02 0. -1.
       -2    1    3    3    0  502  0.16859171076E+03 -0.11488991273E+04  0.65422702224E+03  0.13328185796E+04  0.25500000920E-02 0.  1.
</event>
<event>
 5   0  0.6706225E-06  0.2617002E+04  0.7818609E-02  0.8362449E-01
        1   -1    0    0  501    0  0.00000000000E+00  0.00000000000E+00  0.15170981749E+04  0.15170981749E+04  0.50400001928E-02 0.  1.
       -1   -1    0    0    0  501  0.00000000000E+00  0.00000000000E+00 -0.11285850075E+04  0.11285850075E+04  0.50400001928E-02 0. -1.
    10030    2    1    2    0    0  0.00000000000E+00  0.00000000000E+00  0.38851316739E+03  0.26456831825E+04  0.26170015324E+04 0.  0.
        5    1    3    3  502    0 -0.51666218400E+03  0.10743187509E+04 -0.35114806599E+03  0.12427500333E+04  0.46999998093E+01 0. -1.
       -5    1    3    3    0  502  0.51666218400E+03 -0.10743187509E+04  0.73966123338E+03  0.14029331492E+04  0.46999998093E+01 0.  1.
</event>
<event>
 5   0  0.1702345E-05  0.2683908E+04  0.7818609E-02  0.8340245E-01
        2   -1    0    0  501    0  0.00000000000E+00  0.00000000000E+00  0.21219261040E+04  0.21219261040E+04  0.25500000920E-02 0. -1.
       -2   -1    0    0    0  501  0.00000000000E+00  0.00000000000E+00 -0.84868202655E+03  0.84868202655E+03  0.25500000920E-02 0.  1.
    10030    2    1    2    0    0  0.00000000000E+00  0.00000000000E+00  0.12732440775E+04  0.29706081306E+04  0.26839080060E+04 0.  0.
        1    1    3    3  502    0  0.75436486362E+03  0.74877189782E+03 -0.27010415492E+03  0.10966685721E+04  0.50400001928E-02 0.  1.
       -1    1    3    3    0  502 -0.75436486362E+03 -0.74877189782E+03  0.15433482324E+04  0.18739395585E+04  0.50400001928E-02 0. -1.
</event>
<event>
 5   0  0.1677971E-05  0.2697936E+04  0.7818609E-02  0.8335675E-01
       -2   -1    0    0    0  501  0.00000000000E+00  0.00000000000E+00  0.13777835287E+04  0.13777835287E+04  0.25500000920E-02 0.  1.
        2   -1    0    0  501    0  0.00000000000E+00  0.00000000000E+00 -0.13207555955E+04  0.13207555955E+04  0.25500000920E-02 0. -1.
    10030    2    1    2    0    0  0.00000000000E+00  0.00000000000E+00  0.57027933168E+02  0.26985391242E+04  0.26979364743E+04 0.  0.
        4    1    3    3  502    0  0.17782053476E+03  0.40136724827E+03 -0.12473092272E+04  0.13223077296E+04  0.12699999809E+01 0. -1.
       -4    1    3    3    0  502 -0.17782053476E+03 -0.40136724827E+03  0.13043371604E+04  0.13762313946E+04  0.12699999809E+01 0.  1.
</event>
<event>
 5   0  0.1702345E-05  0.2730087E+04  0.7818609E-02  0.8325308E-01
       -2   -1    0    0    0  501  0.00000000000E+00  0.00000000000E+00  0.15001091226E+04  0.15001091226E+04  0.25500000920E-02 0. -1.
        2   -1    0    0  501    0  0.00000000000E+00  0.00000000000E+00 -0.12421390271E+04  0.12421390271E+04  0.25500000920E-02 0.  1.
    10030    2    1    2    0    0  0.00000000000E+00  0.00000000000E+00  0.25797009545E+03  0.27422481497E+04  0.27300872412E+04 0.  0.
        1    1    3    3  502    0 -0.70586955566E+03  0.21273968835E+03  0.12829427657E+04  0.14796797439E+04  0.50400001928E-02 0. -1.
       -1    1    3    3    0  502  0.70586955566E+03 -0.21273968835E+03 -0.10249726702E+04  0.12625684058E+04  0.50400001928E-02 0.  1.
</event>
<event>
 5   0  0.1681731E-05  0.2584268E+04  0.7818609E-02  0.8373565E-01
        2   -1    0    0  501    0  0.00000000000E+00  0.00000000000E+00  0.20510563179E+04  0.20510563179E+04  0.25500000920E-02 0. -1.
       -2   -1    0    0    0  501  0.00000000000E+00  0.00000000000E+00 -0.81402490279E+03  0.81402490279E+03  0.25500000920E-02 0.  1.
    10030    2    1    2    0    0  0.00000000000E+00  0.00000000000E+00  0.12370314151E+04  0.28650812207E+04  0.25842684998E+04 0.  0.
        2    1    3    3  502    0 -0.39368850792E+03 -0.32879825176E+03  0.19333500023E+04  0.20002352769E+04  0.25500000920E-02 0. -1.
       -2    1    3    3    0  502  0.39368850792E+03  0.32879825176E+03 -0.69631858718E+03  0.86484594379E+03  0.25500000920E-02 0.  1.
</event>
<event>
 5   0  0.7138294E-06  0.2580886E+04  0.7818609E-02  0.8374723E-01
       -1   -1    0    0    0  501  0.00000000000E+00  0.00000000000E+00  0.92955441591E+03  0.92955441592E+03  0.50400001928E-02 0. -1.
        1   -1    0    0  501    0  0.00000000000E+00  0.00000000000E+00 -0.17914428998E+04  0.17914428998E+04  0.50400001928E-02 0.  1.
    10030    2    1    2    0    0  0.00000000000E+00  0.00000000000E+00 -0.86188848389E+03  0.27209973157E+04  0.25808864046E+04 0.  0.
        2    1    3    3  502    0  0.18853041448E+03 -0.11601181314E+03  0.90938752288E+03  0.93594237255E+03  0.25500000920E-02 0. -1.
       -2    1    3    3    0  502 -0.18853041448E+03  0.11601181314E+03 -0.17712760068E+04  0.17850549432E+04  0.25500000920E-02 0.  1.
</event>
<event>
 5   0  0.7138294E-06  0.2601628E+04  0.7818609E-02  0.8367648E-01
       -1   -1    0    0    0  501  0.00000000000E+00  0.00000000000E+00  0.90402353157E+03  0.90402353159E+03  0.50400001928E-02 0. -1.
        1   -1    0    0  501    0  0.00000000000E+00  0.00000000000E+00 -0.18717627073E+04  0.18717627073E+04  0.50400001928E-02 0.  1.
    10030    2    1    2    0    0  0.00000000000E+00  0.00000000000E+00 -0.96773917568E+03  0.27757862388E+04  0.26016283615E+04 0.  0.
        2    1    3    3  502    0 -0.11870599387E+04 -0.41739852874E+03 -0.13196520560E+03  0.12652065624E+04  0.25500000920E-02 0. -1.
       -2    1    3    3    0  502  0.11870599387E+04  0.41739852874E+03 -0.83577397008E+03  0.15105796765E+04  0.25500000920E-02 0.  1.
</event>
<event>
 5   0  0.1702345E-05  0.2601321E+04  0.7818609E-02  0.8367752E-01
        2   -1    0    0  501    0  0.00000000000E+00  0.00000000000E+00  0.11490123260E+04  0.11490123260E+04  0.25500000920E-02 0. -1.
       -2   -1    0    0    0  501  0.00000000000E+00  0.00000000000E+00 -0.14723239514E+04  0.14723239514E+04  0.25500000920E-02 0.  1.
    10030    2    1    2    0    0  0.00000000000E+00  0.00000000000E+00 -0.32331162540E+03  0.26213362773E+04  0.26013214856E+04 0.  0.
        1    1    3    3  502    0  0.58964097702E+03  0.46550211049E+02  0.10056502332E+04  0.11666943882E+04  0.50400001928E-02 0. -1.
       -1    1    3    3    0  502 -0.58964097702E+03 -0.46550211049E+02 -0.13289618586E+04  0.14546418891E+04  0.50400001928E-02 0.  1.
</event>
<event>
 5   0  0.6993678E-06  0.2601342E+04  0.7818609E-02  0.8367745E-01
       -1   -1    0    0    0  501  0.00000000000E+00  0.00000000000E+00  0.11943233462E+04  0.11943233462E+04  0.50400001928E-02 0.  1.
        1   -1    0    0  501    0  0.00000000000E+00  0.00000000000E+00 -0.14164884951E+04  0.14164884951E+04  0.50400001928E-02 0. -1.
    10030    2    1    2    0    0  0.00000000000E+00  0.00000000000E+00 -0.22216514886E+03  0.26108118413E+04  0.26013421761E+04 0.  0.
        1    1    3    3  502    0 -0.46051430951E+03 -0.78555050930E+02 -0.13293799317E+04  0.14090760548E+04  0.50400001928E-02 0. -1.
       -1    1    3    3    0  502  0.46051430951E+03  0.78555050930E+02  0.11072147828E+04  0.12017357865E+04  0.50400001928E-02 0.  1.
</event>
<event>
 5   0  0.6706225E-06  0.2600421E+04  0.7818609E-02  0.8368058E-01
        1   -1    0    0  501    0  0.00000000000E+00  0.00000000000E+00  0.12825661398E+04  0.12825661398E+04  0.50400001928E-02 0.  1.
       -1   -1    0    0    0  501  0.00000000000E+00  0.00000000000E+00 -0.13180973881E+04  0.13180973881E+04  0.50400001928E-02 0. -1.
    10030    2    1    2    0    0  0.00000000000E+00  0.00000000000E+00 -0.35531248247E+02  0.26006635279E+04  0.26004207959E+04 0.  0.
        5    1    3    3  502    0  0.69438881455E+03 -0.10968182307E+04 -0.90840440421E+02  0.13013301397E+04  0.46999998093E+01 0.  1.
       -5    1    3    3    0  502 -0.69438881455E+03  0.10968182307E+04  0.55309192174E+02  0.12993333882E+04  0.46999998093E+01 0. -1.
</event>
<event>
 5   0  0.1702345E-05  0.2527584E+04  0.7818609E-02  0.8393224E-01
       -2   -1    0    0    0  501  0.00000000000E+00  0.00000000000E+00  0.14992175963E+04  0.14992175963E+04  0.25500000920E-02 0. -1.
        2   -1    0    0  501    0  0.00000000000E+00  0.00000000000E+00 -0.10653360629E+04  0.10653360629E+04  0.25500000920E-02 0.  1.
    10030    2    1    2    0    0  0.00000000000E+00  0.00000000000E+00  0.43388153332E+03  0.25645536592E+04  0.25275842787E+04 0.  0.
        1    1    3    3  502    0  0.47875718543E+03 -0.71396777144E+03 -0.72300646770E+03  0.11232527648E+04  0.50400001928E-02 0.  1.
       -1    1    3    3    0  502 -0.47875718543E+03  0.71396777144E+03  0.11568880010E+04  0.14413008944E+04  0.50400001928E-02 0. -1.
</event>
<event>
 5   0  0.6918420E-06  0.2615789E+04  0.7818609E-02  0.8362858E-01
       -1   -1    0    0    0  501  0.00000000000E+00  0.00000000000E+00  0.63210116097E+03  0.63210116099E+03  0.50400001928E-02 0. -1.
        1   -1    0    0  501    0  0.00000000000E+00  0.00000000000E+00 -0.27061930862E+04  0.27061930862E+04  0.50400001928E-02 0.  1.
    10030    2    1    2    0    0  0.00000000000E+00  0.00000000000E+00 -0.20740919252E+04  0.33382942472E+04  0.26157888230E+04 0.  0.
        4    1    3    3  502    0 -0.11676779082E+04  0.58441261185E+03 -0.94174481367E+03  0.16099362426E+04  0.12699999809E+01 0. -1.
       -4    1    3    3    0  502  0.11676779082E+04 -0.58441261185E+03 -0.11323471116E+04  0.17283580046E+04  0.12699999809E+01 0.  1.
</event>
<event>
 5   0  0.1681731E-05  0.2570293E+04  0.7818609E-02  0.8378362E-01
        2   -1    0    0  501    0  0.00000000000E+00  0.00000000000E+00  0.12663241265E+04  0.12663241265E+04  0.25500000920E-02 0. -1.
       -2   -1    0    0    0  501  0.00000000000E+00  0.00000000000E+00 -0.13042490618E+04  0.13042490618E+04  0.25500000920E-02 0.  1.
    10030    2    1    2    0    0  0.00000000000E+00  0.00000000000E+00 -0.37924935285E+02  0.25705731882E+04  0.25702934104E+04 0.  0.
        2    1    3    3  502    0  0.68911043353E+03 -0.41757525358E+03  0.98232570194E+03  0.12705140954E+04  0.25500000920E-02 0. -1.
       -2    1    3    3    0  502 -0.68911043353E+03  0.41757525358E+03 -0.10202506372E+04  0.13000590928E+04  0.25500000920E-02 0.  1.
</event>
<event>
 5   0  0.6918420E-06  0.2587791E+04  0.7818609E-02  0.8372360E-01
       -1   -1    0    0    0  501  0.00000000000E+00  0.00000000000E+00  0.98501837329E+03  0.98501837331E+03  0.50400001928E-02 0.  1.
        1   -1    0    0  501    0  0.00000000000E+00  0.00000000000E+00 -0.16996293036E+04  0.16996293036E+04  0.50400001928E-02 0. -1.
    10030    2    1    2    0    0  0.00000000000E+00  0.00000000000E+00 -0.71461093033E+03  0.26846476769E+04  0.25877914073E+04 0.  0.
        4    1    3    3  502    0  0.58284895811E+03  0.11424721994E+04 -0.18000281728E+03  0.12951286660E+04  0.12699999809E+01 0. -1.
       -4    1    3    3    0  502 -0.58284895811E+03 -0.11424721994E+04 -0.53460811305E+03  0.13895190109E+04  0.12699999809E+01 0.  1.
</event>
<event>
 5   0  0.6993678E-06  0.2593036E+04  0.7818609E-02  0.8370570E-01
        1   -1    0    0  501    0  0.00000000000E+00  0.00000000000E+00  0.18610983958E+04  0.18610983958E+04  0.50400001928E-02 0. -1.
       -1   -1    0    0    0  501  0.00000000000E+00  0.00000000000E+00 -0.90320829760E+03  0.90320829762E+03  0.50400001928E-02 0.  1.
    10030    2    1    2    0    0  0.00000000000E+00  0.00000000000E+00  0.95789009823E+03  0.27643066935E+04  0.25930364547E+04 0.  0.
        1    1    3    3  502    0 -0.10923155363E+04  0.61524044115E+03  0.12652643433E+03  0.12600329242E+04  0.50400001928E-02 0.  1.
       -1    1    3    3    0  502  0.10923155363E+04 -0.61524044115E+03  0.83136366390E+03  0.15042737693E+04  0.50400001928E-02 0. -1.
</event>
<event>
 5   0  0.1869956E-05  0.2577754E+04  0.7818609E-02  0.8375797E-01
        2   -1    0    0  501    0  0.00000000000E+00  0.00000000000E+00  0.16484558697E+04  0.16484558697E+04  0.25500000920E-02 0.  1.
       -2   -1    0    0    0  501  0.00000000000E+00  0.00000000000E+00 -0.10077332481E+04  0.10077332481E+04  0.25500000920E-02 0. -1.
    10030    2    1    2    0    0  0.00000000000E+00  0.00000000000E+00  0.64072262167E+03  0.26561891178E+04  0.25777538966E+04 0.  0.
        5    1    3    3  502    0  0.92843396057E+03 -0.58420956953E+03 -0.37690505561E+03  0.11599008368E+04  0.46999998093E+01 0. -1.
       -5    1    3    3    0  502 -0.92843396057E+03  0.58420956953E+03  0.10176276773E+04  0.14962882810E+04  0.46999998093E+01 0.  1.
</event>
<event>
 5   0  0.6984287E-06  0.2572353E+04  0.7818609E-02  0.8377653E-01
       -1   -1    0    0    0  501  0.00000000000E+00  0.00000000000E+00  0.14381220207E+04  0.14381220207E+04  0.50400001928E-02 0. -1.
        1   -1    0    0  501    0  0.00000000000E+00  0.00000000000E+00 -0.11502846038E+04  0.11502846038E+04  0.50400001928E-02 0.  1.
    10030    2    1    2    0    0  0.00000000000E+00  0.00000000000E+00  0.28783741685E+03  0.25884066245E+04  0.25723527120E+04 0.  0.
        3    1    3    3  502    0 -0.44182923160E+03  0.60344392583E+03  0.11968199071E+04  0.14112886103E+04  0.10100000352E+00 0. -1.
       -3    1    3    3    0  502  0.44182923160E+03 -0.60344392583E+03 -0.90898249022E+03  0.11771180142E+04  0.10100000352E+00 0.  1.
</event>
<event>
 5   0  0.6984287E-06  0.2511292E+04  0.7818609E-02  0.8398974E-01
       -1   -1    0    0    0  501  0.00000000000E+00  0.00000000000E+00  0.14188305862E+04  0.14188305862E+04  0.50400001928E-02 0. -1.
        1   -1    0    0  501    0  0.00000000000E+00  0.00000000000E+00 -0.11112298491E+04  0.11112298491E+04  0.50400001928E-02 0.  1.
    10030    2    1    2    0    0  0.00000000000E+00  0.00000000000E+00  0.30760073710E+03  0.25300604353E+04  0.25112920166E+04 0.  0.
        3    1    3    3  502    0  0.54768155405E+03  0.11161904500E+04  0.33064192969E+03  0.12865303343E+04  0.10100000352E+00 0. -1.
       -3    1    3    3    0  502 -0.54768155405E+03 -0.11161904500E+04 -0.23041192586E+02  0.12435301010E+04  0.10100000352E+00 0.  1.
</event>
<event>
 5   0  0.1681731E-05  0.2600575E+04  0.7818609E-02  0.8368006E-01
       -2   -1    0    0    0  501  0.00000000000E+00  0.00000000000E+00  0.75449022217E+03  0.75449022217E+03  0.25500000920E-02 0.  1.
        2   -1    0    0  501    0  0.00000000000E+00  0.00000000000E+00 -0.22409136720E+04  0.22409136720E+04  0.25500000920E-02 0. -1.
    10030    2    1    2    0    0  0.00000000000E+00  0.00000000000E+00 -0.14864234498E+04  0.29954038941E+04  0.26005749012E+04 0.  0.
        2    1    3    3  502    0  0.26840497294E+03 -0.12720837152E+04 -0.71721911320E+03  0.14848035104E+04  0.25500000920E-02 0.  1.
       -2    1    3    3    0  502 -0.26840497294E+03  0.12720837152E+04 -0.76920433660E+03  0.15106003838E+04  0.25500000920E-02 0. -1.
</event>
<event>
 5   0  0.1677971E-05  0.2677038E+04  0.7818609E-02  0.8342494E-01
       -2   -1    0    0    0  501  0.00000000000E+00  0.00000000000E+00  0.12667434900E+04  0.12667434900E+04  0.25500000920E-02 0. -1.
        2   -1    0    0  501    0  0.00000000000E+00  0.00000000000E+00 -0.14143617798E+04  0.14143617798E+04  0.25500000920E-02 0.  1.
    10030    2    1    2    0    0  0.00000000000E+00  0.00000000000E+00 -0.14761828982E+03  0.26811052698E+04  0.26770383464E+04 0.  0.
        4    1    3    3  502    0  0.11018431574E+04 -0.43485947543E+03  0.55041202906E+03  0.13061838008E+04  0.12699999809E+01 0. -1.
       -4    1    3    3    0  502 -0.11018431574E+04  0.43485947543E+03 -0.69803031888E+03  0.13749214690E+04  0.12699999809E+01 0.  1.
</event>
<event>
 5   0  0.6984287E-06  0.2601186E+04  0.7818609E-02  0.8367798E-01
        1   -1    0    0  501    0  0.00000000000E+00  0.00000000000E+00  0.20610967914E+04  0.20610967914E+04  0.50400001928E-02 0.  1.
       -1   -1    0    0    0  501  0.00000000000E+00  0.00000000000E+00 -0.82070016801E+03  0.82070016803E+03  0.50400001928E-02 0. -1.
    10030    2    1    2    0    0  0.00000000000E+00  0.00000000000E+00  0.12403966234E+04  0.28817969595E+04  0.26011862548E+04 0.  0.
        3    1    3    3  502    0  0.11154413634E+04 -0.37914501333E+03  0.97765522268E+01  0.11781578703E+04  0.10100000352E+00 0. -1.
       -3    1    3    3    0  502 -0.11154413634E+04  0.37914501333E+03  0.12306200712E+04  0.17036390891E+04  0.10100000352E+00 0.  1.
</event>
<event>
 5   0  0.1681731E-05  0.2599950E+04  0.7818609E-02  0.8368218E-01
        2   -1    0    0  501    0  0.00000000000E+00  0.00000000000E+00  0.10497406229E+04  0.10497406229E+04  0.25500000920E-02 0. -1.
       -2   -1    0    0    0  501  0.00000000000E+00  0.00000000000E+00 -0.16098600614E+04  0.16098600614E+04  0.25500000920E-02 0.  1.
    10030    2    1    2    0    0  0.00000000000E+00  0.00000000000E+00 -0.56011943851E+03  0.26596006844E+04  0.25999503870E+04 0.  0.
        2    1    3    3  502    0 -0.52941264512E+03  0.91730538557E+02 -0.14909593427E+04  0.15848192332E+04  0.25500000920E-02 0.  1.
       -2    1    3    3    0  502  0.52941264512E+03 -0.91730538557E+02  0.93083990417E+03  0.10747814511E+04  0.25500000920E-02 0. -1.
</event>
<event>
 5   0  0.1677971E-05  0.2571027E+04  0.7818609E-02  0.8378110E-01
       -2   -1    0    0    0  501  0.00000000000E+00  0.00000000000E+00  0.12198404302E+04  0.12198404302E+04  0.25500000920E-02 0.  1.
        2   -1    0    0  501    0  0.00000000000E+00  0.00000000000E+00 -0.13547219509E+04  0.13547219509E+04  0.25500000920E-02 0. -1.
    10030    2    1    2    0    0  0.00000000000E+00  0.00000000000E+00 -0.13488152072E+03  0.25745623811E+04  0.25710267267E+04 0.  0.
        4    1    3    3  502    0  0.20361673705E+03  0.12398321272E+04  0.20477773104E+03  0.12730196429E+04  0.12699999809E+01 0.  1.
       -4    1    3    3    0  502 -0.20361673705E+03 -0.12398321272E+04 -0.33965925176E+03  0.13015427382E+04  0.12699999809E+01 0. -1.
</event>
<event>
 5   0  0.1720129E-05  0.2592665E+04  0.7818609E-02  0.8370697E-01
       -2   -1    0    0    0  501  0.00000000000E+00  0.00000000000E+00  0.16451405748E+04  0.16451405748E+04  0.25500000920E-02 0.  1.
        2   -1    0    0  501    0  0.00000000000E+00  0.00000000000E+00 -0.10214800223E+04  0.10214800223E+04  0.25500000920E-02 0. -1.
    10030    2    1    2    0    0  0.00000000000E+00  0.00000000000E+00  0.62366055256E+03  0.26666205971E+04  0.25926652164E+04 0.  0.
        3    1    3    3  502    0 -0.24618106060E+03  0.22703273887E+01  0.16208753322E+04  0.16394654988E+04  0.10100000352E+00 0.  1.
       -3    1    3    3    0  502  0.24618106060E+03 -0.22703273887E+01 -0.99721477966E+03  0.10271550983E+04  0.10100000352E+00 0. -1.
</event>
<event>
 5   0  0.6706225E-06  0.2634117E+04  0.7818609E-02  0.8356704E-01
        1   -1    0    0  501    0  0.00000000000E+00  0.00000000000E+00  0.16404250203E+04  0.16404250203E+04  0.50400001928E-02 0. -1.
       -1   -1    0    0    0  501  0.00000000000E+00  0.00000000000E+00 -0.10574350230E+04  0.10574350230E+04  0.50400001928E-02 0.  1.
    10030    2    1    2    0    0  0.00000000000E+00  0.00000000000E+00  0.58298999730E+03  0.26978600433E+04  0.26341168305E+04 0.  0.
        5    1    3    3  502    0  0.75763778463E+03  0.58553261755E+02  0.13932482283E+04  0.15870117242E+04  0.46999998093E+01 0. -1.
       -5    1    3    3    0  502 -0.75763778463E+03 -0.58553261755E+02 -0.81025823101E+03  0.11108483191E+04  0.46999998093E+01 0.  1.
</event>
<event>
 5   0  0.1681731E-05  0.2620468E+04  0.7818609E-02  0.8361282E-01
        2   -1    0    0  501    0  0.00000000000E+00  0.00000000000E+00  0.16774065564E+04  0.16774065564E+04  0.25500000920E-02 0. -1.
       -2   -1    0    0    0  501  0.00000000000E+00  0.00000000000E+00 -0.10234326739E+04  0.10234326739E+04  0.25500000920E-02 0.  1.
    10030    2    1    2    0    0  0.00000000000E+00  0.00000000000E+00  0.65397388254E+03  0.27008392303E+04  0.26204676508E+04 0.  0.
        2    1    3    3  502    0 -0.11851291976E+04 -0.51095151735E+03  0.55999605568E+03  0.14068398098E+04  0.25500000920E-02 0. -1.
       -2    1    3    3    0  502  0.11851291976E+04  0.51095151735E+03  0.93977826860E+02  0.12939994204E+04  0.25500000920E-02 0.  1.
</event>
<event>
 5   0  0.5840500E-06  0.2606069E+04  0.7818609E-02  0.8366143E-01
        3   -1    0    0  501    0  0.00000000000E+00  0.00000000000E+00  0.66688815124E+03  0.66688815889E+03  0.10100000352E+00 0.  1.
       -3   -1    0    0    0  501  0.00000000000E+00  0.00000000000E+00 -0.25460019507E+04  0.25460019527E+04  0.10100000352E+00 0. -1.
    10030    2    1    2    0    0  0.00000000000E+00  0.00000000000E+00 -0.18791137995E+04  0.32128901116E+04  0.26060687247E+04 0.  0.
        4    1    3    3  502    0 -0.10499271618E+04  0.34577758618E+03 -0.17901226611E+04  0.21039130065E+04  0.12699999809E+01 0. -1.
       -4    1    3    3    0  502  0.10499271618E+04 -0.34577758618E+03 -0.88991138384E+02  0.11089771051E+04  0.12699999809E+01 0.  1.
</event>
<event>
 5   0  0.6918420E-06  0.2578360E+04  0.7818609E-02  0.8375589E-01
        1   -1    0    0  501    0  0.00000000000E+00  0.00000000000E+00  0.21233344881E+04  0.21233344881E+04  0.50400001928E-02 0. -1.
       -1   -1    0    0    0  501  0.00000000000E+00  0.00000000000E+00 -0.78272423036E+03  0.78272423038E+03  0.50400001928E-02 0.  1.
    10030    2    1    2    0    0  0.00000000000E+00  0.00000000000E+00  0.13406102577E+04  0.29060587185E+04  0.25783602177E+04 0.  0.
        4    1    3    3  502    0 -0.10795487721E+04  0.82400314916E+02 -0.11847536777E+03  0.10891526013E+04  0.12699999809E+01 0.  1.
       -4    1    3    3    0  502  0.10795487721E+04 -0.82400314916E+02  0.14590856255E+04  0.18169061172E+04  0.12699999809E+01 0. -1.
</event>
<event>
 5   0  0.1681731E-05  0.2594823E+04  0.7818609E-02  0.8369962E-01
       -2   -1    0    0    0  501  0.00000000000E+00  0.00000000000E+00  0.87668915943E+03  0.87668915944E+03  0.25500000920E-02 0.  1.
        2   -1    0    0  501    0  0.00000000000E+00  0.00000000000E+00 -0.19200386279E+04  0.19200386279E+04  0.25500000920E-02 0. -1.
    10030    2    1    2    0    0  0.00000000000E+00  0.00000000000E+00 -0.10433494685E+04  0.27967277873E+04  0.25948233472E+04 0.  0.
        2    1    3    3  502    0  0.10052295459E+04  0.39919570540E+03  0.25062246337E+03  0.11102500936E+04  0.25500000920E-02 0.  1.
       -2    1    3    3    0  502 -0.10052295459E+04 -0.39919570540E+03 -0.12939719318E+04  0.16864776937E+04  0.25500000920E-02 0. -1.
</event>
<event>
 5   0  0.6706225E-06  0.2598130E+04  0.7818609E-02  0.8368837E-01
       -1   -1    0    0    0  501  0.00000000000E+00  0.00000000000E+00  0.13804772524E+04  0.13804772524E+04  0.50400001928E-02 0.  1.
        1   -1    0    0  501    0  0.00000000000E+00  0.00000000000E+00 -0.12224543202E+04  0.12224543202E+04  0.50400001928E-02 0. -1.
    10030    2    1    2    0    0  0.00000000000E+00  0.00000000000E+00  0.15802293218E+03  0.26029315727E+04  0.25981303903E+04 0.  0.
        5    1    3    3  502    0 -0.93197267430E+03 -0.33060401180E+03 -0.76496810172E+03  0.12502281251E+04  0.46999998093E+01 0. -1.
       -5    1    3    3    0  502  0.93197267430E+03  0.33060401180E+03  0.92299103390E+03  0.13527034475E+04  0.46999998093E+01 0.  1.
</event>
<event>
 5   0  0.6706225E-06  0.2601786E+04  0.7818609E-02  0.8367595E-01
       -1   -1    0    0    0  501  0.00000000000E+00  0.00000000000E+00  0.13640756022E+04  0.13640756022E+04  0.50400001928E-02 0.  1.
        1   -1    0    0  501    0  0.00000000000E+00  0.00000000000E+00 -0.12406371821E+04  0.12406371821E+04  0.50400001928E-02 0. -1.
    10030    2    1    2    0    0  0.00000000000E+00  0.00000000000E+00  0.12343842010E+03  0.26047127843E+04  0.26017862413E+04 0.  0.
        5    1    3    3  502    0  0.52984107582E+03  0.65365422574E+03 -0.93151841935E+03  0.12552864486E+04  0.46999998093E+01 0. -1.
       -5    1    3    3    0  502 -0.52984107582E+03 -0.65365422574E+03  0.10549568394E+04  0.13494263357E+04  0.46999998093E+01 0.  1.
</event>
<event>
 5   0  0.6984287E-06  0.2604844E+04  0.7818609E-02  0.8366558E-01
       -1   -1    0    0    0  501  0.00000000000E+00  0.00000000000E+00  0.92401596816E+03  0.92401596818E+03  0.50400001928E-02 0.  1.
        1   -1    0    0  501    0  0.00000000000E+00  0.00000000000E+00 -0.18357937397E+04  0.18357937397E+04  0.50400001928E-02 0. -1.
    10030    2    1    2    0    0  0.00000000000E+00  0.00000000000E+00 -0.91177777153E+03  0.27598097079E+04  0.26048437418E+04 0.  0.
        3    1    3    3  502    0 -0.79124581481E+03  0.10294202484E+04 -0.56459256632E+03  0.14158180545E+04  0.10100000352E+00 0.  1.
       -3    1    3    3    0  502  0.79124581481E+03 -0.10294202484E+04 -0.34718520521E+03  0.13439916534E+04  0.10100000352E+00 0. -1.
</event>
<event>
 5   0  0.7138294E-06  0.2631296E+04  0.7818609E-02  0.8357648E-01
       -1   -1    0    0    0  501  0.00000000000E+00  0.00000000000E+00  0.11601050513E+04  0.11601050513E+04  0.50400001928E-02 0.  1.
        1   -1    0    0  501    0  0.00000000000E+00  0.00000000000E+00 -0.14920461673E+04  0.14920461674E+04  0.50400001928E-02 0. -1.
    10030    2    1    2    0    0  0.00000000000E+00  0.00000000000E+00 -0.33194111606E+03  0.26521512186E+04  0.26312964831E+04 0.  0.
        2    1    3    3  502    0 -0.22812590461E+02 -0.39387764380E+03  0.10990746260E+04  0.11677435703E+04  0.25500000920E-02 0.  1.
       -2    1    3    3    0  502  0.22812590461E+02  0.39387764380E+03 -0.14310157420E+04  0.14844076483E+04  0.25500000920E-02 0. -1.
</event>
<event>
 5   0  0.1869956E-05  0.2632196E+04  0.7818609E-02  0.8357347E-01
       -2   -1    0    0    0  501  0.00000000000E+00  0.00000000000E+00  0.79672266079E+03  0.79672266080E+03  0.25500000920E-02 0.  1.
        2   -1    0    0  501    0  0.00000000000E+00  0.00000000000E+00 -0.21740481779E+04  0.21740481779E+04  0.25500000920E-02 0. -1.
    10030    2    1    2    0    0  0.00000000000E+00  0.00000000000E+00 -0.13773255171E+04  0.29707708387E+04  0.26321956227E+04 0.  0.
        5    1    3    3  502    0  0.10952939114E+04  0.59289552194E+03 -0.20863397402E+03  0.12628317692E+04  0.46999998093E+01 0. -1.
       -5    1    3    3    0  502 -0.10952939114E+04 -0.59289552194E+03 -0.11686915431E+04  0.17079390695E+04  0.46999998093E+01 0.  1.
</event>
<event>
 5   0  0.6918420E-06  0.2590220E+04  0.7818609E-02  0.8371531E-01
       -1   -1    0    0    0  501  0.00000000000E+00  0.00000000000E+00  0.14615005176E+04  0.14615005176E+04  0.50400001928E-02 0.  1.
        1   -1    0    0  501    0  0.00000000000E+00  0.00000000000E+00 -0.11476625492E+04  0.11476625492E+04  0.50400001928E-02 0. -1.
    10030    2    1    2    0    0  0.00000000000E+00  0.00000000000E+00  0.31383796839E+03  0.26091630668E+04  0.25902196120E+04 0.  0.
        4    1    3    3  502    0  0.36248916604E+03  0.44875673204E+03  0.13249365284E+04  0.14450741909E+04  0.12699999809E+01 0.  1.
       -4    1    3    3    0  502 -0.36248916604E+03 -0.44875673204E+03 -0.10110985600E+04  0.11640888759E+04  0.12699999809E+01 0. -1.
</event>
<event>
 5   0  0.6706225E-06  0.2568700E+04  0.7818609E-02  0.8378912E-01
        1   -1    0    0  501    0  0.00000000000E+00  0.00000000000E+00  0.12567311927E+04  0.12567311927E+04  0.50400001928E-02 0.  1.
       -1   -1    0    0    0  501  0.00000000000E+00  0.00000000000E+00 -0.13125753256E+04  0.13125753256E+04  0.50400001928E-02 0. -1.
    10030    2    1    2    0    0  0.00000000000E+00  0.00000000000E+00 -0.55844132879E+02  0.25693065183E+04  0.25686995577E+04 0.  0.
        5    1    3    3  502    0  0.36420438335E+03  0.72595472049E+03  0.96723873905E+03  0.12630233400E+04  0.46999998093E+01 0.  1.
       -5    1    3    3    0  502 -0.36420438335E+03 -0.72595472049E+03 -0.10230828719E+04  0.13062831783E+04  0.46999998093E+01 0. -1.
</event>
<event>
 5   0  0.1681731E-05  0.2582700E+04  0.7818609E-02  0.8374101E-01
       -2   -1    0    0    0  501  0.00000000000E+00  0.00000000000E+00  0.12433375228E+04  0.12433375228E+04  0.25500000920E-02 0.  1.
        2   -1    0    0  501    0  0.00000000000E+00  0.00000000000E+00 -0.13412168286E+04  0.13412168286E+04  0.25500000920E-02 0. -1.
    10030    2    1    2    0    0  0.00000000000E+00  0.00000000000E+00 -0.97879305845E+02  0.25845543514E+04  0.25827002994E+04 0.  0.
        2    1    3    3  502    0 -0.15256777458E+03  0.17703456967E+03  0.12219984605E+04  0.12441456515E+04  0.25500000920E-02 0.  1.
       -2    1    3    3    0  502  0.15256777458E+03 -0.17703456967E+03 -0.13198777663E+04  0.13404086999E+04  0.25500000920E-02 0. -1.
</event>
<event>
 5   0  0.7138294E-06  0.2590817E+04  0.7818609E-02  0.8371327E-01
       -1   -1    0    0    0  501  0.00000000000E+00  0.00000000000E+00  0.12284054368E+04  0.12284054368E+04  0.50400001928E-02 0.  1.
        1   -1    0    0  501    0  0.00000000000E+00  0.00000000000E+00 -0.13660666790E+04  0.13660666790E+04  0.50400001928E-02 0. -1.
    10030    2    1    2    0    0  0.00000000000E+00  0.00000000000E+00 -0.13766124219E+03  0.25944721158E+04  0.25908174274E+04 0.  0.
        2    1    3    3  502    0 -0.80310825609E+02  0.89958524886E+03  0.86112368116E+03  0.12478932017E+04  0.25500000920E-02 0.  1.
       -2    1    3    3    0  502  0.80310825609E+02 -0.89958524886E+03 -0.99878492336E+03  0.13465789141E+04  0.25500000920E-02 0. -1.
</event>
<event>
 5   0  0.1869956E-05  0.2601992E+04  0.7818609E-02  0.8367525E-01
        2   -1    0    0  501    0  0.00000000000E+00  0.00000000000E+00  0.14221839730E+04  0.14221839730E+04  0.25500000920E-02 0. -1.
       -2   -1    0    0    0  501  0.00000000000E+00  0.00000000000E+00 -0.11901344738E+04  0.11901344738E+04  0.25500000920E-02 0.  1.
    10030    2    1    2    0    0  0.00000000000E+00  0.00000000000E+00  0.23204949922E+03  0.26123184469E+04  0.26019916790E+04 0.  0.
        5    1    3    3  502    0 -0.11518445281E+04  0.28593006412E+03  0.65111870500E+03  0.13536910565E+04  0.46999998093E+01 0. -1.
       -5    1    3    3    0  502  0.11518445281E+04 -0.28593006412E+03 -0.41906920579E+03  0.12586273903E+04  0.46999998093E+01 0.  1.
</event>
<event>
 5   0  0.6993678E-06  0.2571047E+04  0.7818609E-02  0.8378103E-01
        1   -1    0    0  501    0  0.00000000000E+00  0.00000000000E+00  0.16376190719E+04  0.16376190719E+04  0.50400001928E-02 0. -1.
       -1   -1    0    0    0  501  0.00000000000E+00  0.00000000000E+00 -0.10091304341E+04  0.10091304341E+04  0.50400001928E-02 0.  1.
    10030    2    1    2    0    0  0.00000000000E+00  0.00000000000E+00  0.62848863782E+03  0.26467495060E+04  0.25710474479E+04 0.  0.
        1    1    3    3  502    0  0.41124794499E+03 -0.39579886028E+03  0.15000233993E+04  0.16049460454E+04  0.50400001928E-02 0. -1.
       -1    1    3    3    0  502 -0.41124794499E+03  0.39579886028E+03 -0.87153476148E+03  0.10418034606E+04  0.50400001928E-02 0.  1.
</event>
<event>
 5   0  0.1720129E-05  0.2576231E+04  0.7818609E-02  0.8376320E-01
        2   -1    0    0  501    0  0.00000000000E+00  0.00000000000E+00  0.19082109838E+04  0.19082109838E+04  0.25500000920E-02 0.  1.
       -2   -1    0    0    0  501  0.00000000000E+00  0.00000000000E+00 -0.86952755188E+03  0.86952755189E+03  0.25500000920E-02 0. -1.
    10030    2    1    2    0    0  0.00000000000E+00  0.00000000000E+00  0.10386834319E+04  0.27777385357E+04  0.25762313757E+04 0.  0.
        3    1    3    3  502    0  0.11853744531E+04 -0.40980325788E+03  0.20279578892E+03  0.12705028321E+04  0.10100000352E+00 0. -1.
       -3    1    3    3    0  502 -0.11853744531E+04  0.40980325788E+03  0.83588764301E+03  0.15072357036E+04  0.10100000352E+00 0.  1.
</event>
<event>
 5   0  0.1869956E-05  0.2601237E+04  0.7818609E-02  0.8367781E-01
       -2   -1    0    0    0  501  0.00000000000E+00  0.00000000000E+00  0.59771206622E+03  0.59771206622E+03  0.25500000920E-02 0. -1.
        2   -1    0    0  501    0  0.00000000000E+00  0.00000000000E+00 -0.28301386461E+04  0.28301386461E+04  0.25500000920E-02 0.  1.
    10030    2    1    2    0    0  0.00000000000E+00  0.00000000000E+00 -0.22324265798E+04  0.34278507123E+04  0.26012366427E+04 0.  0.
        5    1    3    3  502    0  0.10311320208E+04  0.62637980888E+03 -0.17563886803E+04  0.21308468260E+04  0.46999998093E+01 0.  1.
       -5    1    3    3    0  502 -0.10311320208E+04 -0.62637980888E+03 -0.47603789951E+03  0.12970038863E+04  0.46999998093E+01 0. -1.
</event>
<event>
 5   0  0.6993678E-06  0.2608937E+04  0.7818609E-02  0.8365172E-01
        1   -1    0    0  501    0  0.00000000000E+00  0.00000000000E+00  0.13362239092E+04  0.13362239092E+04  0.50400001928E-02 0.  1.
       -1   -1    0    0    0  501  0.00000000000E+00  0.00000000000E+00 -0.12734678351E+04  0.12734678351E+04  0.50400001928E-02 0. -1.
    10030    2    1    2    0    0  0.00000000000E+00  0.00000000000E+00  0.62756074132E+02  0.26096917443E+04  0.26089370777E+04 0.  0.
        1    1    3    3  502    0 -0.49129043418E+02  0.21872556177E+03 -0.12540554066E+04  0.12739346518E+04  0.50400001928E-02 0. -1.
       -1    1    3    3    0  502  0.49129043418E+02 -0.21872556177E+03  0.13168114807E+04  0.13357570925E+04  0.50400001928E-02 0.  1.
</event>
<event>
 5   0  0.1681731E-05  0.2572525E+04  0.7818609E-02  0.8377594E-01
        2   -1    0    0  501    0  0.00000000000E+00  0.00000000000E+00  0.15739924239E+04  0.15739924239E+04  0.25500000920E-02 0. -1.
       -2   -1    0    0    0  501  0.00000000000E+00  0.00000000000E+00 -0.10511304010E+04  0.10511304010E+04  0.25500000920E-02 0.  1.
    10030    2    1    2    0    0  0.00000000000E+00  0.00000000000E+00  0.52286202284E+03  0.26251228249E+04  0.25725250535E+04 0.  0.
        2    1    3    3  502    0 -0.34338403792E+03 -0.98338659209E+03 -0.50865724723E+03  0.11591781495E+04  0.25500000920E-02 0.  1.
       -2    1    3    3    0  502  0.34338403792E+03  0.98338659209E+03  0.10315192701E+04  0.14659446755E+04  0.25500000920E-02 0. -1.
</event>
<event>
 5   0  0.1869956E-05  0.2551538E+04  0.7818609E-02  0.8384852E-01
       -2   -1    0    0    0  501  0.00000000000E+00  0.00000000000E+00  0.67067026282E+03  0.67067026283E+03  0.25500000920E-02 0. -1.
        2   -1    0    0  501    0  0.00000000000E+00  0.00000000000E+00 -0.24268050299E+04  0.24268050299E+04  0.25500000920E-02 0.  1.
    10030    2    1    2    0    0  0.00000000000E+00  0.00000000000E+00 -0.17561347671E+04  0.30974752928E+04  0.25515375500E+04 0.  0.
        5    1    3    3  502    0 -0.64659730135E+03  0.10995806207E+04 -0.90229397867E+03  0.15624730799E+04  0.46999998093E+01 0.  1.
       -5    1    3    3    0  502  0.64659730135E+03 -0.10995806207E+04 -0.85384078845E+03  0.15350022129E+04  0.46999998093E+01 0. -1.
</event>
<event>
 5   0  0.7138294E-06  0.2515504E+04  0.7818609E-02  0.8397483E-01
        1   -1    0    0  501    0  0.00000000000E+00  0.00000000000E+00  0.61905360779E+03  0.61905360781E+03  0.50400001928E-02 0. -1.
       -1   -1    0    0    0  501  0.00000000000E+00  0.00000000000E+00 -0.25554170755E+04  0.25554170755E+04  0.50400001928E-02 0.  1.
    10030    2    1    2    0    0  0.00000000000E+00  0.00000000000E+00 -0.19363634677E+04  0.31744706833E+04  0.25155040529E+04 0.  0.
        2    1    3    3  502    0  0.71374285233E+03 -0.53102118698E+02 -0.22733772247E+04  0.23833784215E+04  0.25500000920E-02 0.  1.
       -2    1    3    3    0  502 -0.71374285233E+03  0.53102118698E+02  0.33701375701E+03  0.79109226180E+03  0.25500000920E-02 0. -1.
</event>
<event>
 5   0  0.1869956E-05  0.2618309E+04  0.7818609E-02  0.8362009E-01
        2   -1    0    0  501    0  0.00000000000E+00  0.00000000000E+00  0.96649036951E+03  0.96649036952E+03  0.25500000920E-02 0.  1.
       -2   -1    0    0    0  501  0.00000000000E+00  0.00000000000E+00 -0.17733085621E+04  0.17733085621E+04  0.25500000920E-02 0. -1.
    10030    2    1    2    0    0  0.00000000000E+00  0.00000000000E+00 -0.80681819254E+03  0.27397989316E+04  0.26183091089E+04 0.  0.
        5    1    3    3  502    0  0.23892778781E+03  0.52347511518E+03  0.82705726706E+03  0.10075507416E+04  0.46999998093E+01 0.  1.
       -5    1    3    3    0  502 -0.23892778781E+03 -0.52347511518E+03 -0.16338754596E+04  0.17322481899E+04  0.46999998093E+01 0. -1.
</event>
<event>
 5   0  0.6918420E-06  0.2590798E+04  0.7818609E-02  0.8371334E-01
       -1   -1    0    0    0  501  0.00000000000E+00  0.00000000000E+00  0.17797332186E+04  0.17797332186E+04  0.50400001928E-02 0. -1.
        1   -1    0    0  501    0  0.00000000000E+00  0.00000000000E+00 -0.94287060272E+03  0.94287060273E+03  0.50400001928E-02 0.  1.
    10030    2    1    2    0    0  0.00000000000E+00  0.00000000000E+00  0.83686261593E+03  0.27226038214E+04  0.25907976629E+04 0.  0.
        4    1    3    3  502    0  0.63056237426E+03  0.13760253737E+03 -0.76188075233E+03  0.99850250865E+03  0.12699999809E+01 0.  1.
       -4    1    3    3    0  502 -0.63056237426E+03 -0.13760253737E+03  0.15987433683E+04  0.17241013127E+04  0.12699999809E+01 0. -1.
</event>
<event>
 5   0  0.6706225E-06  0.2500607E+04  0.7818609E-02  0.8402769E-01
        1   -1    0    0  501    0  0.00000000000E+00  0.00000000000E+00  0.13186616399E+04  0.13186616399E+04  0.50400001928E-02 0.  1.
       -1   -1    0    0    0  501  0.00000000000E+00  0.00000000000E+00 -0.11854886453E+04  0.11854886453E+04  0.50400001928E-02 0. -1.
    10030    2    1    2    0    0  0.00000000000E+00  0.00000000000E+00  0.13317299459E+03  0.25041502852E+04  0.25006066473E+04 0.  0.
        5    1    3    3  502    0  0.20774631665E+02 -0.10242992025E+04 -0.65109909030E+03  0.12139079689E+04  0.46999998093E+01 0. -1.
       -5    1    3    3    0  502 -0.20774631665E+02  0.10242992025E+04  0.78427208489E+03  0.12902423163E+04  0.46999998093E+01 0.  1.
</event>
<event>
 5   0  0.6706225E-06  0.2528575E+04  0.7818609E-02  0.8392876E-01
        1   -1    0    0  501    0  0.00000000000E+00  0.00000000000E+00  0.13005872795E+04  0.13005872795E+04  0.50400001928E-02 0.  1.
       -1   -1    0    0    0  501  0.00000000000E+00  0.00000000000E+00 -0.12290004435E+04  0.12290004435E+04  0.50400001928E-02 0. -1.
    10030    2    1    2    0    0  0.00000000000E+00  0.00000000000E+00  0.71586835948E+02  0.25295877230E+04  0.25285745734E+04 0.  0.
        5    1    3    3  502    0  0.11437005462E+04 -0.35235775125E+03  0.44362492303E+03  0.12763354130E+04  0.46999998093E+01 0.  1.
       -5    1    3    3    0  502 -0.11437005462E+04  0.35235775125E+03 -0.37203808709E+03  0.12532523100E+04  0.46999998093E+01 0. -1.
</event>
<event>
 5   0  0.5840500E-06  0.2592414E+04  0.7818609E-02  0.8370783E-01
        3   -1    0    0  501    0  0.00000000000E+00  0.00000000000E+00  0.10983531384E+04  0.10983531430E+04  0.10100000352E+00 0. -1.
       -3   -1    0    0    0  501  0.00000000000E+00  0.00000000000E+00 -0.15297010923E+04  0.15297010957E+04  0.10100000352E+00 0.  1.
    10030    2    1    2    0    0  0.00000000000E+00  0.00000000000E+00 -0.43134795394E+03  0.26280542387E+04  0.25924135519E+04 0.  0.
        1    1    3    3  502    0 -0.56487413853E+03  0.11000499868E+03  0.96174459843E+03  0.11207749840E+04  0.50400001928E-02 0. -1.
       -1    1    3    3    0  502  0.56487413853E+03 -0.11000499868E+03 -0.13930925524E+04  0.15072792547E+04  0.50400001928E-02 0.  1.
</event>
<event>
 5   0  0.1720129E-05  0.2627083E+04  0.7818609E-02  0.8359060E-01
       -2   -1    0    0    0  501  0.00000000000E+00  0.00000000000E+00  0.17378213730E+04  0.17378213730E+04  0.25500000920E-02 0.  1.
        2   -1    0    0  501    0  0.00000000000E+00  0.00000000000E+00 -0.99284717198E+03  0.99284717198E+03  0.25500000920E-02 0. -1.
    10030    2    1    2    0    0  0.00000000000E+00  0.00000000000E+00  0.74497420101E+03  0.27306685450E+04  0.26270828198E+04 0.  0.
        3    1    3    3  502    0 -0.90843823222E+03  0.62526789817E+02  0.13565047300E+04  0.16337915148E+04  0.10100000352E+00 0.  1.
       -3    1    3    3    0  502  0.90843823222E+03 -0.62526789817E+02 -0.61153052898E+03  0.10968770302E+04  0.10100000352E+00 0. -1.
</event>
<event>
 5   0  0.6706225E-06  0.2615329E+04  0.7818609E-02  0.8363013E-01
        1   -1    0    0  501    0  0.00000000000E+00  0.00000000000E+00  0.99932375443E+03  0.99932375445E+03  0.50400001928E-02 0.  1.
       -1   -1    0    0    0  501  0.00000000000E+00  0.00000000000E+00 -0.17111429604E+04  0.17111429604E+04  0.50400001928E-02 0. -1.
    10030    2    1    2    0    0  0.00000000000E+00  0.00000000000E+00 -0.71181920599E+03  0.27104667149E+04  0.26153285129E+04 0.  0.
        5    1    3    3  502    0  0.51145625385E+02 -0.12828940094E+04 -0.61298713521E+03  0.14227467210E+04  0.46999998093E+01 0. -1.
       -5    1    3    3    0  502 -0.51145625385E+02  0.12828940094E+04 -0.98832070775E+02  0.12877199938E+04  0.46999998093E+01 0.  1.
</event>
<event>
 5   0  0.6706225E-06  0.2577651E+04  0.7818609E-02  0.8375833E-01
        1   -1    0    0  501    0  0.00000000000E+00  0.00000000000E+00  0.17276851459E+04  0.17276851459E+04  0.50400001928E-02 0.  1.
       -1   -1    0    0    0  501  0.00000000000E+00  0.00000000000E+00 -0.96144299277E+03  0.96144299278E+03  0.50400001928E-02 0. -1.
    10030    2    1    2    0    0  0.00000000000E+00  0.00000000000E+00  0.76624215317E+03  0.26891281387E+04  0.25776506957E+04 0.  0.
        5    1    3    3  502    0 -0.95881716264E+02 -0.56417822531E+03 -0.82161922317E+03  0.10012844807E+04  0.46999998093E+01 0. -1.
       -5    1    3    3    0  502  0.95881716264E+02  0.56417822531E+03  0.15878613763E+04  0.16878436580E+04  0.46999998093E+01 0.  1.
</event>
<event>
 5   0  0.1720129E-05  0.2541000E+04  0.7818609E-02  0.8388523E-01
       -2   -1    0    0    0  501  0.00000000000E+00  0.00000000000E+00  0.13946153555E+04  0.13946153555E+04  0.25500000920E-02 0. -1.
        2   -1    0    0  501    0  0.00000000000E+00  0.00000000000E+00 -0.11574301314E+04  0.11574301314E+04  0.25500000920E-02 0.  1.
    10030    2    1    2    0    0  0.00000000000E+00  0.00000000000E+00  0.23718522417E+03  0.25520454869E+04  0.25409996727E+04 0.  0.
        3    1    3    3  502    0  0.76461292318E+02  0.63349822823E+03 -0.98482030723E+03  0.11734723610E+04  0.10100000352E+00 0.  1.
       -3    1    3    3    0  502 -0.76461292318E+02 -0.63349822823E+03  0.12220055314E+04  0.13785731259E+04  0.10100000352E+00 0. -1.
</event>
<event>
 5   0  0.1702345E-05  0.2634857E+04  0.7818609E-02  0.8356457E-01
        2   -1    0    0  501    0  0.00000000000E+00  0.00000000000E+00  0.18566411049E+04  0.18566411049E+04  0.25500000920E-02 0.  1.
       -2   -1    0    0    0  501  0.00000000000E+00  0.00000000000E+00 -0.93481579518E+03  0.93481579518E+03  0.25500000920E-02 0. -1.
    10030    2    1    2    0    0  0.00000000000E+00  0.00000000000E+00  0.92182530970E+03  0.27914569001E+04  0.26348566798E+04 0.  0.
        1    1    3    3  502    0  0.56175021055E+03 -0.51827166082E+03 -0.67591913852E+03  0.10203114698E+04  0.50400001928E-02 0. -1.
       -1    1    3    3    0  502 -0.56175021055E+03  0.51827166082E+03  0.15977444482E+04  0.17711454303E+04  0.50400001928E-02 0.  1.
</event>
<event>
 5   0  0.1677971E-05  0.2565081E+04  0.7818609E-02  0.8380160E-01
       -2   -1    0    0    0  501  0.00000000000E+00  0.00000000000E+00  0.73624571890E+03  0.73624571890E+03  0.25500000920E-02 0. -1.
        2   -1    0    0  501    0  0.00000000000E+00  0.00000000000E+00 -0.22341864609E+04  0.22341864609E+04  0.25500000920E-02 0.  1.
    10030    2    1    2    0    0  0.00000000000E+00  0.00000000000E+00 -0.14979407420E+04  0.29704321798E+04  0.25650810646E+04 0.  0.
        4    1    3    3  502    0  0.45160983665E+03  0.70231079365E+03  0.37837715251E+03  0.91671302918E+03  0.12699999809E+01 0. -1.
       -4    1    3    3    0  502 -0.45160983665E+03 -0.70231079365E+03 -0.18763178945E+04  0.20537191506E+04  0.12699999809E+01 0.  1.
</event>
<event>
 5   0  0.7138294E-06  0.2614420E+04  0.7818609E-02  0.8363319E-01
       -1   -1    0    0    0  501  0.00000000000E+00  0.00000000000E+00  0.97157766019E+03  0.97157766020E+03  0.50400001928E-02 0. -1.
        1   -1    0    0  501    0  0.00000000000E+00  0.00000000000E+00 -0.17587871923E+04  0.17587871923E+04  0.50400001928E-02 0.  1.
    10030    2    1    2    0    0  0.00000000000E+00  0.00000000000E+00 -0.78720953209E+03  0.27303648525E+04  0.26144202761E+04 0.  0.
        2    1    3    3  502    0 -0.42617690928E+03 -0.91622935895E+03 -0.12596554823E+04  0.16148792309E+04  0.25500000920E-02 0.  1.
       -2    1    3    3    0  502  0.42617690928E+03  0.91622935895E+03  0.47244595018E+03  0.11154856216E+04  0.25500000920E-02 0. -1.
</event>
<event>
 5   0  0.1869956E-05  0.2591986E+04  0.7818609E-02  0.8370928E-01
       -2   -1    0    0    0  501  0.00000000000E+00  0.00000000000E+00  0.80889115897E+03  0.80889115897E+03  0.25500000920E-02 0.  1.
        2   -1    0    0  501    0  0.00000000000E+00  0.00000000000E+00 -0.20764200716E+04  0.20764200716E+04  0.25500000920E-02 0. -1.
    10030    2    1    2    0    0  0.00000000000E+00  0.00000000000E+00 -0.12675289126E+04  0.28853112305E+04  0.25919859862E+04 0.  0.
        5    1    3    3  502    0  0.14700769975E+03 -0.11232398029E+04 -0.13345260893E+04  0.17505030396E+04  0.46999998093E+01 0. -1.
       -5    1    3    3    0  502 -0.14700769975E+03  0.11232398029E+04  0.66997176749E+02  0.11348081909E+04  0.46999998093E+01 0.  1.
</event>
<event>
 5   0  0.6918420E-06  0.2583721E+04  0.7818609E-02  0.8373752E-01
       -1   -1    0    0    0  501  0.00000000000E+00  0.00000000000E+00  0.78110171875E+03  0.78110171877E+03  0.50400001928E-02 0.  1.
        1   -1    0    0  501    0  0.00000000000E+00  0.00000000000E+00 -0.21366027574E+04  0.21366027574E+04  0.50400001928E-02 0. -1.
    10030    2    1    2    0    0  0.00000000000E+00  0.00000000000E+00 -0.13555010387E+04  0.29177044762E+04  0.25837214139E+04 0.  0.
        4    1    3    3  502    0 -0.80857671699E+03 -0.47434559746E+03 -0.16815276875E+04  0.19251849339E+04  0.12699999809E+01 0. -1.
       -4    1    3    3    0  502  0.80857671699E+03  0.47434559746E+03  0.32602664885E+03  0.99251954225E+03  0.12699999809E+01 0.  1.
</event>
<event>
 5   0  0.1702345E-05  0.2546358E+04  0.7818609E-02  0.8386654E-01
       -2   -1    0    0    0  501  0.00000000000E+00  0.00000000000E+00  0.20170855137E+04  0.20170855137E+04  0.25500000920E-02 0. -1.
        2   -1    0    0  501    0  0.00000000000E+00  0.00000000000E+00 -0.80362698981E+03  0.80362698982E+03  0.25500000920E-02 0.  1.
    10030    2    1    2    0    0  0.00000000000E+00  0.00000000000E+00  0.12134585238E+04  0.28207125035E+04  0.25463576807E+04 0.  0.
        1    1    3    3  502    0 -0.62249630802E+03  0.54787096516E+03 -0.46344555707E+03  0.94997159555E+03  0.50400001928E-02 0.  1.
       -1    1    3    3    0  502  0.62249630802E+03 -0.54787096516E+03  0.16769040809E+04  0.18707409079E+04  0.50400001928E-02 0. -1.
</event>
<event>
 5   0  0.1869956E-05  0.2612493E+04  0.7818609E-02  0.8363970E-01
       -2   -1    0    0    0  501  0.00000000000E+00  0.00000000000E+00  0.66217399502E+03  0.66217399502E+03  0.25500000920E-02 0.  1.
        2   -1    0    0  501    0  0.00000000000E+00  0.00000000000E+00 -0.25767854662E+04  0.25767854662E+04  0.25500000920E-02 0. -1.
    10030    2    1    2    0    0  0.00000000000E+00  0.00000000000E+00 -0.19146114712E+04  0.32389594612E+04  0.26124933121E+04 0.  0.
        5    1    3    3  502    0  0.10206914645E+03  0.86894293288E+03 -0.21598303425E+04  0.23303152425E+04  0.46999998093E+01 0. -1.
       -5    1    3    3    0  502 -0.10206914645E+03 -0.86894293288E+03  0.24521887133E+03  0.90864421866E+03  0.46999998093E+01 0.  1.
</event>
<event>
 5   0  0.1681731E-05  0.2589799E+04  0.7818609E-02  0.8371675E-01
       -2   -1    0    0    0  501  0.00000000000E+00  0.00000000000E+00  0.92920372250E+03  0.92920372251E+03  0.25500000920E-02 0. -1.
        2   -1    0    0  501    0  0.00000000000E+00  0.00000000000E+00 -0.18045176591E+04  0.18045176591E+04  0.25500000920E-02 0.  1.
    10030    2    1    2    0    0  0.00000000000E+00  0.00000000000E+00 -0.87531393656E+03  0.27337213816E+04  0.25897988541E+04 0.  0.
        2    1    3    3  502    0  0.74343819548E+03 -0.35048439392E+03 -0.14938760971E+04  0.17050529183E+04  0.25500000920E-02 0.  1.
       -2    1    3    3    0  502 -0.74343819548E+03  0.35048439392E+03  0.61856216050E+03  0.10286684633E+04  0.25500000920E-02 0. -1.
</event>
<event>
 5   0  0.6993678E-06  0.2558362E+04  0.7818609E-02  0.8382484E-01
        1   -1    0    0  501    0  0.00000000000E+00  0.00000000000E+00  0.10960745756E+04  0.10960745757E+04  0.50400001928E-02 0. -1.
       -1   -1    0    0    0  501  0.00000000000E+00  0.00000000000E+00 -0.14928770466E+04  0.14928770466E+04  0.50400001928E-02 0.  1.
    10030    2    1    2    0    0  0.00000000000E+00  0.00000000000E+00 -0.39680247099E+03  0.25889516223E+04  0.25583624258E+04 0.  0.
        1    1    3    3  502    0 -0.28898438641E+03 -0.10538936702E+04 -0.87125778483E+03  0.13976029376E+04  0.50400001928E-02 0.  1.
       -1    1    3    3    0  502  0.28898438641E+03  0.10538936702E+04  0.47445531384E+03  0.11913486847E+04  0.50400001928E-02 0. -1.
</event>
<event>
 5   0  0.6918420E-06  0.2571903E+04  0.7818609E-02  0.8377808E-01
        1   -1    0    0  501    0  0.00000000000E+00  0.00000000000E+00  0.14751741411E+04  0.14751741411E+04  0.50400001928E-02 0. -1.
       -1   -1    0    0    0  501  0.00000000000E+00  0.00000000000E+00 -0.11210004966E+04  0.11210004966E+04  0.50400001928E-02 0.  1.
    10030    2    1    2    0    0  0.00000000000E+00  0.00000000000E+00  0.35417364453E+03  0.25961746377E+04  0.25719027546E+04 0.  0.
        4    1    3    3  502    0  0.18033224600E+03  0.99218202678E+03  0.98256748540E+03  0.14079720769E+04  0.12699999809E+01 0. -1.
       -4    1    3    3    0  502 -0.18033224600E+03 -0.99218202678E+03 -0.62839384086E+03  0.11882025607E+04  0.12699999809E+01 0.  1.
</event>
<event>
 5   0  0.1681731E-05  0.2595130E+04  0.7818609E-02  0.8369857E-01
        2   -1    0    0  501    0  0.00000000000E+00  0.00000000000E+00  0.23396913145E+04  0.23396913145E+04  0.25500000920E-02 0. -1.
       -2   -1    0    0    0  501  0.00000000000E+00  0.00000000000E+00 -0.71961408341E+03  0.71961408342E+03  0.25500000920E-02 0.  1.
    10030    2    1    2    0    0  0.00000000000E+00  0.00000000000E+00  0.16200772311E+04  0.30593053979E+04  0.25951299164E+04 0.  0.
        2    1    3    3  502    0  0.10662170027E+04 -0.45607200727E+02  0.16801458002E+04  0.19904242321E+04  0.25500000920E-02 0. -1.
       -2    1    3    3    0  502 -0.10662170027E+04  0.45607200727E+02 -0.60068569123E+02  0.10688811658E+04  0.25500000920E-02 0.  1.
</event>
<event>
 5   0  0.1869956E-05  0.2555777E+04  0.7818609E-02  0.8383380E-01
        2   -1    0    0  501    0  0.00000000000E+00  0.00000000000E+00  0.10655582750E+04  0.10655582750E+04  0.25500000920E-02 0. -1.
       -2   -1    0    0    0  501  0.00000000000E+00  0.00000000000E+00 -0.15325292153E+04  0.15325292153E+04  0.25500000920E-02 0.  1.
    10030    2    1    2    0    0  0.00000000000E+00  0.00000000000E+00 -0.46697094031E+03  0.25980874902E+04  0.25557771319E+04 0.  0.
        5    1    3    3  502    0 -0.11200146443E+04 -0.60494479568E+03 -0.34753044880E+03  0.13195417811E+04  0.46999998093E+01 0.  1.
       -5    1    3    3    0  502  0.11200146443E+04  0.60494479568E+03 -0.11944049152E+03  0.12785457091E+04  0.46999998093E+01 0. -1.
</event>
<event>
 5   0  0.6993678E-06  0.2582969E+04  0.7818609E-02  0.8374009E-01
        1   -1    0    0  501    0  0.00000000000E+00  0.00000000000E+00  0.11618437007E+04  0.11618437007E+04  0.50400001928E-02 0.  1.
       -1   -1    0    0    0  501  0.00000000000E+00  0.00000000000E+00 -0.14355909487E+04  0.14355909487E+04  0.50400001928E-02 0. -1.
    10030    2    1    2    0    0  0.00000000000E+00  0.00000000000E+00 -0.27374724799E+03  0.25974346494E+04  0.25829690672E+04 0.  0.
        1    1    3    3  502    0  0.12522937658E+04  0.54265726935E+02  0.17591150594E+03  0.12657524651E+04  0.50400001928E-02 0.  1.
       -1    1    3    3    0  502 -0.12522937658E+04 -0.54265726935E+02 -0.44965875393E+03  0.13316821843E+04  0.50400001928E-02 0. -1.
</event>
<event>
 5   0  0.7138294E-06  0.2579318E+04  0.7818609E-02  0.8375261E-01
        1   -1    0    0  501    0  0.00000000000E+00  0.00000000000E+00  0.17546959893E+04  0.17546959894E+04  0.50400001928E-02 0.  1.
       -1   -1    0    0    0  501  0.00000000000E+00  0.00000000000E+00 -0.94786800902E+03  0.94786800903E+03  0.50400001928E-02 0. -1.
    10030    2    1    2    0    0  0.00000000000E+00  0.00000000000E+00  0.80682798032E+03  0.27025639984E+04  0.25793178896E+04 0.  0.
        2    1    3    3  502    0 -0.10415833009E+04  0.74081651490E+03  0.22340474589E+03  0.12975417381E+04  0.25500000920E-02 0. -1.
       -2    1    3    3    0  502  0.10415833009E+04 -0.74081651490E+03  0.58342323443E+03  0.14050222603E+04  0.25500000920E-02 0.  1.
</event>
<event>
 5   0  0.1677971E-05  0.2620600E+04  0.7818609E-02  0.8361237E-01
       -2   -1    0    0    0  501  0.00000000000E+00  0.00000000000E+00  0.14299163831E+04  0.14299163831E+04  0.25500000920E-02 0.  1.
        2   -1    0    0  501    0  0.00000000000E+00  0.00000000000E+00 -0.12006894749E+04  0.12006894749E+04  0.25500000920E-02 0. -1.
    10030    2    1    2    0    0  0.00000000000E+00  0.00000000000E+00  0.22922690821E+03  0.26306058581E+04  0.26205995889E+04 0.  0.
        4    1    3    3  502    0  0.96060861111E+03 -0.84135903288E+03  0.40938417171E+03  0.13409887915E+04  0.12699999809E+01 0. -1.
       -4    1    3    3    0  502 -0.96060861111E+03  0.84135903288E+03 -0.18015726349E+03  0.12896170666E+04  0.12699999809E+01 0.  1.
</event>
<event>
 5   0  0.5840500E-06  0.2601631E+04  0.7818609E-02  0.8367647E-01
       -3   -1    0    0    0  501  0.00000000000E+00  0.00000000000E+00  0.81582774108E+03  0.81582774733E+03  0.10100000352E+00 0. -1.
        3   -1    0    0  501    0  0.00000000000E+00  0.00000000000E+00 -0.20741161041E+04  0.20741161065E+04  0.10100000352E+00 0.  1.
    10030    2    1    2    0    0  0.00000000000E+00  0.00000000000E+00 -0.12582883630E+04  0.28899438538E+04  0.26016313870E+04 0.  0.
        2    1    3    3  502    0  0.11592809118E+04 -0.31461707152E+03 -0.11836706863E+04  0.16864140736E+04  0.25500000920E-02 0.  1.
       -2    1    3    3    0  502 -0.11592809118E+04  0.31461707152E+03 -0.74617676676E+02  0.12035297802E+04  0.25500000920E-02 0. -1.
</event>
<event>
 5   0  0.1677971E-05  0.2605339E+04  0.7818609E-02  0.8366390E-01
       -2   -1    0    0    0  501  0.00000000000E+00  0.00000000000E+00  0.80391724803E+03  0.80391724803E+03  0.25500000920E-02 0. -1.
        2   -1    0    0  501    0  0.00000000000E+00  0.00000000000E+00 -0.21108486397E+04  0.21108486397E+04  0.25500000920E-02 0.  1.
    10030    2    1    2    0    0  0.00000000000E+00  0.00000000000E+00 -0.13069313917E+04  0.29147658877E+04  0.26053388489E+04 0.  0.
        4    1    3    3  502    0 -0.42575539070E+03 -0.12147091955E+04 -0.42926551451E+03  0.13568554002E+04  0.12699999809E+01 0. -1.
       -4    1    3    3    0  502  0.42575539070E+03  0.12147091955E+04 -0.87766587715E+03  0.15579104875E+04  0.12699999809E+01 0.  1.
</event>
<event>
 5   0  0.1677971E-05  0.2614121E+04  0.7818609E-02  0.8363420E-01
        2   -1    0    0  501    0  0.00000000000E+00  0.00000000000E+00  0.10837280544E+04  0.10837280544E+04  0.25500000920E-02 0. -1.
       -2   -1    0    0    0  501  0.00000000000E+00  0.00000000000E+00 -0.15764171558E+04  0.15764171558E+04  0.25500000920E-02 0.  1.
    10030    2    1    2    0    0  0.00000000000E+00  0.00000000000E+00 -0.49268910139E+03  0.26601452102E+04  0.26141212651E+04 0.  0.
        4    1    3    3  502    0  0.79720130922E+03 -0.53422186263E+03  0.65668132789E+03  0.11628219577E+04  0.12699999809E+01 0. -1.
       -4    1    3    3    0  502 -0.79720130922E+03  0.53422186263E+03 -0.11493704293E+04  0.14973232525E+04  0.12699999809E+01 0.  1.
</event>
<event>
 5   0  0.1720129E-05  0.2620205E+04  0.7818609E-02  0.8361370E-01
       -2   -1    0    0    0  501  0.00000000000E+00  0.00000000000E+00  0.95856844214E+03  0.95856844214E+03  0.25500000920E-02 0. -1.
        2   -1    0    0  501    0  0.00000000000E+00  0.00000000000E+00 -0.17905544459E+04  0.17905544459E+04  0.25500000920E-02 0.  1.
    10030    2    1    2    0    0  0.00000000000E+00  0.00000000000E+00 -0.83198600380E+03  0.27491228881E+04  0.26202053246E+04 0.  0.
        3    1    3    3  502    0  0.99575431921E+03  0.66889723860E+03 -0.96861321972E+03  0.15418047087E+04  0.10100000352E+00 0.  1.
       -3    1    3    3    0  502 -0.99575431921E+03 -0.66889723860E+03  0.13662721592E+03  0.12073181794E+04  0.10100000352E+00 0. -1.
</event>
<event>
 5   0  0.7138294E-06  0.2497180E+04  0.7818609E-02  0.8403991E-01
        1   -1    0    0  501    0  0.00000000000E+00  0.00000000000E+00  0.19777449600E+04  0.19777449600E+04  0.50400001928E-02 0.  1.
       -1   -1    0    0    0  501  0.00000000000E+00  0.00000000000E+00 -0.78825997075E+03  0.78825997077E+03  0.50400001928E-02 0. -1.
    10030    2    1    2    0    0  0.00000000000E+00  0.00000000000E+00  0.11894849893E+04  0.27660049308E+04  0.24971801572E+04 0.  0.
        2    1    3    3  502    0 -0.69952822919E+03  0.28302017048E+03 -0.50709893693E+03  0.90916967183E+03  0.25500000920E-02 0. -1.
       -2    1    3    3    0  502  0.69952822919E+03 -0.28302017048E+03  0.16965839262E+04  0.18568352590E+04  0.25500000920E-02 0.  1.
</event>
<event>
 5   0  0.6993678E-06  0.2617712E+04  0.7818609E-02  0.8362209E-01
        1   -1    0    0  501    0  0.00000000000E+00  0.00000000000E+00  0.90091332257E+03  0.90091332258E+03  0.50400001928E-02 0.  1.
       -1   -1    0    0    0  501  0.00000000000E+00  0.00000000000E+00 -0.19015199233E+04  0.19015199233E+04  0.50400001928E-02 0. -1.
    10030    2    1    2    0    0  0.00000000000E+00  0.00000000000E+00 -0.10006066008E+04  0.28024332459E+04  0.26177124610E+04 0.  0.
        1    1    3    3  502    0 -0.96042819963E+03  0.30436409809E+03 -0.13947510683E+04  0.17205784996E+04  0.50400001928E-02 0. -1.
       -1    1    3    3    0  502  0.96042819963E+03 -0.30436409809E+03  0.39414446750E+03  0.10818547463E+04  0.50400001928E-02 0.  1.
</event>
<event>
 5   0  0.6706225E-06  0.2608257E+04  0.7818609E-02  0.8365402E-01
        1   -1    0    0  501    0  0.00000000000E+00  0.00000000000E+00  0.18447927125E+04  0.18447927125E+04  0.50400001928E-02 0.  1.
       -1   -1    0    0    0  501  0.00000000000E+00  0.00000000000E+00 -0.92192025273E+03  0.92192025274E+03  0.50400001928E-02 0. -1.
    10030    2    1    2    0    0  0.00000000000E+00  0.00000000000E+00  0.92287245977E+03  0.27667129652E+04  0.26082574748E+04 0.  0.
        5    1    3    3  502    0 -0.81026638310E+03 -0.34159331603E+03  0.14830186934E+04  0.17241183661E+04  0.46999998093E+01 0.  1.
       -5    1    3    3    0  502  0.81026638310E+03  0.34159331603E+03 -0.56014623367E+03  0.10425945992E+04  0.46999998093E+01 0. -1.
</event>
<event>
 5   0  0.1702345E-05  0.2609586E+04  0.7818609E-02  0.8364952E-01
        2   -1    0    0  501    0  0.00000000000E+00  0.00000000000E+00  0.14882456147E+04  0.14882456147E+04  0.25500000920E-02 0.  1.
       -2   -1    0    0    0  501  0.00000000000E+00  0.00000000000E+00 -0.11439543952E+04  0.11439543952E+04  0.25500000920E-02 0. -1.
    10030    2    1    2    0    0  0.00000000000E+00  0.00000000000E+00  0.34429121949E+03  0.26322000099E+04  0.26095862600E+04 0.  0.
        1    1    3    3  502    0  0.80683783583E+03  0.11639494296E+03  0.11997724845E+04  0.14505133886E+04  0.50400001928E-02 0.  1.
       -1    1    3    3    0  502 -0.80683783583E+03 -0.11639494296E+03 -0.85548126501E+03  0.11816866213E+04  0.50400001928E-02 0. -1.
</event>
<event>
 5   0  0.1869956E-05  0.2561481E+04  0.7818609E-02  0.8381404E-01
        2   -1    0    0  501    0  0.00000000000E+00  0.00000000000E+00  0.11298217229E+04  0.11298217229E+04  0.25500000920E-02 0. -1.
       -2   -1    0    0    0  501  0.00000000000E+00  0.00000000000E+00 -0.14518185209E+04  0.14518185209E+04  0.25500000920E-02 0.  1.
    10030    2    1    2    0    0  0.00000000000E+00  0.00000000000E+00 -0.32199679804E+03  0.25816402438E+04  0.25614809018E+04 0.  0.
        5    1    3    3  502    0  0.38659083298E+03  0.89539971390E+03  0.67564368085E+03  0.11864693815E+04  0.46999998093E+01 0. -1.
       -5    1    3    3    0  502 -0.38659083298E+03 -0.89539971390E+03 -0.99764047890E+03  0.13951708623E+04  0.46999998093E+01 0.  1.
</event>
<event>
 5   0  0.1677971E-05  0.2615094E+04  0.7818609E-02  0.8363092E-01
        2   -1    0    0  501    0  0.00000000000E+00  0.00000000000E+00  0.13873763055E+04  0.13873763055E+04  0.25500000920E-02 0. -1.
       -2   -1    0    0    0  501  0.00000000000E+00  0.00000000000E+00 -0.12323106607E+04  0.12323106607E+04  0.25500000920E-02 0.  1.
    10030    2    1    2    0    0  0.00000000000E+00  0.00000000000E+00  0.15506564471E+03  0.26196869662E+04  0.26150935828E+04 0.  0.
        4    1    3    3  502    0  0.11468920751E+03  0.10800468203E+04  0.80683786302E+03  0.13530128227E+04  0.12699999809E+01 0. -1.
       -4    1    3    3    0  502 -0.11468920751E+03 -0.10800468203E+04 -0.65177221831E+03  0.12666741435E+04  0.12699999809E+01 0.  1.
</event>
<event>
 5   0  0.6706225E-06  0.2549467E+04  0.7818609E-02  0.8385572E-01
        1   -1    0    0  501    0  0.00000000000E+00  0.00000000000E+00  0.20442798079E+04  0.20442798079E+04  0.50400001928E-02 0.  1.
       -1   -1    0    0    0  501  0.00000000000E+00  0.00000000000E+00 -0.79487423601E+03  0.79487423602E+03  0.50400001928E-02 0. -1.
    10030    2    1    2    0    0  0.00000000000E+00  0.00000000000E+00  0.12494055719E+04  0.28391540440E+04  0.25494668859E+04 0.  0.
        5    1    3    3  502    0  0.82916076107E+03  0.84789218128E+03  0.10415587048E+03  0.11905037816E+04  0.46999998093E+01 0.  1.
       -5    1    3    3    0  502 -0.82916076107E+03 -0.84789218128E+03  0.11452497015E+04  0.16486502623E+04  0.46999998093E+01 0. -1.
</event>
<event>
 5   0  0.6993678E-06  0.2606369E+04  0.7818609E-02  0.8366041E-01
       -1   -1    0    0    0  501  0.00000000000E+00  0.00000000000E+00  0.16219124378E+04  0.16219124378E+04  0.50400001928E-02 0.  1.
        1   -1    0    0  501    0  0.00000000000E+00  0.00000000000E+00 -0.10470906078E+04  0.10470906078E+04  0.50400001928E-02 0. -1.
    10030    2    1    2    0    0  0.00000000000E+00  0.00000000000E+00  0.57482183002E+03  0.26690030456E+04  0.26063685697E+04 0.  0.
        1    1    3    3  502    0  0.49056585902E+03 -0.18717260382E+03 -0.93398023576E+03  0.10714511312E+04  0.50400001928E-02 0. -1.
       -1    1    3    3    0  502 -0.49056585902E+03  0.18717260382E+03  0.15088020658E+04  0.15975519145E+04  0.50400001928E-02 0.  1.
</event>
<event>
 5   0  0.7138294E-06  0.2574926E+04  0.7818609E-02  0.8376768E-01
       -1   -1    0    0    0  501  0.00000000000E+00  0.00000000000E+00  0.16225786698E+04  0.16225786698E+04  0.50400001928E-02 0.  1.
        1   -1    0    0  501    0  0.00000000000E+00  0.00000000000E+00 -0.10215599705E+04  0.10215599706E+04  0.50400001928E-02 0. -1.
    10030    2    1    2    0    0  0.00000000000E+00  0.00000000000E+00  0.60101869926E+03  0.26441386404E+04  0.25749263431E+04 0.  0.
        2    1    3    3  502    0 -0.20418645184E+03  0.18460155306E+03  0.15920082532E+04  0.16156299449E+04  0.25500000920E-02 0.  1.
       -2    1    3    3    0  502  0.20418645184E+03 -0.18460155306E+03 -0.99098955399E+03  0.10285086955E+04  0.25500000920E-02 0. -1.
</event>
<event>
 5   0  0.7138294E-06  0.2714215E+04  0.7818609E-02  0.8330407E-01
        1   -1    0    0  501    0  0.00000000000E+00  0.00000000000E+00  0.24419329233E+04  0.24419329233E+04  0.50400001928E-02 0.  1.
       -1   -1    0    0    0  501  0.00000000000E+00  0.00000000000E+00 -0.75421455002E+03  0.75421455004E+03  0.50400001928E-02 0. -1.
    10030    2    1    2    0    0  0.00000000000E+00  0.00000000000E+00  0.16877183732E+04  0.31961474733E+04  0.27142154232E+04 0.  0.
        2    1    3    3  502    0 -0.20184287599E+03 -0.11736599186E+04  0.16101984784E+04  0.20027374493E+04  0.25500000920E-02 0.  1.
       -2    1    3    3    0  502  0.20184287599E+03  0.11736599186E+04  0.77519894889E+02  0.11934100240E+04  0.25500000920E-02 0. -1.
</event>
<event>
 5   0  0.6706225E-06  0.2557602E+04  0.7818609E-02  0.8382747E-01
       -1   -1    0    0    0  501  0.00000000000E+00  0.00000000000E+00  0.75679272430E+03  0.75679272432E+03  0.50400001928E-02 0.  1.
        1   -1    0    0  501    0  0.00000000000E+00  0.00000000000E+00 -0.21608722969E+04  0.21608722970E+04  0.50400001928E-02 0. -1.
    10030    2    1    2    0    0  0.00000000000E+00  0.00000000000E+00 -0.14040795726E+04  0.29176650213E+04  0.25576023401E+04 0.  0.
        5    1    3    3  502    0  0.22821622379E+03  0.42910994574E+03 -0.20513928502E+04  0.21081870662E+04  0.46999998093E+01 0. -1.
       -5    1    3    3    0  502 -0.22821622379E+03 -0.42910994574E+03  0.64731327758E+03  0.80947795502E+03  0.46999998093E+01 0.  1.
</event>
<event>
 5   0  0.1702345E-05  0.2752021E+04  0.7818609E-02  0.8318321E-01
        2   -1    0    0  501    0  0.00000000000E+00  0.00000000000E+00  0.27016911725E+04  0.27016911725E+04  0.25500000920E-02 0. -1.
       -2   -1    0    0    0  501  0.00000000000E+00  0.00000000000E+00 -0.70082188857E+03  0.70082188857E+03  0.25500000920E-02 0.  1.
    10030    2    1    2    0    0  0.00000000000E+00  0.00000000000E+00  0.20008692839E+04  0.34025130610E+04  0.27520205739E+04 0.  0.
        1    1    3    3  502    0  0.44024018073E+03  0.15384845487E+03 -0.60013739782E+03  0.76003003893E+03  0.50400001928E-02 0.  1.
       -1    1    3    3    0  502 -0.44024018073E+03 -0.15384845487E+03  0.26010066817E+04  0.26424830221E+04  0.50400001928E-02 0. -1.
</event>
<event>
 5   0  0.6918420E-06  0.2642447E+04  0.7818609E-02  0.8353924E-01
        1   -1    0    0  501    0  0.00000000000E+00  0.00000000000E+00  0.21837875997E+04  0.21837875997E+04  0.50400001928E-02 0. -1.
       -1   -1    0    0    0  501  0.00000000000E+00  0.00000000000E+00 -0.79935929576E+03  0.79935929577E+03  0.50400001928E-02 0.  1.
    10030    2    1    2    0    0  0.00000000000E+00  0.00000000000E+00  0.13844283040E+04  0.29831468955E+04  0.26424465314E+04 0.  0.
        4    1    3    3  502    0  0.89586585982E+03 -0.21529895763E+03  0.17612493926E+04  0.19876947240E+04  0.12699999809E+01 0. -1.
       -4    1    3    3    0  502 -0.89586585982E+03  0.21529895763E+03 -0.37682108867E+03  0.99545217148E+03  0.12699999809E+01 0.  1.
</event>
<event>
 5   0  0.6993678E-06  0.2578862E+04  0.7818609E-02  0.8375417E-01
       -1   -1    0    0    0  501  0.00000000000E+00  0.00000000000E+00  0.80152589791E+03  0.80152589793E+03  0.50400001928E-02 0.  1.
        1   -1    0    0  501    0  0.00000000000E+00  0.00000000000E+00 -0.20743339332E+04  0.20743339332E+04  0.50400001928E-02 0. -1.
    10030    2    1    2    0    0  0.00000000000E+00  0.00000000000E+00 -0.12728080353E+04  0.28758598312E+04  0.25788620502E+04 0.  0.
        1    1    3    3  502    0 -0.81838170801E+03  0.99547897165E+03 -0.68508157120E+03  0.14594737963E+04  0.50400001928E-02 0.  1.
       -1    1    3    3    0  502  0.81838170801E+03 -0.99547897165E+03 -0.58772646412E+03  0.14163860348E+04  0.50400001928E-02 0. -1.
</event>
<event>
 5   0  0.1677971E-05  0.2504039E+04  0.7818609E-02  0.8401548E-01
        2   -1    0    0  501    0  0.00000000000E+00  0.00000000000E+00  0.22375895462E+04  0.22375895462E+04  0.25500000920E-02 0. -1.
       -2   -1    0    0    0  501  0.00000000000E+00  0.00000000000E+00 -0.70055409608E+03  0.70055409608E+03  0.25500000920E-02 0.  1.
    10030    2    1    2    0    0  0.00000000000E+00  0.00000000000E+00  0.15370354502E+04  0.29381436423E+04  0.25040387553E+04 0.  0.
        4    1    3    3  502    0 -0.66085775067E+03 -0.27668204006E+03  0.19732952869E+04  0.20993288976E+04  0.12699999809E+01 0. -1.
       -4    1    3    3    0  502  0.66085775067E+03  0.27668204006E+03 -0.43625983677E+03  0.83881474474E+03  0.12699999809E+01 0.  1.
</event>
<event>
 5   0  0.6706225E-06  0.2620758E+04  0.7818609E-02  0.8361184E-01
       -1   -1    0    0    0  501  0.00000000000E+00  0.00000000000E+00  0.10989843129E+04  0.10989843129E+04  0.50400001928E-02 0.  1.
        1   -1    0    0  501    0  0.00000000000E+00  0.00000000000E+00 -0.15624359708E+04  0.15624359709E+04  0.50400001928E-02 0. -1.
    10030    2    1    2    0    0  0.00000000000E+00  0.00000000000E+00 -0.46345165794E+03  0.26614202838E+04  0.26207576171E+04 0.  0.
        5    1    3    3  502    0 -0.24208157601E+02  0.11866761738E+04 -0.79557404153E+03  0.14288969599E+04  0.46999998093E+01 0. -1.
       -5    1    3    3    0  502  0.24208157601E+02 -0.11866761738E+04  0.33212238359E+03  0.12325233239E+04  0.46999998093E+01 0.  1.
</event>
<event>
 5   0  0.6706225E-06  0.2569315E+04  0.7818609E-02  0.8378699E-01
       -1   -1    0    0    0  501  0.00000000000E+00  0.00000000000E+00  0.73671580997E+03  0.73671580998E+03  0.50400001928E-02 0.  1.
        1   -1    0    0  501    0  0.00000000000E+00  0.00000000000E+00 -0.22401378817E+04  0.22401378817E+04  0.50400001928E-02 0. -1.
    10030    2    1    2    0    0  0.00000000000E+00  0.00000000000E+00 -0.15034220717E+04  0.29768536917E+04  0.25693150791E+04 0.  0.
        5    1    3    3  502    0 -0.86343507211E+03  0.36298508520E+03  0.26697980673E+03  0.97395000027E+03  0.46999998093E+01 0.  1.
       -5    1    3    3    0  502  0.86343507211E+03 -0.36298508520E+03 -0.17704018784E+04  0.20029036914E+04  0.46999998093E+01 0. -1.
</event>
<event>
 5   0  0.6918420E-06  0.2579462E+04  0.7818609E-02  0.8375211E-01
        1   -1    0    0  501    0  0.00000000000E+00  0.00000000000E+00  0.18085060352E+04  0.18085060352E+04  0.50400001928E-02 0. -1.
       -1   -1    0    0    0  501  0.00000000000E+00  0.00000000000E+00 -0.91976795287E+03  0.91976795288E+03  0.50400001928E-02 0.  1.
    10030    2    1    2    0    0  0.00000000000E+00  0.00000000000E+00  0.88873808233E+03  0.27282739881E+04  0.25794618770E+04 0.  0.
        4    1    3    3  502    0 -0.10663842043E+02  0.10914225504E+04  0.11710939801E+04  0.16008683969E+04  0.12699999809E+01 0. -1.
       -4    1    3    3    0  502  0.10663842043E+02 -0.10914225504E+04 -0.28235589781E+03  0.11274055912E+04  0.12699999809E+01 0.  1.
</event>
<event>
 5   0  0.1702345E-05  0.2590295E+04  0.7818609E-02  0.8371505E-01
       -2   -1    0    0    0  501  0.00000000000E+00  0.00000000000E+00  0.97245212265E+03  0.97245212266E+03  0.25500000920E-02 0.  1.
        2   -1    0    0  501    0  0.00000000000E+00  0.00000000000E+00 -0.17249251959E+04  0.17249251960E+04  0.25500000920E-02 0. -1.
    10030    2    1    2    0    0  0.00000000000E+00  0.00000000000E+00 -0.75247307330E+03  0.26973773186E+04  0.25902950938E+04 0.  0.
        1    1    3    3  502    0  0.97147685899E+03 -0.73511535060E+03  0.81533044756E+02  0.12209871022E+04  0.50400001928E-02 0.  1.
       -1    1    3    3    0  502 -0.97147685899E+03  0.73511535060E+03 -0.83400611805E+03  0.14763902164E+04  0.50400001928E-02 0. -1.
</event>
<event>
 5   0  0.6918420E-06  0.2127355E+04  0.7818609E-02  0.8549288E-01
       -1   -1    0    0    0  501  0.00000000000E+00  0.00000000000E+00  0.20447271881E+04  0.20447271881E+04  0.50400001928E-02 0.  1.
        1   -1    0    0  501    0  0.00000000000E+00  0.00000000000E+00 -0.55333061772E+03  0.55333061775E+03  0.50400001928E-02 0. -1.
    10030    2    1    2    0    0  0.00000000000E+00  0.00000000000E+00  0.14913965703E+04  0.25980578058E+04  0.21273553141E+04 0.  0.
        4    1    3    3  502    0  0.26078667452E+03 -0.53055120792E+03 -0.33421366535E+03  0.67911314289E+03  0.12699999809E+01 0. -1.
       -4    1    3    3    0  502 -0.26078667452E+03  0.53055120792E+03  0.18256102357E+04  0.19189446629E+04  0.12699999809E+01 0.  1.
</event>
<event>
 5   0  0.1702345E-05  0.2528103E+04  0.7818609E-02  0.8393042E-01
        2   -1    0    0  501    0  0.00000000000E+00  0.00000000000E+00  0.18985999642E+04  0.18985999642E+04  0.25500000920E-02 0.  1.
       -2   -1    0    0    0  501  0.00000000000E+00  0.00000000000E+00 -0.84158129475E+03  0.84158129476E+03  0.25500000920E-02 0. -1.
    10030    2    1    2    0    0  0.00000000000E+00  0.00000000000E+00  0.10570186694E+04  0.27401812589E+04  0.25281030170E+04 0.  0.
        1    1    3    3  502    0  0.48625018872E+03 -0.93394670285E+02 -0.73209720500E+03  0.88381453261E+03  0.50400001928E-02 0. -1.
       -1    1    3    3    0  502 -0.48625018872E+03  0.93394670285E+02  0.17891158744E+04  0.18563667263E+04  0.50400001928E-02 0.  1.
</event>
<event>
 5   0  0.1720129E-05  0.2589082E+04  0.7818609E-02  0.8371919E-01
       -2   -1    0    0    0  501  0.00000000000E+00  0.00000000000E+00  0.73844311770E+03  0.73844311771E+03  0.25500000920E-02 0.  1.
        2   -1    0    0  501    0  0.00000000000E+00  0.00000000000E+00 -0.22694181611E+04  0.22694181611E+04  0.25500000920E-02 0. -1.
    10030    2    1    2    0    0  0.00000000000E+00  0.00000000000E+00 -0.15309750434E+04  0.30078612788E+04  0.25890818622E+04 0.  0.
        3    1    3    3  502    0 -0.10075728163E+04  0.34947816244E+03 -0.16180067186E+04  0.19378554429E+04  0.10100000352E+00 0. -1.
       -3    1    3    3    0  502  0.10075728163E+04 -0.34947816244E+03  0.87031675139E+02  0.10700058359E+04  0.10100000352E+00 0.  1.
</event>
<event>
 5   0  0.1720129E-05  0.2571231E+04  0.7818609E-02  0.8378039E-01
       -2   -1    0    0    0  501  0.00000000000E+00  0.00000000000E+00  0.71015238280E+03  0.71015238281E+03  0.25500000920E-02 0. -1.
        2   -1    0    0  501    0  0.00000000000E+00  0.00000000000E+00 -0.23273983591E+04  0.23273983591E+04  0.25500000920E-02 0.  1.
    10030    2    1    2    0    0  0.00000000000E+00  0.00000000000E+00 -0.16172459763E+04  0.30375507419E+04  0.25712312152E+04 0.  0.
        3    1    3    3  502    0 -0.33745423782E+03 -0.12271187272E+04 -0.10235908109E+04  0.16332280586E+04  0.10100000352E+00 0. -1.
       -3    1    3    3    0  502  0.33745423782E+03  0.12271187272E+04 -0.59365516544E+03  0.14043226833E+04  0.10100000352E+00 0.  1.
</event>
<event>
 5   0  0.6993678E-06  0.2615441E+04  0.7818609E-02  0.8362975E-01
        1   -1    0    0  501    0  0.00000000000E+00  0.00000000000E+00  0.13075507640E+04  0.13075507640E+04  0.50400001928E-02 0.  1.
       -1   -1    0    0    0  501  0.00000000000E+00  0.00000000000E+00 -0.13078901621E+04  0.13078901621E+04  0.50400001928E-02 0. -1.
    10030    2    1    2    0    0  0.00000000000E+00  0.00000000000E+00 -0.33939806197E+00  0.26154409261E+04  0.26154409040E+04 0.  0.
        1    1    3    3  502    0  0.61558412755E+03  0.74992680622E+03 -0.87698140104E+03  0.13078342443E+04  0.50400001928E-02 0.  1.
       -1    1    3    3    0  502 -0.61558412755E+03 -0.74992680622E+03  0.87664200297E+03  0.13076066818E+04  0.50400001928E-02 0. -1.
</event>
<event>
 5   0  0.6706225E-06  0.2587883E+04  0.7818609E-02  0.8372329E-01
        1   -1    0    0  501    0  0.00000000000E+00  0.00000000000E+00  0.20983929340E+04  0.20983929340E+04  0.50400001928E-02 0.  1.
       -1   -1    0    0    0  501  0.00000000000E+00  0.00000000000E+00 -0.79788925695E+03  0.79788925696E+03  0.50400001928E-02 0. -1.
    10030    2    1    2    0    0  0.00000000000E+00  0.00000000000E+00  0.13005036771E+04  0.28962821910E+04  0.25878834432E+04 0.  0.
        5    1    3    3  502    0  0.12439785539E+04 -0.30926307441E+03  0.45276728616E+03  0.13594655558E+04  0.46999998093E+01 0.  1.
       -5    1    3    3    0  502 -0.12439785539E+04  0.30926307441E+03  0.84773639090E+03  0.15368166352E+04  0.46999998093E+01 0. -1.
</event>
<event>
 5   0  0.1720129E-05  0.2592554E+04  0.7818609E-02  0.8370735E-01
       -2   -1    0    0    0  501  0.00000000000E+00  0.00000000000E+00  0.80092756089E+03  0.80092756090E+03  0.25500000920E-02 0. -1.
        2   -1    0    0  501    0  0.00000000000E+00  0.00000000000E+00 -0.20979851676E+04  0.20979851676E+04  0.25500000920E-02 0.  1.
    10030    2    1    2    0    0  0.00000000000E+00  0.00000000000E+00 -0.12970576067E+04  0.28989127285E+04  0.25925540635E+04 0.  0.
        3    1    3    3  502    0  0.77080759825E+03  0.77762824344E+03 -0.14244154758E+04  0.17966105578E+04  0.10100000352E+00 0.  1.
       -3    1    3    3    0  502 -0.77080759825E+03 -0.77762824344E+03  0.12735786909E+03  0.11023021707E+04  0.10100000352E+00 0. -1.
</event>
<event>
 5   0  0.6706225E-06  0.2602370E+04  0.7818609E-02  0.8367397E-01
       -1   -1    0    0    0  501  0.00000000000E+00  0.00000000000E+00  0.78550529797E+03  0.78550529799E+03  0.50400001928E-02 0.  1.
        1   -1    0    0  501    0  0.00000000000E+00  0.00000000000E+00 -0.21554055110E+04  0.21554055110E+04  0.50400001928E-02 0. -1.
    10030    2    1    2    0    0  0.00000000000E+00  0.00000000000E+00 -0.13699002130E+04  0.29409108090E+04  0.26023700338E+04 0.  0.
        5    1    3    3  502    0 -0.34072706418E+03 -0.11916139003E+04 -0.23714123308E+03  0.12618623832E+04  0.46999998093E+01 0.  1.
       -5    1    3    3    0  502  0.34072706418E+03  0.11916139003E+04 -0.11327589799E+04  0.16790484258E+04  0.46999998093E+01 0. -1.
</event>
<event>
 5   0  0.1681731E-05  0.2549969E+04  0.7818609E-02  0.8385397E-01
       -2   -1    0    0    0  501  0.00000000000E+00  0.00000000000E+00  0.90555056866E+03  0.90555056866E+03  0.25500000920E-02 0. -1.
        2   -1    0    0  501    0  0.00000000000E+00  0.00000000000E+00 -0.17951342806E+04  0.17951342806E+04  0.25500000920E-02 0.  1.
    10030    2    1    2    0    0  0.00000000000E+00  0.00000000000E+00 -0.88958371197E+03  0.27006848493E+04  0.25499685242E+04 0.  0.
        2    1    3    3  502    0  0.98034119256E+03  0.49069272442E+03 -0.11342169872E+04  0.15774334781E+04  0.25500000920E-02 0.  1.
       -2    1    3    3    0  502 -0.98034119256E+03 -0.49069272442E+03  0.24463327524E+03  0.11232513712E+04  0.25500000920E-02 0. -1.
</event>
<event>
 5   0  0.6984287E-06  0.2598144E+04  0.7818609E-02  0.8368832E-01
       -1   -1    0    0    0  501  0.00000000000E+00  0.00000000000E+00  0.56079930215E+03  0.56079930217E+03  0.50400001928E-02 0. -1.
        1   -1    0    0  501    0  0.00000000000E+00  0.00000000000E+00 -0.30092560604E+04  0.30092560604E+04  0.50400001928E-02 0.  1.
    10030    2    1    2    0    0  0.00000000000E+00  0.00000000000E+00 -0.24484567583E+04  0.35700553626E+04  0.25981444908E+04 0.  0.
        3    1    3    3  502    0 -0.11615863452E+04  0.53119165958E+03 -0.89865208543E+03  0.15617371730E+04  0.10100000352E+00 0.  1.
       -3    1    3    3    0  502  0.11615863452E+04 -0.53119165958E+03 -0.15498046729E+04  0.20083181896E+04  0.10100000352E+00 0. -1.
</event>
<event>
 5   0  0.6993678E-06  0.2662325E+04  0.7818609E-02  0.8347334E-01
       -1   -1    0    0    0  501  0.00000000000E+00  0.00000000000E+00  0.10441463202E+04  0.10441463203E+04  0.50400001928E-02 0. -1.
        1   -1    0    0  501    0  0.00000000000E+00  0.00000000000E+00 -0.16970746449E+04  0.16970746449E+04  0.50400001928E-02 0.  1.
    10030    2    1    2    0    0  0.00000000000E+00  0.00000000000E+00 -0.65292832461E+03  0.27412209651E+04  0.26623254839E+04 0.  0.
        1    1    3    3  502    0  0.21794796120E+03  0.29643208890E+03 -0.16436800134E+04  0.16843566379E+04  0.50400001928E-02 0.  1.
       -1    1    3    3    0  502 -0.21794796120E+03 -0.29643208890E+03  0.99075168883E+03  0.10568643272E+04  0.50400001928E-02 0. -1.
</event>
<event>
 5   0  0.6918420E-06  0.2605032E+04  0.7818609E-02  0.8366494E-01
        1   -1    0    0  501    0  0.00000000000E+00  0.00000000000E+00  0.11674454148E+04  0.11674454148E+04  0.50400001928E-02 0.  1.
       -1   -1    0    0    0  501  0.00000000000E+00  0.00000000000E+00 -0.14532139396E+04  0.14532139396E+04  0.50400001928E-02 0. -1.
    10030    2    1    2    0    0  0.00000000000E+00  0.00000000000E+00 -0.28576852475E+03  0.26206593544E+04  0.26050320156E+04 0.  0.
        4    1    3    3  502    0 -0.84106798615E+03 -0.48303606001E+03  0.73171428263E+03  0.12149595042E+04  0.12699999809E+01 0.  1.
       -4    1    3    3    0  502  0.84106798615E+03  0.48303606001E+03 -0.10174828074E+04  0.14056998502E+04  0.12699999809E+01 0. -1.
</event>
<event>
 5   0  0.1677971E-05  0.2601116E+04  0.7818609E-02  0.8367822E-01
        2   -1    0    0  501    0  0.00000000000E+00  0.00000000000E+00  0.79605527399E+03  0.79605527400E+03  0.25500000920E-02 0.  1.
       -2   -1    0    0    0  501  0.00000000000E+00  0.00000000000E+00 -0.21247904631E+04  0.21247904631E+04  0.25500000920E-02 0. -1.
    10030    2    1    2    0    0  0.00000000000E+00  0.00000000000E+00 -0.13287351891E+04  0.29208457371E+04  0.26011156486E+04 0.  0.
        4    1    3    3  502    0  0.34698919551E+03 -0.10214561109E+04 -0.14800708560E+04  0.18314981409E+04  0.12699999809E+01 0. -1.
       -4    1    3    3    0  502 -0.34698919551E+03  0.10214561109E+04  0.15133566691E+03  0.10893475962E+04  0.12699999809E+01 0.  1.
</event>
<event>
 5   0  0.6984287E-06  0.2502255E+04  0.7818609E-02  0.8402183E-01
       -1   -1    0    0    0  501  0.00000000000E+00  0.00000000000E+00  0.10271234923E+04  0.10271234923E+04  0.50400001928E-02 0.  1.
        1   -1    0    0  501    0  0.00000000000E+00  0.00000000000E+00 -0.15239841825E+04  0.15239841825E+04  0.50400001928E-02 0. -1.
    10030    2    1    2    0    0  0.00000000000E+00  0.00000000000E+00 -0.49686069021E+03  0.25511076748E+04  0.25022549476E+04 0.  0.
        3    1    3    3  502    0 -0.10196996926E+04  0.52707718764E+03  0.25900372977E+03  0.11767245927E+04  0.10100000352E+00 0.  1.
       -3    1    3    3    0  502  0.10196996926E+04 -0.52707718764E+03 -0.75586441999E+03  0.13743830821E+04  0.10100000352E+00 0. -1.
</event>
<event>
 5   0  0.6706225E-06  0.2587540E+04  0.7818609E-02  0.8372446E-01
        1   -1    0    0  501    0  0.00000000000E+00  0.00000000000E+00  0.13739955667E+04  0.13739955667E+04  0.50400001928E-02 0. -1.
       -1   -1    0    0    0  501  0.00000000000E+00  0.00000000000E+00 -0.12182290139E+04  0.12182290139E+04  0.50400001928E-02 0.  1.
    10030    2    1    2    0    0  0.00000000000E+00  0.00000000000E+00  0.15576655282E+03  0.25922245805E+04  0.25875403489E+04 0.  0.
        5    1    3    3  502    0  0.73289887053E+03 -0.73593621962E+03 -0.69492510043E+03  0.12496743012E+04  0.46999998093E+01 0.  1.
       -5    1    3    3    0  502 -0.73289887053E+03  0.73593621962E+03  0.85069165325E+03  0.13425502794E+04  0.46999998093E+01 0. -1.
</event>
<event>
 5   0  0.6918420E-06  0.2645341E+04  0.7818609E-02  0.8352961E-01
        1   -1    0    0  501    0  0.00000000000E+00  0.00000000000E+00  0.18404918210E+04  0.18404918210E+04  0.50400001928E-02 0.  1.
       -1   -1    0    0    0  501  0.00000000000E+00  0.00000000000E+00 -0.95053770543E+03  0.95053770545E+03  0.50400001928E-02 0. -1.
    10030    2    1    2    0    0  0.00000000000E+00  0.00000000000E+00  0.88995411553E+03  0.27910295264E+04  0.26453407133E+04 0.  0.
        4    1    3    3  502    0  0.61854388665E+03  0.10128754877E+03 -0.78390060344E+03  0.10036719963E+04  0.12699999809E+01 0. -1.
       -4    1    3    3    0  502 -0.61854388665E+03 -0.10128754877E+03  0.16738547190E+04  0.17873575301E+04  0.12699999809E+01 0.  1.
</event>
<event>
 5   0  0.1681731E-05  0.2602846E+04  0.7818609E-02  0.8367235E-01
       -2   -1    0    0    0  501  0.00000000000E+00  0.00000000000E+00  0.10051373193E+04  0.10051373193E+04  0.25500000920E-02 0. -1.
        2   -1    0    0  501    0  0.00000000000E+00  0.00000000000E+00 -0.16850449321E+04  0.16850449321E+04  0.25500000920E-02 0.  1.
    10030    2    1    2    0    0  0.00000000000E+00  0.00000000000E+00 -0.67990761275E+03  0.26901822514E+04  0.26028457857E+04 0.  0.
        2    1    3    3  502    0 -0.10364603352E+04  0.55172926385E+03 -0.92007734044E+03  0.14917095962E+04  0.25500000920E-02 0. -1.
       -2    1    3    3    0  502  0.10364603352E+04 -0.55172926385E+03  0.24016972770E+03  0.11984726552E+04  0.25500000920E-02 0.  1.
</event>
<event>
 5   0  0.1677971E-05  0.2564869E+04  0.7818609E-02  0.8380233E-01
        2   -1    0    0  501    0  0.00000000000E+00  0.00000000000E+00  0.95200076165E+03  0.95200076165E+03  0.25500000920E-02 0. -1.
       -2   -1    0    0    0  501  0.00000000000E+00  0.00000000000E+00 -0.17275598839E+04  0.17275598839E+04  0.25500000920E-02 0.  1.
    10030    2    1    2    0    0  0.00000000000E+00  0.00000000000E+00 -0.77555912229E+03  0.26795606456E+04  0.25648690612E+04 0.  0.
        4    1    3    3  502    0  0.16943581453E+03  0.11706136023E+04 -0.90551215843E+03  0.14896303512E+04  0.12699999809E+01 0.  1.
       -4    1    3    3    0  502 -0.16943581453E+03 -0.11706136023E+04  0.12995303614E+03  0.11899302944E+04  0.12699999809E+01 0. -1.
</event>
<event>
 5   0  0.1677971E-05  0.2592202E+04  0.7818609E-02  0.8370855E-01
       -2   -1    0    0    0  501  0.00000000000E+00  0.00000000000E+00  0.75292267034E+03  0.75292267035E+03  0.25500000920E-02 0. -1.
        2   -1    0    0  501    0  0.00000000000E+00  0.00000000000E+00 -0.22311424795E+04  0.22311424795E+04  0.25500000920E-02 0.  1.
    10030    2    1    2    0    0  0.00000000000E+00  0.00000000000E+00 -0.14782198091E+04  0.29840651498E+04  0.25922019625E+04 0.  0.
        4    1    3    3  502    0 -0.86317397910E+03 -0.65437824000E+03  0.80241719149E+02  0.10861494122E+04  0.12699999809E+01 0.  1.
       -4    1    3    3    0  502  0.86317397910E+03  0.65437824000E+03 -0.15584615283E+04  0.18979157376E+04  0.12699999809E+01 0. -1.
</event>
<event>
 5   0  0.6918420E-06  0.2627782E+04  0.7818609E-02  0.8358825E-01
       -1   -1    0    0    0  501  0.00000000000E+00  0.00000000000E+00  0.13052927279E+04  0.13052927279E+04  0.50400001928E-02 0.  1.
        1   -1    0    0  501    0  0.00000000000E+00  0.00000000000E+00 -0.13225457984E+04  0.13225457984E+04  0.50400001928E-02 0. -1.
    10030    2    1    2    0    0  0.00000000000E+00  0.00000000000E+00 -0.17253070510E+02  0.26278385262E+04  0.26277818881E+04 0.  0.
        4    1    3    3  502    0  0.71762664057E+03  0.33626644451E+03  0.10393677518E+04  0.13070386580E+04  0.12699999809E+01 0.  1.
       -4    1    3    3    0  502 -0.71762664057E+03 -0.33626644451E+03 -0.10566208223E+04  0.13207998683E+04  0.12699999809E+01 0. -1.
</event>
<event>
 5   0  0.1681731E-05  0.2563623E+04  0.7818609E-02  0.8380664E-01
       -2   -1    0    0    0  501  0.00000000000E+00  0.00000000000E+00  0.88936556680E+03  0.88936556680E+03  0.25500000920E-02 0. -1.
        2   -1    0    0  501    0  0.00000000000E+00  0.00000000000E+00 -0.18474300675E+04  0.18474300675E+04  0.25500000920E-02 0.  1.
    10030    2    1    2    0    0  0.00000000000E+00  0.00000000000E+00 -0.95806450065E+03  0.27367956343E+04  0.25636229747E+04 0.  0.
        2    1    3    3  502    0  0.68110774893E+03 -0.96768357596E+03 -0.10049795936E+04  0.15525151376E+04  0.25500000920E-02 0.  1.
       -2    1    3    3    0  502 -0.68110774893E+03  0.96768357596E+03  0.46915092981E+02  0.11842804967E+04  0.25500000920E-02 0. -1.
</event>
<event>
 5   0  0.1677971E-05  0.2583365E+04  0.7818609E-02  0.8373874E-01
       -2   -1    0    0    0  501  0.00000000000E+00  0.00000000000E+00  0.12844209533E+04  0.12844209533E+04  0.25500000920E-02 0. -1.
        2   -1    0    0  501    0  0.00000000000E+00  0.00000000000E+00 -0.12989855854E+04  0.12989855854E+04  0.25500000920E-02 0.  1.
    10030    2    1    2    0    0  0.00000000000E+00  0.00000000000E+00 -0.14564632064E+02  0.25834065387E+04  0.25833654824E+04 0.  0.
        4    1    3    3  502    0 -0.45808460108E+03  0.48595012854E+03 -0.11129461519E+04  0.12979367393E+04  0.12699999809E+01 0.  1.
       -4    1    3    3    0  502  0.45808460108E+03 -0.48595012854E+03  0.10983815198E+04  0.12854697994E+04  0.12699999809E+01 0. -1.
</event>
<event>
 5   0  0.1869956E-05  0.2595743E+04  0.7818609E-02  0.8369649E-01
        2   -1    0    0  501    0  0.00000000000E+00  0.00000000000E+00  0.62428914112E+03  0.62428914112E+03  0.25500000920E-02 0. -1.
       -2   -1    0    0    0  501  0.00000000000E+00  0.00000000000E+00 -0.26982223298E+04  0.26982223298E+04  0.25500000920E-02 0.  1.
    10030    2    1    2    0    0  0.00000000000E+00  0.00000000000E+00 -0.20739331887E+04  0.33225114710E+04  0.25957433624E+04 0.  0.
        5    1    3    3  502    0 -0.44109164422E+03  0.11306162268E+04 -0.44818214785E+03  0.12937326689E+04  0.46999998093E+01 0. -1.
       -5    1    3    3    0  502  0.44109164422E+03 -0.11306162268E+04 -0.16257510409E+04  0.20287788021E+04  0.46999998093E+01 0.  1.
</event>
<event>
 5   0  0.7138294E-06  0.2619417E+04  0.7818609E-02  0.8361635E-01
        1   -1    0    0  501    0  0.00000000000E+00  0.00000000000E+00  0.19343868271E+04  0.19343868271E+04  0.50400001928E-02 0.  1.
       -1   -1    0    0    0  501  0.00000000000E+00  0.00000000000E+00 -0.88675995464E+03  0.88675995466E+03  0.50400001928E-02 0. -1.
    10030    2    1    2    0    0  0.00000000000E+00  0.00000000000E+00  0.10476268724E+04  0.28211467817E+04  0.26194173208E+04 0.  0.
        2    1    3    3  502    0  0.11947184438E+04  0.53649152961E+03  0.51012843206E+03  0.14054914936E+04  0.25500000920E-02 0. -1.
       -2    1    3    3    0  502 -0.11947184438E+04 -0.53649152961E+03  0.53749844038E+03  0.14156552881E+04  0.25500000920E-02 0.  1.
</event>
<event>
 5   0  0.1720129E-05  0.2609271E+04  0.7818609E-02  0.8365059E-01
        2   -1    0    0  501    0  0.00000000000E+00  0.00000000000E+00  0.24066810093E+04  0.24066810093E+04  0.25500000920E-02 0.  1.
       -2   -1    0    0    0  501  0.00000000000E+00  0.00000000000E+00 -0.70722873046E+03  0.70722873047E+03  0.25500000920E-02 0. -1.
    10030    2    1    2    0    0  0.00000000000E+00  0.00000000000E+00  0.16994522789E+04  0.31139097398E+04  0.26092711280E+04 0.  0.
        3    1    3    3  502    0 -0.64689051374E+03 -0.94401537376E+03  0.15973347936E+04  0.19649709452E+04  0.10100000352E+00 0.  1.
       -3    1    3    3    0  502  0.64689051374E+03  0.94401537376E+03  0.10211748531E+03  0.11489387946E+04  0.10100000352E+00 0. -1.
</event>
<event>
 5   0  0.6706225E-06  0.2616947E+04  0.7818609E-02  0.8362467E-01
       -1   -1    0    0    0  501  0.00000000000E+00  0.00000000000E+00  0.87336837390E+03  0.87336837391E+03  0.50400001928E-02 0. -1.
        1   -1    0    0  501    0  0.00000000000E+00  0.00000000000E+00 -0.19603443996E+04  0.19603443996E+04  0.50400001928E-02 0.  1.
    10030    2    1    2    0    0  0.00000000000E+00  0.00000000000E+00 -0.10869760257E+04  0.28337127735E+04  0.26169469239E+04 0.  0.
        5    1    3    3  502    0  0.82475963776E+03  0.33940416350E+03 -0.15802148911E+04  0.18145315754E+04  0.46999998093E+01 0.  1.
       -5    1    3    3    0  502 -0.82475963776E+03 -0.33940416350E+03  0.49323886535E+03  0.10191811981E+04  0.46999998093E+01 0. -1.
</event>
<event>
 5   0  0.7138294E-06  0.2600633E+04  0.7818609E-02  0.8367986E-01
       -1   -1    0    0    0  501  0.00000000000E+00  0.00000000000E+00  0.16087909289E+04  0.16087909289E+04  0.50400001928E-02 0.  1.
        1   -1    0    0  501    0  0.00000000000E+00  0.00000000000E+00 -0.10509902058E+04  0.10509902059E+04  0.50400001928E-02 0. -1.
    10030    2    1    2    0    0  0.00000000000E+00  0.00000000000E+00  0.55780072304E+03  0.26597811347E+04  0.26006333917E+04 0.  0.
        2    1    3    3  502    0  0.10805956870E+03  0.18225717073E+02  0.16040597498E+04  0.16077987213E+04  0.25500000920E-02 0.  1.
       -2    1    3    3    0  502 -0.10805956870E+03 -0.18225717073E+02 -0.10462590268E+04  0.10519824135E+04  0.25500000920E-02 0. -1.
</event>
<event>
 5   0  0.1702345E-05  0.2167051E+04  0.7818609E-02  0.8532269E-01
       -2   -1    0    0    0  501  0.00000000000E+00  0.00000000000E+00  0.40087313759E+03  0.40087313759E+03  0.25500000920E-02 0.  1.
        2   -1    0    0  501    0  0.00000000000E+00  0.00000000000E+00 -0.29286754413E+04  0.29286754413E+04  0.25500000920E-02 0. -1.
    10030    2    1    2    0    0  0.00000000000E+00  0.00000000000E+00 -0.25278023038E+04  0.33295485789E+04  0.21670508191E+04 0.  0.
        1    1    3    3  502    0  0.71141166734E+02 -0.81195178827E+03 -0.16698405131E+03  0.83199185422E+03  0.50400001928E-02 0.  1.
       -1    1    3    3    0  502 -0.71141166734E+02  0.81195178827E+03 -0.23608182524E+04  0.24975567247E+04  0.50400001928E-02 0. -1.
</event>
<event>
 5   0  0.6918420E-06  0.2629453E+04  0.7818609E-02  0.8358265E-01
       -1   -1    0    0    0  501  0.00000000000E+00  0.00000000000E+00  0.98323544340E+03  0.98323544341E+03  0.50400001928E-02 0. -1.
        1   -1    0    0  501    0  0.00000000000E+00  0.00000000000E+00 -0.17579771412E+04  0.17579771412E+04  0.50400001928E-02 0.  1.
    10030    2    1    2    0    0  0.00000000000E+00  0.00000000000E+00 -0.77474169775E+03  0.27412125846E+04  0.26294527445E+04 0.  0.
        4    1    3    3  502    0  0.72788315098E+02  0.34480382514E+03  0.93308019631E+03  0.99741068888E+03  0.12699999809E+01 0. -1.
       -4    1    3    3    0  502 -0.72788315098E+02 -0.34480382514E+03 -0.17078218941E+04  0.17438018957E+04  0.12699999809E+01 0.  1.
</event>
<event>
 5   0  0.1720129E-05  0.2626235E+04  0.7818609E-02  0.8359344E-01
       -2   -1    0    0    0  501  0.00000000000E+00  0.00000000000E+00  0.71730605084E+03  0.71730605085E+03  0.25500000920E-02 0.  1.
        2   -1    0    0  501    0  0.00000000000E+00  0.00000000000E+00 -0.24038239932E+04  0.24038239932E+04  0.25500000920E-02 0. -1.
    10030    2    1    2    0    0  0.00000000000E+00  0.00000000000E+00 -0.16865179424E+04  0.31211300441E+04  0.26262349442E+04 0.  0.
        3    1    3    3  502    0 -0.60527704443E+03  0.85765148958E+03  0.94294447609E+02  0.10539534293E+04  0.10100000352E+00 0.  1.
       -3    1    3    3    0  502  0.60527704443E+03 -0.85765148958E+03 -0.17808123900E+04  0.20671766147E+04  0.10100000352E+00 0. -1.
</event>
<event>
 5   0  0.6706225E-06  0.2599226E+04  0.7818609E-02  0.8368464E-01
        1   -1    0    0  501    0  0.00000000000E+00  0.00000000000E+00  0.16065977073E+04  0.16065977073E+04  0.50400001928E-02 0.  1.
       -1   -1    0    0    0  501  0.00000000000E+00  0.00000000000E+00 -0.10512862123E+04  0.10512862123E+04  0.50400001928E-02 0. -1.
    10030    2    1    2    0    0  0.00000000000E+00  0.00000000000E+00  0.55531149505E+03  0.26578839196E+04  0.25992260528E+04 0.  0.
        5    1    3    3  502    0  0.54092333761E+03 -0.70678553379E+03 -0.69072591551E+03  0.11266180490E+04  0.46999998093E+01 0. -1.
       -5    1    3    3    0  502 -0.54092333761E+03  0.70678553379E+03  0.12460374106E+04  0.15312658706E+04  0.46999998093E+01 0.  1.
</event>
<event>
 5   0  0.6984287E-06  0.2684812E+04  0.7818609E-02  0.8339950E-01
        1   -1    0    0  501    0  0.00000000000E+00  0.00000000000E+00  0.20798365871E+04  0.20798365871E+04  0.50400001928E-02 0. -1.
       -1   -1    0    0    0  501  0.00000000000E+00  0.00000000000E+00 -0.86644000398E+03  0.86644000399E+03  0.50400001928E-02 0.  1.
    10030    2    1    2    0    0  0.00000000000E+00  0.00000000000E+00  0.12133965831E+04  0.29462765911E+04  0.26848118152E+04 0.  0.
        3    1    3    3  502    0 -0.43815877746E+03 -0.12581910611E+04  0.42629330278E+03  0.13988401805E+04  0.10100000352E+00 0. -1.
       -3    1    3    3    0  502  0.43815877746E+03  0.12581910611E+04  0.78710328030E+03  0.15474364105E+04  0.10100000352E+00 0.  1.
</event>
<event>
 5   0  0.5840500E-06  0.2584947E+04  0.7818609E-02  0.8373332E-01
       -3   -1    0    0    0  501  0.00000000000E+00  0.00000000000E+00  0.10882553875E+04  0.10882553922E+04  0.10100000352E+00 0.  1.
        3   -1    0    0  501    0  0.00000000000E+00  0.00000000000E+00 -0.15350142921E+04  0.15350142954E+04  0.10100000352E+00 0. -1.
    10030    2    1    2    0    0  0.00000000000E+00  0.00000000000E+00 -0.44675890453E+03  0.26232696876E+04  0.25849468728E+04 0.  0.
        1    1    3    3  502    0  0.10068962821E+04 -0.40609501539E+03 -0.93501325721E+03  0.14328304420E+04  0.50400001928E-02 0. -1.
       -1    1    3    3    0  502 -0.10068962821E+04  0.40609501539E+03  0.48825435268E+03  0.11904392456E+04  0.50400001928E-02 0.  1.
</event>
<event>
 5   0  0.1681731E-05  0.2611217E+04  0.7818609E-02  0.8364401E-01
        2   -1    0    0  501    0  0.00000000000E+00  0.00000000000E+00  0.24060748656E+04  0.24060748656E+04  0.25500000920E-02 0.  1.
       -2   -1    0    0    0  501  0.00000000000E+00  0.00000000000E+00 -0.70846254964E+03  0.70846254965E+03  0.25500000920E-02 0. -1.
    10030    2    1    2    0    0  0.00000000000E+00  0.00000000000E+00  0.16976123160E+04  0.31145374153E+04  0.26112172900E+04 0.  0.
        2    1    3    3  502    0  0.55792290638E+02 -0.55534254940E+03 -0.55899407347E+03  0.78993195976E+03  0.25500000920E-02 0. -1.
       -2    1    3    3    0  502 -0.55792290638E+02  0.55534254940E+03  0.22566063895E+04  0.23246054555E+04  0.25500000920E-02 0.  1.
</event>
<event>
 5   0  0.1869956E-05  0.2582337E+04  0.7818609E-02  0.8374226E-01
        2   -1    0    0  501    0  0.00000000000E+00  0.00000000000E+00  0.13977808849E+04  0.13977808849E+04  0.25500000920E-02 0.  1.
       -2   -1    0    0    0  501  0.00000000000E+00  0.00000000000E+00 -0.11926881210E+04  0.11926881211E+04  0.25500000920E-02 0. -1.
    10030    2    1    2    0    0  0.00000000000E+00  0.00000000000E+00  0.20509276388E+03  0.25904690060E+04  0.25823374352E+04 0.  0.
        5    1    3    3  502    0  0.12351048384E+03  0.11539509182E+04  0.67022321092E+03  0.13401786461E+04  0.46999998093E+01 0.  1.
       -5    1    3    3    0  502 -0.12351048384E+03 -0.11539509182E+04 -0.46513044704E+03  0.12502903598E+04  0.46999998093E+01 0. -1.
</event>
<event>
 5   0  0.6918420E-06  0.2581313E+04  0.7818609E-02  0.8374577E-01
        1   -1    0    0  501    0  0.00000000000E+00  0.00000000000E+00  0.18013785905E+04  0.18013785905E+04  0.50400001928E-02 0. -1.
       -1   -1    0    0    0  501  0.00000000000E+00  0.00000000000E+00 -0.92473281606E+03  0.92473281608E+03  0.50400001928E-02 0.  1.
    10030    2    1    2    0    0  0.00000000000E+00  0.00000000000E+00  0.87664577444E+03  0.27261114066E+04  0.25813127643E+04 0.  0.
        4    1    3    3  502    0  0.10236589425E+04 -0.63847376614E+03 -0.45946925250E+02  0.12073272603E+04  0.12699999809E+01 0. -1.
       -4    1    3    3    0  502 -0.10236589425E+04  0.63847376614E+03  0.92259269969E+03  0.15187841463E+04  0.12699999809E+01 0.  1.
</event>
<event>
 5   0  0.1677971E-05  0.2578454E+04  0.7818609E-02  0.8375557E-01
        2   -1    0    0  501    0  0.00000000000E+00  0.00000000000E+00  0.10426298345E+04  0.10426298345E+04  0.25500000920E-02 0.  1.
       -2   -1    0    0    0  501  0.00000000000E+00  0.00000000000E+00 -0.15941479156E+04  0.15941479156E+04  0.25500000920E-02 0. -1.
    10030    2    1    2    0    0  0.00000000000E+00  0.00000000000E+00 -0.55151808113E+03  0.26367777501E+04  0.25784539378E+04 0.  0.
        4    1    3    3  502    0  0.11674409687E+04 -0.72633453055E+02  0.27863904425E+03  0.12024289433E+04  0.12699999809E+01 0.  1.
       -4    1    3    3    0  502 -0.11674409687E+04  0.72633453055E+02 -0.83015712538E+03  0.14343488068E+04  0.12699999809E+01 0. -1.
</event>
<event>
 5   0  0.6706225E-06  0.2616330E+04  0.7818609E-02  0.8362675E-01
        1   -1    0    0  501    0  0.00000000000E+00  0.00000000000E+00  0.15974465129E+04  0.15974465129E+04  0.50400001928E-02 0.  1.
       -1   -1    0    0    0  501  0.00000000000E+00  0.00000000000E+00 -0.10712698251E+04  0.10712698251E+04  0.50400001928E-02 0. -1.
    10030    2    1    2    0    0  0.00000000000E+00  0.00000000000E+00  0.52617668775E+03  0.26687163380E+04  0.26163304428E+04 0.  0.
        5    1    3    3  502    0 -0.84830124335E+03  0.83466966904E+03  0.81708902914E+03  0.14435875545E+04  0.46999998093E+01 0.  1.
       -5    1    3    3    0  502  0.84830124335E+03 -0.83466966904E+03 -0.29091234139E+03  0.12251287835E+04  0.46999998093E+01 0. -1.
</event>
<event>
 5   0  0.1681731E-05  0.2490518E+04  0.7818609E-02  0.8406371E-01
       -2   -1    0    0    0  501  0.00000000000E+00  0.00000000000E+00  0.11151803005E+04  0.11151803005E+04  0.25500000920E-02 0. -1.
        2   -1    0    0  501    0  0.00000000000E+00  0.00000000000E+00 -0.13905108184E+04  0.13905108184E+04  0.25500000920E-02 0.  1.
    10030    2    1    2    0    0  0.00000000000E+00  0.00000000000E+00 -0.27533051789E+03  0.25056911189E+04  0.24905182371E+04 0.  0.
        2    1    3    3  502    0 -0.10167078355E+04  0.59516887686E+03  0.26821467617E+03  0.12082466335E+04  0.25500000920E-02 0. -1.
       -2    1    3    3    0  502  0.10167078355E+04 -0.59516887686E+03 -0.54354519406E+03  0.12974444854E+04  0.25500000920E-02 0.  1.
</event>
<event>
 5   0  0.1720129E-05  0.2674175E+04  0.7818609E-02  0.8343433E-01
       -2   -1    0    0    0  501  0.00000000000E+00  0.00000000000E+00  0.98242630607E+03  0.98242630608E+03  0.25500000920E-02 0. -1.
        2   -1    0    0  501    0  0.00000000000E+00  0.00000000000E+00 -0.18197839155E+04  0.18197839155E+04  0.25500000920E-02 0.  1.
    10030    2    1    2    0    0  0.00000000000E+00  0.00000000000E+00 -0.83735760946E+03  0.28022102216E+04  0.26741754542E+04 0.  0.
        3    1    3    3  502    0 -0.16822280964E+03  0.23869604043E+03  0.94860307046E+03  0.99253337923E+03  0.10100000352E+00 0. -1.
       -3    1    3    3    0  502  0.16822280964E+03 -0.23869604043E+03 -0.17859606799E+04  0.18096768424E+04  0.10100000352E+00 0.  1.
</event>
<event>
 5   0  0.7138294E-06  0.2554548E+04  0.7818609E-02  0.8383806E-01
        1   -1    0    0  501    0  0.00000000000E+00  0.00000000000E+00  0.11019535471E+04  0.11019535472E+04  0.50400001928E-02 0.  1.
       -1   -1    0    0    0  501  0.00000000000E+00  0.00000000000E+00 -0.14804873996E+04  0.14804873996E+04  0.50400001928E-02 0. -1.
    10030    2    1    2    0    0  0.00000000000E+00  0.00000000000E+00 -0.37853385241E+03  0.25824409467E+04  0.25545475854E+04 0.  0.
        2    1    3    3  502    0 -0.50618871434E+03 -0.11604212593E+04 -0.36030006207E+03  0.13162904878E+04  0.25500000920E-02 0.  1.
       -2    1    3    3    0  502  0.50618871434E+03  0.11604212593E+04 -0.18233790343E+02  0.12661504589E+04  0.25500000920E-02 0. -1.
</event>
<event>
 5   0  0.6706225E-06  0.2347554E+04  0.7818609E-02  0.8459404E-01
        1   -1    0    0  501    0  0.00000000000E+00  0.00000000000E+00  0.13670260676E+04  0.13670260676E+04  0.50400001928E-02 0. -1.
       -1   -1    0    0    0  501  0.00000000000E+00  0.00000000000E+00 -0.10078468728E+04  0.10078468728E+04  0.50400001928E-02 0.  1.
    10030    2    1    2    0    0  0.00000000000E+00  0.00000000000E+00  0.35917919479E+03  0.23748729403E+04  0.23475544272E+04 0.  0.
        5    1    3    3  502    0  0.94198933183E+03  0.51245022266E+03  0.66240837045E+03  0.12604586749E+04  0.46999998093E+01 0. -1.
       -5    1    3    3    0  502 -0.94198933183E+03 -0.51245022266E+03 -0.30322917566E+03  0.11144142654E+04  0.46999998093E+01 0.  1.
</event>
<event>
 5   0  0.1720129E-05  0.2536202E+04  0.7818609E-02  0.8390201E-01
        2   -1    0    0  501    0  0.00000000000E+00  0.00000000000E+00  0.10409635992E+04  0.10409635992E+04  0.25500000920E-02 0. -1.
       -2   -1    0    0    0  501  0.00000000000E+00  0.00000000000E+00 -0.15447996816E+04  0.15447996816E+04  0.25500000920E-02 0.  1.
    10030    2    1    2    0    0  0.00000000000E+00  0.00000000000E+00 -0.50383608246E+03  0.25857632808E+04  0.25362020713E+04 0.  0.
        3    1    3    3  502    0 -0.66186586261E+02  0.22490751979E+03 -0.15225122796E+04  0.15404569804E+04  0.10100000352E+00 0.  1.
       -3    1    3    3    0  502  0.66186586261E+02 -0.22490751979E+03  0.10186761972E+04  0.10453063004E+04  0.10100000352E+00 0. -1.
</event>
<event>
 5   0  0.1720129E-05  0.2642368E+04  0.7818609E-02  0.8353950E-01
        2   -1    0    0  501    0  0.00000000000E+00  0.00000000000E+00  0.21234155670E+04  0.21234155670E+04  0.25500000920E-02 0. -1.
       -2   -1    0    0    0  501  0.00000000000E+00  0.00000000000E+00 -0.82203759805E+03  0.82203759805E+03  0.25500000920E-02 0.  1.
    10030    2    1    2    0    0  0.00000000000E+00  0.00000000000E+00  0.13013779689E+04  0.29454531650E+04  0.26423682047E+04 0.  0.
        3    1    3    3  502    0 -0.22289728080E+03 -0.92288818527E+03 -0.37345566155E+03  0.10202327880E+04  0.10100000352E+00 0.  1.
       -3    1    3    3    0  502  0.22289728080E+03  0.92288818527E+03  0.16748336305E+04  0.19252203771E+04  0.10100000352E+00 0. -1.
</event>
<event>
 5   0  0.1681731E-05  0.2582198E+04  0.7818609E-02  0.8374274E-01
        2   -1    0    0  501    0  0.00000000000E+00  0.00000000000E+00  0.19865613542E+04  0.19865613542E+04  0.25500000920E-02 0. -1.
       -2   -1    0    0    0  501  0.00000000000E+00  0.00000000000E+00 -0.83910623392E+03  0.83910623392E+03  0.25500000920E-02 0.  1.
    10030    2    1    2    0    0  0.00000000000E+00  0.00000000000E+00  0.11474551202E+04  0.28256675881E+04  0.25821975264E+04 0.  0.
        2    1    3    3  502    0 -0.67954767517E+03 -0.10533451394E+04  0.23535541609E+03  0.12754266727E+04  0.25500000920E-02 0.  1.
       -2    1    3    3    0  502  0.67954767517E+03  0.10533451394E+04  0.91209970415E+03  0.15502409154E+04  0.25500000920E-02 0. -1.
</event>
<event>
 5   0  0.6993678E-06  0.2574352E+04  0.7818609E-02  0.8376966E-01
        1   -1    0    0  501    0  0.00000000000E+00  0.00000000000E+00  0.13431244117E+04  0.13431244117E+04  0.50400001928E-02 0.  1.
       -1   -1    0    0    0  501  0.00000000000E+00  0.00000000000E+00 -0.12335577905E+04  0.12335577905E+04  0.50400001928E-02 0. -1.
    10030    2    1    2    0    0  0.00000000000E+00  0.00000000000E+00  0.10956662116E+03  0.25766822022E+04  0.25743516323E+04 0.  0.
        1    1    3    3  502    0 -0.20071745745E+02 -0.53899811886E+03  0.12245584864E+04  0.13380827081E+04  0.50400001928E-02 0.  1.
       -1    1    3    3    0  502  0.20071745745E+02  0.53899811886E+03 -0.11149918652E+04  0.12385994941E+04  0.50400001928E-02 0. -1.
</event>
<event>
 5   0  0.1677971E-05  0.2591059E+04  0.7818609E-02  0.8371245E-01
        2   -1    0    0  501    0  0.00000000000E+00  0.00000000000E+00  0.14942375026E+04  0.14942375026E+04  0.25500000920E-02 0.  1.
       -2   -1    0    0    0  501  0.00000000000E+00  0.00000000000E+00 -0.11232463397E+04  0.11232463397E+04  0.25500000920E-02 0. -1.
    10030    2    1    2    0    0  0.00000000000E+00  0.00000000000E+00  0.37099116288E+03  0.26174838423E+04  0.25910590927E+04 0.  0.
        4    1    3    3  502    0  0.10034087267E+04  0.79679525964E+03 -0.79869154955E+01  0.12813185249E+04  0.12699999809E+01 0. -1.
       -4    1    3    3    0  502 -0.10034087267E+04 -0.79679525964E+03  0.37897807837E+03  0.13361653174E+04  0.12699999809E+01 0.  1.
</event>
<event>
 5   0  0.1720129E-05  0.2630320E+04  0.7818609E-02  0.8357975E-01
        2   -1    0    0  501    0  0.00000000000E+00  0.00000000000E+00  0.30823370872E+04  0.30823370872E+04  0.25500000920E-02 0. -1.
       -2   -1    0    0    0  501  0.00000000000E+00  0.00000000000E+00 -0.56114755228E+03  0.56114755229E+03  0.25500000920E-02 0.  1.
    10030    2    1    2    0    0  0.00000000000E+00  0.00000000000E+00  0.25211895349E+04  0.36434846395E+04  0.26303200656E+04 0.  0.
        3    1    3    3  502    0  0.10217062127E+04  0.65718906597E+03  0.56266836212E+03  0.13387967543E+04  0.10100000352E+00 0.  1.
       -3    1    3    3    0  502 -0.10217062127E+04 -0.65718906597E+03  0.19585211728E+04  0.23046878852E+04  0.10100000352E+00 0. -1.
</event>
<event>
 5   0  0.7138294E-06  0.2584541E+04  0.7818609E-02  0.8373471E-01
        1   -1    0    0  501    0  0.00000000000E+00  0.00000000000E+00  0.16967307703E+04  0.16967307703E+04  0.50400001928E-02 0.  1.
       -1   -1    0    0    0  501  0.00000000000E+00  0.00000000000E+00 -0.98422410309E+03  0.98422410310E+03  0.50400001928E-02 0. -1.
    10030    2    1    2    0    0  0.00000000000E+00  0.00000000000E+00  0.71250666721E+03  0.26809548734E+04  0.25845412131E+04 0.  0.
        2    1    3    3  502    0  0.56860225774E+03  0.28525109545E+02  0.15596337437E+04  0.16602950412E+04  0.25500000920E-02 0.  1.
       -2    1    3    3    0  502 -0.56860225774E+03 -0.28525109545E+02 -0.84712707647E+03  0.10206598322E+04  0.25500000920E-02 0. -1.
</event>
<event>
 5   0  0.6993678E-06  0.2565976E+04  0.7818609E-02  0.8379851E-01
        1   -1    0    0  501    0  0.00000000000E+00  0.00000000000E+00  0.10874616051E+04  0.10874616051E+04  0.50400001928E-02 0. -1.
       -1   -1    0    0    0  501  0.00000000000E+00  0.00000000000E+00 -0.15136701546E+04  0.15136701546E+04  0.50400001928E-02 0.  1.
    10030    2    1    2    0    0  0.00000000000E+00  0.00000000000E+00 -0.42620854954E+03  0.26011317598E+04  0.25659759749E+04 0.  0.
        1    1    3    3  502    0 -0.32494106749E+03  0.12240977515E+04 -0.52185618205E+01  0.12665027580E+04  0.50400001928E-02 0.  1.
       -1    1    3    3    0  502  0.32494106749E+03 -0.12240977515E+04 -0.42098998772E+03  0.13346290018E+04  0.50400001928E-02 0. -1.
</event>
<event>
 5   0  0.1702345E-05  0.2571465E+04  0.7818609E-02  0.8377959E-01
       -2   -1    0    0    0  501  0.00000000000E+00  0.00000000000E+00  0.94675962011E+03  0.94675962011E+03  0.25500000920E-02 0. -1.
        2   -1    0    0  501    0  0.00000000000E+00  0.00000000000E+00 -0.17460689165E+04  0.17460689165E+04  0.25500000920E-02 0.  1.
    10030    2    1    2    0    0  0.00000000000E+00  0.00000000000E+00 -0.79930929640E+03  0.26928285366E+04  0.25714645975E+04 0.  0.
        1    1    3    3  502    0  0.84395235650E+03 -0.89880455461E+03 -0.78156179610E+03  0.14597753418E+04  0.50400001928E-02 0.  1.
       -1    1    3    3    0  502 -0.84395235650E+03  0.89880455461E+03 -0.17747500302E+02  0.12330531948E+04  0.50400001928E-02 0. -1.
</event>
<event>
 5   0  0.6706225E-06  0.2617709E+04  0.7818609E-02  0.8362211E-01
        1   -1    0    0  501    0  0.00000000000E+00  0.00000000000E+00  0.17539786323E+04  0.17539786323E+04  0.50400001928E-02 0. -1.
       -1   -1    0    0    0  501  0.00000000000E+00  0.00000000000E+00 -0.97669391712E+03  0.97669391714E+03  0.50400001928E-02 0.  1.
    10030    2    1    2    0    0  0.00000000000E+00  0.00000000000E+00  0.77728471513E+03  0.27306725494E+04  0.26177091213E+04 0.  0.
        5    1    3    3  502    0  0.12608546230E+04  0.27919767147E+03  0.61084251275E+03  0.14285854491E+04  0.46999998093E+01 0.  1.
       -5    1    3    3    0  502 -0.12608546230E+04 -0.27919767147E+03  0.16644220238E+03  0.13020871003E+04  0.46999998093E+01 0. -1.
</event>
<event>
 5   0  0.6993678E-06  0.2742832E+04  0.7818609E-02  0.8321240E-01
       -1   -1    0    0    0  501  0.00000000000E+00  0.00000000000E+00  0.10582759704E+04  0.10582759704E+04  0.50400001928E-02 0.  1.
        1   -1    0    0  501    0  0.00000000000E+00  0.00000000000E+00 -0.17772125276E+04  0.17772125276E+04  0.50400001928E-02 0. -1.
    10030    2    1    2    0    0  0.00000000000E+00  0.00000000000E+00 -0.71893655719E+03  0.28354884980E+04  0.27428316115E+04 0.  0.
        1    1    3    3  502    0 -0.29729985503E+03  0.87461918779E+03 -0.14073348916E+04  0.16834302554E+04  0.50400001928E-02 0. -1.
       -1    1    3    3    0  502  0.29729985503E+03 -0.87461918779E+03  0.68839833446E+03  0.11520582426E+04  0.50400001928E-02 0.  1.
</event>
<event>
 5   0  0.1720129E-05  0.2637069E+04  0.7818609E-02  0.8355718E-01
       -2   -1    0    0    0  501  0.00000000000E+00  0.00000000000E+00  0.84632832941E+03  0.84632832941E+03  0.25500000920E-02 0.  1.
        2   -1    0    0  501    0  0.00000000000E+00  0.00000000000E+00 -0.20542065154E+04  0.20542065154E+04  0.25500000920E-02 0. -1.
    10030    2    1    2    0    0  0.00000000000E+00  0.00000000000E+00 -0.12078781860E+04  0.29005348448E+04  0.26370689551E+04 0.  0.
        3    1    3    3  502    0  0.91441306411E+03 -0.23867199417E+03 -0.16152675782E+04  0.18714178935E+04  0.10100000352E+00 0. -1.
       -3    1    3    3    0  502 -0.91441306411E+03  0.23867199417E+03  0.40738939216E+03  0.10291169514E+04  0.10100000352E+00 0.  1.
</event>
<event>
 5   0  0.6993678E-06  0.2588177E+04  0.7818609E-02  0.8372228E-01
       -1   -1    0    0    0  501  0.00000000000E+00  0.00000000000E+00  0.16995656726E+04  0.16995656726E+04  0.50400001928E-02 0. -1.
        1   -1    0    0  501    0  0.00000000000E+00  0.00000000000E+00 -0.98534847567E+03  0.98534847568E+03  0.50400001928E-02 0.  1.
    10030    2    1    2    0    0  0.00000000000E+00  0.00000000000E+00  0.71421719696E+03  0.26849141483E+04  0.25881765356E+04 0.  0.
        1    1    3    3  502    0  0.11873555559E+04  0.23898006978E+02 -0.17618792264E+03  0.12005942341E+04  0.50400001928E-02 0.  1.
       -1    1    3    3    0  502 -0.11873555559E+04 -0.23898006978E+02  0.89040511961E+03  0.14843199142E+04  0.50400001928E-02 0. -1.
</event>
<event>
 5   0  0.6993678E-06  0.2658262E+04  0.7818609E-02  0.8348676E-01
       -1   -1    0    0    0  501  0.00000000000E+00  0.00000000000E+00  0.95017505377E+03  0.95017505378E+03  0.50400001928E-02 0. -1.
        1   -1    0    0  501    0  0.00000000000E+00  0.00000000000E+00 -0.18592252069E+04  0.18592252069E+04  0.50400001928E-02 0.  1.
    10030    2    1    2    0    0  0.00000000000E+00  0.00000000000E+00 -0.90905015314E+03  0.28094002607E+04  0.26582621473E+04 0.  0.
        1    1    3    3  502    0  0.66237482713E+02 -0.10380882744E+04  0.41990733501E+03  0.11217561409E+04  0.50400001928E-02 0. -1.
       -1    1    3    3    0  502 -0.66237482713E+02  0.10380882744E+04 -0.13289574881E+04  0.16876441198E+04  0.50400001928E-02 0.  1.
</event>
<event>
 5   0  0.7138294E-06  0.2631899E+04  0.7818609E-02  0.8357446E-01
        1   -1    0    0  501    0  0.00000000000E+00  0.00000000000E+00  0.14866661514E+04  0.14866661514E+04  0.50400001928E-02 0.  1.
       -1   -1    0    0    0  501  0.00000000000E+00  0.00000000000E+00 -0.11648362565E+04  0.11648362565E+04  0.50400001928E-02 0. -1.
    10030    2    1    2    0    0  0.00000000000E+00  0.00000000000E+00  0.32182989489E+03  0.26515024080E+04  0.26318986565E+04 0.  0.
        2    1    3    3  502    0  0.13071624248E+04 -0.15178425218E+03  0.15763950475E+03  0.13253536424E+04  0.25500000920E-02 0.  1.
       -2    1    3    3    0  502 -0.13071624248E+04  0.15178425218E+03  0.16419039013E+03  0.13261487655E+04  0.25500000920E-02 0. -1.
</event>
<event>
 5   0  0.1702345E-05  0.2533759E+04  0.7818609E-02  0.8391056E-01
        2   -1    0    0  501    0  0.00000000000E+00  0.00000000000E+00  0.16089680251E+04  0.16089680251E+04  0.25500000920E-02 0.  1.
       -2   -1    0    0    0  501  0.00000000000E+00  0.00000000000E+00 -0.99752365661E+03  0.99752365661E+03  0.25500000920E-02 0. -1.
    10030    2    1    2    0    0  0.00000000000E+00  0.00000000000E+00  0.61144436850E+03  0.26064916817E+04  0.25337590002E+04 0.  0.
        1    1    3    3  502    0 -0.36158789907E+03  0.11166144632E+03 -0.93802038442E+03  0.10114822435E+04  0.50400001928E-02 0. -1.
       -1    1    3    3    0  502  0.36158789907E+03 -0.11166144632E+03  0.15494647529E+04  0.15950094382E+04  0.50400001928E-02 0.  1.
</event>
<event>
 5   0  0.5840500E-06  0.2572326E+04  0.7818609E-02  0.8377663E-01
        3   -1    0    0  501    0  0.00000000000E+00  0.00000000000E+00  0.56924556743E+03  0.56924557639E+03  0.10100000352E+00 0. -1.
       -3   -1    0    0    0  501  0.00000000000E+00  0.00000000000E+00 -0.29059785349E+04  0.29059785366E+04  0.10100000352E+00 0.  1.
    10030    2    1    2    0    0  0.00000000000E+00  0.00000000000E+00 -0.23367329675E+04  0.34752241130E+04  0.25723261213E+04 0.  0.
        1    1    3    3  502    0 -0.36158475804E+03  0.12173224888E+04 -0.89282171045E+03  0.15523363636E+04  0.50400001928E-02 0.  1.
       -1    1    3    3    0  502  0.36158475804E+03 -0.12173224888E+04 -0.14439112570E+04  0.19228877495E+04  0.50400001928E-02 0. -1.
</event>
<event>
 5   0  0.1720129E-05  0.2586525E+04  0.7818609E-02  0.8372793E-01
       -2   -1    0    0    0  501  0.00000000000E+00  0.00000000000E+00  0.77102807618E+03  0.77102807619E+03  0.25500000920E-02 0.  1.
        2   -1    0    0  501    0  0.00000000000E+00  0.00000000000E+00 -0.21692170924E+04  0.21692170924E+04  0.25500000920E-02 0. -1.
    10030    2    1    2    0    0  0.00000000000E+00  0.00000000000E+00 -0.13981890162E+04  0.29402451686E+04  0.25865245265E+04 0.  0.
        3    1    3    3  502    0  0.64977201254E+03  0.14239050069E+03 -0.19598418770E+04  0.20696518828E+04  0.10100000352E+00 0. -1.
       -3    1    3    3    0  502 -0.64977201254E+03 -0.14239050069E+03  0.56165286080E+03  0.87059328576E+03  0.10100000352E+00 0.  1.
</event>
<event>
 5   0  0.1681731E-05  0.2620541E+04  0.7818609E-02  0.8361257E-01
        2   -1    0    0  501    0  0.00000000000E+00  0.00000000000E+00  0.12834418140E+04  0.12834418140E+04  0.25500000920E-02 0. -1.
       -2   -1    0    0    0  501  0.00000000000E+00  0.00000000000E+00 -0.13376597736E+04  0.13376597736E+04  0.25500000920E-02 0.  1.
    10030    2    1    2    0    0  0.00000000000E+00  0.00000000000E+00 -0.54217959663E+02  0.26211015876E+04  0.26205407734E+04 0.  0.
        2    1    3    3  502    0  0.74504103173E+03 -0.91102912783E+03 -0.60320817590E+03  0.13224675097E+04  0.25500000920E-02 0.  1.
       -2    1    3    3    0  502 -0.74504103173E+03  0.91102912783E+03  0.54899021623E+03  0.12986340779E+04  0.25500000920E-02 0. -1.
</event>
<event>
 5   0  0.1677971E-05  0.2558841E+04  0.7818609E-02  0.8382318E-01
       -2   -1    0    0    0  501  0.00000000000E+00  0.00000000000E+00  0.13590417847E+04  0.13590417847E+04  0.25500000920E-02 0. -1.
        2   -1    0    0  501    0  0.00000000000E+00  0.00000000000E+00 -0.12044639532E+04  0.12044639532E+04  0.25500000920E-02 0.  1.
    10030    2    1    2    0    0  0.00000000000E+00  0.00000000000E+00  0.15457783153E+03  0.25635057378E+04  0.25588410193E+04 0.  0.
        4    1    3    3  502    0  0.41734741945E+03  0.37447701132E+03 -0.10748089616E+04  0.12122820700E+04  0.12699999809E+01 0.  1.
       -4    1    3    3    0  502 -0.41734741945E+03 -0.37447701132E+03  0.12293867931E+04  0.13512236678E+04  0.12699999809E+01 0. -1.
</event>
<event>
 5   0  0.1720129E-05  0.2605849E+04  0.7818609E-02  0.8366217E-01
        2   -1    0    0  501    0  0.00000000000E+00  0.00000000000E+00  0.14215165173E+04  0.14215165173E+04  0.25500000920E-02 0.  1.
       -2   -1    0    0    0  501  0.00000000000E+00  0.00000000000E+00 -0.11942258428E+04  0.11942258428E+04  0.25500000920E-02 0. -1.
    10030    2    1    2    0    0  0.00000000000E+00  0.00000000000E+00  0.22729067451E+03  0.26157423601E+04  0.26058486226E+04 0.  0.
        3    1    3    3  502    0  0.11747213511E+03 -0.64628123688E+02 -0.11872826980E+04  0.11948291561E+04  0.10100000352E+00 0. -1.
       -3    1    3    3    0  502 -0.11747213511E+03  0.64628123688E+02  0.14145733726E+04  0.14209132040E+04  0.10100000352E+00 0.  1.
</event>
<event>
 5   0  0.6993678E-06  0.2600637E+04  0.7818609E-02  0.8367985E-01
        1   -1    0    0  501    0  0.00000000000E+00  0.00000000000E+00  0.12632458831E+04  0.12632458831E+04  0.50400001928E-02 0.  1.
       -1   -1    0    0    0  501  0.00000000000E+00  0.00000000000E+00 -0.13384787822E+04  0.13384787822E+04  0.50400001928E-02 0. -1.
    10030    2    1    2    0    0  0.00000000000E+00  0.00000000000E+00 -0.75232899086E+02  0.26017246653E+04  0.26006366999E+04 0.  0.
        1    1    3    3  502    0 -0.11195727668E+04  0.79935053664E+02 -0.69439320269E+03  0.13198540499E+04  0.50400001928E-02 0. -1.
       -1    1    3    3    0  502  0.11195727668E+04 -0.79935053664E+02  0.61916030361E+03  0.12818706154E+04  0.50400001928E-02 0.  1.
</event>
<event>
 5   0  0.5840500E-06  0.2592944E+04  0.7818609E-02  0.8370602E-01
        3   -1    0    0  501    0  0.00000000000E+00  0.00000000000E+00  0.12704885293E+04  0.12704885333E+04  0.10100000352E+00 0.  1.
       -3   -1    0    0    0  501  0.00000000000E+00  0.00000000000E+00 -0.13229863872E+04  0.13229863911E+04  0.10100000352E+00 0. -1.
    10030    2    1    2    0    0  0.00000000000E+00  0.00000000000E+00 -0.52497857952E+02  0.25934749244E+04  0.25929435317E+04 0.  0.
        4    1    3    3  502    0 -0.66500144975E+03  0.51079537623E+03  0.96274012984E+03  0.12767180640E+04  0.12699999809E+01 0.  1.
       -4    1    3    3    0  502  0.66500144975E+03 -0.51079537623E+03 -0.10152379878E+04  0.13167568604E+04  0.12699999809E+01 0. -1.
</event>
<event>
 5   0  0.1677971E-05  0.2511201E+04  0.7818609E-02  0.8399006E-01
        2   -1    0    0  501    0  0.00000000000E+00  0.00000000000E+00  0.21628993797E+04  0.21628993797E+04  0.25500000920E-02 0.  1.
       -2   -1    0    0    0  501  0.00000000000E+00  0.00000000000E+00 -0.72889758083E+03  0.72889758083E+03  0.25500000920E-02 0. -1.
    10030    2    1    2    0    0  0.00000000000E+00  0.00000000000E+00  0.14340017989E+04  0.28917969605E+04  0.25112006096E+04 0.  0.
        4    1    3    3  502    0  0.92051021874E+03  0.42683793599E+02  0.16991195195E+04  0.19329174125E+04  0.12699999809E+01 0.  1.
       -4    1    3    3    0  502 -0.92051021874E+03 -0.42683793599E+02 -0.26511772060E+03  0.95887954808E+03  0.12699999809E+01 0. -1.
</event>
<event>
 5   0  0.1681731E-05  0.2605341E+04  0.7818609E-02  0.8366389E-01
        2   -1    0    0  501    0  0.00000000000E+00  0.00000000000E+00  0.49903715801E+03  0.49903715802E+03  0.25500000920E-02 0. -1.
       -2   -1    0    0    0  501  0.00000000000E+00  0.00000000000E+00 -0.34004480740E+04  0.34004480740E+04  0.25500000920E-02 0.  1.
    10030    2    1    2    0    0  0.00000000000E+00  0.00000000000E+00 -0.29014109160E+04  0.38994852321E+04  0.26053406248E+04 0.  0.
        2    1    3    3  502    0  0.12941653868E+04  0.14858408342E+03 -0.14462997535E+04  0.19464645528E+04  0.25500000920E-02 0. -1.
       -2    1    3    3    0  502 -0.12941653868E+04 -0.14858408342E+03 -0.14551111625E+04  0.19530206792E+04  0.25500000920E-02 0.  1.
</event>
<event>
 5   0  0.7138294E-06  0.2288292E+04  0.7818609E-02  0.8482552E-01
        1   -1    0    0  501    0  0.00000000000E+00  0.00000000000E+00  0.16593311822E+04  0.16593311822E+04  0.50400001928E-02 0.  1.
       -1   -1    0    0    0  501  0.00000000000E+00  0.00000000000E+00 -0.78891441301E+03  0.78891441302E+03  0.50400001928E-02 0. -1.
    10030    2    1    2    0    0  0.00000000000E+00  0.00000000000E+00  0.87041676921E+03  0.24482455952E+04  0.22882921891E+04 0.  0.
        2    1    3    3  502    0  0.68488989838E+03  0.76376046387E+03 -0.10682711548E+03  0.10314146846E+04  0.25500000920E-02 0.  1.
       -2    1    3    3    0  502 -0.68488989838E+03 -0.76376046387E+03  0.97724388469E+03  0.14168309106E+04  0.25500000920E-02 0. -1.
</event>
<event>
 5   0  0.7138294E-06  0.2677284E+04  0.7818609E-02  0.8342413E-01
       -1   -1    0    0    0  501  0.00000000000E+00  0.00000000000E+00  0.28552350695E+04  0.28552350695E+04  0.50400001928E-02 0. -1.
        1   -1    0    0  501    0  0.00000000000E+00  0.00000000000E+00 -0.62760603503E+03  0.62760603505E+03  0.50400001928E-02 0.  1.
    10030    2    1    2    0    0  0.00000000000E+00  0.00000000000E+00  0.22276290344E+04  0.34828411045E+04  0.26772842666E+04 0.  0.
        2    1    3    3  502    0 -0.65205840258E+03  0.62818560086E+03  0.23964677709E+04  0.25618069963E+04  0.25500000920E-02 0. -1.
       -2    1    3    3    0  502  0.65205840258E+03 -0.62818560086E+03 -0.16883873645E+03  0.92103410819E+03  0.25500000920E-02 0.  1.
</event>
<event>
 5   0  0.1702345E-05  0.2596869E+04  0.7818609E-02  0.8369265E-01
        2   -1    0    0  501    0  0.00000000000E+00  0.00000000000E+00  0.10179200534E+04  0.10179200534E+04  0.25500000920E-02 0.  1.
       -2   -1    0    0    0  501  0.00000000000E+00  0.00000000000E+00 -0.16562521900E+04  0.16562521900E+04  0.25500000920E-02 0. -1.
    10030    2    1    2    0    0  0.00000000000E+00  0.00000000000E+00 -0.63833213665E+03  0.26741722434E+04  0.25968691285E+04 0.  0.
        1    1    3    3  502    0  0.24514467189E+02 -0.10304969689E+04 -0.11322310832E+04  0.15311669366E+04  0.50400001928E-02 0. -1.
       -1    1    3    3    0  502 -0.24514467189E+02  0.10304969689E+04  0.49389894652E+03  0.11430053068E+04  0.50400001928E-02 0.  1.
</event>
<event>
 5   0  0.6993678E-06  0.2597541E+04  0.7818609E-02  0.8369037E-01
       -1   -1    0    0    0  501  0.00000000000E+00  0.00000000000E+00  0.10569231413E+04  0.10569231413E+04  0.50400001928E-02 0. -1.
        1   -1    0    0  501    0  0.00000000000E+00  0.00000000000E+00 -0.15959573280E+04  0.15959573280E+04  0.50400001928E-02 0.  1.
    10030    2    1    2    0    0  0.00000000000E+00  0.00000000000E+00 -0.53903418671E+03  0.26528804693E+04  0.25975405541E+04 0.  0.
        1    1    3    3  502    0  0.16384013558E+03  0.12436673033E+04  0.74182347138E+02  0.12566045408E+04  0.50400001928E-02 0. -1.
       -1    1    3    3    0  502 -0.16384013558E+03 -0.12436673033E+04 -0.61321653384E+03  0.13962759285E+04  0.50400001928E-02 0.  1.
</event>
<event>
 5   0  0.6706225E-06  0.2656419E+04  0.7818609E-02  0.8349286E-01
       -1   -1    0    0    0  501  0.00000000000E+00  0.00000000000E+00  0.11114350533E+04  0.11114350534E+04  0.50400001928E-02 0.  1.
        1   -1    0    0  501    0  0.00000000000E+00  0.00000000000E+00 -0.15872636263E+04  0.15872636263E+04  0.50400001928E-02 0. -1.
    10030    2    1    2    0    0  0.00000000000E+00  0.00000000000E+00 -0.47582857300E+03  0.26986986797E+04  0.26564189679E+04 0.  0.
        5    1    3    3  502    0 -0.10228757073E+04  0.60960638930E+03  0.35985859433E+03  0.12439513497E+04  0.46999998093E+01 0.  1.
       -5    1    3    3    0  502  0.10228757073E+04 -0.60960638930E+03 -0.83568716732E+03  0.14547473300E+04  0.46999998093E+01 0. -1.
</event>
<event>
 5   0  0.6993678E-06  0.2636755E+04  0.7818609E-02  0.8355822E-01
        1   -1    0    0  501    0  0.00000000000E+00  0.00000000000E+00  0.14712875913E+04  0.14712875913E+04  0.50400001928E-02 0. -1.
       -1   -1    0    0    0  501  0.00000000000E+00  0.00000000000E+00 -0.11813594928E+04  0.11813594929E+04  0.50400001928E-02 0.  1.
    10030    2    1    2    0    0  0.00000000000E+00  0.00000000000E+00  0.28992809849E+03  0.26526470842E+04  0.26367552505E+04 0.  0.
        1    1    3    3  502    0  0.72625744779E+03  0.69073972149E+03 -0.71667231156E+03  0.12321487108E+04  0.50400001928E-02 0.  1.
       -1    1    3    3    0  502 -0.72625744779E+03 -0.69073972149E+03  0.10066004100E+04  0.14204983734E+04  0.50400001928E-02 0. -1.
</event>
<event>
 5   0  0.6984287E-06  0.2506149E+04  0.7818609E-02  0.8400798E-01
        1   -1    0    0  501    0  0.00000000000E+00  0.00000000000E+00  0.14404320384E+04  0.14404320384E+04  0.50400001928E-02 0.  1.
       -1   -1    0    0    0  501  0.00000000000E+00  0.00000000000E+00 -0.10900863822E+04  0.10900863822E+04  0.50400001928E-02 0. -1.
    10030    2    1    2    0    0  0.00000000000E+00  0.00000000000E+00  0.35034565621E+03  0.25305184207E+04  0.25061487184E+04 0.  0.
        3    1    3    3  502    0 -0.28323413903E+03  0.25107084680E+03  0.13813333029E+04  0.14322499264E+04  0.10100000352E+00 0.  1.
       -3    1    3    3    0  502  0.28323413903E+03 -0.25107084680E+03 -0.10309876467E+04  0.10982684943E+04  0.10100000352E+00 0. -1.
</event>
<event>
 5   0  0.1702345E-05  0.2628231E+04  0.7818609E-02  0.8358674E-01
       -2   -1    0    0    0  501  0.00000000000E+00  0.00000000000E+00  0.74785630102E+03  0.74785630102E+03  0.25500000920E-02 0. -1.
        2   -1    0    0  501    0  0.00000000000E+00  0.00000000000E+00 -0.23091336770E+04  0.23091336770E+04  0.25500000920E-02 0.  1.
    10030    2    1    2    0    0  0.00000000000E+00  0.00000000000E+00 -0.15612773760E+04  0.30569899780E+04  0.26282314740E+04 0.  0.
        1    1    3    3  502    0  0.20999369283E+03  0.79048359609E+02 -0.22866880241E+04  0.22976701491E+04  0.50400001928E-02 0.  1.
       -1    1    3    3    0  502 -0.20999369283E+03 -0.79048359609E+02  0.72541064814E+03  0.75931982896E+03  0.50400001928E-02 0. -1.
</event>
<event>
 5   0  0.1702345E-05  0.2561150E+04  0.7818609E-02  0.8381519E-01
       -2   -1    0    0    0  501  0.00000000000E+00  0.00000000000E+00  0.54833211531E+03  0.54833211532E+03  0.25500000920E-02 0.  1.
        2   -1    0    0  501    0  0.00000000000E+00  0.00000000000E+00 -0.29906560024E+04  0.29906560024E+04  0.25500000920E-02 0. -1.
    10030    2    1    2    0    0  0.00000000000E+00  0.00000000000E+00 -0.24423238871E+04  0.35389881177E+04  0.25611503134E+04 0.  0.
        1    1    3    3  502    0  0.97999748149E+03  0.47164184594E+03 -0.28701075892E+03  0.11248183277E+04  0.50400001928E-02 0.  1.
       -1    1    3    3    0  502 -0.97999748149E+03 -0.47164184594E+03 -0.21553131281E+04  0.24141697900E+04  0.50400001928E-02 0. -1.
</event>
<event>
 5   0  0.5840500E-06  0.2245247E+04  0.7818609E-02  0.8499828E-01
        3   -1    0    0  501    0  0.00000000000E+00  0.00000000000E+00  0.86313685239E+03  0.86313685830E+03  0.10100000352E+00 0.  1.
       -3   -1    0    0    0  501  0.00000000000E+00  0.00000000000E+00 -0.14601198149E+04  0.14601198184E+04  0.10100000352E+00 0. -1.
    10030    2    1    2    0    0  0.00000000000E+00  0.00000000000E+00 -0.59698296250E+03  0.23232566767E+04  0.22452467411E+04 0.  0.
        3    1    3    3  502    0  0.15094444928E+03 -0.10798338400E+04 -0.57509529391E+03  0.12327043263E+04  0.10100000352E+00 0. -1.
       -3    1    3    3    0  502 -0.15094444928E+03  0.10798338400E+04 -0.21887668597E+02  0.10905523504E+04  0.10100000352E+00 0.  1.
</event>
<event>
 5   0  0.1677971E-05  0.2623649E+04  0.7818609E-02  0.8360212E-01
       -2   -1    0    0    0  501  0.00000000000E+00  0.00000000000E+00  0.18853064973E+04  0.18853064974E+04  0.25500000920E-02 0. -1.
        2   -1    0    0  501    0  0.00000000000E+00  0.00000000000E+00 -0.91278695304E+03  0.91278695305E+03  0.25500000920E-02 0.  1.
    10030    2    1    2    0    0  0.00000000000E+00  0.00000000000E+00  0.97251954431E+03  0.27980934504E+04  0.26236487366E+04 0.  0.
        4    1    3    3  502    0 -0.77446237957E+03  0.10247841444E+04  0.77024856676E+03  0.14977513103E+04  0.12699999809E+01 0. -1.
       -4    1    3    3    0  502  0.77446237957E+03 -0.10247841444E+04  0.20227097754E+03  0.13003421401E+04  0.12699999809E+01 0.  1.
</event>
<event>
 5   0  0.7138294E-06  0.2617082E+04  0.7818609E-02  0.8362422E-01
        1   -1    0    0  501    0  0.00000000000E+00  0.00000000000E+00  0.17495204146E+04  0.17495204146E+04  0.50400001928E-02 0. -1.
       -1   -1    0    0    0  501  0.00000000000E+00  0.00000000000E+00 -0.97871400459E+03  0.97871400460E+03  0.50400001928E-02 0.  1.
    10030    2    1    2    0    0  0.00000000000E+00  0.00000000000E+00  0.77080641002E+03  0.27282344192E+04  0.26170824451E+04 0.  0.
        2    1    3    3  502    0  0.49227154226E+03  0.60410807640E+03 -0.71043356490E+03  0.10545111139E+04  0.25500000920E-02 0.  1.
       -2    1    3    3    0  502 -0.49227154226E+03 -0.60410807640E+03  0.14812399749E+04  0.16737233053E+04  0.25500000920E-02 0. -1.
</event>
<event>
 5   0  0.1869956E-05  0.2578099E+04  0.7818609E-02  0.8375679E-01
       -2   -1    0    0    0  501  0.00000000000E+00  0.00000000000E+00  0.15708358558E+04  0.15708358558E+04  0.25500000920E-02 0.  1.
        2   -1    0    0  501    0  0.00000000000E+00  0.00000000000E+00 -0.10578119555E+04  0.10578119555E+04  0.25500000920E-02 0. -1.
    10030    2    1    2    0    0  0.00000000000E+00  0.00000000000E+00  0.51302390022E+03  0.26286478113E+04  0.25780992599E+04 0.  0.
        5    1    3    3  502    0 -0.31056599825E+03 -0.47818098545E+03  0.14352580435E+04  0.15443756135E+04  0.46999998093E+01 0.  1.
       -5    1    3    3    0  502  0.31056599825E+03  0.47818098545E+03 -0.92223414324E+03  0.10842721979E+04  0.46999998093E+01 0. -1.
</event>
<event>
 5   0  0.1869956E-05  0.2604882E+04  0.7818609E-02  0.8366545E-01
       -2   -1    0    0    0  501  0.00000000000E+00  0.00000000000E+00  0.59735912360E+03  0.59735912360E+03  0.25500000920E-02 0.  1.
        2   -1    0    0  501    0  0.00000000000E+00  0.00000000000E+00 -0.28397526209E+04  0.28397526209E+04  0.25500000920E-02 0. -1.
    10030    2    1    2    0    0  0.00000000000E+00  0.00000000000E+00 -0.22423934973E+04  0.34371117445E+04  0.26048816763E+04 0.  0.
        5    1    3    3  502    0 -0.60295185896E+03 -0.91800405013E+03 -0.20448837113E+04  0.23211751039E+04  0.46999998093E+01 0. -1.
       -5    1    3    3    0  502  0.60295185896E+03  0.91800405013E+03 -0.19750978602E+03  0.11159366406E+04  0.46999998093E+01 0.  1.
</event>
<event>
 5   0  0.1720129E-05  0.2642178E+04  0.7818609E-02  0.8354014E-01
        2   -1    0    0  501    0  0.00000000000E+00  0.00000000000E+00  0.16366564471E+04  0.16366564471E+04  0.25500000920E-02 0. -1.
       -2   -1    0    0    0  501  0.00000000000E+00  0.00000000000E+00 -0.10663669663E+04  0.10663669663E+04  0.25500000920E-02 0.  1.
    10030    2    1    2    0    0  0.00000000000E+00  0.00000000000E+00  0.57028948082E+03  0.27030234134E+04  0.26421781699E+04 0.  0.
        3    1    3    3  502    0 -0.16268670616E+03 -0.13096116321E+04  0.22269165029E+03  0.13383352243E+04  0.10100000352E+00 0.  1.
       -3    1    3    3    0  502  0.16268670616E+03  0.13096116321E+04  0.34759783053E+03  0.13646881891E+04  0.10100000352E+00 0. -1.
</event>
<event>
 5   0  0.1869956E-05  0.2590853E+04  0.7818609E-02  0.8371315E-01
        2   -1    0    0  501    0  0.00000000000E+00  0.00000000000E+00  0.21198509442E+04  0.21198509443E+04  0.25500000920E-02 0.  1.
       -2   -1    0    0    0  501  0.00000000000E+00  0.00000000000E+00 -0.79162650473E+03  0.79162650473E+03  0.25500000920E-02 0. -1.
    10030    2    1    2    0    0  0.00000000000E+00  0.00000000000E+00  0.13282244395E+04  0.29114774490E+04  0.25908532907E+04 0.  0.
        5    1    3    3  502    0  0.39878939888E+03  0.12064006395E+04  0.38055092172E+03  0.13263772396E+04  0.46999998093E+01 0.  1.
       -5    1    3    3    0  502 -0.39878939888E+03 -0.12064006395E+04  0.94767351780E+03  0.15851002094E+04  0.46999998093E+01 0. -1.
</event>
<event>
 5   0  0.1681731E-05  0.2529863E+04  0.7818609E-02  0.8392423E-01
       -2   -1    0    0    0  501  0.00000000000E+00  0.00000000000E+00  0.94983560545E+03  0.94983560545E+03  0.25500000920E-02 0. -1.
        2   -1    0    0  501    0  0.00000000000E+00  0.00000000000E+00 -0.16845569901E+04  0.16845569901E+04  0.25500000920E-02 0.  1.
    10030    2    1    2    0    0  0.00000000000E+00  0.00000000000E+00 -0.73472138465E+03  0.26343925955E+04  0.25298634023E+04 0.  0.
        2    1    3    3  502    0 -0.10807219493E+04  0.45174727289E+03 -0.86460146422E+03  0.14558747275E+04  0.25500000920E-02 0.  1.
       -2    1    3    3    0  502  0.10807219493E+04 -0.45174727289E+03  0.12988007957E+03  0.11785178680E+04  0.25500000920E-02 0. -1.
</event>
<event>
 5   0  0.1869956E-05  0.2609932E+04  0.7818609E-02  0.8364835E-01
        2   -1    0    0  501    0  0.00000000000E+00  0.00000000000E+00  0.15965608777E+04  0.15965608777E+04  0.25500000920E-02 0. -1.
       -2   -1    0    0    0  501  0.00000000000E+00  0.00000000000E+00 -0.10666276266E+04  0.10666276266E+04  0.25500000920E-02 0.  1.
    10030    2    1    2    0    0  0.00000000000E+00  0.00000000000E+00  0.52993325114E+03  0.26631885043E+04  0.26099317537E+04 0.  0.
        5    1    3    3  502    0  0.33066471946E+03  0.77411110877E+03 -0.75254013516E+03  0.11291261712E+04  0.46999998093E+01 0.  1.
       -5    1    3    3    0  502 -0.33066471946E+03 -0.77411110877E+03  0.12824733863E+04  0.15340623332E+04  0.46999998093E+01 0. -1.
</event>
<event>
 5   0  0.1681731E-05  0.2610487E+04  0.7818609E-02  0.8364648E-01
       -2   -1    0    0    0  501  0.00000000000E+00  0.00000000000E+00  0.13795123051E+04  0.13795123051E+04  0.25500000920E-02 0.  1.
        2   -1    0    0  501    0  0.00000000000E+00  0.00000000000E+00 -0.12349730255E+04  0.12349730255E+04  0.25500000920E-02 0. -1.
    10030    2    1    2    0    0  0.00000000000E+00  0.00000000000E+00  0.14453927959E+03  0.26144853305E+04  0.26104869163E+04 0.  0.
        2    1    3    3  502    0 -0.10947531038E+03  0.12618274844E+04  0.38813666337E+03  0.13247050666E+04  0.25500000920E-02 0.  1.
       -2    1    3    3    0  502  0.10947531038E+03 -0.12618274844E+04 -0.24359738378E+03  0.12897802640E+04  0.25500000920E-02 0. -1.
</event>
<event>
 5   0  0.1677971E-05  0.2597274E+04  0.7818609E-02  0.8369128E-01
        2   -1    0    0  501    0  0.00000000000E+00  0.00000000000E+00  0.18803250628E+04  0.18803250628E+04  0.25500000920E-02 0. -1.
       -2   -1    0    0    0  501  0.00000000000E+00  0.00000000000E+00 -0.89689676879E+03  0.89689676880E+03  0.25500000920E-02 0.  1.
    10030    2    1    2    0    0  0.00000000000E+00  0.00000000000E+00  0.98342829402E+03  0.27772218316E+04  0.25972735498E+04 0.  0.
        4    1    3    3  502    0 -0.31834390591E+03  0.96256969515E+03 -0.37603602147E+03  0.10813361932E+04  0.12699999809E+01 0.  1.
       -4    1    3    3    0  502  0.31834390591E+03 -0.96256969515E+03  0.13594643155E+04  0.16958856384E+04  0.12699999809E+01 0. -1.
</event>
<event>
 5   0  0.1702345E-05  0.2622531E+04  0.7818609E-02  0.8360588E-01
        2   -1    0    0  501    0  0.00000000000E+00  0.00000000000E+00  0.21255896835E+04  0.21255896835E+04  0.25500000920E-02 0.  1.
       -2   -1    0    0    0  501  0.00000000000E+00  0.00000000000E+00 -0.80891286626E+03  0.80891286626E+03  0.25500000920E-02 0. -1.
    10030    2    1    2    0    0  0.00000000000E+00  0.00000000000E+00  0.13166768172E+04  0.29345025498E+04  0.26225307193E+04 0.  0.
        1    1    3    3  502    0 -0.36346676012E+02 -0.69353662169E+03  0.19029011276E+04  0.20256719448E+04  0.50400001928E-02 0.  1.
       -1    1    3    3    0  502  0.36346676012E+02  0.69353662169E+03 -0.58622431034E+03  0.90883060498E+03  0.50400001928E-02 0. -1.
</event>
<event>
 5   0  0.6993678E-06  0.2573285E+04  0.7818609E-02  0.8377333E-01
       -1   -1    0    0    0  501  0.00000000000E+00  0.00000000000E+00  0.66396140188E+03  0.66396140189E+03  0.50400001928E-02 0. -1.
        1   -1    0    0  501    0  0.00000000000E+00  0.00000000000E+00 -0.24932911447E+04  0.24932911447E+04  0.50400001928E-02 0.  1.
    10030    2    1    2    0    0  0.00000000000E+00  0.00000000000E+00 -0.18293297428E+04  0.31572525466E+04  0.25732851251E+04 0.  0.
        1    1    3    3  502    0  0.47326244046E+03  0.11156359579E+04 -0.38433929102E+03  0.12713526728E+04  0.50400001928E-02 0. -1.
       -1    1    3    3    0  502 -0.47326244046E+03 -0.11156359579E+04 -0.14449904518E+04  0.18858998737E+04  0.50400001928E-02 0.  1.
</event>
<event>
 5   0  0.6706225E-06  0.2592883E+04  0.7818609E-02  0.8370623E-01
       -1   -1    0    0    0  501  0.00000000000E+00  0.00000000000E+00  0.10276777762E+04  0.10276777763E+04  0.50400001928E-02 0.  1.
        1   -1    0    0  501    0  0.00000000000E+00  0.00000000000E+00 -0.16354943144E+04  0.16354943144E+04  0.50400001928E-02 0. -1.
    10030    2    1    2    0    0  0.00000000000E+00  0.00000000000E+00 -0.60781653812E+03  0.26631720906E+04  0.25928834606E+04 0.  0.
        5    1    3    3  502    0  0.12520858902E+04 -0.11630176152E+03 -0.62788546886E+03  0.14055274555E+04  0.46999998093E+01 0.  1.
       -5    1    3    3    0  502 -0.12520858902E+04  0.11630176152E+03  0.20068930739E+02  0.12576446351E+04  0.46999998093E+01 0. -1.
</event>
<event>
 5   0  0.7138294E-06  0.2965656E+04  0.7818609E-02  0.8253607E-01
        1   -1    0    0  501    0  0.00000000000E+00  0.00000000000E+00  0.18266211666E+04  0.18266211666E+04  0.50400001928E-02 0.  1.
       -1   -1    0    0    0  501  0.00000000000E+00  0.00000000000E+00 -0.12037410500E+04  0.12037410500E+04  0.50400001928E-02 0. -1.
    10030    2    1    2    0    0  0.00000000000E+00  0.00000000000E+00  0.62288011662E+03  0.30303622166E+04  0.29656560023E+04 0.  0.
        2    1    3    3  502    0  0.64851709222E+03 -0.75681097388E+03  0.14333212262E+04  0.17457797703E+04  0.25500000920E-02 0.  1.
       -2    1    3    3    0  502 -0.64851709222E+03  0.75681097388E+03 -0.81044110956E+03  0.12845824462E+04  0.25500000920E-02 0. -1.
</event>
<event>
 5   0  0.6706225E-06  0.2602896E+04  0.7818609E-02  0.8367218E-01
       -1   -1    0    0    0  501  0.00000000000E+00  0.00000000000E+00  0.16741540932E+04  0.16741540932E+04  0.50400001928E-02 0.  1.
        1   -1    0    0  501    0  0.00000000000E+00  0.00000000000E+00 -0.10117150554E+04  0.10117150554E+04  0.50400001928E-02 0. -1.
    10030    2    1    2    0    0  0.00000000000E+00  0.00000000000E+00  0.66243903783E+03  0.26858691486E+04  0.26028960034E+04 0.  0.
        5    1    3    3  502    0  0.38277112052E+03  0.13984293522E+03  0.16066110379E+04  0.16574953678E+04  0.46999998093E+01 0.  1.
       -5    1    3    3    0  502 -0.38277112052E+03 -0.13984293522E+03 -0.94417200006E+03  0.10283737807E+04  0.46999998093E+01 0. -1.
</event>
<event>
 5   0  0.1702345E-05  0.2638427E+04  0.7818609E-02  0.8355264E-01
        2   -1    0    0  501    0  0.00000000000E+00  0.00000000000E+00  0.18471344135E+04  0.18471344135E+04  0.25500000920E-02 0.  1.
       -2   -1    0    0    0  501  0.00000000000E+00  0.00000000000E+00 -0.94217555786E+03  0.94217555787E+03  0.25500000920E-02 0. -1.
    10030    2    1    2    0    0  0.00000000000E+00  0.00000000000E+00  0.90495885561E+03  0.27893099713E+04  0.26384274835E+04 0.  0.
        1    1    3    3  502    0 -0.46622352162E+02  0.20705457552E+03  0.18289669924E+04  0.18412402071E+04  0.50400001928E-02 0.  1.
       -1    1    3    3    0  502  0.46622352162E+02 -0.20705457552E+03 -0.92400813679E+03  0.94806976423E+03  0.50400001928E-02 0. -1.
</event>
<event>
 5   0  0.1677971E-05  0.2545209E+04  0.7818609E-02  0.8387054E-01
       -2   -1    0    0    0  501  0.00000000000E+00  0.00000000000E+00  0.11634536054E+04  0.11634536054E+04  0.25500000920E-02 0. -1.
        2   -1    0    0  501    0  0.00000000000E+00  0.00000000000E+00 -0.13919953464E+04  0.13919953464E+04  0.25500000920E-02 0.  1.
    10030    2    1    2    0    0  0.00000000000E+00  0.00000000000E+00 -0.22854174101E+03  0.25554489518E+04  0.25452088358E+04 0.  0.
        4    1    3    3  502    0 -0.94280043912E+03 -0.55501978340E+03  0.53842208632E+03  0.12193521165E+04  0.12699999809E+01 0. -1.
       -4    1    3    3    0  502  0.94280043912E+03  0.55501978340E+03 -0.76696382733E+03  0.13360968353E+04  0.12699999809E+01 0.  1.
</event>
<event>
 5   0  0.6918420E-06  0.2596720E+04  0.7818609E-02  0.8369316E-01
       -1   -1    0    0    0  501  0.00000000000E+00  0.00000000000E+00  0.89718078174E+03  0.89718078176E+03  0.50400001928E-02 0. -1.
        1   -1    0    0  501    0  0.00000000000E+00  0.00000000000E+00 -0.18789291245E+04  0.18789291245E+04  0.50400001928E-02 0.  1.
    10030    2    1    2    0    0  0.00000000000E+00  0.00000000000E+00 -0.98174834276E+03  0.27761099063E+04  0.25967203167E+04 0.  0.
        4    1    3    3  502    0 -0.10947907334E+04  0.48668538161E+03 -0.10257449996E+04  0.15772076045E+04  0.12699999809E+01 0.  1.
       -4    1    3    3    0  502  0.10947907334E+04 -0.48668538161E+03  0.43996656830E+02  0.11989023018E+04  0.12699999809E+01 0. -1.
</event>
<event>
 5   0  0.7138294E-06  0.2594666E+04  0.7818609E-02  0.8370015E-01
        1   -1    0    0  501    0  0.00000000000E+00  0.00000000000E+00  0.99746737947E+03  0.99746737948E+03  0.50400001928E-02 0. -1.
       -1   -1    0    0    0  501  0.00000000000E+00  0.00000000000E+00 -0.16873459387E+04  0.16873459387E+04  0.50400001928E-02 0.  1.
    10030    2    1    2    0    0  0.00000000000E+00  0.00000000000E+00 -0.68987855924E+03  0.26848133182E+04  0.25946657062E+04 0.  0.
        2    1    3    3  502    0  0.14653850581E+03  0.65110487181E+03  0.80621521272E+03  0.10466107476E+04  0.25500000920E-02 0. -1.
       -2    1    3    3    0  502 -0.14653850581E+03 -0.65110487181E+03 -0.14960937720E+04  0.16382025706E+04  0.25500000920E-02 0.  1.
</event>
<event>
 5   0  0.7138294E-06  0.2620241E+04  0.7818609E-02  0.8361358E-01
        1   -1    0    0  501    0  0.00000000000E+00  0.00000000000E+00  0.13162241669E+04  0.13162241669E+04  0.50400001928E-02 0.  1.
       -1   -1    0    0    0  501  0.00000000000E+00  0.00000000000E+00 -0.13040454639E+04  0.13040454639E+04  0.50400001928E-02 0. -1.
    10030    2    1    2    0    0  0.00000000000E+00  0.00000000000E+00  0.12178703027E+02  0.26202696308E+04  0.26202413281E+04 0.  0.
        2    1    3    3  502    0 -0.81343908338E+03  0.85597306220E+03  0.57358392063E+03  0.13127724630E+04  0.25500000920E-02 0.  1.
       -2    1    3    3    0  502  0.81343908338E+03 -0.85597306220E+03 -0.56140521761E+03  0.13074971679E+04  0.25500000920E-02 0. -1.
</event>
<event>
 5   0  0.1681731E-05  0.2599657E+04  0.7818609E-02  0.8368318E-01
        2   -1    0    0  501    0  0.00000000000E+00  0.00000000000E+00  0.33591427156E+04  0.33591427156E+04  0.25500000920E-02 0.  1.
       -2   -1    0    0    0  501  0.00000000000E+00  0.00000000000E+00 -0.50297169227E+03  0.50297169227E+03  0.25500000920E-02 0. -1.
    10030    2    1    2    0    0  0.00000000000E+00  0.00000000000E+00  0.28561710233E+04  0.38621144078E+04  0.25996566667E+04 0.  0.
        2    1    3    3  502    0  0.42737773955E+03 -0.80969788745E+03  0.57367132618E+02  0.91736219081E+03  0.25500000920E-02 0. -1.
       -2    1    3    3    0  502 -0.42737773955E+03  0.80969788745E+03  0.27988038907E+04  0.29447522170E+04  0.25500000920E-02 0.  1.
</event>
<event>
 5   0  0.6993678E-06  0.2564468E+04  0.7818609E-02  0.8380372E-01
       -1   -1    0    0    0  501  0.00000000000E+00  0.00000000000E+00  0.16052033030E+04  0.16052033030E+04  0.50400001928E-02 0.  1.
        1   -1    0    0  501    0  0.00000000000E+00  0.00000000000E+00 -0.10242464745E+04  0.10242464745E+04  0.50400001928E-02 0. -1.
    10030    2    1    2    0    0  0.00000000000E+00  0.00000000000E+00  0.58095682845E+03  0.26294497775E+04  0.25644678387E+04 0.  0.
        1    1    3    3  502    0 -0.40879523986E+03 -0.85644206351E+03 -0.59364553082E+03  0.11193844615E+04  0.50400001928E-02 0. -1.
       -1    1    3    3    0  502  0.40879523986E+03  0.85644206351E+03  0.11746023593E+04  0.15100653160E+04  0.50400001928E-02 0.  1.
</event>
<event>
 5   0  0.6918420E-06  0.2572698E+04  0.7818609E-02  0.8377535E-01
        1   -1    0    0  501    0  0.00000000000E+00  0.00000000000E+00  0.19295508099E+04  0.19295508099E+04  0.50400001928E-02 0.  1.
       -1   -1    0    0    0  501  0.00000000000E+00  0.00000000000E+00 -0.85755366013E+03  0.85755366015E+03  0.50400001928E-02 0. -1.
    10030    2    1    2    0    0  0.00000000000E+00  0.00000000000E+00  0.10719971497E+04  0.27871044700E+04  0.25726976965E+04 0.  0.
        4    1    3    3  502    0  0.48754766651E+03 -0.87793903090E+03  0.14068659587E+04  0.17285118188E+04  0.12699999809E+01 0.  1.
       -4    1    3    3    0  502 -0.48754766651E+03  0.87793903090E+03 -0.33486880897E+03  0.10585926512E+04  0.12699999809E+01 0. -1.
</event>
<event>
 5   0  0.6984287E-06  0.2623047E+04  0.7818609E-02  0.8360415E-01
       -1   -1    0    0    0  501  0.00000000000E+00  0.00000000000E+00  0.12515029877E+04  0.12515029877E+04  0.50400001928E-02 0. -1.
        1   -1    0    0  501    0  0.00000000000E+00  0.00000000000E+00 -0.13744224169E+04  0.13744224169E+04  0.50400001928E-02 0.  1.
    10030    2    1    2    0    0  0.00000000000E+00  0.00000000000E+00 -0.12291942928E+03  0.26259254046E+04  0.26230469009E+04 0.  0.
        3    1    3    3  502    0  0.95380370023E+02  0.89947010415E+03  0.88929289997E+03  0.12684580227E+04  0.10100000352E+00 0. -1.
       -3    1    3    3    0  502 -0.95380370023E+02 -0.89947010415E+03 -0.10122123292E+04  0.13574673819E+04  0.10100000352E+00 0.  1.
</event>
<event>
 5   0  0.6918420E-06  0.2266815E+04  0.7818609E-02  0.8491122E-01
       -1   -1    0    0    0  501  0.00000000000E+00  0.00000000000E+00  0.11449058902E+04  0.11449058902E+04  0.50400001928E-02 0.  1.
        1   -1    0    0  501    0  0.00000000000E+00  0.00000000000E+00 -0.11220248109E+04  0.11220248109E+04  0.50400001928E-02 0. -1.
    10030    2    1    2    0    0  0.00000000000E+00  0.00000000000E+00  0.22881079260E+02  0.22669307011E+04  0.22668152240E+04 0.  0.
        4    1    3    3  502    0  0.96257860663E+03  0.27842387711E+02  0.60919871126E+03  0.11394987737E+04  0.12699999809E+01 0.  1.
       -4    1    3    3    0  502 -0.96257860663E+03 -0.27842387711E+02 -0.58631763200E+03  0.11274319274E+04  0.12699999809E+01 0. -1.
</event>
<event>
 5   0  0.1677971E-05  0.2602341E+04  0.7818609E-02  0.8367407E-01
        2   -1    0    0  501    0  0.00000000000E+00  0.00000000000E+00  0.22963499062E+04  0.22963499062E+04  0.25500000920E-02 0.  1.
       -2   -1    0    0    0  501  0.00000000000E+00  0.00000000000E+00 -0.73727617189E+03  0.73727617189E+03  0.25500000920E-02 0. -1.
    10030    2    1    2    0    0  0.00000000000E+00  0.00000000000E+00  0.15590737343E+04  0.30336260781E+04  0.26023405374E+04 0.  0.
        4    1    3    3  502    0 -0.37483970142E+03  0.95103272889E+03 -0.15891144173E+03  0.10345155931E+04  0.12699999809E+01 0. -1.
       -4    1    3    3    0  502  0.37483970142E+03 -0.95103272889E+03  0.17179851760E+04  0.19991104850E+04  0.12699999809E+01 0.  1.
</event>
<event>
 5   0  0.1681731E-05  0.2565290E+04  0.7818609E-02  0.8380088E-01
        2   -1    0    0  501    0  0.00000000000E+00  0.00000000000E+00  0.18662563470E+04  0.18662563470E+04  0.25500000920E-02 0.  1.
       -2   -1    0    0    0  501  0.00000000000E+00  0.00000000000E+00 -0.88153938549E+03  0.88153938549E+03  0.25500000920E-02 0. -1.
    10030    2    1    2    0    0  0.00000000000E+00  0.00000000000E+00  0.98471696154E+03  0.27477957325E+04  0.25652902162E+04 0.  0.
        2    1    3    3  502    0 -0.61627847429E+03 -0.15291250176E+03  0.16860943061E+04  0.18016923711E+04  0.25500000920E-02 0.  1.
       -2    1    3    3    0  502  0.61627847429E+03  0.15291250176E+03 -0.70137734453E+03  0.94610336143E+03  0.25500000920E-02 0. -1.
</event>
<event>
 5   0  0.1869956E-05  0.2698313E+04  0.7818609E-02  0.8335552E-01
        2   -1    0    0  501    0  0.00000000000E+00  0.00000000000E+00  0.13297811192E+04  0.13297811192E+04  0.25500000920E-02 0. -1.
       -2   -1    0    0    0  501  0.00000000000E+00  0.00000000000E+00 -0.13688146614E+04  0.13688146614E+04  0.25500000920E-02 0.  1.
    10030    2    1    2    0    0  0.00000000000E+00  0.00000000000E+00 -0.39033542217E+02  0.26985957806E+04  0.26983134677E+04 0.  0.
        5    1    3    3  502    0 -0.78002314487E+03  0.36543979038E+03 -0.10579988780E+04  0.13643189007E+04  0.46999998093E+01 0.  1.
       -5    1    3    3    0  502  0.78002314487E+03 -0.36543979038E+03  0.10189653358E+04  0.13342768800E+04  0.46999998093E+01 0. -1.
</event>
<event>
 5   0  0.1720129E-05  0.2596860E+04  0.7818609E-02  0.8369269E-01
       -2   -1    0    0    0  501  0.00000000000E+00  0.00000000000E+00  0.80743318170E+03  0.80743318171E+03  0.25500000920E-02 0.  1.
        2   -1    0    0  501    0  0.00000000000E+00  0.00000000000E+00 -0.20879994340E+04  0.20879994340E+04  0.25500000920E-02 0. -1.
    10030    2    1    2    0    0  0.00000000000E+00  0.00000000000E+00 -0.12805662523E+04  0.28954326157E+04  0.25968596623E+04 0.  0.
        3    1    3    3  502    0 -0.12054397329E+04 -0.39561626681E+03 -0.33225368273E+03  0.13114837781E+04  0.10100000352E+00 0.  1.
       -3    1    3    3    0  502  0.12054397329E+04  0.39561626681E+03 -0.94831256953E+03  0.15839488376E+04  0.10100000352E+00 0. -1.
</event>
<event>
 5   0  0.1702345E-05  0.2684265E+04  0.7818609E-02  0.8340129E-01
        2   -1    0    0  501    0  0.00000000000E+00  0.00000000000E+00  0.95507035042E+03  0.95507035043E+03  0.25500000920E-02 0.  1.
       -2   -1    0    0    0  501  0.00000000000E+00  0.00000000000E+00 -0.18860595464E+04  0.18860595464E+04  0.25500000920E-02 0. -1.
    10030    2    1    2    0    0  0.00000000000E+00  0.00000000000E+00 -0.93098919601E+03  0.28411298969E+04  0.26842649288E+04 0.  0.
        1    1    3    3  502    0  0.11239470066E+04  0.49403104824E+03 -0.10393948627E+04  0.16086221529E+04  0.50400001928E-02 0. -1.
       -1    1    3    3    0  502 -0.11239470066E+04 -0.49403104824E+03  0.10840566667E+03  0.12325077439E+04  0.50400001928E-02 0.  1.
</event>
<event>
 5   0  0.6984287E-06  0.2583075E+04  0.7818609E-02  0.8373973E-01
        1   -1    0    0  501    0  0.00000000000E+00  0.00000000000E+00  0.26232548770E+04  0.26232548770E+04  0.50400001928E-02 0.  1.
       -1   -1    0    0    0  501  0.00000000000E+00  0.00000000000E+00 -0.63587785450E+03  0.63587785452E+03  0.50400001928E-02 0. -1.
    10030    2    1    2    0    0  0.00000000000E+00  0.00000000000E+00  0.19873770225E+04  0.32591327315E+04  0.25830754407E+04 0.  0.
        3    1    3    3  502    0  0.18510268290E+03 -0.12259789888E+04  0.53740028970E+03  0.13513277048E+04  0.10100000352E+00 0. -1.
       -3    1    3    3    0  502 -0.18510268290E+03  0.12259789888E+04  0.14499767328E+04  0.19078050267E+04  0.10100000352E+00 0.  1.
</event>
<event>
 5   0  0.6984287E-06  0.2601984E+04  0.7818609E-02  0.8367528E-01
        1   -1    0    0  501    0  0.00000000000E+00  0.00000000000E+00  0.12841557128E+04  0.12841557128E+04  0.50400001928E-02 0.  1.
       -1   -1    0    0    0  501  0.00000000000E+00  0.00000000000E+00 -0.13180485302E+04  0.13180485302E+04  0.50400001928E-02 0. -1.
    10030    2    1    2    0    0  0.00000000000E+00  0.00000000000E+00 -0.33892817423E+02  0.26022042430E+04  0.26019835125E+04 0.  0.
        3    1    3    3  502    0 -0.12671108114E+04 -0.92995150165E+02  0.26300881797E+03  0.12974558007E+04  0.10100000352E+00 0. -1.
       -3    1    3    3    0  502  0.12671108114E+04  0.92995150165E+02 -0.29690163539E+03  0.13047484423E+04  0.10100000352E+00 0.  1.
</event>
<event>
 5   0  0.1720129E-05  0.2597921E+04  0.7818609E-02  0.8368908E-01
       -2   -1    0    0    0  501  0.00000000000E+00  0.00000000000E+00  0.85569283487E+03  0.85569283487E+03  0.25500000920E-02 0.  1.
        2   -1    0    0  501    0  0.00000000000E+00  0.00000000000E+00 -0.19718506672E+04  0.19718506672E+04  0.25500000920E-02 0. -1.
    10030    2    1    2    0    0  0.00000000000E+00  0.00000000000E+00 -0.11161578324E+04  0.28275435021E+04  0.25979210822E+04 0.  0.
        3    1    3    3  502    0  0.53337116881E+03  0.14495682299E+03 -0.18374782573E+04  0.19188078696E+04  0.10100000352E+00 0. -1.
       -3    1    3    3    0  502 -0.53337116881E+03 -0.14495682299E+03  0.72132042490E+03  0.90873563253E+03  0.10100000352E+00 0.  1.
</event>
<event>
 5   0  0.6918420E-06  0.2583217E+04  0.7818609E-02  0.8373924E-01
       -1   -1    0    0    0  501  0.00000000000E+00  0.00000000000E+00  0.96762901333E+03  0.96762901334E+03  0.50400001928E-02 0. -1.
        1   -1    0    0  501    0  0.00000000000E+00  0.00000000000E+00 -0.17240622876E+04  0.17240622876E+04  0.50400001928E-02 0.  1.
    10030    2    1    2    0    0  0.00000000000E+00  0.00000000000E+00 -0.75643327431E+03  0.26916913010E+04  0.25832171340E+04 0.  0.
        4    1    3    3  502    0  0.85438537163E+03 -0.56689151471E+03 -0.11966352515E+04  0.15758419625E+04  0.12699999809E+01 0.  1.
       -4    1    3    3    0  502 -0.85438537163E+03  0.56689151471E+03  0.44020197715E+03  0.11158493385E+04  0.12699999809E+01 0. -1.
</event>
<event>
 5   0  0.1702345E-05  0.2574929E+04  0.7818609E-02  0.8376767E-01
        2   -1    0    0  501    0  0.00000000000E+00  0.00000000000E+00  0.12323551808E+04  0.12323551808E+04  0.25500000920E-02 0. -1.
       -2   -1    0    0    0  501  0.00000000000E+00  0.00000000000E+00 -0.13450381355E+04  0.13450381355E+04  0.25500000920E-02 0.  1.
    10030    2    1    2    0    0  0.00000000000E+00  0.00000000000E+00 -0.11268295471E+03  0.25773933163E+04  0.25749289036E+04 0.  0.
        1    1    3    3  502    0 -0.58210759512E+03  0.50563137639E+03 -0.10883725812E+04  0.13338167853E+04  0.50400001928E-02 0.  1.
       -1    1    3    3    0  502  0.58210759512E+03 -0.50563137639E+03  0.97568962652E+03  0.12435765310E+04  0.50400001928E-02 0. -1.
</event>
<event>
 5   0  0.1720129E-05  0.2588527E+04  0.7818609E-02  0.8372109E-01
        2   -1    0    0  501    0  0.00000000000E+00  0.00000000000E+00  0.89879614598E+03  0.89879614598E+03  0.25500000920E-02 0.  1.
       -2   -1    0    0    0  501  0.00000000000E+00  0.00000000000E+00 -0.18637359019E+04  0.18637359019E+04  0.25500000920E-02 0. -1.
    10030    2    1    2    0    0  0.00000000000E+00  0.00000000000E+00 -0.96493975596E+03  0.27625320479E+04  0.25885274932E+04 0.  0.
        3    1    3    3  502    0  0.68233897353E+03  0.46264417124E+03  0.58234361558E+03  0.10093315614E+04  0.10100000352E+00 0.  1.
       -3    1    3    3    0  502 -0.68233897353E+03 -0.46264417124E+03 -0.15472833715E+04  0.17532004865E+04  0.10100000352E+00 0. -1.
</event>
<event>
 5   0  0.6984287E-06  0.2592845E+04  0.7818609E-02  0.8370636E-01
        1   -1    0    0  501    0  0.00000000000E+00  0.00000000000E+00  0.13692454082E+04  0.13692454082E+04  0.50400001928E-02 0. -1.
       -1   -1    0    0    0  501  0.00000000000E+00  0.00000000000E+00 -0.12274722842E+04  0.12274722842E+04  0.50400001928E-02 0.  1.
    10030    2    1    2    0    0  0.00000000000E+00  0.00000000000E+00  0.14177312402E+03  0.25967176924E+04  0.25928446069E+04 0.  0.
        3    1    3    3  502    0  0.11744473040E+04 -0.53513281853E+03 -0.51841075087E+02  0.12916582793E+04  0.10100000352E+00 0. -1.
       -3    1    3    3    0  502 -0.11744473040E+04  0.53513281853E+03  0.19361419911E+03  0.13050594131E+04  0.10100000352E+00 0.  1.
</event>
<event>
 5   0  0.1720129E-05  0.2609529E+04  0.7818609E-02  0.8364972E-01
        2   -1    0    0  501    0  0.00000000000E+00  0.00000000000E+00  0.16452118707E+04  0.16452118707E+04  0.25500000920E-02 0. -1.
       -2   -1    0    0    0  501  0.00000000000E+00  0.00000000000E+00 -0.10347664060E+04  0.10347664060E+04  0.25500000920E-02 0.  1.
    10030    2    1    2    0    0  0.00000000000E+00  0.00000000000E+00  0.61044546465E+03  0.26799782767E+04  0.26095286736E+04 0.  0.
        3    1    3    3  502    0  0.30626603136E+02  0.11917442327E+04  0.84983885643E+03  0.14640418017E+04  0.10100000352E+00 0. -1.
       -3    1    3    3    0  502 -0.30626603136E+02 -0.11917442327E+04 -0.23939339177E+03  0.12159364750E+04  0.10100000352E+00 0.  1.
</event>
<event>
 5   0  0.1702345E-05  0.2631056E+04  0.7818609E-02  0.8357728E-01
        2   -1    0    0  501    0  0.00000000000E+00  0.00000000000E+00  0.21043745848E+04  0.21043745848E+04  0.25500000920E-02 0.  1.
       -2   -1    0    0    0  501  0.00000000000E+00  0.00000000000E+00 -0.82238895863E+03  0.82238895863E+03  0.25500000920E-02 0. -1.
    10030    2    1    2    0    0  0.00000000000E+00  0.00000000000E+00  0.12819856262E+04  0.29267635435E+04  0.26310563836E+04 0.  0.
        1    1    3    3  502    0  0.46300001735E+03 -0.11891380619E+04  0.28538229807E+03  0.13076166879E+04  0.50400001928E-02 0. -1.
       -1    1    3    3    0  502 -0.46300001735E+03  0.11891380619E+04  0.99660332815E+03  0.16191468556E+04  0.50400001928E-02 0.  1.
</event>
<event>
 5   0  0.7138294E-06  0.2608660E+04  0.7818609E-02  0.8365265E-01
        1   -1    0    0  501    0  0.00000000000E+00  0.00000000000E+00  0.15591264873E+04  0.15591264873E+04  0.50400001928E-02 0. -1.
       -1   -1    0    0    0  501  0.00000000000E+00  0.00000000000E+00 -0.10911733578E+04  0.10911733578E+04  0.50400001928E-02 0.  1.
    10030    2    1    2    0    0  0.00000000000E+00  0.00000000000E+00  0.46795312951E+03  0.26502998451E+04  0.26086604105E+04 0.  0.
        2    1    3    3  502    0 -0.69347219129E+03 -0.22726419080E+03 -0.86435522804E+03  0.11312217522E+04  0.25500000920E-02 0.  1.
       -2    1    3    3    0  502  0.69347219129E+03  0.22726419080E+03  0.13323083575E+04  0.15190780928E+04  0.25500000920E-02 0. -1.
</event>
<event>
 5   0  0.1677971E-05  0.2606927E+04  0.7818609E-02  0.8365852E-01
       -2   -1    0    0    0  501  0.00000000000E+00  0.00000000000E+00  0.10044313276E+04  0.10044313276E+04  0.25500000920E-02 0.  1.
        2   -1    0    0  501    0  0.00000000000E+00  0.00000000000E+00 -0.16915215094E+04  0.16915215094E+04  0.25500000920E-02 0. -1.
    10030    2    1    2    0    0  0.00000000000E+00  0.00000000000E+00 -0.68709018183E+03  0.26959528370E+04  0.26069270763E+04 0.  0.
        4    1    3    3  502    0  0.15961759062E+03  0.27529621093E+03  0.96364213132E+03  0.10148268567E+04  0.12699999809E+01 0.  1.
       -4    1    3    3    0  502 -0.15961759062E+03 -0.27529621093E+03 -0.16507323131E+04  0.16811259803E+04  0.12699999809E+01 0. -1.
</event>
<event>
 5   0  0.1681731E-05  0.2590719E+04  0.7818609E-02  0.8371361E-01
       -2   -1    0    0    0  501  0.00000000000E+00  0.00000000000E+00  0.92744988296E+03  0.92744988296E+03  0.25500000920E-02 0. -1.
        2   -1    0    0  501    0  0.00000000000E+00  0.00000000000E+00 -0.18092150846E+04  0.18092150846E+04  0.25500000920E-02 0.  1.
    10030    2    1    2    0    0  0.00000000000E+00  0.00000000000E+00 -0.88176520161E+03  0.27366649675E+04  0.25907190650E+04 0.  0.
        2    1    3    3  502    0 -0.52085772214E+03 -0.29817316779E+03  0.77172103073E+03  0.97762638773E+03  0.25500000920E-02 0. -1.
       -2    1    3    3    0  502  0.52085772214E+03  0.29817316779E+03 -0.16534862323E+04  0.17590385798E+04  0.25500000920E-02 0.  1.
</event>
<event>
 5   0  0.6984287E-06  0.2551798E+04  0.7818609E-02  0.8384761E-01
       -1   -1    0    0    0  501  0.00000000000E+00  0.00000000000E+00  0.15303554657E+04  0.15303554657E+04  0.50400001928E-02 0. -1.
        1   -1    0    0  501    0  0.00000000000E+00  0.00000000000E+00 -0.10637518690E+04  0.10637518690E+04  0.50400001928E-02 0.  1.
    10030    2    1    2    0    0  0.00000000000E+00  0.00000000000E+00  0.46660359679E+03  0.25941073347E+04  0.25517981792E+04 0.  0.
        3    1    3    3  502    0 -0.64683961199E+03  0.89441680609E+03 -0.41725831478E+03  0.11800370410E+04  0.10100000352E+00 0.  1.
       -3    1    3    3    0  502  0.64683961199E+03 -0.89441680609E+03  0.88386191157E+03  0.14140702937E+04  0.10100000352E+00 0. -1.
</event>
<event>
 5   0  0.6918420E-06  0.2595723E+04  0.7818609E-02  0.8369656E-01
       -1   -1    0    0    0  501  0.00000000000E+00  0.00000000000E+00  0.70149516565E+03  0.70149516567E+03  0.50400001928E-02 0.  1.
        1   -1    0    0  501    0  0.00000000000E+00  0.00000000000E+00 -0.24012199834E+04  0.24012199834E+04  0.50400001928E-02 0. -1.
    10030    2    1    2    0    0  0.00000000000E+00  0.00000000000E+00 -0.16997248177E+04  0.31027151491E+04  0.25957227973E+04 0.  0.
        4    1    3    3  502    0 -0.62141694828E+03 -0.28793782484E+03 -0.21676299699E+04  0.22732550482E+04  0.12699999809E+01 0. -1.
       -4    1    3    3    0  502  0.62141694828E+03  0.28793782484E+03  0.46790515221E+03  0.82946010088E+03  0.12699999809E+01 0.  1.
</event>
<event>
 5   0  0.6706225E-06  0.2596002E+04  0.7818609E-02  0.8369561E-01
       -1   -1    0    0    0  501  0.00000000000E+00  0.00000000000E+00  0.13295329154E+04  0.13295329154E+04  0.50400001928E-02 0. -1.
        1   -1    0    0  501    0  0.00000000000E+00  0.00000000000E+00 -0.12672168364E+04  0.12672168364E+04  0.50400001928E-02 0.  1.
    10030    2    1    2    0    0  0.00000000000E+00  0.00000000000E+00  0.62316078926E+02  0.25967497518E+04  0.25960019222E+04 0.  0.
        5    1    3    3  502    0 -0.11094039032E+04 -0.22850814986E+03 -0.60289474318E+03  0.12831590534E+04  0.46999998093E+01 0.  1.
       -5    1    3    3    0  502  0.11094039032E+04  0.22850814986E+03  0.66521082210E+03  0.13135906984E+04  0.46999998093E+01 0. -1.
</event>
<event>
 5   0  0.6918420E-06  0.2635741E+04  0.7818609E-02  0.8356161E-01
        1   -1    0    0  501    0  0.00000000000E+00  0.00000000000E+00  0.24430551177E+04  0.24430551177E+04  0.50400001928E-02 0. -1.
       -1   -1    0    0    0  501  0.00000000000E+00  0.00000000000E+00 -0.71090606289E+03  0.71090606291E+03  0.50400001928E-02 0.  1.
    10030    2    1    2    0    0  0.00000000000E+00  0.00000000000E+00  0.17321490548E+04  0.31539611806E+04  0.26357410307E+04 0.  0.
        4    1    3    3  502    0  0.12626307177E+04  0.94248784715E+02  0.13035537718E+04  0.18172433001E+04  0.12699999809E+01 0.  1.
       -4    1    3    3    0  502 -0.12626307177E+04 -0.94248784715E+02  0.42859528304E+03  0.13367178806E+04  0.12699999809E+01 0. -1.
</event>
<event>
 5   0  0.6993678E-06  0.2571357E+04  0.7818609E-02  0.8377996E-01
        1   -1    0    0  501    0  0.00000000000E+00  0.00000000000E+00  0.22313453866E+04  0.22313453866E+04  0.50400001928E-02 0.  1.
       -1   -1    0    0    0  501  0.00000000000E+00  0.00000000000E+00 -0.74079492391E+03  0.74079492392E+03  0.50400001928E-02 0. -1.
    10030    2    1    2    0    0  0.00000000000E+00  0.00000000000E+00  0.14905504626E+04  0.29721403105E+04  0.25713571015E+04 0.  0.
        1    1    3    3  502    0  0.11771506678E+04 -0.40859132715E+03  0.11114102741E+04  0.16696896013E+04  0.50400001928E-02 0.  1.
       -1    1    3    3    0  502 -0.11771506678E+04  0.40859132715E+03  0.37914018850E+03  0.13024507092E+04  0.50400001928E-02 0. -1.
</event>
<event>
 5   0  0.1869956E-05  0.2605487E+04  0.7818609E-02  0.8366340E-01
        2   -1    0    0  501    0  0.00000000000E+00  0.00000000000E+00  0.19183332395E+04  0.19183332395E+04  0.25500000920E-02 0.  1.
       -2   -1    0    0    0  501  0.00000000000E+00  0.00000000000E+00 -0.88469526328E+03  0.88469526328E+03  0.25500000920E-02 0. -1.
    10030    2    1    2    0    0  0.00000000000E+00  0.00000000000E+00  0.10336379762E+04  0.28030285028E+04  0.26054867725E+04 0.  0.
        5    1    3    3  502    0 -0.62146935126E+02 -0.11463122795E+04 -0.14568216480E+03  0.11572119369E+04  0.46999998093E+01 0. -1.
       -5    1    3    3    0  502  0.62146935126E+02  0.11463122795E+04  0.11793201410E+04  0.16458165659E+04  0.46999998093E+01 0.  1.
</event>
<event>
 5   0  0.6918420E-06  0.2600452E+04  0.7818609E-02  0.8368048E-01
        1   -1    0    0  501    0  0.00000000000E+00  0.00000000000E+00  0.13941055080E+04  0.13941055080E+04  0.50400001928E-02 0.  1.
       -1   -1    0    0    0  501  0.00000000000E+00  0.00000000000E+00 -0.12126681321E+04  0.12126681321E+04  0.50400001928E-02 0. -1.
    10030    2    1    2    0    0  0.00000000000E+00  0.00000000000E+00  0.18143737596E+03  0.26067736401E+04  0.26004517472E+04 0.  0.
        4    1    3    3  502    0 -0.50695953417E+03 -0.18336497891E+03 -0.10953547033E+04  0.12208334136E+04  0.12699999809E+01 0. -1.
       -4    1    3    3    0  502  0.50695953417E+03  0.18336497891E+03  0.12767920793E+04  0.13859402265E+04  0.12699999809E+01 0.  1.
</event>
<event>
 5   0  0.5840500E-06  0.2566371E+04  0.7818609E-02  0.8379715E-01
       -4   -1    0    0    0  501  0.00000000000E+00  0.00000000000E+00  0.11729094420E+04  0.11729101295E+04  0.12699999809E+01 0. -1.
        4   -1    0    0  501    0  0.00000000000E+00  0.00000000000E+00 -0.14038287856E+04  0.14038293601E+04  0.12699999809E+01 0.  1.
    10030    2    1    2    0    0  0.00000000000E+00  0.00000000000E+00 -0.23091934364E+03  0.25767394896E+04  0.25663714957E+04 0.  0.
        3    1    3    3  502    0  0.12590698218E+04  0.86872011176E+00  0.13314532688E+03  0.12660905414E+04  0.10100000352E+00 0. -1.
       -3    1    3    3    0  502 -0.12590698218E+04 -0.86872011176E+00 -0.36406467053E+03  0.13106489482E+04  0.10100000352E+00 0.  1.
</event>
<event>
 5   0  0.1720129E-05  0.2744949E+04  0.7818609E-02  0.8320566E-01
        2   -1    0    0  501    0  0.00000000000E+00  0.00000000000E+00  0.20907730907E+04  0.20907730907E+04  0.25500000920E-02 0.  1.
       -2   -1    0    0    0  501  0.00000000000E+00  0.00000000000E+00 -0.90095219845E+03  0.90095219846E+03  0.25500000920E-02 0. -1.
    10030    2    1    2    0    0  0.00000000000E+00  0.00000000000E+00  0.11898208923E+04  0.29917252892E+04  0.27449492619E+04 0.  0.
        3    1    3    3  502    0 -0.13238778446E+04 -0.13511651450E+03  0.22889553237E+03  0.13502970765E+04  0.10100000352E+00 0.  1.
       -3    1    3    3    0  502  0.13238778446E+04  0.13511651450E+03  0.96092535991E+03  0.16414282127E+04  0.10100000352E+00 0. -1.
</event>
<event>
 5   0  0.1720129E-05  0.2684315E+04  0.7818609E-02  0.8340112E-01
        2   -1    0    0  501    0  0.00000000000E+00  0.00000000000E+00  0.12019392028E+04  0.12019392028E+04  0.25500000920E-02 0. -1.
       -2   -1    0    0    0  501  0.00000000000E+00  0.00000000000E+00 -0.14987333812E+04  0.14987333812E+04  0.25500000920E-02 0.  1.
    10030    2    1    2    0    0  0.00000000000E+00  0.00000000000E+00 -0.29679417840E+03  0.27006725840E+04  0.26843147396E+04 0.  0.
        3    1    3    3  502    0 -0.34440527775E+03  0.62444325127E+03  0.99556394079E+03  0.12246190999E+04  0.10100000352E+00 0. -1.
       -3    1    3    3    0  502  0.34440527775E+03 -0.62444325127E+03 -0.12923581192E+04  0.14760534841E+04  0.10100000352E+00 0.  1.
</event>
<event>
 5   0  0.6706225E-06  0.2627387E+04  0.7818609E-02  0.8358957E-01
       -1   -1    0    0    0  501  0.00000000000E+00  0.00000000000E+00  0.11614248329E+04  0.11614248330E+04  0.50400001928E-02 0.  1.
        1   -1    0    0  501    0  0.00000000000E+00  0.00000000000E+00 -0.14859258912E+04  0.14859258912E+04  0.50400001928E-02 0. -1.
    10030    2    1    2    0    0  0.00000000000E+00  0.00000000000E+00 -0.32450105824E+03  0.26473507241E+04  0.26273874704E+04 0.  0.
        5    1    3    3  502    0  0.55317734490E+03 -0.41036206170E+03 -0.12893952871E+04  0.14618360007E+04  0.46999998093E+01 0. -1.
       -5    1    3    3    0  502 -0.55317734490E+03  0.41036206170E+03  0.96489422885E+03  0.11855147234E+04  0.46999998093E+01 0.  1.
</event>
<event>
 5   0  0.1869956E-05  0.2508603E+04  0.7818609E-02  0.8399927E-01
        2   -1    0    0  501    0  0.00000000000E+00  0.00000000000E+00  0.13433871878E+04  0.13433871878E+04  0.25500000920E-02 0. -1.
       -2   -1    0    0    0  501  0.00000000000E+00  0.00000000000E+00 -0.11711236561E+04  0.11711236561E+04  0.25500000920E-02 0.  1.
    10030    2    1    2    0    0  0.00000000000E+00  0.00000000000E+00  0.17226353176E+03  0.25145108439E+04  0.25086032089E+04 0.  0.
        5    1    3    3  502    0  0.35186032355E+03 -0.97500389542E+03  0.79406132673E+03  0.13057540978E+04  0.46999998093E+01 0. -1.
       -5    1    3    3    0  502 -0.35186032355E+03  0.97500389542E+03 -0.62179779497E+03  0.12087567461E+04  0.46999998093E+01 0.  1.
</event>
<event>
 5   0  0.1720129E-05  0.2648810E+04  0.7818609E-02  0.8351808E-01
        2   -1    0    0  501    0  0.00000000000E+00  0.00000000000E+00  0.12135003667E+04  0.12135003667E+04  0.25500000920E-02 0.  1.
       -2   -1    0    0    0  501  0.00000000000E+00  0.00000000000E+00 -0.14454454646E+04  0.14454454646E+04  0.25500000920E-02 0. -1.
    10030    2    1    2    0    0  0.00000000000E+00  0.00000000000E+00 -0.23194509788E+03  0.26589458313E+04  0.26488099979E+04 0.  0.
        3    1    3    3  502    0  0.85916786959E+03 -0.78924680016E+03  0.51329833279E+03  0.12745803734E+04  0.10100000352E+00 0.  1.
       -3    1    3    3    0  502 -0.85916786959E+03  0.78924680016E+03 -0.74524343067E+03  0.13843654578E+04  0.10100000352E+00 0. -1.
</event>
<event>
 5   0  0.6984287E-06  0.2619424E+04  0.7818609E-02  0.8361633E-01
       -1   -1    0    0    0  501  0.00000000000E+00  0.00000000000E+00  0.15959093786E+04  0.15959093786E+04  0.50400001928E-02 0.  1.
        1   -1    0    0  501    0  0.00000000000E+00  0.00000000000E+00 -0.10748388888E+04  0.10748388888E+04  0.50400001928E-02 0. -1.
    10030    2    1    2    0    0  0.00000000000E+00  0.00000000000E+00  0.52107048980E+03  0.26707482674E+04  0.26194239543E+04 0.  0.
        3    1    3    3  502    0 -0.11359159826E+03  0.10684094225E+04  0.10241719603E+04  0.14843618021E+04  0.10100000352E+00 0.  1.
       -3    1    3    3    0  502  0.11359159826E+03 -0.10684094225E+04 -0.50310147050E+03  0.11863864653E+04  0.10100000352E+00 0. -1.
</event>
<event>
 5   0  0.6984287E-06  0.2622189E+04  0.7818609E-02  0.8360703E-01
       -1   -1    0    0    0  501  0.00000000000E+00  0.00000000000E+00  0.23547087940E+04  0.23547087940E+04  0.50400001928E-02 0. -1.
        1   -1    0    0  501    0  0.00000000000E+00  0.00000000000E+00 -0.73001311850E+03  0.73001311852E+03  0.50400001928E-02 0.  1.
    10030    2    1    2    0    0  0.00000000000E+00  0.00000000000E+00  0.16246956755E+04  0.30847219125E+04  0.26221886354E+04 0.  0.
        3    1    3    3  502    0  0.36812391341E+03  0.23580400837E+03  0.22664415066E+04  0.23082191965E+04  0.10100000352E+00 0. -1.
       -3    1    3    3    0  502 -0.36812391341E+03 -0.23580400837E+03 -0.64174583113E+03  0.77650271600E+03  0.10100000352E+00 0.  1.
</event>
<event>
 5   0  0.6918420E-06  0.2304680E+04  0.7818609E-02  0.8476078E-01
        1   -1    0    0  501    0  0.00000000000E+00  0.00000000000E+00  0.12835417648E+04  0.12835417648E+04  0.50400001928E-02 0. -1.
       -1   -1    0    0    0  501  0.00000000000E+00  0.00000000000E+00 -0.10345493298E+04  0.10345493298E+04  0.50400001928E-02 0.  1.
    10030    2    1    2    0    0  0.00000000000E+00  0.00000000000E+00  0.24899243494E+03  0.23180910946E+04  0.23046798238E+04 0.  0.
        4    1    3    3  502    0  0.10121154578E+04 -0.11612579798E+03 -0.41717522345E+03  0.11008631526E+04  0.12699999809E+01 0. -1.
       -4    1    3    3    0  502 -0.10121154578E+04  0.11612579798E+03  0.66616765839E+03  0.12172279420E+04  0.12699999809E+01 0.  1.
</event>
<event>
 5   0  0.1702345E-05  0.2561452E+04  0.7818609E-02  0.8381414E-01
        2   -1    0    0  501    0  0.00000000000E+00  0.00000000000E+00  0.12265915264E+04  0.12265915264E+04  0.25500000920E-02 0.  1.
       -2   -1    0    0    0  501  0.00000000000E+00  0.00000000000E+00 -0.13372497329E+04  0.13372497329E+04  0.25500000920E-02 0. -1.
    10030    2    1    2    0    0  0.00000000000E+00  0.00000000000E+00 -0.11065820643E+03  0.25638412593E+04  0.25614520812E+04 0.  0.
        1    1    3    3  502    0 -0.82969998880E+03 -0.54965521010E+03  0.75148494576E+03  0.12470976486E+04  0.50400001928E-02 0.  1.
       -1    1    3    3    0  502  0.82969998880E+03  0.54965521010E+03 -0.86214315219E+03  0.13167436107E+04  0.50400001928E-02 0. -1.
</event>
<event>
 5   0  0.5840500E-06  0.2552119E+04  0.7818609E-02  0.8384650E-01
        4   -1    0    0  501    0  0.00000000000E+00  0.00000000000E+00  0.10431143367E+04  0.10431151098E+04  0.12699999809E+01 0. -1.
       -4   -1    0    0    0  501  0.00000000000E+00  0.00000000000E+00 -0.15610237404E+04  0.15610242570E+04  0.12699999809E+01 0.  1.
    10030    2    1    2    0    0  0.00000000000E+00  0.00000000000E+00 -0.51790940371E+03  0.26041393668E+04  0.25521190590E+04 0.  0.
        4    1    3    3  502    0 -0.10603923948E+04  0.33839304892E+03  0.37777129089E+03  0.11754380663E+04  0.12699999809E+01 0. -1.
       -4    1    3    3    0  502  0.10603923948E+04 -0.33839304892E+03 -0.89568069460E+03  0.14287013005E+04  0.12699999809E+01 0.  1.
</event>
<event>
 5   0  0.1681731E-05  0.2576161E+04  0.7818609E-02  0.8376344E-01
       -2   -1    0    0    0  501  0.00000000000E+00  0.00000000000E+00  0.10381755921E+04  0.10381755921E+04  0.25500000920E-02 0. -1.
        2   -1    0    0  501    0  0.00000000000E+00  0.00000000000E+00 -0.15981408286E+04  0.15981408286E+04  0.25500000920E-02 0.  1.
    10030    2    1    2    0    0  0.00000000000E+00  0.00000000000E+00 -0.55996523651E+03  0.26363164208E+04  0.25761605548E+04 0.  0.
        2    1    3    3  502    0  0.90348654298E+02 -0.51513480512E+03 -0.14845949799E+04  0.15740231895E+04  0.25500000920E-02 0.  1.
       -2    1    3    3    0  502 -0.90348654298E+02  0.51513480512E+03  0.92462974339E+03  0.10622932312E+04  0.25500000920E-02 0. -1.
</event>
<event>
 5   0  0.1720129E-05  0.2589066E+04  0.7818609E-02  0.8371925E-01
       -2   -1    0    0    0  501  0.00000000000E+00  0.00000000000E+00  0.13374771532E+04  0.13374771532E+04  0.25500000920E-02 0. -1.
        2   -1    0    0  501    0  0.00000000000E+00  0.00000000000E+00 -0.12529676180E+04  0.12529676180E+04  0.25500000920E-02 0.  1.
    10030    2    1    2    0    0  0.00000000000E+00  0.00000000000E+00  0.84509535155E+02  0.25904447712E+04  0.25890659032E+04 0.  0.
        3    1    3    3  502    0 -0.38813029474E+03  0.11002466730E+04  0.60347032272E+03  0.13135312359E+04  0.10100000352E+00 0. -1.
       -3    1    3    3    0  502  0.38813029474E+03 -0.11002466730E+04 -0.51896078757E+03  0.12769135352E+04  0.10100000352E+00 0.  1.
</event>
<event>
 5   0  0.6918420E-06  0.2622384E+04  0.7818609E-02  0.8360638E-01
        1   -1    0    0  501    0  0.00000000000E+00  0.00000000000E+00  0.95698912839E+03  0.95698912840E+03  0.50400001928E-02 0.  1.
       -1   -1    0    0    0  501  0.00000000000E+00  0.00000000000E+00 -0.17964927269E+04  0.17964927269E+04  0.50400001928E-02 0. -1.
    10030    2    1    2    0    0  0.00000000000E+00  0.00000000000E+00 -0.83950359852E+03  0.27534818553E+04  0.26223836553E+04 0.  0.
        4    1    3    3  502    0 -0.38913592920E+03  0.12472679745E+04 -0.53533786527E+03  0.14119817331E+04  0.12699999809E+01 0.  1.
       -4    1    3    3    0  502  0.38913592920E+03 -0.12472679745E+04 -0.30416573325E+03  0.13415001222E+04  0.12699999809E+01 0. -1.
</event>
<event>
 5   0  0.6993678E-06  0.2604376E+04  0.7818609E-02  0.8366716E-01
       -1   -1    0    0    0  501  0.00000000000E+00  0.00000000000E+00  0.13629235443E+04  0.13629235443E+04  0.50400001928E-02 0.  1.
        1   -1    0    0  501    0  0.00000000000E+00  0.00000000000E+00 -0.12441588259E+04  0.12441588259E+04  0.50400001928E-02 0. -1.
    10030    2    1    2    0    0  0.00000000000E+00  0.00000000000E+00  0.11876471842E+03  0.26070823703E+04  0.26043758229E+04 0.  0.
        1    1    3    3  502    0 -0.11866836380E+04  0.17690827362E+03  0.56604940684E+03  0.13266222239E+04  0.50400001928E-02 0.  1.
       -1    1    3    3    0  502  0.11866836380E+04 -0.17690827362E+03 -0.44728468842E+03  0.12804601464E+04  0.50400001928E-02 0. -1.
</event>
<event>
 5   0  0.1720129E-05  0.2485831E+04  0.7818609E-02  0.8408051E-01
        2   -1    0    0  501    0  0.00000000000E+00  0.00000000000E+00  0.15449960599E+04  0.15449960600E+04  0.25500000920E-02 0. -1.
       -2   -1    0    0    0  501  0.00000000000E+00  0.00000000000E+00 -0.99989863886E+03  0.99989863886E+03  0.25500000920E-02 0.  1.
    10030    2    1    2    0    0  0.00000000000E+00  0.00000000000E+00  0.54509742109E+03  0.25448946988E+04  0.24858314162E+04 0.  0.
        3    1    3    3  502    0  0.15119138050E+03  0.69787677533E+03  0.13140445506E+04  0.14955279730E+04  0.10100000352E+00 0. -1.
       -3    1    3    3    0  502 -0.15119138050E+03 -0.69787677533E+03 -0.76894712946E+03  0.10493667258E+04  0.10100000352E+00 0.  1.
</event>
<event>
 5   0  0.1869956E-05  0.2550359E+04  0.7818609E-02  0.8385261E-01
       -2   -1    0    0    0  501  0.00000000000E+00  0.00000000000E+00  0.11107540659E+04  0.11107540659E+04  0.25500000920E-02 0. -1.
        2   -1    0    0  501    0  0.00000000000E+00  0.00000000000E+00 -0.14639453008E+04  0.14639453008E+04  0.25500000920E-02 0.  1.
    10030    2    1    2    0    0  0.00000000000E+00  0.00000000000E+00 -0.35319123485E+03  0.25746993667E+04  0.25503593434E+04 0.  0.
        5    1    3    3  502    0  0.52031528580E+03 -0.11460941652E+04 -0.38300047010E+03  0.13156638181E+04  0.46999998093E+01 0.  1.
       -5    1    3    3    0  502 -0.52031528580E+03  0.11460941652E+04  0.29809235248E+02  0.12590355486E+04  0.46999998093E+01 0. -1.
</event>
<event>
 5   0  0.6984287E-06  0.2638119E+04  0.7818609E-02  0.8355367E-01
       -1   -1    0    0    0  501  0.00000000000E+00  0.00000000000E+00  0.11452951052E+04  0.11452951052E+04  0.50400001928E-02 0. -1.
        1   -1    0    0  501    0  0.00000000000E+00  0.00000000000E+00 -0.15191877041E+04  0.15191877041E+04  0.50400001928E-02 0.  1.
    10030    2    1    2    0    0  0.00000000000E+00  0.00000000000E+00 -0.37389259893E+03  0.26644828093E+04  0.26381192099E+04 0.  0.
        3    1    3    3  502    0 -0.12654101697E+04  0.71931695522E+02  0.18205551359E+03  0.12804613570E+04  0.10100000352E+00 0. -1.
       -3    1    3    3    0  502  0.12654101697E+04 -0.71931695522E+02 -0.55594811252E+03  0.13840214523E+04  0.10100000352E+00 0.  1.
</event>
<event>
 5   0  0.6918420E-06  0.2552304E+04  0.7818609E-02  0.8384585E-01
        1   -1    0    0  501    0  0.00000000000E+00  0.00000000000E+00  0.21468366793E+04  0.21468366793E+04  0.50400001928E-02 0.  1.
       -1   -1    0    0    0  501  0.00000000000E+00  0.00000000000E+00 -0.75858756985E+03  0.75858756987E+03  0.50400001928E-02 0. -1.
    10030    2    1    2    0    0  0.00000000000E+00  0.00000000000E+00  0.13882491095E+04  0.29054242492E+04  0.25523037589E+04 0.  0.
        4    1    3    3  502    0 -0.79226917087E+03  0.81089682727E+03  0.27125186777E+02  0.11340112399E+04  0.12699999809E+01 0. -1.
       -4    1    3    3    0  502  0.79226917087E+03 -0.81089682727E+03  0.13611239227E+04  0.17714130093E+04  0.12699999809E+01 0.  1.
</event>
<event>
 5   0  0.7138294E-06  0.2581344E+04  0.7818609E-02  0.8374566E-01
        1   -1    0    0  501    0  0.00000000000E+00  0.00000000000E+00  0.13576500649E+04  0.13576500649E+04  0.50400001928E-02 0. -1.
       -1   -1    0    0    0  501  0.00000000000E+00  0.00000000000E+00 -0.12269983956E+04  0.12269983956E+04  0.50400001928E-02 0.  1.
    10030    2    1    2    0    0  0.00000000000E+00  0.00000000000E+00  0.13065166926E+03  0.25846484605E+04  0.25813441858E+04 0.  0.
        2    1    3    3  502    0  0.92293087060E+03 -0.36180018331E+02 -0.83734025433E+03  0.12466952664E+04  0.25500000920E-02 0.  1.
       -2    1    3    3    0  502 -0.92293087060E+03  0.36180018331E+02  0.96799192359E+03  0.13379531942E+04  0.25500000920E-02 0. -1.
</event>
<event>
 5   0  0.1677971E-05  0.2601515E+04  0.7818609E-02  0.8367687E-01
        2   -1    0    0  501    0  0.00000000000E+00  0.00000000000E+00  0.22275277171E+04  0.22275277171E+04  0.25500000920E-02 0. -1.
       -2   -1    0    0    0  501  0.00000000000E+00  0.00000000000E+00 -0.75957304955E+03  0.75957304956E+03  0.25500000920E-02 0.  1.
    10030    2    1    2    0    0  0.00000000000E+00  0.00000000000E+00  0.14679546676E+04  0.29871007667E+04  0.26015149595E+04 0.  0.
        4    1    3    3  502    0 -0.94265527607E+03  0.46893122075E+03 -0.14309196430E+03  0.10625311207E+04  0.12699999809E+01 0.  1.
       -4    1    3    3    0  502  0.94265527607E+03 -0.46893122075E+03  0.16110466319E+04  0.19245696460E+04  0.12699999809E+01 0. -1.
</event>
<event>
 5   0  0.6706225E-06  0.2592300E+04  0.7818609E-02  0.8370821E-01
       -1   -1    0    0    0  501  0.00000000000E+00  0.00000000000E+00  0.20540609163E+04  0.20540609163E+04  0.50400001928E-02 0. -1.
        1   -1    0    0  501    0  0.00000000000E+00  0.00000000000E+00 -0.81789451741E+03  0.81789451743E+03  0.50400001928E-02 0.  1.
    10030    2    1    2    0    0  0.00000000000E+00  0.00000000000E+00  0.12361663989E+04  0.28719554337E+04  0.25923002619E+04 0.  0.
        5    1    3    3  502    0  0.88628872619E+03  0.21907639846E+03  0.16373807335E+04  0.18747106259E+04  0.46999998093E+01 0. -1.
       -5    1    3    3    0  502 -0.88628872619E+03 -0.21907639846E+03 -0.40121433456E+03  0.99724480785E+03  0.46999998093E+01 0.  1.
</event>
<event>
 5   0  0.1869956E-05  0.2583239E+04  0.7818609E-02  0.8373917E-01
        2   -1    0    0  501    0  0.00000000000E+00  0.00000000000E+00  0.13274618812E+04  0.13274618812E+04  0.25500000920E-02 0. -1.
       -2   -1    0    0    0  501  0.00000000000E+00  0.00000000000E+00 -0.12567452631E+04  0.12567452631E+04  0.25500000920E-02 0.  1.
    10030    2    1    2    0    0  0.00000000000E+00  0.00000000000E+00  0.70716618111E+02  0.25842071443E+04  0.25832393858E+04 0.  0.
        5    1    3    3  502    0  0.92861755040E+03 -0.43926189035E+03 -0.74786397318E+03  0.12706707581E+04  0.46999998093E+01 0.  1.
       -5    1    3    3    0  502 -0.92861755040E+03  0.43926189035E+03  0.81858059129E+03  0.13135363861E+04  0.46999998093E+01 0. -1.
</event>
<event>
 5   0  0.7138294E-06  0.2570400E+04  0.7818609E-02  0.8378326E-01
       -1   -1    0    0    0  501  0.00000000000E+00  0.00000000000E+00  0.95075778072E+03  0.95075778073E+03  0.50400001928E-02 0. -1.
        1   -1    0    0  501    0  0.00000000000E+00  0.00000000000E+00 -0.17372863293E+04  0.17372863293E+04  0.50400001928E-02 0.  1.
    10030    2    1    2    0    0  0.00000000000E+00  0.00000000000E+00 -0.78652854860E+03  0.26880441101E+04  0.25703995759E+04 0.  0.
        2    1    3    3  502    0  0.10596671959E+04  0.53529666558E+03  0.12150630734E+03  0.11933988726E+04  0.25500000920E-02 0. -1.
       -2    1    3    3    0  502 -0.10596671959E+04 -0.53529666558E+03 -0.90803485594E+03  0.14946452375E+04  0.25500000920E-02 0.  1.
</event>
<event>
 5   0  0.1702345E-05  0.3030262E+04  0.7818609E-02  0.8235142E-01
       -2   -1    0    0    0  501  0.00000000000E+00  0.00000000000E+00  0.18474233103E+04  0.18474233103E+04  0.25500000920E-02 0. -1.
        2   -1    0    0  501    0  0.00000000000E+00  0.00000000000E+00 -0.12426075981E+04  0.12426075981E+04  0.25500000920E-02 0.  1.
    10030    2    1    2    0    0  0.00000000000E+00  0.00000000000E+00  0.60481571222E+03  0.30900309084E+04  0.30302621947E+04 0.  0.
        1    1    3    3  502    0  0.66250425684E+02  0.58449263313E+03  0.17262293325E+04  0.18237018576E+04  0.50400001928E-02 0. -1.
       -1    1    3    3    0  502 -0.66250425684E+02 -0.58449263313E+03 -0.11214136203E+04  0.12663290508E+04  0.50400001928E-02 0.  1.
</event>
<event>
 5   0  0.6706225E-06  0.2598898E+04  0.7818609E-02  0.8368576E-01
        1   -1    0    0  501    0  0.00000000000E+00  0.00000000000E+00  0.18841634609E+04  0.18841634609E+04  0.50400001928E-02 0.  1.
       -1   -1    0    0    0  501  0.00000000000E+00  0.00000000000E+00 -0.89618968826E+03  0.89618968827E+03  0.50400001928E-02 0. -1.
    10030    2    1    2    0    0  0.00000000000E+00  0.00000000000E+00  0.98797377264E+03  0.27803531492E+04  0.25988981240E+04 0.  0.
        5    1    3    3  502    0 -0.34853860430E+03 -0.12011845149E+03 -0.83906126195E+03  0.91648976666E+03  0.46999998093E+01 0. -1.
       -5    1    3    3    0  502  0.34853860430E+03  0.12011845149E+03  0.18270350346E+04  0.18638633825E+04  0.46999998093E+01 0.  1.
</event>
<event>
 5   0  0.7138294E-06  0.2755098E+04  0.7818609E-02  0.8317346E-01
        1   -1    0    0  501    0  0.00000000000E+00  0.00000000000E+00  0.10515143871E+04  0.10515143871E+04  0.50400001928E-02 0.  1.
       -1   -1    0    0    0  501  0.00000000000E+00  0.00000000000E+00 -0.18046740505E+04  0.18046740505E+04  0.50400001928E-02 0. -1.
    10030    2    1    2    0    0  0.00000000000E+00  0.00000000000E+00 -0.75315966344E+03  0.28561884376E+04  0.27550976230E+04 0.  0.
        2    1    3    3  502    0  0.49784344834E+03  0.25702353049E+03  0.92806003881E+03  0.10840685541E+04  0.25500000920E-02 0.  1.
       -2    1    3    3    0  502 -0.49784344834E+03 -0.25702353049E+03 -0.16812197022E+04  0.17721198835E+04  0.25500000920E-02 0. -1.
</event>
<event>
 5   0  0.1681731E-05  0.2575752E+04  0.7818609E-02  0.8376484E-01
        2   -1    0    0  501    0  0.00000000000E+00  0.00000000000E+00  0.18739016977E+04  0.18739016977E+04  0.25500000920E-02 0. -1.
       -2   -1    0    0    0  501  0.00000000000E+00  0.00000000000E+00 -0.88511850710E+03  0.88511850710E+03  0.25500000920E-02 0.  1.
    10030    2    1    2    0    0  0.00000000000E+00  0.00000000000E+00  0.98878319064E+03  0.27590202048E+04  0.25757523741E+04 0.  0.
        2    1    3    3  502    0  0.10580803578E+04  0.58588775691E+03  0.96840058277E+03  0.15493863933E+04  0.25500000920E-02 0.  1.
       -2    1    3    3    0  502 -0.10580803578E+04 -0.58588775691E+03  0.20382607871E+02  0.12096338115E+04  0.25500000920E-02 0. -1.
</event>
<event>
 5   0  0.1681731E-05  0.2651986E+04  0.7818609E-02  0.8350754E-01
        2   -1    0    0  501    0  0.00000000000E+00  0.00000000000E+00  0.16702588034E+04  0.16702588034E+04  0.25500000920E-02 0.  1.
       -2   -1    0    0    0  501  0.00000000000E+00  0.00000000000E+00 -0.10526857962E+04  0.10526857962E+04  0.25500000920E-02 0. -1.
    10030    2    1    2    0    0  0.00000000000E+00  0.00000000000E+00  0.61757300719E+03  0.27229445996E+04  0.26519862129E+04 0.  0.
        2    1    3    3  502    0  0.42269843546E+03  0.12231931360E+04  0.12300301817E+02  0.12942282305E+04  0.25500000920E-02 0. -1.
       -2    1    3    3    0  502 -0.42269843546E+03 -0.12231931360E+04  0.60527270537E+03  0.14287163690E+04  0.25500000920E-02 0.  1.
</event>
<event>
 5   0  0.1677971E-05  0.2591956E+04  0.7818609E-02  0.8370939E-01
        2   -1    0    0  501    0  0.00000000000E+00  0.00000000000E+00  0.20871440326E+04  0.20871440326E+04  0.25500000920E-02 0. -1.
       -2   -1    0    0    0  501  0.00000000000E+00  0.00000000000E+00 -0.80471640350E+03  0.80471640350E+03  0.25500000920E-02 0.  1.
    10030    2    1    2    0    0  0.00000000000E+00  0.00000000000E+00  0.12824276291E+04  0.28918604361E+04  0.25919560486E+04 0.  0.
        4    1    3    3  502    0 -0.56798758005E+03 -0.52567282966E+03 -0.51859209005E+03  0.93160140816E+03  0.12699999809E+01 0.  1.
       -4    1    3    3    0  502  0.56798758005E+03  0.52567282966E+03  0.18010197191E+04  0.19602590279E+04  0.12699999809E+01 0. -1.
</event>
<event>
 5   0  0.1681731E-05  0.2609122E+04  0.7818609E-02  0.8365109E-01
        2   -1    0    0  501    0  0.00000000000E+00  0.00000000000E+00  0.13017391908E+04  0.13017391908E+04  0.25500000920E-02 0.  1.
       -2   -1    0    0    0  501  0.00000000000E+00  0.00000000000E+00 -0.13073887976E+04  0.13073887976E+04  0.25500000920E-02 0. -1.
    10030    2    1    2    0    0  0.00000000000E+00  0.00000000000E+00 -0.56496068047E+01  0.26091279884E+04  0.26091218717E+04 0.  0.
        2    1    3    3  502    0  0.96443624930E+03  0.81865757385E+03  0.31583207991E+03  0.13038739989E+04  0.25500000920E-02 0.  1.
       -2    1    3    3    0  502 -0.96443624930E+03 -0.81865757385E+03 -0.32148168672E+03  0.13052539895E+04  0.25500000920E-02 0. -1.
</event>
<event>
 5   0  0.1681731E-05  0.2621349E+04  0.7818609E-02  0.8360985E-01
        2   -1    0    0  501    0  0.00000000000E+00  0.00000000000E+00  0.14962041908E+04  0.14962041908E+04  0.25500000920E-02 0.  1.
       -2   -1    0    0    0  501  0.00000000000E+00  0.00000000000E+00 -0.11481507615E+04  0.11481507615E+04  0.25500000920E-02 0. -1.
    10030    2    1    2    0    0  0.00000000000E+00  0.00000000000E+00  0.34805342926E+03  0.26443549523E+04  0.26213492565E+04 0.  0.
        2    1    3    3  502    0 -0.54044682586E+03 -0.11090675386E+04 -0.27229768873E+03  0.12634316792E+04  0.25500000920E-02 0. -1.
       -2    1    3    3    0  502  0.54044682586E+03  0.11090675386E+04  0.62035111799E+03  0.13809232731E+04  0.25500000920E-02 0.  1.
</event>
<event>
 5   0  0.1720129E-05  0.2645027E+04  0.7818609E-02  0.8353065E-01
       -2   -1    0    0    0  501  0.00000000000E+00  0.00000000000E+00  0.12695856517E+04  0.12695856517E+04  0.25500000920E-02 0.  1.
        2   -1    0    0  501    0  0.00000000000E+00  0.00000000000E+00 -0.13776478755E+04  0.13776478755E+04  0.25500000920E-02 0. -1.
    10030    2    1    2    0    0  0.00000000000E+00  0.00000000000E+00 -0.10806222378E+03  0.26472335272E+04  0.26450270137E+04 0.  0.
        3    1    3    3  502    0  0.10954530748E+04  0.52775389243E+03  0.46649924567E+03  0.13023682914E+04  0.10100000352E+00 0.  1.
       -3    1    3    3    0  502 -0.10954530748E+04 -0.52775389243E+03 -0.57456146944E+03  0.13448652358E+04  0.10100000352E+00 0. -1.
</event>
<event>
 5   0  0.6918420E-06  0.2305107E+04  0.7818609E-02  0.8475910E-01
        1   -1    0    0  501    0  0.00000000000E+00  0.00000000000E+00  0.15020376798E+04  0.15020376798E+04  0.50400001928E-02 0.  1.
       -1   -1    0    0    0  501  0.00000000000E+00  0.00000000000E+00 -0.88438483484E+03  0.88438483485E+03  0.50400001928E-02 0. -1.
    10030    2    1    2    0    0  0.00000000000E+00  0.00000000000E+00  0.61765284494E+03  0.23864225146E+04  0.23051068048E+04 0.  0.
        4    1    3    3  502    0 -0.78358066827E+03  0.78027709767E+03  0.64516652715E+03  0.12802626580E+04  0.12699999809E+01 0.  1.
       -4    1    3    3    0  502  0.78358066827E+03 -0.78027709767E+03 -0.27513682203E+02  0.11061598566E+04  0.12699999809E+01 0. -1.
</event>
<event>
 5   0  0.6993678E-06  0.2587948E+04  0.7818609E-02  0.8372307E-01
       -1   -1    0    0    0  501  0.00000000000E+00  0.00000000000E+00  0.57518399372E+03  0.57518399374E+03  0.50400001928E-02 0.  1.
        1   -1    0    0  501    0  0.00000000000E+00  0.00000000000E+00 -0.29110133071E+04  0.29110133071E+04  0.50400001928E-02 0. -1.
    10030    2    1    2    0    0  0.00000000000E+00  0.00000000000E+00 -0.23358293134E+04  0.34861973008E+04  0.25879476500E+04 0.  0.
        1    1    3    3  502    0 -0.17757648437E+03 -0.26124588070E+02 -0.28941627003E+04  0.28997230278E+04  0.50400001928E-02 0. -1.
       -1    1    3    3    0  502  0.17757648437E+03  0.26124588070E+02  0.55833338696E+03  0.58647427303E+03  0.50400001928E-02 0.  1.
</event>
<event>
 5   0  0.6984287E-06  0.2731690E+04  0.7818609E-02  0.8324795E-01
       -1   -1    0    0    0  501  0.00000000000E+00  0.00000000000E+00  0.77962281289E+03  0.77962281291E+03  0.50400001928E-02 0.  1.
        1   -1    0    0  501    0  0.00000000000E+00  0.00000000000E+00 -0.23928652322E+04  0.23928652322E+04  0.50400001928E-02 0. -1.
    10030    2    1    2    0    0  0.00000000000E+00  0.00000000000E+00 -0.16132424193E+04  0.31724880452E+04  0.27316898237E+04 0.  0.
        3    1    3    3  502    0 -0.23796844120E+03  0.11938764574E+04 -0.87360084110E+02  0.12204924289E+04  0.10100000352E+00 0.  1.
       -3    1    3    3    0  502  0.23796844120E+03 -0.11938764574E+04 -0.15258823352E+04  0.19519956162E+04  0.10100000352E+00 0. -1.
</event>
<event>
 5   0  0.7138294E-06  0.2607275E+04  0.7818609E-02  0.8365734E-01
        1   -1    0    0  501    0  0.00000000000E+00  0.00000000000E+00  0.16674075146E+04  0.16674075146E+04  0.50400001928E-02 0. -1.
       -1   -1    0    0    0  501  0.00000000000E+00  0.00000000000E+00 -0.10192296422E+04  0.10192296422E+04  0.50400001928E-02 0.  1.
    10030    2    1    2    0    0  0.00000000000E+00  0.00000000000E+00  0.64817787243E+03  0.26866371568E+04  0.26072753322E+04 0.  0.
        2    1    3    3  502    0 -0.24207964780E+02  0.86143223566E+03  0.13320346961E+04  0.15864954944E+04  0.25500000920E-02 0. -1.
       -2    1    3    3    0  502  0.24207964780E+02 -0.86143223566E+03 -0.68385682363E+03  0.11001416624E+04  0.25500000920E-02 0.  1.
</event>
<event>
 5   0  0.6984287E-06  0.2599215E+04  0.7818609E-02  0.8368468E-01
       -1   -1    0    0    0  501  0.00000000000E+00  0.00000000000E+00  0.13770531955E+04  0.13770531955E+04  0.50400001928E-02 0. -1.
        1   -1    0    0  501    0  0.00000000000E+00  0.00000000000E+00 -0.12265171118E+04  0.12265171118E+04  0.50400001928E-02 0.  1.
    10030    2    1    2    0    0  0.00000000000E+00  0.00000000000E+00  0.15053608369E+03  0.26035703073E+04  0.25992147339E+04 0.  0.
        3    1    3    3  502    0  0.10796854126E+04 -0.69226656299E+03 -0.13490661708E+03  0.12896330447E+04  0.10100000352E+00 0. -1.
       -3    1    3    3    0  502 -0.10796854126E+04  0.69226656299E+03  0.28544270078E+03  0.13139372626E+04  0.10100000352E+00 0.  1.
</event>
<event>
 5   0  0.1677971E-05  0.2643326E+04  0.7818609E-02  0.8353632E-01
       -2   -1    0    0    0  501  0.00000000000E+00  0.00000000000E+00  0.11056624263E+04  0.11056624263E+04  0.25500000920E-02 0.  1.
        2   -1    0    0  501    0  0.00000000000E+00  0.00000000000E+00 -0.15798609644E+04  0.15798609644E+04  0.25500000920E-02 0. -1.
    10030    2    1    2    0    0  0.00000000000E+00  0.00000000000E+00 -0.47419853814E+03  0.26855233907E+04  0.26433258649E+04 0.  0.
        4    1    3    3  502    0 -0.10609424523E+04  0.77568921091E+03 -0.95232537265E+02  0.13177114585E+04  0.12699999809E+01 0.  1.
       -4    1    3    3    0  502  0.10609424523E+04 -0.77568921091E+03 -0.37896600087E+03  0.13678119321E+04  0.12699999809E+01 0. -1.
</event>
<event>
 5   0  0.1677971E-05  0.2561672E+04  0.7818609E-02  0.8381338E-01
       -2   -1    0    0    0  501  0.00000000000E+00  0.00000000000E+00  0.74444987568E+03  0.74444987568E+03  0.25500000920E-02 0.  1.
        2   -1    0    0  501    0  0.00000000000E+00  0.00000000000E+00 -0.22036956460E+04  0.22036956460E+04  0.25500000920E-02 0. -1.
    10030    2    1    2    0    0  0.00000000000E+00  0.00000000000E+00 -0.14592457703E+04  0.29481455217E+04  0.25616720709E+04 0.  0.
        4    1    3    3  502    0 -0.51838477221E+03 -0.82674701453E+03  0.22518531827E+03  0.10014706379E+04  0.12699999809E+01 0.  1.
       -4    1    3    3    0  502  0.51838477221E+03  0.82674701453E+03 -0.16844310886E+04  0.19466748838E+04  0.12699999809E+01 0. -1.
</event>
<event>
 5   0  0.1681731E-05  0.2609186E+04  0.7818609E-02  0.8365088E-01
        2   -1    0    0  501    0  0.00000000000E+00  0.00000000000E+00  0.17986588799E+04  0.17986588799E+04  0.25500000920E-02 0.  1.
       -2   -1    0    0    0  501  0.00000000000E+00  0.00000000000E+00 -0.94623970079E+03  0.94623970079E+03  0.25500000920E-02 0. -1.
    10030    2    1    2    0    0  0.00000000000E+00  0.00000000000E+00  0.85241917908E+03  0.27448985807E+04  0.26091856510E+04 0.  0.
        2    1    3    3  502    0  0.45891736038E+03  0.38291286691E+03 -0.79373380762E+03  0.99359990171E+03  0.25500000920E-02 0. -1.
       -2    1    3    3    0  502 -0.45891736038E+03 -0.38291286691E+03  0.16461529867E+04  0.17512986790E+04  0.25500000920E-02 0.  1.
</event>
<event>
 5   0  0.5840500E-06  0.2597129E+04  0.7818609E-02  0.8369177E-01
        3   -1    0    0  501    0  0.00000000000E+00  0.00000000000E+00  0.18690217182E+04  0.18690217209E+04  0.10100000352E+00 0.  1.
       -3   -1    0    0    0  501  0.00000000000E+00  0.00000000000E+00 -0.90222056051E+03  0.90222056616E+03  0.10100000352E+00 0. -1.
    10030    2    1    2    0    0  0.00000000000E+00  0.00000000000E+00  0.96680115765E+03  0.27712422871E+04  0.25971290563E+04 0.  0.
        4    1    3    3  502    0 -0.50265654725E+03 -0.51718401292E+03 -0.66886762424E+03  0.98363022492E+03  0.12699999809E+01 0. -1.
       -4    1    3    3    0  502  0.50265654725E+03  0.51718401292E+03  0.16356687819E+04  0.17876120621E+04  0.12699999809E+01 0.  1.
</event>
<event>
 5   0  0.6918420E-06  0.2501747E+04  0.7818609E-02  0.8402363E-01
        1   -1    0    0  501    0  0.00000000000E+00  0.00000000000E+00  0.16069593149E+04  0.16069593150E+04  0.50400001928E-02 0.  1.
       -1   -1    0    0    0  501  0.00000000000E+00  0.00000000000E+00 -0.97369293032E+03  0.97369293033E+03  0.50400001928E-02 0. -1.
    10030    2    1    2    0    0  0.00000000000E+00  0.00000000000E+00  0.63326638463E+03  0.25806522453E+04  0.25017473288E+04 0.  0.
        4    1    3    3  502    0 -0.10106334754E+04  0.30749280646E+03  0.10076505867E+04  0.14598949159E+04  0.12699999809E+01 0.  1.
       -4    1    3    3    0  502  0.10106334754E+04 -0.30749280646E+03 -0.37438420208E+03  0.11207573294E+04  0.12699999809E+01 0. -1.
</event>
<event>
 5   0  0.6984287E-06  0.2618119E+04  0.7818609E-02  0.8362073E-01
       -1   -1    0    0    0  501  0.00000000000E+00  0.00000000000E+00  0.82277246976E+03  0.82277246977E+03  0.50400001928E-02 0.  1.
        1   -1    0    0  501    0  0.00000000000E+00  0.00000000000E+00 -0.20827583120E+04  0.20827583120E+04  0.50400001928E-02 0. -1.
    10030    2    1    2    0    0  0.00000000000E+00  0.00000000000E+00 -0.12599858423E+04  0.29055307818E+04  0.26181185614E+04 0.  0.
        3    1    3    3  502    0  0.56172869152E+03  0.11501395976E+04 -0.93447684003E+03  0.15848050958E+04  0.10100000352E+00 0. -1.
       -3    1    3    3    0  502 -0.56172869152E+03 -0.11501395976E+04 -0.32550900225E+03  0.13207256860E+04  0.10100000352E+00 0.  1.
</event>
<event>
 5   0  0.6918420E-06  0.2595575E+04  0.7818609E-02  0.8369706E-01
        1   -1    0    0  501    0  0.00000000000E+00  0.00000000000E+00  0.16075149598E+04  0.16075149598E+04  0.50400001928E-02 0.  1.
       -1   -1    0    0    0  501  0.00000000000E+00  0.00000000000E+00 -0.10477365866E+04  0.10477365866E+04  0.50400001928E-02 0. -1.
    10030    2    1    2    0    0  0.00000000000E+00  0.00000000000E+00  0.55977837315E+03  0.26552515464E+04  0.25955748780E+04 0.  0.
        4    1    3    3  502    0  0.91713148554E+03  0.32088385609E+03 -0.60021311652E+03  0.11420831883E+04  0.12699999809E+01 0. -1.
       -4    1    3    3    0  502 -0.91713148554E+03 -0.32088385609E+03  0.11599914897E+04  0.15131683581E+04  0.12699999809E+01 0.  1.
</event>
<event>
 5   0  0.6918420E-06  0.2593860E+04  0.7818609E-02  0.8370290E-01
        1   -1    0    0  501    0  0.00000000000E+00  0.00000000000E+00  0.18034208489E+04  0.18034208489E+04  0.50400001928E-02 0.  1.
       -1   -1    0    0    0  501  0.00000000000E+00  0.00000000000E+00 -0.93268735722E+03  0.93268735723E+03  0.50400001928E-02 0. -1.
    10030    2    1    2    0    0  0.00000000000E+00  0.00000000000E+00  0.87073349172E+03  0.27361082062E+04  0.25938603089E+04 0.  0.
        4    1    3    3  502    0  0.11405238612E+04 -0.36843107265E+03  0.95800796491E+03  0.15343783780E+04  0.12699999809E+01 0.  1.
       -4    1    3    3    0  502 -0.11405238612E+04  0.36843107265E+03 -0.87274473191E+02  0.12017298281E+04  0.12699999809E+01 0. -1.
</event>
<event>
 5   0  0.1702345E-05  0.2303071E+04  0.7818609E-02  0.8476711E-01
       -2   -1    0    0    0  501  0.00000000000E+00  0.00000000000E+00  0.69518048276E+03  0.69518048276E+03  0.25500000920E-02 0.  1.
        2   -1    0    0  501    0  0.00000000000E+00  0.00000000000E+00 -0.19074666992E+04  0.19074666992E+04  0.25500000920E-02 0. -1.
    10030    2    1    2    0    0  0.00000000000E+00  0.00000000000E+00 -0.12122862165E+04  0.26026471820E+04  0.23030706640E+04 0.  0.
        1    1    3    3  502    0  0.84592268239E+03  0.58834904882E+02  0.27429268653E+03  0.89122567766E+03  0.50400001928E-02 0.  1.
       -1    1    3    3    0  502 -0.84592268239E+03 -0.58834904882E+02 -0.14865789030E+04  0.17114215043E+04  0.50400001928E-02 0. -1.
</event>
<event>
 5   0  0.1681731E-05  0.2576337E+04  0.7818609E-02  0.8376284E-01
        2   -1    0    0  501    0  0.00000000000E+00  0.00000000000E+00  0.12549829991E+04  0.12549829991E+04  0.25500000920E-02 0.  1.
       -2   -1    0    0    0  501  0.00000000000E+00  0.00000000000E+00 -0.13222312523E+04  0.13222312523E+04  0.25500000920E-02 0. -1.
    10030    2    1    2    0    0  0.00000000000E+00  0.00000000000E+00 -0.67248253260E+02  0.25772142514E+04  0.25763367346E+04 0.  0.
        2    1    3    3  502    0 -0.12364390776E+04  0.35926326369E+03 -0.72702215127E+02  0.12896268055E+04  0.25500000920E-02 0.  1.
       -2    1    3    3    0  502  0.12364390776E+04 -0.35926326369E+03  0.54539618663E+01  0.12875874460E+04  0.25500000920E-02 0. -1.
</event>
<event>
 5   0  0.1720129E-05  0.2594426E+04  0.7818609E-02  0.8370097E-01
        2   -1    0    0  501    0  0.00000000000E+00  0.00000000000E+00  0.16778700831E+04  0.16778700831E+04  0.25500000920E-02 0.  1.
       -2   -1    0    0    0  501  0.00000000000E+00  0.00000000000E+00 -0.10029149790E+04  0.10029149790E+04  0.25500000920E-02 0. -1.
    10030    2    1    2    0    0  0.00000000000E+00  0.00000000000E+00  0.67495510416E+03  0.26807850621E+04  0.25944255928E+04 0.  0.
        3    1    3    3  502    0  0.33851863635E+03  0.23679816137E+03  0.16080809041E+04  0.16602989010E+04  0.10100000352E+00 0.  1.
       -3    1    3    3    0  502 -0.33851863635E+03 -0.23679816137E+03 -0.93312579991E+03  0.10204861611E+04  0.10100000352E+00 0. -1.
</event>
<event>
 5   0  0.1869956E-05  0.2634640E+04  0.7818609E-02  0.8356529E-01
        2   -1    0    0  501    0  0.00000000000E+00  0.00000000000E+00  0.10174585414E+04  0.10174585414E+04  0.25500000920E-02 0. -1.
       -2   -1    0    0    0  501  0.00000000000E+00  0.00000000000E+00 -0.17055549935E+04  0.17055549935E+04  0.25500000920E-02 0.  1.
    10030    2    1    2    0    0  0.00000000000E+00  0.00000000000E+00 -0.68809645211E+03  0.27230135350E+04  0.26346396308E+04 0.  0.
        5    1    3    3  502    0  0.10258253947E+04 -0.66725928415E+02 -0.11954138062E+04  0.15766440144E+04  0.46999998093E+01 0.  1.
       -5    1    3    3    0  502 -0.10258253947E+04  0.66725928415E+02  0.50731735410E+03  0.11463695206E+04  0.46999998093E+01 0. -1.
</event>
<event>
 5   0  0.6706225E-06  0.2616210E+04  0.7818609E-02  0.8362716E-01
        1   -1    0    0  501    0  0.00000000000E+00  0.00000000000E+00  0.16975747939E+04  0.16975747940E+04  0.50400001928E-02 0.  1.
       -1   -1    0    0    0  501  0.00000000000E+00  0.00000000000E+00 -0.10079903858E+04  0.10079903858E+04  0.50400001928E-02 0. -1.
    10030    2    1    2    0    0  0.00000000000E+00  0.00000000000E+00  0.68958440817E+03  0.27055651797E+04  0.26162102908E+04 0.  0.
        5    1    3    3  502    0 -0.65161067000E+03 -0.11056471972E+04  0.60654724854E+03  0.14194977438E+04  0.46999998093E+01 0.  1.
       -5    1    3    3    0  502  0.65161067000E+03  0.11056471972E+04  0.83037159635E+02  0.12860674359E+04  0.46999998093E+01 0. -1.
</event>
<event>
 5   0  0.7138294E-06  0.2590998E+04  0.7818609E-02  0.8371265E-01
        1   -1    0    0  501    0  0.00000000000E+00  0.00000000000E+00  0.20042231236E+04  0.20042231236E+04  0.50400001928E-02 0. -1.
       -1   -1    0    0    0  501  0.00000000000E+00  0.00000000000E+00 -0.83739068731E+03  0.83739068732E+03  0.50400001928E-02 0.  1.
    10030    2    1    2    0    0  0.00000000000E+00  0.00000000000E+00  0.11668324363E+04  0.28416138109E+04  0.25909980927E+04 0.  0.
        2    1    3    3  502    0 -0.88459707521E+03 -0.79710716258E+03  0.11430966238E+04  0.16506246410E+04  0.25500000920E-02 0. -1.
       -2    1    3    3    0  502  0.88459707521E+03  0.79710716258E+03  0.23735812484E+02  0.11909891699E+04  0.25500000920E-02 0.  1.
</event>
<event>
 5   0  0.6706225E-06  0.2602794E+04  0.7818609E-02  0.8367253E-01
       -1   -1    0    0    0  501  0.00000000000E+00  0.00000000000E+00  0.10469827320E+04  0.10469827320E+04  0.50400001928E-02 0. -1.
        1   -1    0    0  501    0  0.00000000000E+00  0.00000000000E+00 -0.16176327951E+04  0.16176327951E+04  0.50400001928E-02 0.  1.
    10030    2    1    2    0    0  0.00000000000E+00  0.00000000000E+00 -0.57065006308E+03  0.26646155271E+04  0.26027935786E+04 0.  0.
        5    1    3    3  502    0 -0.31478597127E+03 -0.11681494982E+04 -0.77624387039E+03  0.14374422055E+04  0.46999998093E+01 0.  1.
       -5    1    3    3    0  502  0.31478597127E+03  0.11681494982E+04  0.20559380731E+03  0.12271733217E+04  0.46999998093E+01 0. -1.
</event>
<event>
 5   0  0.1681731E-05  0.2414837E+04  0.7818609E-02  0.8433970E-01
       -2   -1    0    0    0  501  0.00000000000E+00  0.00000000000E+00  0.51751815955E+03  0.51751815956E+03  0.25500000920E-02 0.  1.
        2   -1    0    0  501    0  0.00000000000E+00  0.00000000000E+00 -0.28170213045E+04  0.28170213045E+04  0.25500000920E-02 0. -1.
    10030    2    1    2    0    0  0.00000000000E+00  0.00000000000E+00 -0.22995031449E+04  0.33345394640E+04  0.24148372044E+04 0.  0.
        2    1    3    3  502    0 -0.73923523987E+03 -0.74180726520E+03 -0.31995904737E+03  0.10950436295E+04  0.25500000920E-02 0.  1.
       -2    1    3    3    0  502  0.73923523987E+03  0.74180726520E+03 -0.19795440976E+04  0.22394958345E+04  0.25500000920E-02 0. -1.
</event>
<event>
 5   0  0.1702345E-05  0.2601707E+04  0.7818609E-02  0.8367622E-01
       -2   -1    0    0    0  501  0.00000000000E+00  0.00000000000E+00  0.96549326196E+03  0.96549326196E+03  0.25500000920E-02 0. -1.
        2   -1    0    0  501    0  0.00000000000E+00  0.00000000000E+00 -0.17526995283E+04  0.17526995283E+04  0.25500000920E-02 0.  1.
    10030    2    1    2    0    0  0.00000000000E+00  0.00000000000E+00 -0.78720626631E+03  0.27181927902E+04  0.26017068127E+04 0.  0.
        1    1    3    3  502    0 -0.16003480637E+03 -0.73189244727E+03 -0.15046747352E+04  0.16808699391E+04  0.50400001928E-02 0.  1.
       -1    1    3    3    0  502  0.16003480637E+03  0.73189244727E+03  0.71746846885E+03  0.10373228511E+04  0.50400001928E-02 0. -1.
</event>
<event>
 5   0  0.1702345E-05  0.2606099E+04  0.7818609E-02  0.8366133E-01
       -2   -1    0    0    0  501  0.00000000000E+00  0.00000000000E+00  0.13325440627E+04  0.13325440628E+04  0.25500000920E-02 0.  1.
        2   -1    0    0  501    0  0.00000000000E+00  0.00000000000E+00 -0.12742076572E+04  0.12742076572E+04  0.25500000920E-02 0. -1.
    10030    2    1    2    0    0  0.00000000000E+00  0.00000000000E+00  0.58336405582E+02  0.26067517199E+04  0.26060988840E+04 0.  0.
        1    1    3    3  502    0 -0.58266064182E+03 -0.28485058970E+03  0.11596303136E+04  0.13286744320E+04  0.50400001928E-02 0.  1.
       -1    1    3    3    0  502  0.58266064182E+03  0.28485058970E+03 -0.11012939080E+04  0.12780772879E+04  0.50400001928E-02 0. -1.
</event>
<event>
 5   0  0.1720129E-05  0.2585536E+04  0.7818609E-02  0.8373131E-01
        2   -1    0    0  501    0  0.00000000000E+00  0.00000000000E+00  0.16165372468E+04  0.16165372468E+04  0.25500000920E-02 0. -1.
       -2   -1    0    0    0  501  0.00000000000E+00  0.00000000000E+00 -0.10338447288E+04  0.10338447288E+04  0.25500000920E-02 0.  1.
    10030    2    1    2    0    0  0.00000000000E+00  0.00000000000E+00  0.58269251801E+03  0.26503819756E+04  0.25855355433E+04 0.  0.
        3    1    3    3  502    0  0.19018583454E+03  0.16680980435E+03  0.15909171953E+04  0.16109046201E+04  0.10100000352E+00 0. -1.
       -3    1    3    3    0  502 -0.19018583454E+03 -0.16680980435E+03 -0.10082246773E+04  0.10394773555E+04  0.10100000352E+00 0.  1.
</event>
<event>
 5   0  0.6918420E-06  0.2097599E+04  0.7818609E-02  0.8562302E-01
        1   -1    0    0  501    0  0.00000000000E+00  0.00000000000E+00  0.11831543977E+04  0.11831543977E+04  0.50400001928E-02 0.  1.
       -1   -1    0    0    0  501  0.00000000000E+00  0.00000000000E+00 -0.92970150340E+03  0.92970150341E+03  0.50400001928E-02 0. -1.
    10030    2    1    2    0    0  0.00000000000E+00  0.00000000000E+00  0.25345289431E+03  0.21128559011E+04  0.20975990297E+04 0.  0.
        4    1    3    3  502    0 -0.56097266809E+03 -0.23740153830E+03 -0.73325684756E+03  0.95326651159E+03  0.12699999809E+01 0. -1.
       -4    1    3    3    0  502  0.56097266809E+03  0.23740153830E+03  0.98670974187E+03  0.11595893895E+04  0.12699999809E+01 0.  1.
</event>
<event>
 5   0  0.1702345E-05  0.2624720E+04  0.7818609E-02  0.8359853E-01
        2   -1    0    0  501    0  0.00000000000E+00  0.00000000000E+00  0.15610465277E+04  0.15610465277E+04  0.25500000920E-02 0.  1.
       -2   -1    0    0    0  501  0.00000000000E+00  0.00000000000E+00 -0.11032910823E+04  0.11032910823E+04  0.25500000920E-02 0. -1.
    10030    2    1    2    0    0  0.00000000000E+00  0.00000000000E+00  0.45775544538E+03  0.26643376100E+04  0.26247199570E+04 0.  0.
        1    1    3    3  502    0 -0.12903391237E+04 -0.66769300785E+01  0.47179945860E+03  0.13739047874E+04  0.50400001928E-02 0.  1.
       -1    1    3    3    0  502  0.12903391237E+04  0.66769300785E+01 -0.14044013215E+02  0.12904328227E+04  0.50400001928E-02 0. -1.
</event>
<event>
 5   0  0.7138294E-06  0.2561925E+04  0.7818609E-02  0.8381251E-01
       -1   -1    0    0    0  501  0.00000000000E+00  0.00000000000E+00  0.19710038394E+04  0.19710038394E+04  0.50400001928E-02 0. -1.
        1   -1    0    0  501    0  0.00000000000E+00  0.00000000000E+00 -0.83250202846E+03  0.83250202848E+03  0.50400001928E-02 0.  1.
    10030    2    1    2    0    0  0.00000000000E+00  0.00000000000E+00  0.11385018110E+04  0.28035058679E+04  0.25619248189E+04 0.  0.
        2    1    3    3  502    0  0.68870049780E+03  0.41939807906E+03 -0.51992430052E+03  0.95943962950E+03  0.25500000920E-02 0.  1.
       -2    1    3    3    0  502 -0.68870049780E+03 -0.41939807906E+03  0.16584261115E+04  0.18440662384E+04  0.25500000920E-02 0. -1.
</event>
<event>
 5   0  0.1869956E-05  0.2615002E+04  0.7818609E-02  0.8363123E-01
        2   -1    0    0  501    0  0.00000000000E+00  0.00000000000E+00  0.30999947605E+04  0.30999947605E+04  0.25500000920E-02 0.  1.
       -2   -1    0    0    0  501  0.00000000000E+00  0.00000000000E+00 -0.55147157165E+03  0.55147157165E+03  0.25500000920E-02 0. -1.
    10030    2    1    2    0    0  0.00000000000E+00  0.00000000000E+00  0.25485231889E+04  0.36514663322E+04  0.26150020900E+04 0.  0.
        5    1    3    3  502    0 -0.14744090185E+02 -0.65050143907E+03  0.28578561723E+04  0.29309953091E+04  0.46999998093E+01 0.  1.
       -5    1    3    3    0  502  0.14744090185E+02  0.65050143907E+03 -0.30933298343E+03  0.72047102306E+03  0.46999998093E+01 0. -1.
</event>
<event>
 5   0  0.1720129E-05  0.2454246E+04  0.7818609E-02  0.8419470E-01
        2   -1    0    0  501    0  0.00000000000E+00  0.00000000000E+00  0.23997142254E+04  0.23997142254E+04  0.25500000920E-02 0.  1.
       -2   -1    0    0    0  501  0.00000000000E+00  0.00000000000E+00 -0.62750399767E+03  0.62750399768E+03  0.25500000920E-02 0. -1.
    10030    2    1    2    0    0  0.00000000000E+00  0.00000000000E+00  0.17722102277E+04  0.30272182231E+04  0.24542455213E+04 0.  0.
        3    1    3    3  502    0  0.10737100819E+04  0.58150819363E+03  0.73592060880E+03  0.14256872981E+04  0.10100000352E+00 0. -1.
       -3    1    3    3    0  502 -0.10737100819E+04 -0.58150819363E+03  0.10362896189E+04  0.16015309250E+04  0.10100000352E+00 0.  1.
</event>
<event>
 5   0  0.7138294E-06  0.2581873E+04  0.7818609E-02  0.8374385E-01
       -1   -1    0    0    0  501  0.00000000000E+00  0.00000000000E+00  0.76129490555E+03  0.76129490556E+03  0.50400001928E-02 0.  1.
        1   -1    0    0  501    0  0.00000000000E+00  0.00000000000E+00 -0.21890565755E+04  0.21890565755E+04  0.50400001928E-02 0. -1.
    10030    2    1    2    0    0  0.00000000000E+00  0.00000000000E+00 -0.14277616700E+04  0.29503514811E+04  0.25818734430E+04 0.  0.
        2    1    3    3  502    0 -0.44111834002E+03 -0.12081621488E+04 -0.58726872968E+03  0.14139044269E+04  0.25500000920E-02 0. -1.
       -2    1    3    3    0  502  0.44111834002E+03  0.12081621488E+04 -0.84049294030E+03  0.15364470542E+04  0.25500000920E-02 0.  1.
</event>
<event>
 5   0  0.7138294E-06  0.2307182E+04  0.7818609E-02  0.8475095E-01
        1   -1    0    0  501    0  0.00000000000E+00  0.00000000000E+00  0.79935037442E+03  0.79935037444E+03  0.50400001928E-02 0. -1.
       -1   -1    0    0    0  501  0.00000000000E+00  0.00000000000E+00 -0.16648170390E+04  0.16648170390E+04  0.50400001928E-02 0.  1.
    10030    2    1    2    0    0  0.00000000000E+00  0.00000000000E+00 -0.86546666460E+03  0.24641674135E+04  0.23071819378E+04 0.  0.
        2    1    3    3  502    0 -0.21585093555E+03 -0.21539634823E+03  0.75552524801E+03  0.81474266710E+03  0.25500000920E-02 0. -1.
       -2    1    3    3    0  502  0.21585093555E+03  0.21539634823E+03 -0.16209919126E+04  0.16494247464E+04  0.25500000920E-02 0.  1.
</event>
<event>
 5   0  0.6706225E-06  0.2556622E+04  0.7818609E-02  0.8383087E-01
        1   -1    0    0  501    0  0.00000000000E+00  0.00000000000E+00  0.14853647236E+04  0.14853647236E+04  0.50400001928E-02 0. -1.
       -1   -1    0    0    0  501  0.00000000000E+00  0.00000000000E+00 -0.11001198131E+04  0.11001198131E+04  0.50400001928E-02 0.  1.
    10030    2    1    2    0    0  0.00000000000E+00  0.00000000000E+00  0.38524491054E+03  0.25854845367E+04  0.25566221168E+04 0.  0.
        5    1    3    3  502    0  0.28095150056E+03 -0.12470266040E+04  0.18561783005E+03  0.12916985583E+04  0.46999998093E+01 0.  1.
       -5    1    3    3    0  502 -0.28095150056E+03  0.12470266040E+04  0.19962708049E+03  0.12937859784E+04  0.46999998093E+01 0. -1.
</event>
<event>
 5   0  0.1681731E-05  0.2636736E+04  0.7818609E-02  0.8355829E-01
       -2   -1    0    0    0  501  0.00000000000E+00  0.00000000000E+00  0.13552504629E+04  0.13552504629E+04  0.25500000920E-02 0.  1.
        2   -1    0    0  501    0  0.00000000000E+00  0.00000000000E+00 -0.12824896763E+04  0.12824896763E+04  0.25500000920E-02 0. -1.
    10030    2    1    2    0    0  0.00000000000E+00  0.00000000000E+00  0.72760786594E+02  0.26377401392E+04  0.26367364126E+04 0.  0.
        2    1    3    3  502    0  0.53767586027E+02 -0.11914126925E+04 -0.52574059123E+03  0.13033642340E+04  0.25500000920E-02 0. -1.
       -2    1    3    3    0  502 -0.53767586027E+02  0.11914126925E+04  0.59850137782E+03  0.13343759052E+04  0.25500000920E-02 0.  1.
</event>
<event>
 5   0  0.1681731E-05  0.2597794E+04  0.7818609E-02  0.8368951E-01
       -2   -1    0    0    0  501  0.00000000000E+00  0.00000000000E+00  0.68279345669E+03  0.68279345669E+03  0.25500000920E-02 0. -1.
        2   -1    0    0  501    0  0.00000000000E+00  0.00000000000E+00 -0.24709274755E+04  0.24709274755E+04  0.25500000920E-02 0.  1.
    10030    2    1    2    0    0  0.00000000000E+00  0.00000000000E+00 -0.17881340189E+04  0.31537209322E+04  0.25977937657E+04 0.  0.
        2    1    3    3  502    0 -0.90310464290E+03 -0.11111038857E+03  0.23121945671E+03  0.93883222764E+03  0.25500000920E-02 0. -1.
       -2    1    3    3    0  502  0.90310464290E+03  0.11111038857E+03 -0.20193534756E+04  0.22148887046E+04  0.25500000920E-02 0.  1.
</event>
<event>
 5   0  0.6984287E-06  0.2618652E+04  0.7818609E-02  0.8361893E-01
        1   -1    0    0  501    0  0.00000000000E+00  0.00000000000E+00  0.16004700999E+04  0.16004700999E+04  0.50400001928E-02 0. -1.
       -1   -1    0    0    0  501  0.00000000000E+00  0.00000000000E+00 -0.10711444808E+04  0.10711444808E+04  0.50400001928E-02 0.  1.
    10030    2    1    2    0    0  0.00000000000E+00  0.00000000000E+00  0.52932561906E+03  0.26716145807E+04  0.26186521069E+04 0.  0.
        3    1    3    3  502    0 -0.80804010322E+01  0.11715120558E+04  0.86114900526E+03  0.14539887927E+04  0.10100000352E+00 0. -1.
       -3    1    3    3    0  502  0.80804010322E+01 -0.11715120558E+04 -0.33182338620E+03  0.12176257880E+04  0.10100000352E+00 0.  1.
</event>
<event>
 5   0  0.1677971E-05  0.2589593E+04  0.7818609E-02  0.8371745E-01
       -2   -1    0    0    0  501  0.00000000000E+00  0.00000000000E+00  0.86564528538E+03  0.86564528539E+03  0.25500000920E-02 0.  1.
        2   -1    0    0  501    0  0.00000000000E+00  0.00000000000E+00 -0.19367030917E+04  0.19367030917E+04  0.25500000920E-02 0. -1.
    10030    2    1    2    0    0  0.00000000000E+00  0.00000000000E+00 -0.10710578063E+04  0.28023483771E+04  0.25895929414E+04 0.  0.
        4    1    3    3  502    0  0.11665778987E+04 -0.14549616497E+03  0.51658332355E+02  0.11767511734E+04  0.12699999809E+01 0. -1.
       -4    1    3    3    0  502 -0.11665778987E+04  0.14549616497E+03 -0.11227161387E+04  0.16255972037E+04  0.12699999809E+01 0.  1.
</event>
<event>
 5   0  0.6993678E-06  0.2564116E+04  0.7818609E-02  0.8380493E-01
       -1   -1    0    0    0  501  0.00000000000E+00  0.00000000000E+00  0.16709187894E+04  0.16709187894E+04  0.50400001928E-02 0.  1.
        1   -1    0    0  501    0  0.00000000000E+00  0.00000000000E+00 -0.98369414433E+03  0.98369414434E+03  0.50400001928E-02 0. -1.
    10030    2    1    2    0    0  0.00000000000E+00  0.00000000000E+00  0.68722464506E+03  0.26546129337E+04  0.25641162445E+04 0.  0.
        1    1    3    3  502    0  0.21121096260E+03 -0.12023800293E+04  0.74902621049E+03  0.14322597773E+04  0.50400001928E-02 0. -1.
       -1    1    3    3    0  502 -0.21121096260E+03  0.12023800293E+04 -0.61801565435E+02  0.12223531565E+04  0.50400001928E-02 0.  1.
</event>
<event>
 5   0  0.1681731E-05  0.2602199E+04  0.7818609E-02  0.8367455E-01
        2   -1    0    0  501    0  0.00000000000E+00  0.00000000000E+00  0.11873805267E+04  0.11873805267E+04  0.25500000920E-02 0. -1.
       -2   -1    0    0    0  501  0.00000000000E+00  0.00000000000E+00 -0.14257100596E+04  0.14257100596E+04  0.25500000920E-02 0.  1.
    10030    2    1    2    0    0  0.00000000000E+00  0.00000000000E+00 -0.23832953293E+03  0.26130905863E+04  0.26021993478E+04 0.  0.
        2    1    3    3  502    0  0.89016836672E+03  0.87674726342E+03 -0.48369219376E+03  0.13397923807E+04  0.25500000920E-02 0.  1.
       -2    1    3    3    0  502 -0.89016836672E+03 -0.87674726342E+03  0.24536266083E+03  0.12732982056E+04  0.25500000920E-02 0. -1.
</event>
<event>
 5   0  0.6706225E-06  0.2935369E+04  0.7818609E-02  0.8262431E-01
       -1   -1    0    0    0  501  0.00000000000E+00  0.00000000000E+00  0.73174488392E+03  0.73174488394E+03  0.50400001928E-02 0. -1.
        1   -1    0    0  501    0  0.00000000000E+00  0.00000000000E+00 -0.29437815169E+04  0.29437815170E+04  0.50400001928E-02 0.  1.
    10030    2    1    2    0    0  0.00000000000E+00  0.00000000000E+00 -0.22120366330E+04  0.36755264009E+04  0.29353685046E+04 0.  0.
        5    1    3    3  502    0 -0.49281736080E+03 -0.53502848543E+03  0.49014376751E+03  0.87714732751E+03  0.46999998093E+01 0. -1.
       -5    1    3    3    0  502  0.49281736080E+03  0.53502848543E+03 -0.27021804005E+04  0.27983790734E+04  0.46999998093E+01 0.  1.
</event>
<event>
 5   0  0.1702345E-05  0.2560827E+04  0.7818609E-02  0.8381630E-01
        2   -1    0    0  501    0  0.00000000000E+00  0.00000000000E+00  0.18272344911E+04  0.18272344911E+04  0.25500000920E-02 0.  1.
       -2   -1    0    0    0  501  0.00000000000E+00  0.00000000000E+00 -0.89723511825E+03  0.89723511825E+03  0.25500000920E-02 0. -1.
    10030    2    1    2    0    0  0.00000000000E+00  0.00000000000E+00  0.92999937288E+03  0.27244696094E+04  0.25608271747E+04 0.  0.
        1    1    3    3  502    0  0.32106128303E+03  0.28090523623E+03  0.17494036516E+04  0.18006668863E+04  0.50400001928E-02 0.  1.
       -1    1    3    3    0  502 -0.32106128303E+03 -0.28090523623E+03 -0.81940427870E+03  0.92380272309E+03  0.50400001928E-02 0. -1.
</event>
<event>
 5   0  0.1869956E-05  0.2568581E+04  0.7818609E-02  0.8378952E-01
       -2   -1    0    0    0  501  0.00000000000E+00  0.00000000000E+00  0.12985009274E+04  0.12985009274E+04  0.25500000920E-02 0.  1.
        2   -1    0    0  501    0  0.00000000000E+00  0.00000000000E+00 -0.12702359642E+04  0.12702359642E+04  0.25500000920E-02 0. -1.
    10030    2    1    2    0    0  0.00000000000E+00  0.00000000000E+00  0.28264963248E+02  0.25687368916E+04  0.25685813809E+04 0.  0.
        5    1    3    3  502    0  0.12551665256E+04  0.12330715225E+03  0.25649571903E+03  0.12870352771E+04  0.46999998093E+01 0. -1.
       -5    1    3    3    0  502 -0.12551665256E+04 -0.12330715225E+03 -0.22823075578E+03  0.12817016145E+04  0.46999998093E+01 0.  1.
</event>
<event>
 5   0  0.6993678E-06  0.2591398E+04  0.7818609E-02  0.8371129E-01
        1   -1    0    0  501    0  0.00000000000E+00  0.00000000000E+00  0.22891058236E+04  0.22891058236E+04  0.50400001928E-02 0.  1.
       -1   -1    0    0    0  501  0.00000000000E+00  0.00000000000E+00 -0.73340268502E+03  0.73340268503E+03  0.50400001928E-02 0. -1.
    10030    2    1    2    0    0  0.00000000000E+00  0.00000000000E+00  0.15557031385E+04  0.30225085086E+04  0.25913983540E+04 0.  0.
        1    1    3    3  502    0 -0.10985679364E+04  0.46271301998E+03  0.18554922209E+03  0.12063927071E+04  0.50400001928E-02 0. -1.
       -1    1    3    3    0  502  0.10985679364E+04 -0.46271301998E+03  0.13701539164E+04  0.18161158015E+04  0.50400001928E-02 0.  1.
</event>
<event>
 5   0  0.6918420E-06  0.2333215E+04  0.7818609E-02  0.8464939E-01
       -1   -1    0    0    0  501  0.00000000000E+00  0.00000000000E+00  0.86257887043E+03  0.86257887044E+03  0.50400001928E-02 0. -1.
        1   -1    0    0  501    0  0.00000000000E+00  0.00000000000E+00 -0.15777961732E+04  0.15777961732E+04  0.50400001928E-02 0.  1.
    10030    2    1    2    0    0  0.00000000000E+00  0.00000000000E+00 -0.71521730281E+03  0.24403750437E+04  0.23332154988E+04 0.  0.
        4    1    3    3  502    0  0.62700561461E+03  0.96647695976E+03 -0.54978141518E+03  0.12765089000E+04  0.12699999809E+01 0. -1.
       -4    1    3    3    0  502 -0.62700561461E+03 -0.96647695976E+03 -0.16543588763E+03  0.11638661436E+04  0.12699999809E+01 0.  1.
</event>
<event>
 5   0  0.6918420E-06  0.2594169E+04  0.7818609E-02  0.8370184E-01
       -1   -1    0    0    0  501  0.00000000000E+00  0.00000000000E+00  0.11158948141E+04  0.11158948141E+04  0.50400001928E-02 0.  1.
        1   -1    0    0  501    0  0.00000000000E+00  0.00000000000E+00 -0.15076947401E+04  0.15076947401E+04  0.50400001928E-02 0. -1.
    10030    2    1    2    0    0  0.00000000000E+00  0.00000000000E+00 -0.39179992594E+03  0.26235895542E+04  0.25941694175E+04 0.  0.
        4    1    3    3  502    0  0.19216226431E+03 -0.70968844863E+02  0.10994315721E+04  0.11183533911E+04  0.12699999809E+01 0.  1.
       -4    1    3    3    0  502 -0.19216226431E+03  0.70968844863E+02 -0.14912314981E+04  0.15052361630E+04  0.12699999809E+01 0. -1.
</event>
<event>
 5   0  0.1681731E-05  0.2601143E+04  0.7818609E-02  0.8367813E-01
        2   -1    0    0  501    0  0.00000000000E+00  0.00000000000E+00  0.13294616954E+04  0.13294616954E+04  0.25500000920E-02 0.  1.
       -2   -1    0    0    0  501  0.00000000000E+00  0.00000000000E+00 -0.12723087332E+04  0.12723087332E+04  0.25500000920E-02 0. -1.
    10030    2    1    2    0    0  0.00000000000E+00  0.00000000000E+00  0.57152962212E+02  0.26017704286E+04  0.26011426147E+04 0.  0.
        2    1    3    3  502    0  0.12231042249E+04 -0.38463414012E+03 -0.18955494493E+03  0.12960935321E+04  0.25500000920E-02 0. -1.
       -2    1    3    3    0  502 -0.12231042249E+04  0.38463414012E+03  0.24670790714E+03  0.13056768965E+04  0.25500000920E-02 0.  1.
</event>
<event>
 5   0  0.1681731E-05  0.2576610E+04  0.7818609E-02  0.8376190E-01
       -2   -1    0    0    0  501  0.00000000000E+00  0.00000000000E+00  0.93106438664E+03  0.93106438664E+03  0.25500000920E-02 0. -1.
        2   -1    0    0  501    0  0.00000000000E+00  0.00000000000E+00 -0.17826155426E+04  0.17826155426E+04  0.25500000920E-02 0.  1.
    10030    2    1    2    0    0  0.00000000000E+00  0.00000000000E+00 -0.85155115594E+03  0.27136799292E+04  0.25766100572E+04 0.  0.
        2    1    3    3  502    0 -0.12853890216E+04  0.74093673085E+02 -0.47305275034E+03  0.13716755133E+04  0.25500000920E-02 0. -1.
       -2    1    3    3    0  502  0.12853890216E+04 -0.74093673085E+02 -0.37849840559E+03  0.13420044159E+04  0.25500000920E-02 0.  1.
</event>
<event>
 5   0  0.1677971E-05  0.2605110E+04  0.7818609E-02  0.8366467E-01
       -2   -1    0    0    0  501  0.00000000000E+00  0.00000000000E+00  0.14661742414E+04  0.14661742414E+04  0.25500000920E-02 0. -1.
        2   -1    0    0  501    0  0.00000000000E+00  0.00000000000E+00 -0.11571951399E+04  0.11571951399E+04  0.25500000920E-02 0.  1.
    10030    2    1    2    0    0  0.00000000000E+00  0.00000000000E+00  0.30897910149E+03  0.26233693812E+04  0.26051101369E+04 0.  0.
        4    1    3    3  502    0 -0.12522938995E+04 -0.22045994220E+03  0.43896825322E+03  0.13451904464E+04  0.12699999809E+01 0.  1.
       -4    1    3    3    0  502  0.12522938995E+04  0.22045994220E+03 -0.12998915173E+03  0.12781789348E+04  0.12699999809E+01 0. -1.
</event>
<event>
 5   0  0.1869956E-05  0.2593757E+04  0.7818609E-02  0.8370325E-01
        2   -1    0    0  501    0  0.00000000000E+00  0.00000000000E+00  0.16234279104E+04  0.16234279104E+04  0.25500000920E-02 0. -1.
       -2   -1    0    0    0  501  0.00000000000E+00  0.00000000000E+00 -0.10360141285E+04  0.10360141285E+04  0.25500000920E-02 0.  1.
    10030    2    1    2    0    0  0.00000000000E+00  0.00000000000E+00  0.58741378184E+03  0.26594420389E+04  0.25937573146E+04 0.  0.
        5    1    3    3  502    0 -0.29831668122E+03 -0.12529002968E+04  0.13780310476E+03  0.12952852125E+04  0.46999998093E+01 0.  1.
       -5    1    3    3    0  502  0.29831668122E+03  0.12529002968E+04  0.44961067708E+03  0.13641568264E+04  0.46999998093E+01 0. -1.
</event>
<event>
 5   0  0.1681731E-05  0.2593996E+04  0.7818609E-02  0.8370243E-01
        2   -1    0    0  501    0  0.00000000000E+00  0.00000000000E+00  0.97849242133E+03  0.97849242133E+03  0.25500000920E-02 0. -1.
       -2   -1    0    0    0  501  0.00000000000E+00  0.00000000000E+00 -0.17191792501E+04  0.17191792501E+04  0.25500000920E-02 0.  1.
    10030    2    1    2    0    0  0.00000000000E+00  0.00000000000E+00 -0.74068682877E+03  0.26976716714E+04  0.25939960425E+04 0.  0.
        2    1    3    3  502    0 -0.11542262153E+04 -0.16703560671E+03  0.21984601167E+03  0.11867903433E+04  0.25500000920E-02 0. -1.
       -2    1    3    3    0  502  0.11542262153E+04  0.16703560671E+03 -0.96053284043E+03  0.15108813281E+04  0.25500000920E-02 0.  1.
</event>
<event>
 5   0  0.1702345E-05  0.2565220E+04  0.7818609E-02  0.8380112E-01
       -2   -1    0    0    0  501  0.00000000000E+00  0.00000000000E+00  0.88690687112E+03  0.88690687112E+03  0.25500000920E-02 0.  1.
        2   -1    0    0  501    0  0.00000000000E+00  0.00000000000E+00 -0.18548601711E+04  0.18548601711E+04  0.25500000920E-02 0. -1.
    10030    2    1    2    0    0  0.00000000000E+00  0.00000000000E+00 -0.96795329997E+03  0.27417670422E+04  0.25652198586E+04 0.  0.
        1    1    3    3  502    0 -0.32278494272E+03  0.12378956644E+04 -0.58258935619E+03  0.14056977460E+04  0.50400001928E-02 0. -1.
       -1    1    3    3    0  502  0.32278494272E+03 -0.12378956644E+04 -0.38536394378E+03  0.13360692962E+04  0.50400001928E-02 0.  1.
</event>
<event>
 5   0  0.1677971E-05  0.2603622E+04  0.7818609E-02  0.8366972E-01
       -2   -1    0    0    0  501  0.00000000000E+00  0.00000000000E+00  0.67043631144E+03  0.67043631144E+03  0.25500000920E-02 0. -1.
        2   -1    0    0  501    0  0.00000000000E+00  0.00000000000E+00 -0.25277741512E+04  0.25277741512E+04  0.25500000920E-02 0.  1.
    10030    2    1    2    0    0  0.00000000000E+00  0.00000000000E+00 -0.18573378398E+04  0.31982104626E+04  0.26036217683E+04 0.  0.
        4    1    3    3  502    0  0.78049183710E+03  0.80181633631E+03 -0.11142621930E+03  0.11244973811E+04  0.12699999809E+01 0. -1.
       -4    1    3    3    0  502 -0.78049183710E+03 -0.80181633631E+03 -0.17459116205E+04  0.20737130815E+04  0.12699999809E+01 0.  1.
</event>
<event>
 5   0  0.1677971E-05  0.2638294E+04  0.7818609E-02  0.8355309E-01
       -2   -1    0    0    0  501  0.00000000000E+00  0.00000000000E+00  0.11339458766E+04  0.11339458766E+04  0.25500000920E-02 0.  1.
        2   -1    0    0  501    0  0.00000000000E+00  0.00000000000E+00 -0.15345961460E+04  0.15345961460E+04  0.25500000920E-02 0. -1.
    10030    2    1    2    0    0  0.00000000000E+00  0.00000000000E+00 -0.40065026934E+03  0.26685420226E+04  0.26382941246E+04 0.  0.
        4    1    3    3  502    0 -0.10634049312E+04  0.54489848660E+03 -0.76566342280E+03  0.14191499210E+04  0.12699999809E+01 0. -1.
       -4    1    3    3    0  502  0.10634049312E+04 -0.54489848660E+03  0.36501315346E+03  0.12493921016E+04  0.12699999809E+01 0.  1.
</event>
<event>
 5   0  0.1869956E-05  0.2577152E+04  0.7818609E-02  0.8376004E-01
        2   -1    0    0  501    0  0.00000000000E+00  0.00000000000E+00  0.22950607557E+04  0.22950607557E+04  0.25500000920E-02 0.  1.
       -2   -1    0    0    0  501  0.00000000000E+00  0.00000000000E+00 -0.72347893826E+03  0.72347893827E+03  0.25500000920E-02 0. -1.
    10030    2    1    2    0    0  0.00000000000E+00  0.00000000000E+00  0.15715818174E+04  0.30185396939E+04  0.25771520085E+04 0.  0.
        5    1    3    3  502    0  0.93228350567E+03 -0.75898098193E+03  0.24244129257E+03  0.12263786268E+04  0.46999998093E+01 0. -1.
       -5    1    3    3    0  502 -0.93228350567E+03  0.75898098193E+03  0.13291405248E+04  0.17921610672E+04  0.46999998093E+01 0.  1.
</event>
<event>
 5   0  0.6918420E-06  0.2619016E+04  0.7818609E-02  0.8361771E-01
       -1   -1    0    0    0  501  0.00000000000E+00  0.00000000000E+00  0.10412599667E+04  0.10412599667E+04  0.50400001928E-02 0. -1.
        1   -1    0    0  501    0  0.00000000000E+00  0.00000000000E+00 -0.16468613156E+04  0.16468613156E+04  0.50400001928E-02 0.  1.
    10030    2    1    2    0    0  0.00000000000E+00  0.00000000000E+00 -0.60560134891E+03  0.26881212823E+04  0.26190156614E+04 0.  0.
        4    1    3    3  502    0 -0.85275190121E+03  0.91652803470E+03 -0.69712494146E+03  0.14328971492E+04  0.12699999809E+01 0.  1.
       -4    1    3    3    0  502  0.85275190121E+03 -0.91652803470E+03  0.91523592550E+02  0.12552241331E+04  0.12699999809E+01 0. -1.
</event>
<event>
 5   0  0.1869956E-05  0.2606565E+04  0.7818609E-02  0.8365975E-01
        2   -1    0    0  501    0  0.00000000000E+00  0.00000000000E+00  0.13713913845E+04  0.13713913845E+04  0.25500000920E-02 0. -1.
       -2   -1    0    0    0  501  0.00000000000E+00  0.00000000000E+00 -0.12385563544E+04  0.12385563544E+04  0.25500000920E-02 0.  1.
    10030    2    1    2    0    0  0.00000000000E+00  0.00000000000E+00  0.13283503015E+03  0.26099477389E+04  0.26065651833E+04 0.  0.
        5    1    3    3  502    0 -0.36252907710E+03 -0.50664549017E+03  0.12126328923E+04  0.13633112652E+04  0.46999998093E+01 0. -1.
       -5    1    3    3    0  502  0.36252907710E+03  0.50664549017E+03 -0.10797978622E+04  0.12466364737E+04  0.46999998093E+01 0.  1.
</event>
<event>
 5   0  0.1720129E-05  0.2607476E+04  0.7818609E-02  0.8365666E-01
        2   -1    0    0  501    0  0.00000000000E+00  0.00000000000E+00  0.19293060386E+04  0.19293060386E+04  0.25500000920E-02 0.  1.
       -2   -1    0    0    0  501  0.00000000000E+00  0.00000000000E+00 -0.88100747380E+03  0.88100747380E+03  0.25500000920E-02 0. -1.
    10030    2    1    2    0    0  0.00000000000E+00  0.00000000000E+00  0.10482985648E+04  0.28103135124E+04  0.26074762045E+04 0.  0.
        3    1    3    3  502    0  0.14335463842E+03 -0.70024644209E+03  0.16993056193E+04  0.18435116572E+04  0.10100000352E+00 0.  1.
       -3    1    3    3    0  502 -0.14335463842E+03  0.70024644209E+03 -0.65100705454E+03  0.96680185523E+03  0.10100000352E+00 0. -1.
</event>
<event>
 5   0  0.5840500E-06  0.2651208E+04  0.7818609E-02  0.8351012E-01
        4   -1    0    0  501    0  0.00000000000E+00  0.00000000000E+00  0.99787210368E+03  0.99787291185E+03  0.12699999809E+01 0.  1.
       -4   -1    0    0    0  501  0.00000000000E+00  0.00000000000E+00 -0.17609712257E+04  0.17609716836E+04  0.12699999809E+01 0. -1.
    10030    2    1    2    0    0  0.00000000000E+00  0.00000000000E+00 -0.76309912200E+03  0.27588445955E+04  0.26512078817E+04 0.  0.
        3    1    3    3  502    0  0.36192325265E+03 -0.81459962096E+03  0.63943930170E+03  0.10970157766E+04  0.10100000352E+00 0.  1.
       -3    1    3    3    0  502 -0.36192325265E+03  0.81459962096E+03 -0.14025384237E+04  0.16618288189E+04  0.10100000352E+00 0. -1.
</event>
<event>
 5   0  0.6993678E-06  0.2514370E+04  0.7818609E-02  0.8397884E-01
        1   -1    0    0  501    0  0.00000000000E+00  0.00000000000E+00  0.10606190886E+04  0.10606190886E+04  0.50400001928E-02 0. -1.
       -1   -1    0    0    0  501  0.00000000000E+00  0.00000000000E+00 -0.14901806454E+04  0.14901806454E+04  0.50400001928E-02 0.  1.
    10030    2    1    2    0    0  0.00000000000E+00  0.00000000000E+00 -0.42956155678E+03  0.25507997340E+04  0.25143699314E+04 0.  0.
        1    1    3    3  502    0  0.14299157081E+03 -0.52297203298E+03 -0.13654844818E+04  0.14691814750E+04  0.50400001928E-02 0.  1.
       -1    1    3    3    0  502 -0.14299157081E+03  0.52297203298E+03  0.93592292499E+03  0.10816182590E+04  0.50400001928E-02 0. -1.
</event>
<event>
 5   0  0.6706225E-06  0.2634582E+04  0.7818609E-02  0.8356548E-01
        1   -1    0    0  501    0  0.00000000000E+00  0.00000000000E+00  0.12618986591E+04  0.12618986591E+04  0.50400001928E-02 0.  1.
       -1   -1    0    0    0  501  0.00000000000E+00  0.00000000000E+00 -0.13751152012E+04  0.13751152012E+04  0.50400001928E-02 0. -1.
    10030    2    1    2    0    0  0.00000000000E+00  0.00000000000E+00 -0.11321654211E+03  0.26370138602E+04  0.26345823414E+04 0.  0.
        5    1    3    3  502    0  0.66352735965E+03  0.10810325425E+04  0.29915474613E+03  0.13032327371E+04  0.46999998093E+01 0.  1.
       -5    1    3    3    0  502 -0.66352735965E+03 -0.10810325425E+04 -0.41237128824E+03  0.13337811231E+04  0.46999998093E+01 0. -1.
</event>
<event>
 5   0  0.6706225E-06  0.2588433E+04  0.7818609E-02  0.8372141E-01
        1   -1    0    0  501    0  0.00000000000E+00  0.00000000000E+00  0.17060764842E+04  0.17060764842E+04  0.50400001928E-02 0.  1.
       -1   -1    0    0    0  501  0.00000000000E+00  0.00000000000E+00 -0.98178243090E+03  0.98178243092E+03  0.50400001928E-02 0. -1.
    10030    2    1    2    0    0  0.00000000000E+00  0.00000000000E+00  0.72429405332E+03  0.26878589151E+04  0.25884326671E+04 0.  0.
        5    1    3    3  502    0 -0.11326593851E+04  0.30325900380E+03 -0.20670031941E+03  0.11906428592E+04  0.46999998093E+01 0. -1.
       -5    1    3    3    0  502  0.11326593851E+04 -0.30325900380E+03  0.93099437273E+03  0.14972160559E+04  0.46999998093E+01 0.  1.
</event>
<event>
 5   0  0.1702345E-05  0.2606176E+04  0.7818609E-02  0.8366106E-01
       -2   -1    0    0    0  501  0.00000000000E+00  0.00000000000E+00  0.70303513446E+03  0.70303513446E+03  0.25500000920E-02 0.  1.
        2   -1    0    0  501    0  0.00000000000E+00  0.00000000000E+00 -0.24152971617E+04  0.24152971617E+04  0.25500000920E-02 0. -1.
    10030    2    1    2    0    0  0.00000000000E+00  0.00000000000E+00 -0.17122620272E+04  0.31183322962E+04  0.26061763293E+04 0.  0.
        1    1    3    3  502    0 -0.10476383448E+04  0.18295620175E+03  0.44854207694E+02  0.10644392765E+04  0.50400001928E-02 0.  1.
       -1    1    3    3    0  502  0.10476383448E+04 -0.18295620175E+03 -0.17571162349E+04  0.20538930197E+04  0.50400001928E-02 0. -1.
</event>
<event>
 5   0  0.1702345E-05  0.2621571E+04  0.7818609E-02  0.8360911E-01
       -2   -1    0    0    0  501  0.00000000000E+00  0.00000000000E+00  0.91492808176E+03  0.91492808176E+03  0.25500000920E-02 0.  1.
        2   -1    0    0  501    0  0.00000000000E+00  0.00000000000E+00 -0.18779168927E+04  0.18779168927E+04  0.25500000920E-02 0. -1.
    10030    2    1    2    0    0  0.00000000000E+00  0.00000000000E+00 -0.96298881090E+03  0.27928449744E+04  0.26215712085E+04 0.  0.
        1    1    3    3  502    0 -0.10077841289E+04  0.16854462918E+03  0.39319660901E+03  0.10948240571E+04  0.50400001928E-02 0.  1.
       -1    1    3    3    0  502  0.10077841289E+04 -0.16854462918E+03 -0.13561854199E+04  0.16980209174E+04  0.50400001928E-02 0. -1.
</event>
<event>
 5   0  0.6918420E-06  0.2557777E+04  0.7818609E-02  0.8382686E-01
       -1   -1    0    0    0  501  0.00000000000E+00  0.00000000000E+00  0.12411732395E+04  0.12411732395E+04  0.50400001928E-02 0.  1.
        1   -1    0    0  501    0  0.00000000000E+00  0.00000000000E+00 -0.13177500735E+04  0.13177500735E+04  0.50400001928E-02 0. -1.
    10030    2    1    2    0    0  0.00000000000E+00  0.00000000000E+00 -0.76576834035E+02  0.25589233130E+04  0.25577772597E+04 0.  0.
        4    1    3    3  502    0 -0.23810946231E+03 -0.44667060211E+03  0.11366924863E+04  0.12442998691E+04  0.12699999809E+01 0.  1.
       -4    1    3    3    0  502  0.23810946231E+03  0.44667060211E+03 -0.12132693203E+04  0.13146234440E+04  0.12699999809E+01 0. -1.
</event>
<event>
 5   0  0.1681731E-05  0.2598493E+04  0.7818609E-02  0.8368713E-01
        2   -1    0    0  501    0  0.00000000000E+00  0.00000000000E+00  0.60266641713E+03  0.60266641713E+03  0.25500000920E-02 0. -1.
       -2   -1    0    0    0  501  0.00000000000E+00  0.00000000000E+00 -0.28009545801E+04  0.28009545801E+04  0.25500000920E-02 0.  1.
    10030    2    1    2    0    0  0.00000000000E+00  0.00000000000E+00 -0.21982881630E+04  0.34036209972E+04  0.25984928411E+04 0.  0.
        2    1    3    3  502    0  0.60775625585E+02 -0.21527924988E+03  0.57725317058E+03  0.61908000699E+03  0.25500000920E-02 0. -1.
       -2    1    3    3    0  502 -0.60775625585E+02  0.21527924988E+03 -0.27755413335E+04  0.27845409902E+04  0.25500000920E-02 0.  1.
</event>
<event>
 5   0  0.5840500E-06  0.2590519E+04  0.7818609E-02  0.8371429E-01
       -3   -1    0    0    0  501  0.00000000000E+00  0.00000000000E+00  0.16892970338E+04  0.16892970368E+04  0.10100000352E+00 0. -1.
        3   -1    0    0  501    0  0.00000000000E+00  0.00000000000E+00 -0.99313350031E+03  0.99313350544E+03  0.10100000352E+00 0.  1.
    10030    2    1    2    0    0  0.00000000000E+00  0.00000000000E+00  0.69616353350E+03  0.26824305423E+04  0.25905192431E+04 0.  0.
        5    1    3    3  502    0 -0.15928789099E+03  0.20294187569E+03 -0.96625074625E+03  0.10001103098E+04  0.46999998093E+01 0.  1.
       -5    1    3    3    0  502  0.15928789099E+03 -0.20294187569E+03  0.16624142797E+04  0.16823202325E+04  0.46999998093E+01 0. -1.
</event>
<event>
 5   0  0.1869956E-05  0.2576598E+04  0.7818609E-02  0.8376194E-01
       -2   -1    0    0    0  501  0.00000000000E+00  0.00000000000E+00  0.24334326903E+04  0.24334326903E+04  0.25500000920E-02 0.  1.
        2   -1    0    0  501    0  0.00000000000E+00  0.00000000000E+00 -0.68204669609E+03  0.68204669609E+03  0.25500000920E-02 0. -1.
    10030    2    1    2    0    0  0.00000000000E+00  0.00000000000E+00  0.17513859942E+04  0.31154793864E+04  0.25765983207E+04 0.  0.
        5    1    3    3  502    0  0.48443774063E+03  0.10647607851E+04  0.15282918480E+04  0.19246021710E+04  0.46999998093E+01 0.  1.
       -5    1    3    3    0  502 -0.48443774063E+03 -0.10647607851E+04  0.22309414624E+03  0.11908772154E+04  0.46999998093E+01 0. -1.
</event>
<event>
 5   0  0.1869956E-05  0.2622576E+04  0.7818609E-02  0.8360573E-01
        2   -1    0    0  501    0  0.00000000000E+00  0.00000000000E+00  0.22388658322E+04  0.22388658322E+04  0.25500000920E-02 0.  1.
       -2   -1    0    0    0  501  0.00000000000E+00  0.00000000000E+00 -0.76801222145E+03  0.76801222145E+03  0.25500000920E-02 0. -1.
    10030    2    1    2    0    0  0.00000000000E+00  0.00000000000E+00  0.14708536108E+04  0.30068780537E+04  0.26225760781E+04 0.  0.
        5    1    3    3  502    0 -0.10158230775E+04 -0.10137207414E+03  0.16789928355E+04  0.19649966549E+04  0.46999998093E+01 0.  1.
       -5    1    3    3    0  502  0.10158230775E+04  0.10137207414E+03 -0.20813922470E+03  0.10418813988E+04  0.46999998093E+01 0. -1.
</event>
<event>
 5   0  0.6993678E-06  0.2600909E+04  0.7818609E-02  0.8367892E-01
        1   -1    0    0  501    0  0.00000000000E+00  0.00000000000E+00  0.83178859079E+03  0.83178859081E+03  0.50400001928E-02 0.  1.
       -1   -1    0    0    0  501  0.00000000000E+00  0.00000000000E+00 -0.20331876878E+04  0.20331876878E+04  0.50400001928E-02 0. -1.
    10030    2    1    2    0    0  0.00000000000E+00  0.00000000000E+00 -0.12013990970E+04  0.28649762786E+04  0.26009093192E+04 0.  0.
        1    1    3    3  502    0 -0.12553093916E+04 -0.28261876764E+03 -0.39313434308E+03  0.13454477501E+04  0.50400001928E-02 0.  1.
       -1    1    3    3    0  502  0.12553093916E+04  0.28261876764E+03 -0.80826475395E+03  0.15195285285E+04  0.50400001928E-02 0. -1.
</event>
<event>
 5   0  0.6918420E-06  0.2501251E+04  0.7818609E-02  0.8402540E-01
        1   -1    0    0  501    0  0.00000000000E+00  0.00000000000E+00  0.12680964232E+04  0.12680964232E+04  0.50400001928E-02 0.  1.
       -1   -1    0    0    0  501  0.00000000000E+00  0.00000000000E+00 -0.12333954680E+04  0.12333954680E+04  0.50400001928E-02 0. -1.
    10030    2    1    2    0    0  0.00000000000E+00  0.00000000000E+00  0.34700955168E+02  0.25014918912E+04  0.25012511920E+04 0.  0.
        4    1    3    3  502    0  0.46950803952E+03 -0.64274851701E+03 -0.94736627285E+03  0.12373632947E+04  0.12699999809E+01 0. -1.
       -4    1    3    3    0  502 -0.46950803952E+03  0.64274851701E+03  0.98206722802E+03  0.12641285965E+04  0.12699999809E+01 0.  1.
</event>
<event>
 5   0  0.1720129E-05  0.2651357E+04  0.7818609E-02  0.8350963E-01
        2   -1    0    0  501    0  0.00000000000E+00  0.00000000000E+00  0.83468097309E+03  0.83468097309E+03  0.25500000920E-02 0.  1.
       -2   -1    0    0    0  501  0.00000000000E+00  0.00000000000E+00 -0.21055035166E+04  0.21055035166E+04  0.25500000920E-02 0. -1.
    10030    2    1    2    0    0  0.00000000000E+00  0.00000000000E+00 -0.12708225435E+04  0.29401844896E+04  0.26513571800E+04 0.  0.
        3    1    3    3  502    0  0.30702423602E+03 -0.56788622282E+03 -0.19194156108E+04  0.20250715891E+04  0.10100000352E+00 0. -1.
       -3    1    3    3    0  502 -0.30702423602E+03  0.56788622282E+03  0.64859306736E+03  0.91511290058E+03  0.10100000352E+00 0.  1.
</event>
<event>
 5   0  0.1702345E-05  0.2597199E+04  0.7818609E-02  0.8369153E-01
        2   -1    0    0  501    0  0.00000000000E+00  0.00000000000E+00  0.22666998687E+04  0.22666998687E+04  0.25500000920E-02 0. -1.
       -2   -1    0    0    0  501  0.00000000000E+00  0.00000000000E+00 -0.74397161042E+03  0.74397161042E+03  0.25500000920E-02 0.  1.
    10030    2    1    2    0    0  0.00000000000E+00  0.00000000000E+00  0.15227282583E+04  0.30106714791E+04  0.25971987615E+04 0.  0.
        1    1    3    3  502    0  0.14553318144E+03  0.12871779835E+04  0.86731067333E+03  0.15589210602E+04  0.50400001928E-02 0. -1.
       -1    1    3    3    0  502 -0.14553318144E+03 -0.12871779835E+04  0.65541758494E+03  0.14517504189E+04  0.50400001928E-02 0.  1.
</event>
<event>
 5   0  0.1869956E-05  0.2609081E+04  0.7818609E-02  0.8365123E-01
        2   -1    0    0  501    0  0.00000000000E+00  0.00000000000E+00  0.18030949911E+04  0.18030949911E+04  0.25500000920E-02 0.  1.
       -2   -1    0    0    0  501  0.00000000000E+00  0.00000000000E+00 -0.94383594206E+03  0.94383594206E+03  0.25500000920E-02 0. -1.
    10030    2    1    2    0    0  0.00000000000E+00  0.00000000000E+00  0.85925904901E+03  0.27469309331E+04  0.26090809566E+04 0.  0.
        5    1    3    3  502    0  0.10079908008E+04 -0.13104514896E+03 -0.43124262230E+03  0.11041786879E+04  0.46999998093E+01 0. -1.
       -5    1    3    3    0  502 -0.10079908008E+04  0.13104514896E+03  0.12905016713E+04  0.16427522452E+04  0.46999998093E+01 0.  1.
</event>
<event>
 5   0  0.7138294E-06  0.2570602E+04  0.7818609E-02  0.8378256E-01
        1   -1    0    0  501    0  0.00000000000E+00  0.00000000000E+00  0.17559143126E+04  0.17559143126E+04  0.50400001928E-02 0. -1.
       -1   -1    0    0    0  501  0.00000000000E+00  0.00000000000E+00 -0.94081993097E+03  0.94081993098E+03  0.50400001928E-02 0.  1.
    10030    2    1    2    0    0  0.00000000000E+00  0.00000000000E+00  0.81509438160E+03  0.26967342436E+04  0.25706024059E+04 0.  0.
        2    1    3    3  502    0 -0.23047148607E+03  0.82599095445E+02  0.17312268125E+04  0.17484524566E+04  0.25500000920E-02 0. -1.
       -2    1    3    3    0  502  0.23047148607E+03 -0.82599095445E+02 -0.91613243094E+03  0.94828178697E+03  0.25500000920E-02 0.  1.
</event>
<event>
 5   0  0.1720129E-05  0.2578490E+04  0.7818609E-02  0.8375544E-01
       -2   -1    0    0    0  501  0.00000000000E+00  0.00000000000E+00  0.87428000706E+03  0.87428000707E+03  0.25500000920E-02 0. -1.
        2   -1    0    0  501    0  0.00000000000E+00  0.00000000000E+00 -0.19011679146E+04  0.19011679146E+04  0.25500000920E-02 0.  1.
    10030    2    1    2    0    0  0.00000000000E+00  0.00000000000E+00 -0.10268879075E+04  0.27754479216E+04  0.25784903318E+04 0.  0.
        3    1    3    3  502    0  0.13921912719E+03 -0.10754058876E+04 -0.12640426177E+04  0.16654379418E+04  0.10100000352E+00 0.  1.
       -3    1    3    3    0  502 -0.13921912719E+03  0.10754058876E+04  0.23715471022E+03  0.11100099798E+04  0.10100000352E+00 0. -1.
</event>
<event>
 5   0  0.1677971E-05  0.2444471E+04  0.7818609E-02  0.8423039E-01
       -2   -1    0    0    0  501  0.00000000000E+00  0.00000000000E+00  0.95986571334E+03  0.95986571335E+03  0.25500000920E-02 0.  1.
        2   -1    0    0  501    0  0.00000000000E+00  0.00000000000E+00 -0.15563216787E+04  0.15563216787E+04  0.25500000920E-02 0. -1.
    10030    2    1    2    0    0  0.00000000000E+00  0.00000000000E+00 -0.59645596533E+03  0.25161873920E+04  0.24444711643E+04 0.  0.
        4    1    3    3  502    0 -0.37552662488E+03 -0.88926162322E+03  0.47346794030E+03  0.10751650961E+04  0.12699999809E+01 0.  1.
       -4    1    3    3    0  502  0.37552662488E+03  0.88926162322E+03 -0.10699239056E+04  0.14410222959E+04  0.12699999809E+01 0. -1.
</event>
<event>
 5   0  0.5840500E-06  0.2301451E+04  0.7818609E-02  0.8477349E-01
       -3   -1    0    0    0  501  0.00000000000E+00  0.00000000000E+00  0.12004177965E+04  0.12004178007E+04  0.10100000352E+00 0.  1.
        3   -1    0    0  501    0  0.00000000000E+00  0.00000000000E+00 -0.11030903252E+04  0.11030903298E+04  0.10100000352E+00 0. -1.
    10030    2    1    2    0    0  0.00000000000E+00  0.00000000000E+00  0.97327471273E+02  0.23035081305E+04  0.23014510794E+04 0.  0.
        4    1    3    3  502    0  0.39346926661E+03  0.40080236184E+03 -0.95657804662E+03  0.11092807441E+04  0.12699999809E+01 0. -1.
       -4    1    3    3    0  502 -0.39346926661E+03 -0.40080236184E+03  0.10539055179E+04  0.11942273865E+04  0.12699999809E+01 0.  1.
</event>
<event>
 5   0  0.1720129E-05  0.2598269E+04  0.7818609E-02  0.8368789E-01
        2   -1    0    0  501    0  0.00000000000E+00  0.00000000000E+00  0.11757145168E+04  0.11757145168E+04  0.25500000920E-02 0. -1.
       -2   -1    0    0    0  501  0.00000000000E+00  0.00000000000E+00 -0.14355107680E+04  0.14355107680E+04  0.25500000920E-02 0.  1.
    10030    2    1    2    0    0  0.00000000000E+00  0.00000000000E+00 -0.25979625112E+03  0.26112252848E+04  0.25982693078E+04 0.  0.
        3    1    3    3  502    0 -0.11910920954E+04 -0.27775541447E+03 -0.57014914421E+03  0.13494141347E+04  0.10100000352E+00 0.  1.
       -3    1    3    3    0  502  0.11910920954E+04  0.27775541447E+03  0.31035289309E+03  0.12618111501E+04  0.10100000352E+00 0. -1.
</event>
<event>
 5   0  0.1677971E-05  0.2607871E+04  0.7818609E-02  0.8365533E-01
       -2   -1    0    0    0  501  0.00000000000E+00  0.00000000000E+00  0.91959825484E+03  0.91959825484E+03  0.25500000920E-02 0.  1.
        2   -1    0    0  501    0  0.00000000000E+00  0.00000000000E+00 -0.18489026017E+04  0.18489026017E+04  0.25500000920E-02 0. -1.
    10030    2    1    2    0    0  0.00000000000E+00  0.00000000000E+00 -0.92930434688E+03  0.27685008566E+04  0.26078708602E+04 0.  0.
        4    1    3    3  502    0 -0.58014387711E+03 -0.54916910167E+03  0.62940426319E+03  0.10170078465E+04  0.12699999809E+01 0.  1.
       -4    1    3    3    0  502  0.58014387711E+03  0.54916910167E+03 -0.15587086101E+04  0.17514930101E+04  0.12699999809E+01 0. -1.
</event>
<event>
 5   0  0.1702345E-05  0.2602563E+04  0.7818609E-02  0.8367331E-01
       -2   -1    0    0    0  501  0.00000000000E+00  0.00000000000E+00  0.13203761266E+04  0.13203761266E+04  0.25500000920E-02 0.  1.
        2   -1    0    0  501    0  0.00000000000E+00  0.00000000000E+00 -0.12824627695E+04  0.12824627695E+04  0.25500000920E-02 0. -1.
    10030    2    1    2    0    0  0.00000000000E+00  0.00000000000E+00  0.37913357184E+02  0.26028388961E+04  0.26025627555E+04 0.  0.
        1    1    3    3  502    0 -0.12672979926E+03 -0.61655406423E+03  0.11579953711E+04  0.13180108632E+04  0.50400001928E-02 0.  1.
       -1    1    3    3    0  502  0.12672979926E+03  0.61655406423E+03 -0.11200820139E+04  0.12848280329E+04  0.50400001928E-02 0. -1.
</event>
<event>
 5   0  0.6918420E-06  0.2603367E+04  0.7818609E-02  0.8367058E-01
       -1   -1    0    0    0  501  0.00000000000E+00  0.00000000000E+00  0.10536083381E+04  0.10536083381E+04  0.50400001928E-02 0.  1.
        1   -1    0    0  501    0  0.00000000000E+00  0.00000000000E+00 -0.16081685837E+04  0.16081685837E+04  0.50400001928E-02 0. -1.
    10030    2    1    2    0    0  0.00000000000E+00  0.00000000000E+00 -0.55456024563E+03  0.26617769218E+04  0.26033669191E+04 0.  0.
        4    1    3    3  502    0  0.66032541400E+03 -0.45491440754E+02  0.86870594923E+03  0.10921312937E+04  0.12699999809E+01 0.  1.
       -4    1    3    3    0  502 -0.66032541400E+03  0.45491440754E+02 -0.14232661949E+04  0.15696456281E+04  0.12699999809E+01 0. -1.
</event>
<event>
 5   0  0.1720129E-05  0.2619059E+04  0.7818609E-02  0.8361756E-01
        2   -1    0    0  501    0  0.00000000000E+00  0.00000000000E+00  0.16883594804E+04  0.16883594804E+04  0.25500000920E-02 0. -1.
       -2   -1    0    0    0  501  0.00000000000E+00  0.00000000000E+00 -0.10157004314E+04  0.10157004314E+04  0.25500000920E-02 0.  1.
    10030    2    1    2    0    0  0.00000000000E+00  0.00000000000E+00  0.67265904909E+03  0.27040599118E+04  0.26190589551E+04 0.  0.
        3    1    3    3  502    0  0.97011155374E+03  0.18393688666E+03  0.12244316330E+04  0.15729532857E+04  0.10100000352E+00 0. -1.
       -3    1    3    3    0  502 -0.97011155374E+03 -0.18393688666E+03 -0.55177258392E+03  0.11311066261E+04  0.10100000352E+00 0.  1.
</event>
<event>
 5   0  0.1869956E-05  0.2543872E+04  0.7818609E-02  0.8387521E-01
        2   -1    0    0  501    0  0.00000000000E+00  0.00000000000E+00  0.18261169955E+04  0.18261169956E+04  0.25500000920E-02 0.  1.
       -2   -1    0    0    0  501  0.00000000000E+00  0.00000000000E+00 -0.88593485384E+03  0.88593485385E+03  0.25500000920E-02 0. -1.
    10030    2    1    2    0    0  0.00000000000E+00  0.00000000000E+00  0.94018214171E+03  0.27120518494E+04  0.25438716112E+04 0.  0.
        5    1    3    3  502    0 -0.11037511854E+04  0.63006489787E+03  0.52392865331E+03  0.13746897027E+04  0.46999998093E+01 0.  1.
       -5    1    3    3    0  502  0.11037511854E+04 -0.63006489787E+03  0.41625348839E+03  0.13373621467E+04  0.46999998093E+01 0. -1.
</event>
<event>
 5   0  0.6984287E-06  0.2521135E+04  0.7818609E-02  0.8395495E-01
       -1   -1    0    0    0  501  0.00000000000E+00  0.00000000000E+00  0.79944621789E+03  0.79944621791E+03  0.50400001928E-02 0. -1.
        1   -1    0    0  501    0  0.00000000000E+00  0.00000000000E+00 -0.19876632451E+04  0.19876632452E+04  0.50400001928E-02 0.  1.
    10030    2    1    2    0    0  0.00000000000E+00  0.00000000000E+00 -0.11882170273E+04  0.27871094631E+04  0.25211345571E+04 0.  0.
        3    1    3    3  502    0 -0.63547264072E+03 -0.53873289831E+03 -0.16399419931E+04  0.18394206598E+04  0.10100000352E+00 0.  1.
       -3    1    3    3    0  502  0.63547264072E+03  0.53873289831E+03  0.45172496585E+03  0.94768880325E+03  0.10100000352E+00 0. -1.
</event>
<event>
 5   0  0.6918420E-06  0.2578243E+04  0.7818609E-02  0.8375629E-01
       -1   -1    0    0    0  501  0.00000000000E+00  0.00000000000E+00  0.13776815885E+04  0.13776815886E+04  0.50400001928E-02 0. -1.
        1   -1    0    0  501    0  0.00000000000E+00  0.00000000000E+00 -0.12062539329E+04  0.12062539329E+04  0.50400001928E-02 0.  1.
    10030    2    1    2    0    0  0.00000000000E+00  0.00000000000E+00  0.17142765569E+03  0.25839355214E+04  0.25782426840E+04 0.  0.
        4    1    3    3  502    0 -0.11991586172E+04 -0.39888183172E+03 -0.16929665484E+03  0.12750494402E+04  0.12699999809E+01 0.  1.
       -4    1    3    3    0  502  0.11991586172E+04  0.39888183172E+03  0.34072431053E+03  0.13088860812E+04  0.12699999809E+01 0. -1.
</event>
<event>
 5   0  0.1677971E-05  0.2556552E+04  0.7818609E-02  0.8383111E-01
       -2   -1    0    0    0  501  0.00000000000E+00  0.00000000000E+00  0.89086150300E+03  0.89086150300E+03  0.25500000920E-02 0. -1.
        2   -1    0    0  501    0  0.00000000000E+00  0.00000000000E+00 -0.18341673546E+04  0.18341673546E+04  0.25500000920E-02 0.  1.
    10030    2    1    2    0    0  0.00000000000E+00  0.00000000000E+00 -0.94330585161E+03  0.27250288576E+04  0.25565516512E+04 0.  0.
        4    1    3    3  502    0  0.11298888337E+04  0.88729988051E+02 -0.11017664541E+04  0.15806368082E+04  0.12699999809E+01 0.  1.
       -4    1    3    3    0  502 -0.11298888337E+04 -0.88729988051E+02  0.15846060246E+03  0.11443920494E+04  0.12699999809E+01 0. -1.
</event>
<event>
 5   0  0.6984287E-06  0.2536080E+04  0.7818609E-02  0.8390243E-01
        1   -1    0    0  501    0  0.00000000000E+00  0.00000000000E+00  0.22352539817E+04  0.22352539817E+04  0.50400001928E-02 0.  1.
       -1   -1    0    0    0  501  0.00000000000E+00  0.00000000000E+00 -0.71934811790E+03  0.71934811791E+03  0.50400001928E-02 0. -1.
    10030    2    1    2    0    0  0.00000000000E+00  0.00000000000E+00  0.15159058638E+04  0.29546020996E+04  0.25360802391E+04 0.  0.
        3    1    3    3  502    0 -0.62406556520E+03  0.10920077565E+04  0.57014506044E+03  0.13809432175E+04  0.10100000352E+00 0. -1.
       -3    1    3    3    0  502  0.62406556520E+03 -0.10920077565E+04  0.94576080332E+03  0.15736588821E+04  0.10100000352E+00 0.  1.
</event>
<event>
 5   0  0.1869956E-05  0.2599281E+04  0.7818609E-02  0.8368446E-01
       -2   -1    0    0    0  501  0.00000000000E+00  0.00000000000E+00  0.10466626009E+04  0.10466626009E+04  0.25500000920E-02 0.  1.
        2   -1    0    0  501    0  0.00000000000E+00  0.00000000000E+00 -0.16137624360E+04  0.16137624360E+04  0.25500000920E-02 0. -1.
    10030    2    1    2    0    0  0.00000000000E+00  0.00000000000E+00 -0.56709983511E+03  0.26604250370E+04  0.25992805070E+04 0.  0.
        5    1    3    3  502    0 -0.17507235034E+02 -0.12101680049E+04  0.20111807827E+03  0.12269000264E+04  0.46999998093E+01 0.  1.
       -5    1    3    3    0  502  0.17507235034E+02  0.12101680049E+04 -0.76821791338E+03  0.14335250105E+04  0.46999998093E+01 0. -1.
</event>
<event>
 5   0  0.1681731E-05  0.2621956E+04  0.7818609E-02  0.8360781E-01
        2   -1    0    0  501    0  0.00000000000E+00  0.00000000000E+00  0.24769694282E+04  0.24769694282E+04  0.25500000920E-02 0. -1.
       -2   -1    0    0    0  501  0.00000000000E+00  0.00000000000E+00 -0.69385736597E+03  0.69385736597E+03  0.25500000920E-02 0.  1.
    10030    2    1    2    0    0  0.00000000000E+00  0.00000000000E+00  0.17831120622E+04  0.31708267942E+04  0.26219561270E+04 0.  0.
        2    1    3    3  502    0  0.91933589345E+03 -0.23411855648E+03 -0.20265846822E+03  0.97008269659E+03  0.25500000920E-02 0.  1.
       -2    1    3    3    0  502 -0.91933589345E+03  0.23411855648E+03  0.19857705304E+04  0.22007440976E+04  0.25500000920E-02 0. -1.
</event>
<event>
 5   0  0.1869956E-05  0.2610626E+04  0.7818609E-02  0.8364601E-01
        2   -1    0    0  501    0  0.00000000000E+00  0.00000000000E+00  0.22186431325E+04  0.22186431326E+04  0.25500000920E-02 0.  1.
       -2   -1    0    0    0  501  0.00000000000E+00  0.00000000000E+00 -0.76796596594E+03  0.76796596594E+03  0.25500000920E-02 0. -1.
    10030    2    1    2    0    0  0.00000000000E+00  0.00000000000E+00  0.14506771666E+04  0.29866090985E+04  0.26106262976E+04 0.  0.
        5    1    3    3  502    0 -0.39161960248E+03 -0.36019131822E+03 -0.63826271800E+03  0.83096635669E+03  0.46999998093E+01 0. -1.
       -5    1    3    3    0  502  0.39161960248E+03  0.36019131822E+03  0.20889398846E+04  0.21556427418E+04  0.46999998093E+01 0.  1.
</event>
<event>
 5   0  0.6706225E-06  0.2340060E+04  0.7818609E-02  0.8462292E-01
       -1   -1    0    0    0  501  0.00000000000E+00  0.00000000000E+00  0.74376494613E+03  0.74376494615E+03  0.50400001928E-02 0. -1.
        1   -1    0    0  501    0  0.00000000000E+00  0.00000000000E+00 -0.18405946564E+04  0.18405946564E+04  0.50400001928E-02 0.  1.
    10030    2    1    2    0    0  0.00000000000E+00  0.00000000000E+00 -0.10968297102E+04  0.25843596025E+04  0.23400596449E+04 0.  0.
        5    1    3    3  502    0  0.11653969614E+04  0.38520857729E+02 -0.65499800916E+03  0.13374148258E+04  0.46999998093E+01 0.  1.
       -5    1    3    3    0  502 -0.11653969614E+04 -0.38520857729E+02 -0.44183170107E+03  0.12469447767E+04  0.46999998093E+01 0. -1.
</event>
<event>
 5   0  0.6918420E-06  0.2584336E+04  0.7818609E-02  0.8373542E-01
        1   -1    0    0  501    0  0.00000000000E+00  0.00000000000E+00  0.13687015290E+04  0.13687015290E+04  0.50400001928E-02 0. -1.
       -1   -1    0    0    0  501  0.00000000000E+00  0.00000000000E+00 -0.12199137836E+04  0.12199137836E+04  0.50400001928E-02 0.  1.
    10030    2    1    2    0    0  0.00000000000E+00  0.00000000000E+00  0.14878774542E+03  0.25886153126E+04  0.25843357838E+04 0.  0.
        4    1    3    3  502    0  0.58819726718E+03  0.63238986499E+03 -0.88834459509E+03  0.12389716296E+04  0.12699999809E+01 0.  1.
       -4    1    3    3    0  502 -0.58819726718E+03 -0.63238986499E+03  0.10371323405E+04  0.13496436830E+04  0.12699999809E+01 0. -1.
</event>
<event>
 5   0  0.1720129E-05  0.2635970E+04  0.7818609E-02  0.8356085E-01
       -2   -1    0    0    0  501  0.00000000000E+00  0.00000000000E+00  0.16907260311E+04  0.16907260311E+04  0.25500000920E-02 0.  1.
        2   -1    0    0  501    0  0.00000000000E+00  0.00000000000E+00 -0.10274194789E+04  0.10274194789E+04  0.25500000920E-02 0. -1.
    10030    2    1    2    0    0  0.00000000000E+00  0.00000000000E+00  0.66330655219E+03  0.27181455099E+04  0.26359703016E+04 0.  0.
        3    1    3    3  502    0 -0.59099706075E+03 -0.49381700805E+03  0.14345531982E+04  0.16282124100E+04  0.10100000352E+00 0.  1.
       -3    1    3    3    0  502  0.59099706075E+03  0.49381700805E+03 -0.77124664601E+03  0.10899331000E+04  0.10100000352E+00 0. -1.
</event>
<event>
 5   0  0.7138294E-06  0.2625710E+04  0.7818609E-02  0.8359520E-01
        1   -1    0    0  501    0  0.00000000000E+00  0.00000000000E+00  0.20916499099E+04  0.20916499099E+04  0.50400001928E-02 0.  1.
       -1   -1    0    0    0  501  0.00000000000E+00  0.00000000000E+00 -0.82403298244E+03  0.82403298245E+03  0.50400001928E-02 0. -1.
    10030    2    1    2    0    0  0.00000000000E+00  0.00000000000E+00  0.12676169275E+04  0.29156828924E+04  0.26257101999E+04 0.  0.
        2    1    3    3  502    0 -0.49185899955E+03 -0.10984661064E+04  0.51453427335E+02  0.12046578425E+04  0.25500000920E-02 0. -1.
       -2    1    3    3    0  502  0.49185899955E+03  0.10984661064E+04  0.12161635001E+04  0.17110250499E+04  0.25500000920E-02 0.  1.
</event>
<event>
 5   0  0.1677971E-05  0.2570853E+04  0.7818609E-02  0.8378170E-01
        2   -1    0    0  501    0  0.00000000000E+00  0.00000000000E+00  0.16148838998E+04  0.16148838998E+04  0.25500000920E-02 0. -1.
       -2   -1    0    0    0  501  0.00000000000E+00  0.00000000000E+00 -0.10231828821E+04  0.10231828821E+04  0.25500000920E-02 0.  1.
    10030    2    1    2    0    0  0.00000000000E+00  0.00000000000E+00  0.59170101771E+03  0.26380667819E+04  0.25708532147E+04 0.  0.
        4    1    3    3  502    0  0.66842884354E+03  0.10786470918E+04  0.85445142550E+02  0.12718408520E+04  0.12699999809E+01 0. -1.
       -4    1    3    3    0  502 -0.66842884354E+03 -0.10786470918E+04  0.50625587516E+03  0.13662259299E+04  0.12699999809E+01 0.  1.
</event>
<event>
 5   0  0.6918420E-06  0.2515124E+04  0.7818609E-02  0.8397617E-01
        1   -1    0    0  501    0  0.00000000000E+00  0.00000000000E+00  0.13954101866E+04  0.13954101866E+04  0.50400001928E-02 0. -1.
       -1   -1    0    0    0  501  0.00000000000E+00  0.00000000000E+00 -0.11333314676E+04  0.11333314676E+04  0.50400001928E-02 0.  1.
    10030    2    1    2    0    0  0.00000000000E+00  0.00000000000E+00  0.26207871896E+03  0.25287416543E+04  0.25151240723E+04 0.  0.
        4    1    3    3  502    0  0.34768331978E+03  0.54206599707E+03  0.12170456919E+04  0.13769244950E+04  0.12699999809E+01 0. -1.
       -4    1    3    3    0  502 -0.34768331978E+03 -0.54206599707E+03 -0.95496697291E+03  0.11518171592E+04  0.12699999809E+01 0.  1.
</event>
<event>
 5   0  0.6993678E-06  0.2162585E+04  0.7818609E-02  0.8534164E-01
       -1   -1    0    0    0  501  0.00000000000E+00  0.00000000000E+00  0.88878197605E+03  0.88878197607E+03  0.50400001928E-02 0.  1.
        1   -1    0    0  501    0  0.00000000000E+00  0.00000000000E+00 -0.13155010834E+04  0.13155010834E+04  0.50400001928E-02 0. -1.
    10030    2    1    2    0    0  0.00000000000E+00  0.00000000000E+00 -0.42671910736E+03  0.22042830595E+04  0.21625851682E+04 0.  0.
        1    1    3    3  502    0  0.40962045998E+03  0.22156570685E+03  0.78132204435E+03  0.90958475180E+03  0.50400001928E-02 0.  1.
       -1    1    3    3    0  502 -0.40962045998E+03 -0.22156570685E+03 -0.12080411517E+04  0.12946983077E+04  0.50400001928E-02 0. -1.
</event>
<event>
 5   0  0.6706225E-06  0.2643970E+04  0.7818609E-02  0.8353417E-01
        1   -1    0    0  501    0  0.00000000000E+00  0.00000000000E+00  0.11312011180E+04  0.11312011180E+04  0.50400001928E-02 0.  1.
       -1   -1    0    0    0  501  0.00000000000E+00  0.00000000000E+00 -0.15449460726E+04  0.15449460726E+04  0.50400001928E-02 0. -1.
    10030    2    1    2    0    0  0.00000000000E+00  0.00000000000E+00 -0.41374495459E+03  0.26761471905E+04  0.26439702907E+04 0.  0.
        5    1    3    3  502    0 -0.32269000857E+03 -0.81711347712E+03 -0.12067300500E+04  0.14926562832E+04  0.46999998093E+01 0. -1.
       -5    1    3    3    0  502  0.32269000857E+03  0.81711347712E+03  0.79298509545E+03  0.11834909073E+04  0.46999998093E+01 0.  1.
</event>
<event>
 5   0  0.6984287E-06  0.2625432E+04  0.7818609E-02  0.8359613E-01
        1   -1    0    0  501    0  0.00000000000E+00  0.00000000000E+00  0.19089475241E+04  0.19089475241E+04  0.50400001928E-02 0. -1.
       -1   -1    0    0    0  501  0.00000000000E+00  0.00000000000E+00 -0.90270882181E+03  0.90270882183E+03  0.50400001928E-02 0.  1.
    10030    2    1    2    0    0  0.00000000000E+00  0.00000000000E+00  0.10062387023E+04  0.28116563460E+04  0.26254323609E+04 0.  0.
        3    1    3    3  502    0 -0.24740134617E+03 -0.12701228883E+04  0.26653286885E+03  0.13211583394E+04  0.10100000352E+00 0.  1.
       -3    1    3    3    0  502  0.24740134617E+03  0.12701228883E+04  0.73970583346E+03  0.14904980066E+04  0.10100000352E+00 0. -1.
</event>
<event>
 5   0  0.1681731E-05  0.2603329E+04  0.7818609E-02  0.8367071E-01
       -2   -1    0    0    0  501  0.00000000000E+00  0.00000000000E+00  0.12297482009E+04  0.12297482009E+04  0.25500000920E-02 0.  1.
        2   -1    0    0  501    0  0.00000000000E+00  0.00000000000E+00 -0.13777863723E+04  0.13777863723E+04  0.25500000920E-02 0. -1.
    10030    2    1    2    0    0  0.00000000000E+00  0.00000000000E+00 -0.14803817149E+03  0.26075345732E+04  0.26033288786E+04 0.  0.
        2    1    3    3  502    0 -0.26650267009E+03 -0.78290456607E+03 -0.10808131192E+04  0.13609262402E+04  0.25500000920E-02 0. -1.
       -2    1    3    3    0  502  0.26650267009E+03  0.78290456607E+03  0.93277494771E+03  0.12466083330E+04  0.25500000920E-02 0.  1.
</event>
<event>
 5   0  0.6918420E-06  0.2590248E+04  0.7818609E-02  0.8371521E-01
       -1   -1    0    0    0  501  0.00000000000E+00  0.00000000000E+00  0.12100002455E+04  0.12100002455E+04  0.50400001928E-02 0.  1.
        1   -1    0    0  501    0  0.00000000000E+00  0.00000000000E+00 -0.13862363467E+04  0.13862363467E+04  0.50400001928E-02 0. -1.
    10030    2    1    2    0    0  0.00000000000E+00  0.00000000000E+00 -0.17623610122E+03  0.25962365922E+04  0.25902481115E+04 0.  0.
        4    1    3    3  502    0 -0.43494056278E+03  0.11942210439E+04  0.16147072692E+03  0.12811758675E+04  0.12699999809E+01 0.  1.
       -4    1    3    3    0  502  0.43494056278E+03 -0.11942210439E+04 -0.33770682814E+03  0.13150607247E+04  0.12699999809E+01 0. -1.
</event>
<event>
 5   0  0.1720129E-05  0.2608370E+04  0.7818609E-02  0.8365364E-01
        2   -1    0    0  501    0  0.00000000000E+00  0.00000000000E+00  0.10169210216E+04  0.10169210216E+04  0.25500000920E-02 0. -1.
       -2   -1    0    0    0  501  0.00000000000E+00  0.00000000000E+00 -0.16725970179E+04  0.16725970180E+04  0.25500000920E-02 0.  1.
    10030    2    1    2    0    0  0.00000000000E+00  0.00000000000E+00 -0.65567599639E+03  0.26895180395E+04  0.26083704247E+04 0.  0.
        3    1    3    3  502    0 -0.51839810446E+03 -0.73557457673E+02  0.90378957556E+03  0.10445012692E+04  0.10100000352E+00 0. -1.
       -3    1    3    3    0  502  0.51839810446E+03  0.73557457673E+02 -0.15594655719E+04  0.16450167703E+04  0.10100000352E+00 0.  1.
</event>
<event>
 5   0  0.1677971E-05  0.2531843E+04  0.7818609E-02  0.8391728E-01
       -2   -1    0    0    0  501  0.00000000000E+00  0.00000000000E+00  0.75818184812E+03  0.75818184812E+03  0.25500000920E-02 0.  1.
        2   -1    0    0  501    0  0.00000000000E+00  0.00000000000E+00 -0.21136844509E+04  0.21136844509E+04  0.25500000920E-02 0. -1.
    10030    2    1    2    0    0  0.00000000000E+00  0.00000000000E+00 -0.13555026028E+04  0.28718662990E+04  0.25318429519E+04 0.  0.
        4    1    3    3  502    0 -0.59355599756E+03  0.74566137294E+03 -0.16228583635E+04  0.18820176636E+04  0.12699999809E+01 0. -1.
       -4    1    3    3    0  502  0.59355599756E+03 -0.74566137294E+03  0.26735576070E+03  0.98984863541E+03  0.12699999809E+01 0.  1.
</event>
<event>
 5   0  0.6993678E-06  0.2450147E+04  0.7818609E-02  0.8420964E-01
        1   -1    0    0  501    0  0.00000000000E+00  0.00000000000E+00  0.22806664625E+04  0.22806664625E+04  0.50400001928E-02 0.  1.
       -1   -1    0    0    0  501  0.00000000000E+00  0.00000000000E+00 -0.65805559087E+03  0.65805559089E+03  0.50400001928E-02 0. -1.
    10030    2    1    2    0    0  0.00000000000E+00  0.00000000000E+00  0.16226108716E+04  0.29387220534E+04  0.24501471928E+04 0.  0.
        1    1    3    3  502    0  0.75052219270E+03  0.87990275917E+03  0.32663115634E+03  0.12017488671E+04  0.50400001928E-02 0. -1.
       -1    1    3    3    0  502 -0.75052219270E+03 -0.87990275917E+03  0.12959797153E+04  0.17369731863E+04  0.50400001928E-02 0.  1.
</event>
<event>
 5   0  0.1869956E-05  0.2602643E+04  0.7818609E-02  0.8367304E-01
        2   -1    0    0  501    0  0.00000000000E+00  0.00000000000E+00  0.14287506133E+04  0.14287506133E+04  0.25500000920E-02 0.  1.
       -2   -1    0    0    0  501  0.00000000000E+00  0.00000000000E+00 -0.11852573551E+04  0.11852573551E+04  0.25500000920E-02 0. -1.
    10030    2    1    2    0    0  0.00000000000E+00  0.00000000000E+00  0.24349325814E+03  0.26140079684E+04  0.26026426362E+04 0.  0.
        5    1    3    3  502    0  0.64367353376E+03 -0.62368410474E+03 -0.82583375499E+03  0.12187374457E+04  0.46999998093E+01 0. -1.
       -5    1    3    3    0  502 -0.64367353376E+03  0.62368410474E+03  0.10693270131E+04  0.13952705227E+04  0.46999998093E+01 0.  1.
</event>
<event>
 5   0  0.1702345E-05  0.2614024E+04  0.7818609E-02  0.8363453E-01
        2   -1    0    0  501    0  0.00000000000E+00  0.00000000000E+00  0.18691500965E+04  0.18691500965E+04  0.25500000920E-02 0. -1.
       -2   -1    0    0    0  501  0.00000000000E+00  0.00000000000E+00 -0.91393433796E+03  0.91393433797E+03  0.25500000920E-02 0.  1.
    10030    2    1    2    0    0  0.00000000000E+00  0.00000000000E+00  0.95521575854E+03  0.27830844345E+04  0.26140240672E+04 0.  0.
        1    1    3    3  502    0 -0.48232368237E+03 -0.11438123008E+02  0.17708754658E+04  0.18354200829E+04  0.50400001928E-02 0. -1.
       -1    1    3    3    0  502  0.48232368237E+03  0.11438123008E+02 -0.81565970726E+03  0.94766435160E+03  0.50400001928E-02 0.  1.
</event>
<event>
 5   0  0.1720129E-05  0.2618906E+04  0.7818609E-02  0.8361807E-01
       -2   -1    0    0    0  501  0.00000000000E+00  0.00000000000E+00  0.14713683233E+04  0.14713683233E+04  0.25500000920E-02 0.  1.
        2   -1    0    0  501    0  0.00000000000E+00  0.00000000000E+00 -0.11653557705E+04  0.11653557705E+04  0.25500000920E-02 0. -1.
    10030    2    1    2    0    0  0.00000000000E+00  0.00000000000E+00  0.30601255280E+03  0.26367240939E+04  0.26189063108E+04 0.  0.
        3    1    3    3  502    0 -0.25521175385E+03  0.12539588433E+04 -0.12659112059E+03  0.12859125717E+04  0.10100000352E+00 0. -1.
       -3    1    3    3    0  502  0.25521175385E+03 -0.12539588433E+04  0.43260367339E+03  0.13508115222E+04  0.10100000352E+00 0.  1.
</event>
<event>
 5   0  0.6993678E-06  0.2626929E+04  0.7818609E-02  0.8359111E-01
        1   -1    0    0  501    0  0.00000000000E+00  0.00000000000E+00  0.13652558369E+04  0.13652558369E+04  0.50400001928E-02 0. -1.
       -1   -1    0    0    0  501  0.00000000000E+00  0.00000000000E+00 -0.12636380352E+04  0.12636380352E+04  0.50400001928E-02 0.  1.
    10030    2    1    2    0    0  0.00000000000E+00  0.00000000000E+00  0.10161780169E+03  0.26288938721E+04  0.26269291602E+04 0.  0.
        1    1    3    3  502    0  0.12866447879E+04 -0.90665927282E+02 -0.19739692374E+03  0.13048527373E+04  0.50400001928E-02 0.  1.
       -1    1    3    3    0  502 -0.12866447879E+04  0.90665927282E+02  0.29901472543E+03  0.13240411348E+04  0.50400001928E-02 0. -1.
</event>
<event>
 5   0  0.7138294E-06  0.2601419E+04  0.7818609E-02  0.8367719E-01
       -1   -1    0    0    0  501  0.00000000000E+00  0.00000000000E+00  0.97420801141E+03  0.97420801142E+03  0.50400001928E-02 0.  1.
        1   -1    0    0  501    0  0.00000000000E+00  0.00000000000E+00 -0.17366370984E+04  0.17366370984E+04  0.50400001928E-02 0. -1.
    10030    2    1    2    0    0  0.00000000000E+00  0.00000000000E+00 -0.76242908703E+03  0.27108451099E+04  0.26014194389E+04 0.  0.
        2    1    3    3  502    0 -0.69831729478E+03  0.75001013044E+03 -0.12159613581E+04  0.15901962974E+04  0.25500000920E-02 0. -1.
       -2    1    3    3    0  502  0.69831729478E+03 -0.75001013044E+03  0.45353227106E+03  0.11206488124E+04  0.25500000920E-02 0.  1.
</event>
<event>
 5   0  0.1702345E-05  0.2570331E+04  0.7818609E-02  0.8378350E-01
       -2   -1    0    0    0  501  0.00000000000E+00  0.00000000000E+00  0.14550086002E+04  0.14550086002E+04  0.25500000920E-02 0. -1.
        2   -1    0    0  501    0  0.00000000000E+00  0.00000000000E+00 -0.11351479293E+04  0.11351479293E+04  0.25500000920E-02 0.  1.
    10030    2    1    2    0    0  0.00000000000E+00  0.00000000000E+00  0.31986067085E+03  0.25901565295E+04  0.25703307178E+04 0.  0.
        1    1    3    3  502    0  0.69734974164E+03  0.84477508040E+03  0.83720696170E+03  0.13787157413E+04  0.50400001928E-02 0.  1.
       -1    1    3    3    0  502 -0.69734974164E+03 -0.84477508040E+03 -0.51734629084E+03  0.12114407882E+04  0.50400001928E-02 0. -1.
</event>
<event>
 5   0  0.1720129E-05  0.2705675E+04  0.7818609E-02  0.8333166E-01
        2   -1    0    0  501    0  0.00000000000E+00  0.00000000000E+00  0.20121174252E+04  0.20121174252E+04  0.25500000920E-02 0.  1.
       -2   -1    0    0    0  501  0.00000000000E+00  0.00000000000E+00 -0.90957382168E+03  0.90957382168E+03  0.25500000920E-02 0. -1.
    10030    2    1    2    0    0  0.00000000000E+00  0.00000000000E+00  0.11025436036E+04  0.29216912469E+04  0.27056750257E+04 0.  0.
        3    1    3    3  502    0 -0.11510777445E+04 -0.60175892659E+03  0.14281945765E+03  0.13067100625E+04  0.10100000352E+00 0. -1.
       -3    1    3    3    0  502  0.11510777445E+04  0.60175892659E+03  0.95972414591E+03  0.16149811844E+04  0.10100000352E+00 0.  1.
</event>
<event>
 5   0  0.6706225E-06  0.2548502E+04  0.7818609E-02  0.8385907E-01
        1   -1    0    0  501    0  0.00000000000E+00  0.00000000000E+00  0.14139735877E+04  0.14139735877E+04  0.50400001928E-02 0.  1.
       -1   -1    0    0    0  501  0.00000000000E+00  0.00000000000E+00 -0.11483350315E+04  0.11483350315E+04  0.50400001928E-02 0. -1.
    10030    2    1    2    0    0  0.00000000000E+00  0.00000000000E+00  0.26563855618E+03  0.25623086192E+04  0.25485018378E+04 0.  0.
        5    1    3    3  502    0 -0.71275907238E+02  0.54321099584E+03  0.12895018202E+04  0.14010694042E+04  0.46999998093E+01 0.  1.
       -5    1    3    3    0  502  0.71275907238E+02 -0.54321099584E+03 -0.10238632641E+04  0.11612392150E+04  0.46999998093E+01 0. -1.
</event>
<event>
 5   0  0.1720129E-05  0.2598502E+04  0.7818609E-02  0.8368710E-01
        2   -1    0    0  501    0  0.00000000000E+00  0.00000000000E+00  0.13339353121E+04  0.13339353121E+04  0.25500000920E-02 0.  1.
       -2   -1    0    0    0  501  0.00000000000E+00  0.00000000000E+00 -0.12654685849E+04  0.12654685849E+04  0.25500000920E-02 0. -1.
    10030    2    1    2    0    0  0.00000000000E+00  0.00000000000E+00  0.68466727178E+02  0.25994038970E+04  0.25985020544E+04 0.  0.
        3    1    3    3  502    0  0.28229442346E+03  0.74807683649E+02 -0.12322103201E+04  0.12663445875E+04  0.10100000352E+00 0. -1.
       -3    1    3    3    0  502 -0.28229442346E+03 -0.74807683649E+02  0.13006770473E+04  0.13330593095E+04  0.10100000352E+00 0.  1.
</event>
<event>
 5   0  0.6918420E-06  0.2585597E+04  0.7818609E-02  0.8373110E-01
        1   -1    0    0  501    0  0.00000000000E+00  0.00000000000E+00  0.13696796994E+04  0.13696796994E+04  0.50400001928E-02 0. -1.
       -1   -1    0    0    0  501  0.00000000000E+00  0.00000000000E+00 -0.12202329600E+04  0.12202329600E+04  0.50400001928E-02 0.  1.
    10030    2    1    2    0    0  0.00000000000E+00  0.00000000000E+00  0.14944673932E+03  0.25899126594E+04  0.25855972725E+04 0.  0.
        4    1    3    3  502    0 -0.72757569256E+03 -0.10644223532E+04 -0.20120280719E+02  0.12894835296E+04  0.12699999809E+01 0.  1.
       -4    1    3    3    0  502  0.72757569256E+03  0.10644223532E+04  0.16956702004E+03  0.13004291298E+04  0.12699999809E+01 0. -1.
</event>
<event>
 5   0  0.6918420E-06  0.2598180E+04  0.7818609E-02  0.8368820E-01
       -1   -1    0    0    0  501  0.00000000000E+00  0.00000000000E+00  0.82872866579E+03  0.82872866580E+03  0.50400001928E-02 0. -1.
        1   -1    0    0  501    0  0.00000000000E+00  0.00000000000E+00 -0.20364147224E+04  0.20364147224E+04  0.50400001928E-02 0.  1.
    10030    2    1    2    0    0  0.00000000000E+00  0.00000000000E+00 -0.12076860566E+04  0.28651433882E+04  0.25981803293E+04 0.  0.
        4    1    3    3  502    0 -0.32869418368E+03 -0.11899735902E+04 -0.15786737588E+03  0.12445885798E+04  0.12699999809E+01 0.  1.
       -4    1    3    3    0  502  0.32869418368E+03  0.11899735902E+04 -0.10498186807E+04  0.16205548084E+04  0.12699999809E+01 0. -1.
</event>
<event>
 5   0  0.1720129E-05  0.2724837E+04  0.7818609E-02  0.8326991E-01
       -2   -1    0    0    0  501  0.00000000000E+00  0.00000000000E+00  0.81325221872E+03  0.81325221873E+03  0.25500000920E-02 0.  1.
        2   -1    0    0  501    0  0.00000000000E+00  0.00000000000E+00 -0.22824215976E+04  0.22824215976E+04  0.25500000920E-02 0. -1.
    10030    2    1    2    0    0  0.00000000000E+00  0.00000000000E+00 -0.14691693789E+04  0.30956738163E+04  0.27248371902E+04 0.  0.
        3    1    3    3  502    0 -0.39026539582E+03  0.33571764124E+03 -0.21676733636E+04  0.22279634726E+04  0.10100000352E+00 0. -1.
       -3    1    3    3    0  502  0.39026539582E+03 -0.33571764124E+03  0.69850398470E+03  0.86771034375E+03  0.10100000352E+00 0.  1.
</event>
<event>
 5   0  0.6706225E-06  0.2590256E+04  0.7818609E-02  0.8371519E-01
        1   -1    0    0  501    0  0.00000000000E+00  0.00000000000E+00  0.11500985079E+04  0.11500985080E+04  0.50400001928E-02 0.  1.
       -1   -1    0    0    0  501  0.00000000000E+00  0.00000000000E+00 -0.14584454513E+04  0.14584454513E+04  0.50400001928E-02 0. -1.
    10030    2    1    2    0    0  0.00000000000E+00  0.00000000000E+00 -0.30834694331E+03  0.26085439592E+04  0.25902555375E+04 0.  0.
        5    1    3    3  502    0  0.14944272379E+03  0.99514085567E+03 -0.97521832808E+03  0.14013248473E+04  0.46999998093E+01 0. -1.
       -5    1    3    3    0  502 -0.14944272379E+03 -0.99514085567E+03  0.66687138476E+03  0.12072191119E+04  0.46999998093E+01 0.  1.
</event>
<event>
 5   0  0.6993678E-06  0.2505297E+04  0.7818609E-02  0.8401101E-01
       -1   -1    0    0    0  501  0.00000000000E+00  0.00000000000E+00  0.19812621325E+04  0.19812621325E+04  0.50400001928E-02 0.  1.
        1   -1    0    0  501    0  0.00000000000E+00  0.00000000000E+00 -0.79198441196E+03  0.79198441198E+03  0.50400001928E-02 0. -1.
    10030    2    1    2    0    0  0.00000000000E+00  0.00000000000E+00  0.11892777205E+04  0.27732465445E+04  0.25052973675E+04 0.  0.
        1    1    3    3  502    0  0.30201664113E+03 -0.12148979655E+04  0.54591271671E+03  0.13657275762E+04  0.50400001928E-02 0.  1.
       -1    1    3    3    0  502 -0.30201664113E+03  0.12148979655E+04  0.64336500380E+03  0.14075189683E+04  0.50400001928E-02 0. -1.
</event>
<event>
 5   0  0.6918420E-06  0.2628110E+04  0.7818609E-02  0.8358715E-01
       -1   -1    0    0    0  501  0.00000000000E+00  0.00000000000E+00  0.87752873700E+03  0.87752873702E+03  0.50400001928E-02 0.  1.
        1   -1    0    0  501    0  0.00000000000E+00  0.00000000000E+00 -0.19677307693E+04  0.19677307693E+04  0.50400001928E-02 0. -1.
    10030    2    1    2    0    0  0.00000000000E+00  0.00000000000E+00 -0.10902020323E+04  0.28452595063E+04  0.26281098126E+04 0.  0.
        4    1    3    3  502    0  0.38925554240E+03  0.12510727878E+04 -0.65355659834E+03  0.14641860667E+04  0.12699999809E+01 0. -1.
       -4    1    3    3    0  502 -0.38925554240E+03 -0.12510727878E+04 -0.43664543392E+03  0.13810734396E+04  0.12699999809E+01 0.  1.
</event>
<event>
 5   0  0.1681731E-05  0.2574676E+04  0.7818609E-02  0.8376854E-01
        2   -1    0    0  501    0  0.00000000000E+00  0.00000000000E+00  0.18101006882E+04  0.18101006882E+04  0.25500000920E-02 0.  1.
       -2   -1    0    0    0  501  0.00000000000E+00  0.00000000000E+00 -0.91555075481E+03  0.91555075481E+03  0.25500000920E-02 0. -1.
    10030    2    1    2    0    0  0.00000000000E+00  0.00000000000E+00  0.89454993341E+03  0.27256514430E+04  0.25746759418E+04 0.  0.
        2    1    3    3  502    0  0.81272566441E+03 -0.30972683774E+03  0.14520258467E+04  0.16925816905E+04  0.25500000920E-02 0.  1.
       -2    1    3    3    0  502 -0.81272566441E+03  0.30972683774E+03 -0.55747591330E+03  0.10330697525E+04  0.25500000920E-02 0. -1.
</event>
<event>
 5   0  0.1681731E-05  0.2648143E+04  0.7818609E-02  0.8352030E-01
       -2   -1    0    0    0  501  0.00000000000E+00  0.00000000000E+00  0.84863439590E+03  0.84863439590E+03  0.25500000920E-02 0. -1.
        2   -1    0    0  501    0  0.00000000000E+00  0.00000000000E+00 -0.20658658774E+04  0.20658658774E+04  0.25500000920E-02 0.  1.
    10030    2    1    2    0    0  0.00000000000E+00  0.00000000000E+00 -0.12172314815E+04  0.29145002733E+04  0.26481426252E+04 0.  0.
        2    1    3    3  502    0  0.60586998600E+03 -0.69719441193E+03  0.43549248199E+03  0.10211817614E+04  0.25500000920E-02 0. -1.
       -2    1    3    3    0  502 -0.60586998600E+03  0.69719441193E+03 -0.16527239635E+04  0.18933185119E+04  0.25500000920E-02 0.  1.
</event>
<event>
 5   0  0.1681731E-05  0.2234318E+04  0.7818609E-02  0.8504278E-01
       -2   -1    0    0    0  501  0.00000000000E+00  0.00000000000E+00  0.59467608080E+03  0.59467608080E+03  0.25500000920E-02 0.  1.
        2   -1    0    0  501    0  0.00000000000E+00  0.00000000000E+00 -0.20986964680E+04  0.20986964680E+04  0.25500000920E-02 0. -1.
    10030    2    1    2    0    0  0.00000000000E+00  0.00000000000E+00 -0.15040203872E+04  0.26933725488E+04  0.22343183215E+04 0.  0.
        2    1    3    3  502    0 -0.67248236789E+03 -0.86914299001E+03 -0.50970897412E+03  0.12113815710E+04  0.25500000920E-02 0.  1.
       -2    1    3    3    0  502  0.67248236789E+03  0.86914299001E+03 -0.99431141312E+03  0.14819909779E+04  0.25500000920E-02 0. -1.
</event>
<event>
 5   0  0.7138294E-06  0.2605590E+04  0.7818609E-02  0.8366305E-01
        1   -1    0    0  501    0  0.00000000000E+00  0.00000000000E+00  0.11758565057E+04  0.11758565057E+04  0.50400001928E-02 0. -1.
       -1   -1    0    0    0  501  0.00000000000E+00  0.00000000000E+00 -0.14434372057E+04  0.14434372057E+04  0.50400001928E-02 0.  1.
    10030    2    1    2    0    0  0.00000000000E+00  0.00000000000E+00 -0.26758070004E+03  0.26192937114E+04  0.26055901664E+04 0.  0.
        2    1    3    3  502    0  0.79227834285E+03 -0.11076541903E+03  0.89986898539E+03  0.12040507221E+04  0.25500000920E-02 0. -1.
       -2    1    3    3    0  502 -0.79227834285E+03  0.11076541903E+03 -0.11674496854E+04  0.14152429892E+04  0.25500000920E-02 0.  1.
</event>
<event>
 5   0  0.6918420E-06  0.2601710E+04  0.7818609E-02  0.8367621E-01
        1   -1    0    0  501    0  0.00000000000E+00  0.00000000000E+00  0.15300705485E+04  0.15300705485E+04  0.50400001928E-02 0. -1.
       -1   -1    0    0    0  501  0.00000000000E+00  0.00000000000E+00 -0.11059774922E+04  0.11059774922E+04  0.50400001928E-02 0.  1.
    10030    2    1    2    0    0  0.00000000000E+00  0.00000000000E+00  0.42409305631E+03  0.26360480407E+04  0.26017098902E+04 0.  0.
        4    1    3    3  502    0  0.31053491984E+03  0.12422615789E+04  0.44436785778E+03  0.13554003736E+04  0.12699999809E+01 0.  1.
       -4    1    3    3    0  502 -0.31053491984E+03 -0.12422615789E+04 -0.20274801466E+02  0.12806476671E+04  0.12699999809E+01 0. -1.
</event>
<event>
 5   0  0.6984287E-06  0.2607374E+04  0.7818609E-02  0.8365701E-01
        1   -1    0    0  501    0  0.00000000000E+00  0.00000000000E+00  0.18428031146E+04  0.18428031146E+04  0.50400001928E-02 0. -1.
       -1   -1    0    0    0  501  0.00000000000E+00  0.00000000000E+00 -0.92229076988E+03  0.92229076989E+03  0.50400001928E-02 0.  1.
    10030    2    1    2    0    0  0.00000000000E+00  0.00000000000E+00  0.92051234473E+03  0.27650938845E+04  0.26073743907E+04 0.  0.
        3    1    3    3  502    0 -0.93487472212E+03  0.34904568901E+03  0.13499158640E+04  0.16787187046E+04  0.10100000352E+00 0.  1.
       -3    1    3    3    0  502  0.93487472212E+03 -0.34904568901E+03 -0.42940351923E+03  0.10863751799E+04  0.10100000352E+00 0. -1.
</event>
<event>
 5   0  0.1869956E-05  0.2603694E+04  0.7818609E-02  0.8366947E-01
        2   -1    0    0  501    0  0.00000000000E+00  0.00000000000E+00  0.15173868768E+04  0.15173868768E+04  0.25500000920E-02 0.  1.
       -2   -1    0    0    0  501  0.00000000000E+00  0.00000000000E+00 -0.11169242585E+04  0.11169242585E+04  0.25500000920E-02 0. -1.
    10030    2    1    2    0    0  0.00000000000E+00  0.00000000000E+00  0.40046261827E+03  0.26343111354E+04  0.26036944616E+04 0.  0.
        5    1    3    3  502    0 -0.50568221870E+03 -0.10782677854E+04 -0.33169627108E+03  0.12362930193E+04  0.46999998093E+01 0. -1.
       -5    1    3    3    0  502  0.50568221870E+03  0.10782677854E+04  0.73215888935E+03  0.13980181160E+04  0.46999998093E+01 0.  1.
</event>
<event>
 5   0  0.6918420E-06  0.2580771E+04  0.7818609E-02  0.8374762E-01
       -1   -1    0    0    0  501  0.00000000000E+00  0.00000000000E+00  0.17450860076E+04  0.17450860076E+04  0.50400001928E-02 0.  1.
        1   -1    0    0  501    0  0.00000000000E+00  0.00000000000E+00 -0.95416164035E+03  0.95416164036E+03  0.50400001928E-02 0. -1.
    10030    2    1    2    0    0  0.00000000000E+00  0.00000000000E+00  0.79092436724E+03  0.26992476480E+04  0.25807705265E+04 0.  0.
        4    1    3    3  502    0 -0.48048955078E+03 -0.11386184460E+04  0.72481705327E+01  0.12358706740E+04  0.12699999809E+01 0. -1.
       -4    1    3    3    0  502  0.48048955078E+03  0.11386184460E+04  0.78367619671E+03  0.14633769740E+04  0.12699999809E+01 0.  1.
</event>
<event>
 5   0  0.1869956E-05  0.2593459E+04  0.7818609E-02  0.8370426E-01
       -2   -1    0    0    0  501  0.00000000000E+00  0.00000000000E+00  0.12194273823E+04  0.12194273823E+04  0.25500000920E-02 0.  1.
        2   -1    0    0  501    0  0.00000000000E+00  0.00000000000E+00 -0.13789320034E+04  0.13789320034E+04  0.25500000920E-02 0. -1.
    10030    2    1    2    0    0  0.00000000000E+00  0.00000000000E+00 -0.15950462107E+03  0.25983593857E+04  0.25934590364E+04 0.  0.
        5    1    3    3  502    0  0.35023118713E+03  0.12214696974E+04 -0.33876593312E+03  0.13150796757E+04  0.46999998093E+01 0. -1.
       -5    1    3    3    0  502 -0.35023118713E+03 -0.12214696974E+04  0.17926131205E+03  0.12832797100E+04  0.46999998093E+01 0.  1.
</event>
<event>
 5   0  0.6918420E-06  0.2538324E+04  0.7818609E-02  0.8389458E-01
        1   -1    0    0  501    0  0.00000000000E+00  0.00000000000E+00  0.12600283593E+04  0.12600283593E+04  0.50400001928E-02 0.  1.
       -1   -1    0    0    0  501  0.00000000000E+00  0.00000000000E+00 -0.12783613839E+04  0.12783613839E+04  0.50400001928E-02 0. -1.
    10030    2    1    2    0    0  0.00000000000E+00  0.00000000000E+00 -0.18333024595E+02  0.25383897432E+04  0.25383235390E+04 0.  0.
        4    1    3    3  502    0  0.85924621795E+03 -0.42935493219E+02 -0.94226237026E+03  0.12759339744E+04  0.12699999809E+01 0. -1.
       -4    1    3    3    0  502 -0.85924621795E+03  0.42935493219E+02  0.92392934567E+03  0.12624557689E+04  0.12699999809E+01 0.  1.
</event>
<event>
 5   0  0.6706225E-06  0.2628289E+04  0.7818609E-02  0.8358655E-01
       -1   -1    0    0    0  501  0.00000000000E+00  0.00000000000E+00  0.20013622312E+04  0.20013622312E+04  0.50400001928E-02 0. -1.
        1   -1    0    0  501    0  0.00000000000E+00  0.00000000000E+00 -0.86290027675E+03  0.86290027677E+03  0.50400001928E-02 0.  1.
    10030    2    1    2    0    0  0.00000000000E+00  0.00000000000E+00  0.11384619545E+04  0.28642625080E+04  0.26282891951E+04 0.  0.
        5    1    3    3  502    0  0.42844977219E+02 -0.61357375741E+03  0.18348079671E+04  0.19351617023E+04  0.46999998093E+01 0. -1.
       -5    1    3    3    0  502 -0.42844977219E+02  0.61357375741E+03 -0.69634601263E+03  0.92910080571E+03  0.46999998093E+01 0.  1.
</event>
<event>
 5   0  0.6984287E-06  0.2597764E+04  0.7818609E-02  0.8368961E-01
        1   -1    0    0  501    0  0.00000000000E+00  0.00000000000E+00  0.18305166311E+04  0.18305166311E+04  0.50400001928E-02 0.  1.
       -1   -1    0    0    0  501  0.00000000000E+00  0.00000000000E+00 -0.92164925949E+03  0.92164925951E+03  0.50400001928E-02 0. -1.
    10030    2    1    2    0    0  0.00000000000E+00  0.00000000000E+00  0.90886737159E+03  0.27521658906E+04  0.25977638827E+04 0.  0.
        3    1    3    3  502    0 -0.34031527491E+03 -0.68207835295E+03 -0.65976361479E+03  0.10081336238E+04  0.10100000352E+00 0. -1.
       -3    1    3    3    0  502  0.34031527491E+03  0.68207835295E+03  0.15686309864E+04  0.17440322668E+04  0.10100000352E+00 0.  1.
</event>
<event>
 5   0  0.6984287E-06  0.2426764E+04  0.7818609E-02  0.8429551E-01
       -1   -1    0    0    0  501  0.00000000000E+00  0.00000000000E+00  0.86406987850E+03  0.86406987852E+03  0.50400001928E-02 0. -1.
        1   -1    0    0  501    0  0.00000000000E+00  0.00000000000E+00 -0.17039081911E+04  0.17039081911E+04  0.50400001928E-02 0.  1.
    10030    2    1    2    0    0  0.00000000000E+00  0.00000000000E+00 -0.83983831258E+03  0.25679780696E+04  0.24267638894E+04 0.  0.
        3    1    3    3  502    0 -0.10108371460E+04  0.20839053578E+03 -0.10950722673E+04  0.15047928867E+04  0.10100000352E+00 0. -1.
       -3    1    3    3    0  502  0.10108371460E+04 -0.20839053578E+03  0.25523395470E+03  0.10631851829E+04  0.10100000352E+00 0.  1.
</event>
<event>
 5   0  0.1677971E-05  0.2615771E+04  0.7818609E-02  0.8362864E-01
       -2   -1    0    0    0  501  0.00000000000E+00  0.00000000000E+00  0.95031724842E+03  0.95031724842E+03  0.25500000920E-02 0. -1.
        2   -1    0    0  501    0  0.00000000000E+00  0.00000000000E+00 -0.17999925228E+04  0.17999925228E+04  0.25500000920E-02 0.  1.
    10030    2    1    2    0    0  0.00000000000E+00  0.00000000000E+00 -0.84967527435E+03  0.27503097712E+04  0.26157705874E+04 0.  0.
        4    1    3    3  502    0 -0.40660926442E+03  0.94722869666E+03  0.42154313135E+03  0.11136756809E+04  0.12699999809E+01 0. -1.
       -4    1    3    3    0  502  0.40660926442E+03 -0.94722869666E+03 -0.12712184057E+04  0.16366340903E+04  0.12699999809E+01 0.  1.
</event>
<event>
 5   0  0.1681731E-05  0.2606434E+04  0.7818609E-02  0.8366019E-01
        2   -1    0    0  501    0  0.00000000000E+00  0.00000000000E+00  0.19379467645E+04  0.19379467645E+04  0.25500000920E-02 0. -1.
       -2   -1    0    0    0  501  0.00000000000E+00  0.00000000000E+00 -0.87637814012E+03  0.87637814013E+03  0.25500000920E-02 0.  1.
    10030    2    1    2    0    0  0.00000000000E+00  0.00000000000E+00  0.10615686244E+04  0.28143249046E+04  0.26064337177E+04 0.  0.
        2    1    3    3  502    0 -0.99175525044E+02 -0.75491100692E+03 -0.61123705314E+03  0.97638985466E+03  0.25500000920E-02 0.  1.
       -2    1    3    3    0  502  0.99175525044E+02  0.75491100692E+03  0.16728056775E+04  0.18379350500E+04  0.25500000920E-02 0. -1.
</event>
<event>
 5   0  0.6984287E-06  0.2595335E+04  0.7818609E-02  0.8369788E-01
        1   -1    0    0  501    0  0.00000000000E+00  0.00000000000E+00  0.11819024824E+04  0.11819024824E+04  0.50400001928E-02 0.  1.
       -1   -1    0    0    0  501  0.00000000000E+00  0.00000000000E+00 -0.14247711582E+04  0.14247711582E+04  0.50400001928E-02 0. -1.
    10030    2    1    2    0    0  0.00000000000E+00  0.00000000000E+00 -0.24286867577E+03  0.26066736406E+04  0.25953347135E+04 0.  0.
        3    1    3    3  502    0 -0.12150892788E+04 -0.41447651715E+03  0.68356372783E+02  0.12856536636E+04  0.10100000352E+00 0.  1.
       -3    1    3    3    0  502  0.12150892788E+04  0.41447651715E+03 -0.31122504855E+03  0.13210199771E+04  0.10100000352E+00 0. -1.
</event>
<event>
 5   0  0.1720129E-05  0.2573904E+04  0.7818609E-02  0.8377120E-01
       -2   -1    0    0    0  501  0.00000000000E+00  0.00000000000E+00  0.17128377814E+04  0.17128377814E+04  0.25500000920E-02 0.  1.
        2   -1    0    0  501    0  0.00000000000E+00  0.00000000000E+00 -0.96695959036E+03  0.96695959036E+03  0.25500000920E-02 0. -1.
    10030    2    1    2    0    0  0.00000000000E+00  0.00000000000E+00  0.74587819108E+03  0.26797973718E+04  0.25739035875E+04 0.  0.
        3    1    3    3  502    0  0.12472043860E+04 -0.22118793965E+03  0.13597472752E+03  0.12739434924E+04  0.10100000352E+00 0. -1.
       -3    1    3    3    0  502 -0.12472043860E+04  0.22118793965E+03  0.60990346356E+03  0.14058538794E+04  0.10100000352E+00 0.  1.
</event>
<event>
 5   0  0.6993678E-06  0.2580398E+04  0.7818609E-02  0.8374890E-01
        1   -1    0    0  501    0  0.00000000000E+00  0.00000000000E+00  0.16241680934E+04  0.16241680934E+04  0.50400001928E-02 0. -1.
       -1   -1    0    0    0  501  0.00000000000E+00  0.00000000000E+00 -0.10249023241E+04  0.10249023241E+04  0.50400001928E-02 0.  1.
    10030    2    1    2    0    0  0.00000000000E+00  0.00000000000E+00  0.59926576932E+03  0.26490704176E+04  0.25803981505E+04 0.  0.
        1    1    3    3  502    0  0.12472354348E+04 -0.27893796198E+03  0.11826479352E+03  0.12835065944E+04  0.50400001928E-02 0.  1.
       -1    1    3    3    0  502 -0.12472354348E+04  0.27893796198E+03  0.48100097580E+03  0.13655638232E+04  0.50400001928E-02 0. -1.
</event>
<event>
 5   0  0.6918420E-06  0.2513492E+04  0.7818609E-02  0.8398195E-01
        1   -1    0    0  501    0  0.00000000000E+00  0.00000000000E+00  0.77200721902E+03  0.77200721903E+03  0.50400001928E-02 0.  1.
       -1   -1    0    0    0  501  0.00000000000E+00  0.00000000000E+00 -0.20458498974E+04  0.20458498974E+04  0.50400001928E-02 0. -1.
    10030    2    1    2    0    0  0.00000000000E+00  0.00000000000E+00 -0.12738426784E+04  0.28178571165E+04  0.25134923034E+04 0.  0.
        4    1    3    3  502    0  0.10792900244E+04 -0.51134079480E+03 -0.10755435099E+04  0.16072124377E+04  0.12699999809E+01 0. -1.
       -4    1    3    3    0  502 -0.10792900244E+04  0.51134079480E+03 -0.19829916851E+03  0.12106446788E+04  0.12699999809E+01 0.  1.
</event>
<event>
 5   0  0.6706225E-06  0.2607163E+04  0.7818609E-02  0.8365772E-01
        1   -1    0    0  501    0  0.00000000000E+00  0.00000000000E+00  0.18412027038E+04  0.18412027038E+04  0.50400001928E-02 0.  1.
       -1   -1    0    0    0  501  0.00000000000E+00  0.00000000000E+00 -0.92294309513E+03  0.92294309515E+03  0.50400001928E-02 0. -1.
    10030    2    1    2    0    0  0.00000000000E+00  0.00000000000E+00  0.91825960863E+03  0.27641457989E+04  0.26071634565E+04 0.  0.
        5    1    3    3  502    0  0.15233035551E+03  0.12937349465E+04  0.51050998980E+03  0.13991415899E+04  0.46999998093E+01 0.  1.
       -5    1    3    3    0  502 -0.15233035551E+03 -0.12937349465E+04  0.40774961883E+03  0.13650042090E+04  0.46999998093E+01 0. -1.
</event>
<event>
 5   0  0.1720129E-05  0.2667433E+04  0.7818609E-02  0.8345650E-01
        2   -1    0    0  501    0  0.00000000000E+00  0.00000000000E+00  0.15837299535E+04  0.15837299535E+04  0.25500000920E-02 0. -1.
       -2   -1    0    0    0  501  0.00000000000E+00  0.00000000000E+00 -0.11231708124E+04  0.11231708124E+04  0.25500000920E-02 0.  1.
    10030    2    1    2    0    0  0.00000000000E+00  0.00000000000E+00  0.46055914118E+03  0.27069007659E+04  0.26674326672E+04 0.  0.
        3    1    3    3  502    0  0.88713856680E+02  0.10019241969E+04  0.11190679157E+04  0.15046711451E+04  0.10100000352E+00 0. -1.
       -3    1    3    3    0  502 -0.88713856680E+02 -0.10019241969E+04 -0.65850877455E+03  0.12022296208E+04  0.10100000352E+00 0.  1.
</event>
<event>
 5   0  0.6993678E-06  0.2571506E+04  0.7818609E-02  0.8377945E-01
        1   -1    0    0  501    0  0.00000000000E+00  0.00000000000E+00  0.12578161722E+04  0.12578161722E+04  0.50400001928E-02 0. -1.
       -1   -1    0    0    0  501  0.00000000000E+00  0.00000000000E+00 -0.13143102557E+04  0.13143102558E+04  0.50400001928E-02 0.  1.
    10030    2    1    2    0    0  0.00000000000E+00  0.00000000000E+00 -0.56494083541E+02  0.25721264280E+04  0.25715059362E+04 0.  0.
        1    1    3    3  502    0  0.19056171066E+03  0.11214824246E+04 -0.62766128209E+03  0.12992287247E+04  0.50400001928E-02 0.  1.
       -1    1    3    3    0  502 -0.19056171066E+03 -0.11214824246E+04  0.57116719855E+03  0.12728977032E+04  0.50400001928E-02 0. -1.
</event>
<event>
 5   0  0.1702345E-05  0.2600717E+04  0.7818609E-02  0.8367958E-01
        2   -1    0    0  501    0  0.00000000000E+00  0.00000000000E+00  0.13317750466E+04  0.13317750466E+04  0.25500000920E-02 0. -1.
       -2   -1    0    0    0  501  0.00000000000E+00  0.00000000000E+00 -0.12696827550E+04  0.12696827550E+04  0.25500000920E-02 0.  1.
    10030    2    1    2    0    0  0.00000000000E+00  0.00000000000E+00  0.62092291574E+02  0.26014578016E+04  0.26007166783E+04 0.  0.
        1    1    3    3  502    0 -0.11218602125E+04  0.30476222882E+03 -0.55177026486E+03  0.12868180826E+04  0.50400001928E-02 0.  1.
       -1    1    3    3    0  502  0.11218602125E+04 -0.30476222882E+03  0.61386255643E+03  0.13146397190E+04  0.50400001928E-02 0. -1.
</event>
<event>
 5   0  0.6918420E-06  0.2593871E+04  0.7818609E-02  0.8370286E-01
       -1   -1    0    0    0  501  0.00000000000E+00  0.00000000000E+00  0.13253994759E+04  0.13253994759E+04  0.50400001928E-02 0.  1.
        1   -1    0    0  501    0  0.00000000000E+00  0.00000000000E+00 -0.12690828282E+04  0.12690828282E+04  0.50400001928E-02 0. -1.
    10030    2    1    2    0    0  0.00000000000E+00  0.00000000000E+00  0.56316647671E+02  0.25944823041E+04  0.25938710187E+04 0.  0.
        4    1    3    3  502    0 -0.64083924516E+03  0.10456174886E+03  0.11511125327E+04  0.13216163488E+04  0.12699999809E+01 0.  1.
       -4    1    3    3    0  502  0.64083924516E+03 -0.10456174886E+03 -0.10947958850E+04  0.12728659553E+04  0.12699999809E+01 0. -1.
</event>
<event>
 5   0  0.6706225E-06  0.2594237E+04  0.7818609E-02  0.8370161E-01
        1   -1    0    0  501    0  0.00000000000E+00  0.00000000000E+00  0.21964299116E+04  0.21964299116E+04  0.50400001928E-02 0.  1.
       -1   -1    0    0    0  501  0.00000000000E+00  0.00000000000E+00 -0.76602316425E+03  0.76602316426E+03  0.50400001928E-02 0. -1.
    10030    2    1    2    0    0  0.00000000000E+00  0.00000000000E+00  0.14304067473E+04  0.29624530758E+04  0.25942368365E+04 0.  0.
        5    1    3    3  502    0  0.29252529699E+03 -0.32716313343E+03 -0.67865475638E+03  0.80820859536E+03  0.46999998093E+01 0. -1.
       -5    1    3    3    0  502 -0.29252529699E+03  0.32716313343E+03  0.21090615037E+04  0.21542444805E+04  0.46999998093E+01 0.  1.
</event>
<event>
 5   0  0.7138294E-06  0.2638249E+04  0.7818609E-02  0.8355324E-01
       -1   -1    0    0    0  501  0.00000000000E+00  0.00000000000E+00  0.81641820380E+03  0.81641820381E+03  0.50400001928E-02 0.  1.
        1   -1    0    0  501    0  0.00000000000E+00  0.00000000000E+00 -0.21313701720E+04  0.21313701720E+04  0.50400001928E-02 0. -1.
    10030    2    1    2    0    0  0.00000000000E+00  0.00000000000E+00 -0.13149519682E+04  0.29477883758E+04  0.26382489704E+04 0.  0.
        2    1    3    3  502    0  0.52320577938E+03 -0.98190795761E+03  0.13433166501E+03  0.11206839523E+04  0.25500000920E-02 0.  1.
       -2    1    3    3    0  502 -0.52320577938E+03  0.98190795761E+03 -0.14492836332E+04  0.18271044235E+04  0.25500000920E-02 0. -1.
</event>
<event>
 5   0  0.6918420E-06  0.2590264E+04  0.7818609E-02  0.8371516E-01
       -1   -1    0    0    0  501  0.00000000000E+00  0.00000000000E+00  0.18163101305E+04  0.18163101305E+04  0.50400001928E-02 0. -1.
        1   -1    0    0  501    0  0.00000000000E+00  0.00000000000E+00 -0.92350262667E+03  0.92350262668E+03  0.50400001928E-02 0.  1.
    10030    2    1    2    0    0  0.00000000000E+00  0.00000000000E+00  0.89280750386E+03  0.27398127572E+04  0.25902642154E+04 0.  0.
        4    1    3    3  502    0 -0.57199083108E+03 -0.11655690550E+03  0.16692690155E+04  0.17683946624E+04  0.12699999809E+01 0. -1.
       -4    1    3    3    0  502  0.57199083108E+03  0.11655690550E+03 -0.77646151160E+03  0.97141809483E+03  0.12699999809E+01 0.  1.
</event>
<event>
 5   0  0.6706225E-06  0.2588354E+04  0.7818609E-02  0.8372168E-01
        1   -1    0    0  501    0  0.00000000000E+00  0.00000000000E+00  0.13772540814E+04  0.13772540814E+04  0.50400001928E-02 0.  1.
       -1   -1    0    0    0  501  0.00000000000E+00  0.00000000000E+00 -0.12161107781E+04  0.12161107781E+04  0.50400001928E-02 0. -1.
    10030    2    1    2    0    0  0.00000000000E+00  0.00000000000E+00  0.16114330331E+03  0.25933648596E+04  0.25883535560E+04 0.  0.
        5    1    3    3  502    0 -0.47329583243E+03  0.11049972070E+04 -0.39977669187E+03  0.12668351376E+04  0.46999998093E+01 0. -1.
       -5    1    3    3    0  502  0.47329583243E+03 -0.11049972070E+04  0.56091999519E+03  0.13265297220E+04  0.46999998093E+01 0.  1.
</event>
<event>
 5   0  0.1681731E-05  0.2301570E+04  0.7818609E-02  0.8477302E-01
       -2   -1    0    0    0  501  0.00000000000E+00  0.00000000000E+00  0.75017551628E+03  0.75017551628E+03  0.25500000920E-02 0.  1.
        2   -1    0    0  501    0  0.00000000000E+00  0.00000000000E+00 -0.17653280722E+04  0.17653280722E+04  0.25500000920E-02 0. -1.
    10030    2    1    2    0    0  0.00000000000E+00  0.00000000000E+00 -0.10151525560E+04  0.25155035885E+04  0.23015698104E+04 0.  0.
        2    1    3    3  502    0  0.67671680359E+03  0.38325013526E+03  0.41948839292E+03  0.88362707645E+03  0.25500000920E-02 0.  1.
       -2    1    3    3    0  502 -0.67671680359E+03 -0.38325013526E+03 -0.14346409489E+04  0.16318765121E+04  0.25500000920E-02 0. -1.
</event>
<event>
 5   0  0.6993678E-06  0.2599196E+04  0.7818609E-02  0.8368474E-01
       -1   -1    0    0    0  501  0.00000000000E+00  0.00000000000E+00  0.12203133948E+04  0.12203133948E+04  0.50400001928E-02 0.  1.
        1   -1    0    0  501    0  0.00000000000E+00  0.00000000000E+00 -0.13840336504E+04  0.13840336504E+04  0.50400001928E-02 0. -1.
    10030    2    1    2    0    0  0.00000000000E+00  0.00000000000E+00 -0.16372025555E+03  0.26043470452E+04  0.25991958776E+04 0.  0.
        1    1    3    3  502    0 -0.73379014985E+03  0.60255100509E+03  0.80727616121E+03  0.12462786599E+04  0.50400001928E-02 0.  1.
       -1    1    3    3    0  502  0.73379014985E+03 -0.60255100509E+03 -0.97099641676E+03  0.13580683853E+04  0.50400001928E-02 0. -1.
</event>
<event>
 5   0  0.6993678E-06  0.2765660E+04  0.7818609E-02  0.8314010E-01
       -1   -1    0    0    0  501  0.00000000000E+00  0.00000000000E+00  0.13735696284E+04  0.13735696284E+04  0.50400001928E-02 0. -1.
        1   -1    0    0  501    0  0.00000000000E+00  0.00000000000E+00 -0.13921523139E+04  0.13921523139E+04  0.50400001928E-02 0.  1.
    10030    2    1    2    0    0  0.00000000000E+00  0.00000000000E+00 -0.18582685511E+02  0.27657219422E+04  0.27656595137E+04 0.  0.
        1    1    3    3  502    0  0.14876037172E+03  0.11543678908E+04  0.73740031430E+03  0.13778440039E+04  0.50400001928E-02 0. -1.
       -1    1    3    3    0  502 -0.14876037172E+03 -0.11543678908E+04 -0.75598299981E+03  0.13878779383E+04  0.50400001928E-02 0.  1.
</event>
<event>
 5   0  0.6993678E-06  0.2589227E+04  0.7818609E-02  0.8371870E-01
       -1   -1    0    0    0  501  0.00000000000E+00  0.00000000000E+00  0.12676991474E+04  0.12676991474E+04  0.50400001928E-02 0.  1.
        1   -1    0    0  501    0  0.00000000000E+00  0.00000000000E+00 -0.13220991004E+04  0.13220991004E+04  0.50400001928E-02 0. -1.
    10030    2    1    2    0    0  0.00000000000E+00  0.00000000000E+00 -0.54399952941E+02  0.25897982478E+04  0.25892268362E+04 0.  0.
        1    1    3    3  502    0  0.10501022357E+04 -0.74834188830E+03 -0.14252336203E+03  0.12973215469E+04  0.50400001928E-02 0.  1.
       -1    1    3    3    0  502 -0.10501022357E+04  0.74834188830E+03  0.88123409086E+02  0.12924767009E+04  0.50400001928E-02 0. -1.
</event>
<event>
 5   0  0.1677971E-05  0.2611591E+04  0.7818609E-02  0.8364275E-01
        2   -1    0    0  501    0  0.00000000000E+00  0.00000000000E+00  0.18969781596E+04  0.18969781596E+04  0.25500000920E-02 0.  1.
       -2   -1    0    0    0  501  0.00000000000E+00  0.00000000000E+00 -0.89885161396E+03  0.89885161397E+03  0.25500000920E-02 0. -1.
    10030    2    1    2    0    0  0.00000000000E+00  0.00000000000E+00  0.99812654563E+03  0.27958297736E+04  0.26115909943E+04 0.  0.
        4    1    3    3  502    0  0.11923196755E+04  0.51092304449E+02 -0.68289679973E+02  0.11953667745E+04  0.12699999809E+01 0. -1.
       -4    1    3    3    0  502 -0.11923196755E+04 -0.51092304449E+02  0.10664162256E+04  0.16004629991E+04  0.12699999809E+01 0.  1.
</event>
<event>
 5   0  0.6984287E-06  0.2611720E+04  0.7818609E-02  0.8364231E-01
       -1   -1    0    0    0  501  0.00000000000E+00  0.00000000000E+00  0.17195187071E+04  0.17195187071E+04  0.50400001928E-02 0.  1.
        1   -1    0    0  501    0  0.00000000000E+00  0.00000000000E+00 -0.99171384602E+03  0.99171384603E+03  0.50400001928E-02 0. -1.
    10030    2    1    2    0    0  0.00000000000E+00  0.00000000000E+00  0.72780486109E+03  0.27112325531E+04  0.26117201308E+04 0.  0.
        3    1    3    3  502    0  0.59110839516E+03 -0.54313050885E+03 -0.70532808268E+03  0.10685914088E+04  0.10100000352E+00 0. -1.
       -3    1    3    3    0  502 -0.59110839516E+03  0.54313050885E+03  0.14331329438E+04  0.16426411444E+04  0.10100000352E+00 0.  1.
</event>
<event>
 5   0  0.1677971E-05  0.2608553E+04  0.7818609E-02  0.8365302E-01
        2   -1    0    0  501    0  0.00000000000E+00  0.00000000000E+00  0.14964304822E+04  0.14964304822E+04  0.25500000920E-02 0.  1.
       -2   -1    0    0    0  501  0.00000000000E+00  0.00000000000E+00 -0.11367962499E+04  0.11367962499E+04  0.25500000920E-02 0. -1.
    10030    2    1    2    0    0  0.00000000000E+00  0.00000000000E+00  0.35963423229E+03  0.26332267321E+04  0.26085525185E+04 0.  0.
        4    1    3    3  502    0 -0.72845503282E+03 -0.34695441483E+03  0.12142593481E+04  0.14578928212E+04  0.12699999809E+01 0.  1.
       -4    1    3    3    0  502  0.72845503282E+03  0.34695441483E+03 -0.85462511577E+03  0.11753339109E+04  0.12699999809E+01 0. -1.
</event>
<event>
 5   0  0.1720129E-05  0.2532892E+04  0.7818609E-02  0.8391360E-01
       -2   -1    0    0    0  501  0.00000000000E+00  0.00000000000E+00  0.96598979293E+03  0.96598979294E+03  0.25500000920E-02 0.  1.
        2   -1    0    0  501    0  0.00000000000E+00  0.00000000000E+00 -0.16603544847E+04  0.16603544847E+04  0.25500000920E-02 0. -1.
    10030    2    1    2    0    0  0.00000000000E+00  0.00000000000E+00 -0.69436469175E+03  0.26263442776E+04  0.25328920110E+04 0.  0.
        3    1    3    3  502    0 -0.17108156906E+03 -0.64694924503E+03 -0.14620611445E+04  0.16079288011E+04  0.10100000352E+00 0. -1.
       -3    1    3    3    0  502  0.17108156906E+03  0.64694924503E+03  0.76769645280E+03  0.10184154765E+04  0.10100000352E+00 0.  1.
</event>
<event>
 5   0  0.1702345E-05  0.2597121E+04  0.7818609E-02  0.8369180E-01
       -2   -1    0    0    0  501  0.00000000000E+00  0.00000000000E+00  0.16559494994E+04  0.16559494994E+04  0.25500000920E-02 0. -1.
        2   -1    0    0  501    0  0.00000000000E+00  0.00000000000E+00 -0.10183036342E+04  0.10183036342E+04  0.25500000920E-02 0.  1.
    10030    2    1    2    0    0  0.00000000000E+00  0.00000000000E+00  0.63764586521E+03  0.26742531335E+04  0.25971210162E+04 0.  0.
        1    1    3    3  502    0 -0.74927271630E+03 -0.95625229025E+03 -0.15352883457E+03  0.12244995505E+04  0.50400001928E-02 0.  1.
       -1    1    3    3    0  502  0.74927271630E+03  0.95625229025E+03  0.79117469978E+03  0.14497535831E+04  0.50400001928E-02 0. -1.
</event>
<event>
 5   0  0.1677971E-05  0.2604516E+04  0.7818609E-02  0.8366669E-01
        2   -1    0    0  501    0  0.00000000000E+00  0.00000000000E+00  0.25109820545E+04  0.25109820545E+04  0.25500000920E-02 0. -1.
       -2   -1    0    0    0  501  0.00000000000E+00  0.00000000000E+00 -0.67538361694E+03  0.67538361694E+03  0.25500000920E-02 0.  1.
    10030    2    1    2    0    0  0.00000000000E+00  0.00000000000E+00  0.18355984375E+04  0.31863656714E+04  0.26045161869E+04 0.  0.
        4    1    3    3  502    0 -0.80815338677E+03 -0.10193840829E+04  0.84420456096E+03  0.15507864968E+04  0.12699999809E+01 0. -1.
       -4    1    3    3    0  502  0.80815338677E+03  0.10193840829E+04  0.99139387657E+03  0.16355791746E+04  0.12699999809E+01 0.  1.
</event>
<event>
 5   0  0.6984287E-06  0.2574363E+04  0.7818609E-02  0.8376962E-01
        1   -1    0    0  501    0  0.00000000000E+00  0.00000000000E+00  0.18217581606E+04  0.18217581606E+04  0.50400001928E-02 0. -1.
       -1   -1    0    0    0  501  0.00000000000E+00  0.00000000000E+00 -0.90947081817E+03  0.90947081819E+03  0.50400001928E-02 0.  1.
    10030    2    1    2    0    0  0.00000000000E+00  0.00000000000E+00  0.91228734238E+03  0.27312289788E+04  0.25743627443E+04 0.  0.
        3    1    3    3  502    0 -0.15345704202E+03 -0.96589270718E+03  0.13439990772E+04  0.16621766799E+04  0.10100000352E+00 0. -1.
       -3    1    3    3    0  502  0.15345704202E+03  0.96589270718E+03 -0.43171173480E+03  0.10690522989E+04  0.10100000352E+00 0.  1.
</event>
<event>
 5   0  0.1720129E-05  0.2641444E+04  0.7818609E-02  0.8354258E-01
       -2   -1    0    0    0  501  0.00000000000E+00  0.00000000000E+00  0.97514165967E+03  0.97514165968E+03  0.25500000920E-02 0.  1.
        2   -1    0    0  501    0  0.00000000000E+00  0.00000000000E+00 -0.17887730292E+04  0.17887730292E+04  0.25500000920E-02 0. -1.
    10030    2    1    2    0    0  0.00000000000E+00  0.00000000000E+00 -0.81363136949E+03  0.27639146888E+04  0.26414443779E+04 0.  0.
        3    1    3    3  502    0  0.32040593902E+03  0.10704640878E+04  0.32992757765E+03  0.11650774849E+04  0.10100000352E+00 0.  1.
       -3    1    3    3    0  502 -0.32040593902E+03 -0.10704640878E+04 -0.11435589471E+04  0.15988372040E+04  0.10100000352E+00 0. -1.
</event>
<event>
 5   0  0.6984287E-06  0.2615003E+04  0.7818609E-02  0.8363123E-01
        1   -1    0    0  501    0  0.00000000000E+00  0.00000000000E+00  0.13268703401E+04  0.13268703401E+04  0.50400001928E-02 0.  1.
       -1   -1    0    0    0  501  0.00000000000E+00  0.00000000000E+00 -0.12884153530E+04  0.12884153530E+04  0.50400001928E-02 0. -1.
    10030    2    1    2    0    0  0.00000000000E+00  0.00000000000E+00  0.38454987051E+02  0.26152856931E+04  0.26150029580E+04 0.  0.
        3    1    3    3  502    0  0.85663701680E+03 -0.58649203928E+03  0.81414688341E+03  0.13193312884E+04  0.10100000352E+00 0.  1.
       -3    1    3    3    0  502 -0.85663701680E+03  0.58649203928E+03 -0.77569189636E+03  0.12959544047E+04  0.10100000352E+00 0. -1.
</event>
<event>
 5   0  0.1677971E-05  0.2608392E+04  0.7818609E-02  0.8365356E-01
       -2   -1    0    0    0  501  0.00000000000E+00  0.00000000000E+00  0.11453374176E+04  0.11453374176E+04  0.25500000920E-02 0.  1.
        2   -1    0    0  501    0  0.00000000000E+00  0.00000000000E+00 -0.14850886917E+04  0.14850886917E+04  0.25500000920E-02 0. -1.
    10030    2    1    2    0    0  0.00000000000E+00  0.00000000000E+00 -0.33975127415E+03  0.26304261093E+04  0.26083923379E+04 0.  0.
        4    1    3    3  502    0  0.76124842825E+03  0.20419600624E+03 -0.12177541789E+04  0.14505592134E+04  0.12699999809E+01 0. -1.
       -4    1    3    3    0  502 -0.76124842825E+03 -0.20419600624E+03  0.87800290475E+03  0.11798668959E+04  0.12699999809E+01 0.  1.
</event>
<event>
 5   0  0.1681731E-05  0.2624181E+04  0.7818609E-02  0.8360033E-01
       -2   -1    0    0    0  501  0.00000000000E+00  0.00000000000E+00  0.10936906919E+04  0.10936906919E+04  0.25500000920E-02 0.  1.
        2   -1    0    0  501    0  0.00000000000E+00  0.00000000000E+00 -0.15741032715E+04  0.15741032715E+04  0.25500000920E-02 0. -1.
    10030    2    1    2    0    0  0.00000000000E+00  0.00000000000E+00 -0.48041257959E+03  0.26677939635E+04  0.26241814695E+04 0.  0.
        2    1    3    3  502    0  0.86217592582E+03  0.24379622490E+03  0.73426372893E+03  0.11584157932E+04  0.25500000920E-02 0.  1.
       -2    1    3    3    0  502 -0.86217592582E+03 -0.24379622490E+03 -0.12146763085E+04  0.15093781702E+04  0.25500000920E-02 0. -1.
</event>
<event>
 5   0  0.1702345E-05  0.2260835E+04  0.7818609E-02  0.8493525E-01
       -2   -1    0    0    0  501  0.00000000000E+00  0.00000000000E+00  0.83079164471E+03  0.83079164472E+03  0.25500000920E-02 0.  1.
        2   -1    0    0  501    0  0.00000000000E+00  0.00000000000E+00 -0.15381039770E+04  0.15381039770E+04  0.25500000920E-02 0. -1.
    10030    2    1    2    0    0  0.00000000000E+00  0.00000000000E+00 -0.70731233225E+03  0.23688956217E+04  0.22608351844E+04 0.  0.
        1    1    3    3  502    0 -0.47974946195E+03 -0.74720589482E+03  0.37932816176E+03  0.96559103653E+03  0.50400001928E-02 0.  1.
       -1    1    3    3    0  502  0.47974946195E+03  0.74720589482E+03 -0.10866404940E+04  0.14033045852E+04  0.50400001928E-02 0. -1.
</event>
<event>
 5   0  0.1702345E-05  0.2605095E+04  0.7818609E-02  0.8366473E-01
        2   -1    0    0  501    0  0.00000000000E+00  0.00000000000E+00  0.19085482422E+04  0.19085482422E+04  0.25500000920E-02 0. -1.
       -2   -1    0    0    0  501  0.00000000000E+00  0.00000000000E+00 -0.88896367433E+03  0.88896367434E+03  0.25500000920E-02 0.  1.
    10030    2    1    2    0    0  0.00000000000E+00  0.00000000000E+00  0.10195845678E+04  0.27975119165E+04  0.26050950524E+04 0.  0.
        1    1    3    3  502    0  0.22740617166E+03  0.72854032329E+03  0.16432865410E+04  0.18118706426E+04  0.50400001928E-02 0. -1.
       -1    1    3    3    0  502 -0.22740617166E+03 -0.72854032329E+03 -0.62370197315E+03  0.98564127395E+03  0.50400001928E-02 0.  1.
</event>
<event>
 5   0  0.1681731E-05  0.2600939E+04  0.7818609E-02  0.8367882E-01
        2   -1    0    0  501    0  0.00000000000E+00  0.00000000000E+00  0.19189960301E+04  0.19189960301E+04  0.25500000920E-02 0. -1.
       -2   -1    0    0    0  501  0.00000000000E+00  0.00000000000E+00 -0.88130492271E+03  0.88130492272E+03  0.25500000920E-02 0.  1.
    10030    2    1    2    0    0  0.00000000000E+00  0.00000000000E+00  0.10376911074E+04  0.28003009528E+04  0.26009387905E+04 0.  0.
        2    1    3    3  502    0 -0.12447291211E+04 -0.37660361494E+03  0.51205494604E+03  0.13976341207E+04  0.25500000920E-02 0. -1.
       -2    1    3    3    0  502  0.12447291211E+04  0.37660361494E+03  0.52563616132E+03  0.14026668321E+04  0.25500000920E-02 0.  1.
</event>
<event>
 5   0  0.7138294E-06  0.2593946E+04  0.7818609E-02  0.8370261E-01
       -1   -1    0    0    0  501  0.00000000000E+00  0.00000000000E+00  0.11230464840E+04  0.11230464840E+04  0.50400001928E-02 0. -1.
        1   -1    0    0  501    0  0.00000000000E+00  0.00000000000E+00 -0.14978354842E+04  0.14978354842E+04  0.50400001928E-02 0.  1.
    10030    2    1    2    0    0  0.00000000000E+00  0.00000000000E+00 -0.37478900021E+03  0.26208819681E+04  0.25939459316E+04 0.  0.
        2    1    3    3  502    0  0.74424005884E+03  0.81999600517E+01  0.88579256078E+03  0.11569740556E+04  0.25500000920E-02 0. -1.
       -2    1    3    3    0  502 -0.74424005884E+03 -0.81999600517E+01 -0.12605815610E+04  0.14639079126E+04  0.25500000920E-02 0.  1.
</event>
<event>
 5   0  0.7138294E-06  0.2650773E+04  0.7818609E-02  0.8351156E-01
        1   -1    0    0  501    0  0.00000000000E+00  0.00000000000E+00  0.19813648136E+04  0.19813648136E+04  0.50400001928E-02 0. -1.
       -1   -1    0    0    0  501  0.00000000000E+00  0.00000000000E+00 -0.88658580989E+03  0.88658580991E+03  0.50400001928E-02 0.  1.
    10030    2    1    2    0    0  0.00000000000E+00  0.00000000000E+00  0.10947790037E+04  0.28679506235E+04  0.26507734177E+04 0.  0.
        2    1    3    3  502    0 -0.11876883488E+04 -0.15034783762E+03  0.11627040225E+04  0.16688585110E+04  0.25500000920E-02 0. -1.
       -2    1    3    3    0  502  0.11876883488E+04  0.15034783762E+03 -0.67925018718E+02  0.11990921125E+04  0.25500000920E-02 0.  1.
</event>
<event>
 5   0  0.6918420E-06  0.2611417E+04  0.7818609E-02  0.8364333E-01
       -1   -1    0    0    0  501  0.00000000000E+00  0.00000000000E+00  0.19421858297E+04  0.19421858297E+04  0.50400001928E-02 0.  1.
        1   -1    0    0  501    0  0.00000000000E+00  0.00000000000E+00 -0.87781225612E+03  0.87781225613E+03  0.50400001928E-02 0. -1.
    10030    2    1    2    0    0  0.00000000000E+00  0.00000000000E+00  0.10643735736E+04  0.28199980858E+04  0.26114168759E+04 0.  0.
        4    1    3    3  502    0  0.64309500069E+03  0.41891196102E+03 -0.60850577013E+03  0.97945867508E+03  0.12699999809E+01 0. -1.
       -4    1    3    3    0  502 -0.64309500069E+03 -0.41891196102E+03  0.16728793437E+04  0.18405394107E+04  0.12699999809E+01 0.  1.
</event>
<event>
 5   0  0.6706225E-06  0.2653997E+04  0.7818609E-02  0.8350087E-01
       -1   -1    0    0    0  501  0.00000000000E+00  0.00000000000E+00  0.15217531383E+04  0.15217531383E+04  0.50400001928E-02 0. -1.
        1   -1    0    0  501    0  0.00000000000E+00  0.00000000000E+00 -0.11571688920E+04  0.11571688920E+04  0.50400001928E-02 0.  1.
    10030    2    1    2    0    0  0.00000000000E+00  0.00000000000E+00  0.36458424631E+03  0.26789220303E+04  0.26539972818E+04 0.  0.
        5    1    3    3  502    0 -0.96315434123E+03 -0.73983912669E+03 -0.35740207956E+03  0.12660120674E+04  0.46999998093E+01 0.  1.
       -5    1    3    3    0  502  0.96315434123E+03  0.73983912669E+03  0.72198632586E+03  0.14129099629E+04  0.46999998093E+01 0. -1.
</event>
<event>
 5   0  0.6706225E-06  0.2414184E+04  0.7818609E-02  0.8434212E-01
       -1   -1    0    0    0  501  0.00000000000E+00  0.00000000000E+00  0.79797796618E+03  0.79797796620E+03  0.50400001928E-02 0.  1.
        1   -1    0    0  501    0  0.00000000000E+00  0.00000000000E+00 -0.18259537363E+04  0.18259537363E+04  0.50400001928E-02 0. -1.
    10030    2    1    2    0    0  0.00000000000E+00  0.00000000000E+00 -0.10279757701E+04  0.26239317025E+04  0.24141837949E+04 0.  0.
        5    1    3    3  502    0  0.54195894129E+03  0.76520175110E+03 -0.13401576378E+04  0.16356337604E+04  0.46999998093E+01 0. -1.
       -5    1    3    3    0  502 -0.54195894129E+03 -0.76520175110E+03  0.31218186767E+03  0.98829794213E+03  0.46999998093E+01 0.  1.
</event>
<event>
 5   0  0.1720129E-05  0.2613747E+04  0.7818609E-02  0.8363546E-01
        2   -1    0    0  501    0  0.00000000000E+00  0.00000000000E+00  0.18195334577E+04  0.18195334577E+04  0.25500000920E-02 0.  1.
       -2   -1    0    0    0  501  0.00000000000E+00  0.00000000000E+00 -0.93865753701E+03  0.93865753701E+03  0.25500000920E-02 0. -1.
    10030    2    1    2    0    0  0.00000000000E+00  0.00000000000E+00  0.88087592072E+03  0.27581909947E+04  0.26137473435E+04 0.  0.
        3    1    3    3  502    0  0.89903810955E+03 -0.14055562475E+03  0.14303024766E+04  0.16952258229E+04  0.10100000352E+00 0.  1.
       -3    1    3    3    0  502 -0.89903810955E+03  0.14055562475E+03 -0.54942655583E+03  0.10629651718E+04  0.10100000352E+00 0. -1.
</event>
<event>
 5   0  0.1720129E-05  0.2585801E+04  0.7818609E-02  0.8373040E-01
       -2   -1    0    0    0  501  0.00000000000E+00  0.00000000000E+00  0.72902656034E+03  0.72902656034E+03  0.25500000920E-02 0. -1.
        2   -1    0    0  501    0  0.00000000000E+00  0.00000000000E+00 -0.22929098701E+04  0.22929098701E+04  0.25500000920E-02 0.  1.
    10030    2    1    2    0    0  0.00000000000E+00  0.00000000000E+00 -0.15638833098E+04  0.30219364304E+04  0.25858013812E+04 0.  0.
        3    1    3    3  502    0  0.59172226733E+03  0.18975538281E+03  0.54306398914E+03  0.82526411134E+03  0.10100000352E+00 0. -1.
       -3    1    3    3    0  502 -0.59172226733E+03 -0.18975538281E+03 -0.21069472989E+04  0.21966723191E+04  0.10100000352E+00 0.  1.
</event>
<event>
 5   0  0.6706225E-06  0.2547818E+04  0.7818609E-02  0.8386146E-01
       -1   -1    0    0    0  501  0.00000000000E+00  0.00000000000E+00  0.99000628886E+03  0.99000628887E+03  0.50400001928E-02 0. -1.
        1   -1    0    0  501    0  0.00000000000E+00  0.00000000000E+00 -0.16392256111E+04  0.16392256111E+04  0.50400001928E-02 0.  1.
    10030    2    1    2    0    0  0.00000000000E+00  0.00000000000E+00 -0.64921932221E+03  0.26292318999E+04  0.25478176260E+04 0.  0.
        5    1    3    3  502    0  0.73067474537E+03 -0.61580654752E+03 -0.11939774654E+04  0.15292833502E+04  0.46999998093E+01 0.  1.
       -5    1    3    3    0  502 -0.73067474537E+03  0.61580654752E+03  0.54475814315E+03  0.10999485497E+04  0.46999998093E+01 0. -1.
</event>
<event>
 5   0  0.1702345E-05  0.2660573E+04  0.7818609E-02  0.8347912E-01
        2   -1    0    0  501    0  0.00000000000E+00  0.00000000000E+00  0.12275826239E+04  0.12275826239E+04  0.25500000920E-02 0. -1.
       -2   -1    0    0    0  501  0.00000000000E+00  0.00000000000E+00 -0.14415825921E+04  0.14415825921E+04  0.25500000920E-02 0.  1.
    10030    2    1    2    0    0  0.00000000000E+00  0.00000000000E+00 -0.21399996818E+03  0.26691652161E+04  0.26605726760E+04 0.  0.
        1    1    3    3  502    0 -0.38307863664E+03  0.48228269681E+03 -0.12899246147E+04  0.14294234338E+04  0.50400001928E-02 0.  1.
       -1    1    3    3    0  502  0.38307863664E+03 -0.48228269681E+03  0.10759246466E+04  0.12397417822E+04  0.50400001928E-02 0. -1.
</event>
<event>
 5   0  0.7138294E-06  0.2610156E+04  0.7818609E-02  0.8364760E-01
       -1   -1    0    0    0  501  0.00000000000E+00  0.00000000000E+00  0.82094628951E+03  0.82094628952E+03  0.50400001928E-02 0.  1.
        1   -1    0    0  501    0  0.00000000000E+00  0.00000000000E+00 -0.20747138812E+04  0.20747138812E+04  0.50400001928E-02 0. -1.
    10030    2    1    2    0    0  0.00000000000E+00  0.00000000000E+00 -0.12537675917E+04  0.28956601707E+04  0.26101560586E+04 0.  0.
        2    1    3    3  502    0 -0.11578860913E+04 -0.49734749771E+03 -0.10033779254E+04  0.16108451183E+04  0.25500000920E-02 0. -1.
       -2    1    3    3    0  502  0.11578860913E+04  0.49734749771E+03 -0.25038966626E+03  0.12848150524E+04  0.25500000920E-02 0.  1.
</event>
<event>
 5   0  0.1720129E-05  0.2652894E+04  0.7818609E-02  0.8350453E-01
        2   -1    0    0  501    0  0.00000000000E+00  0.00000000000E+00  0.11078393317E+04  0.11078393317E+04  0.25500000920E-02 0. -1.
       -2   -1    0    0    0  501  0.00000000000E+00  0.00000000000E+00 -0.15881920566E+04  0.15881920566E+04  0.25500000920E-02 0.  1.
    10030    2    1    2    0    0  0.00000000000E+00  0.00000000000E+00 -0.48035272498E+03  0.26960313883E+04  0.26528939870E+04 0.  0.
        3    1    3    3  502    0 -0.48336781854E+03  0.12256756209E+04 -0.39608689068E+03  0.13757943199E+04  0.10100000352E+00 0. -1.
       -3    1    3    3    0  502  0.48336781854E+03 -0.12256756209E+04 -0.84265834298E+02  0.13202370684E+04  0.10100000352E+00 0.  1.
</event>
<event>
 5   0  0.1677971E-05  0.2588752E+04  0.7818609E-02  0.8372032E-01
        2   -1    0    0  501    0  0.00000000000E+00  0.00000000000E+00  0.19520695724E+04  0.19520695724E+04  0.25500000920E-02 0.  1.
       -2   -1    0    0    0  501  0.00000000000E+00  0.00000000000E+00 -0.85827328896E+03  0.85827328897E+03  0.25500000920E-02 0. -1.
    10030    2    1    2    0    0  0.00000000000E+00  0.00000000000E+00  0.10937962834E+04  0.28103428614E+04  0.25887519558E+04 0.  0.
        4    1    3    3  502    0 -0.10542620644E+03  0.12783760616E+04  0.35871826549E+03  0.13319310969E+04  0.12699999809E+01 0. -1.
       -4    1    3    3    0  502  0.10542620644E+03 -0.12783760616E+04  0.73507801793E+03  0.14784117645E+04  0.12699999809E+01 0.  1.
</event>
<event>
 5   0  0.1869956E-05  0.2653769E+04  0.7818609E-02  0.8350163E-01
        2   -1    0    0  501    0  0.00000000000E+00  0.00000000000E+00  0.12143628858E+04  0.12143628858E+04  0.25500000920E-02 0.  1.
       -2   -1    0    0    0  501  0.00000000000E+00  0.00000000000E+00 -0.14498322878E+04  0.14498322878E+04  0.25500000920E-02 0. -1.
    10030    2    1    2    0    0  0.00000000000E+00  0.00000000000E+00 -0.23546940196E+03  0.26641951736E+04  0.26537690336E+04 0.  0.
        5    1    3    3  502    0 -0.40059732610E+03  0.39102249587E+03  0.10899977517E+04  0.12253546420E+04  0.46999998093E+01 0.  1.
       -5    1    3    3    0  502  0.40059732610E+03 -0.39102249587E+03 -0.13254671537E+04  0.14388405316E+04  0.46999998093E+01 0. -1.
</event>
<event>
 5   0  0.6993678E-06  0.2585975E+04  0.7818609E-02  0.8372981E-01
        1   -1    0    0  501    0  0.00000000000E+00  0.00000000000E+00  0.90493521426E+03  0.90493521427E+03  0.50400001928E-02 0.  1.
       -1   -1    0    0    0  501  0.00000000000E+00  0.00000000000E+00 -0.18474430625E+04  0.18474430625E+04  0.50400001928E-02 0. -1.
    10030    2    1    2    0    0  0.00000000000E+00  0.00000000000E+00 -0.94250784825E+03  0.27523782768E+04  0.25859746972E+04 0.  0.
        1    1    3    3  502    0  0.74869731254E+03 -0.17350153588E+03  0.63544632335E+03  0.99721736780E+03  0.50400001928E-02 0.  1.
       -1    1    3    3    0  502 -0.74869731254E+03  0.17350153588E+03 -0.15779541716E+04  0.17551609090E+04  0.50400001928E-02 0. -1.
</event>
<event>
 5   0  0.6984287E-06  0.2520136E+04  0.7818609E-02  0.8395847E-01
       -1   -1    0    0    0  501  0.00000000000E+00  0.00000000000E+00  0.10743519242E+04  0.10743519242E+04  0.50400001928E-02 0. -1.
        1   -1    0    0  501    0  0.00000000000E+00  0.00000000000E+00 -0.14778878340E+04  0.14778878340E+04  0.50400001928E-02 0.  1.
    10030    2    1    2    0    0  0.00000000000E+00  0.00000000000E+00 -0.40353590981E+03  0.25522397582E+04  0.25201362171E+04 0.  0.
        3    1    3    3  502    0 -0.20612799739E+03  0.33941888973E+03 -0.14128603314E+04  0.14676063029E+04  0.10100000352E+00 0.  1.
       -3    1    3    3    0  502  0.20612799739E+03 -0.33941888973E+03  0.10093244216E+04  0.10846334553E+04  0.10100000352E+00 0. -1.
</event>
<event>
 5   0  0.6918420E-06  0.2594036E+04  0.7818609E-02  0.8370230E-01
        1   -1    0    0  501    0  0.00000000000E+00  0.00000000000E+00  0.29942317069E+04  0.29942317069E+04  0.50400001928E-02 0. -1.
       -1   -1    0    0    0  501  0.00000000000E+00  0.00000000000E+00 -0.56183201989E+03  0.56183201991E+03  0.50400001928E-02 0.  1.
    10030    2    1    2    0    0  0.00000000000E+00  0.00000000000E+00  0.24323996870E+04  0.35560637268E+04  0.25940356574E+04 0.  0.
        4    1    3    3  502    0 -0.93825034585E+03  0.11999131849E+03 -0.35154200370E+00  0.94589289271E+03  0.12699999809E+01 0.  1.
       -4    1    3    3    0  502  0.93825034585E+03 -0.11999131849E+03  0.24327512290E+04  0.26101708341E+04  0.12699999809E+01 0. -1.
</event>
<event>
 5   0  0.6706225E-06  0.2611068E+04  0.7818609E-02  0.8364451E-01
        1   -1    0    0  501    0  0.00000000000E+00  0.00000000000E+00  0.17684605206E+04  0.17684605206E+04  0.50400001928E-02 0.  1.
       -1   -1    0    0    0  501  0.00000000000E+00  0.00000000000E+00 -0.96378701685E+03  0.96378701686E+03  0.50400001928E-02 0. -1.
    10030    2    1    2    0    0  0.00000000000E+00  0.00000000000E+00  0.80467350379E+03  0.27322475375E+04  0.26110682026E+04 0.  0.
        5    1    3    3  502    0 -0.94218787506E+03  0.89408993873E+03  0.53990041057E+03  0.14066376057E+04  0.46999998093E+01 0. -1.
       -5    1    3    3    0  502  0.94218787506E+03 -0.89408993873E+03  0.26477309323E+03  0.13256099318E+04  0.46999998093E+01 0.  1.
</event>
<event>
 5   0  0.1720129E-05  0.2590404E+04  0.7818609E-02  0.8371468E-01
        2   -1    0    0  501    0  0.00000000000E+00  0.00000000000E+00  0.24346228445E+04  0.24346228445E+04  0.25500000920E-02 0.  1.
       -2   -1    0    0    0  501  0.00000000000E+00  0.00000000000E+00 -0.68903849311E+03  0.68903849312E+03  0.25500000920E-02 0. -1.
    10030    2    1    2    0    0  0.00000000000E+00  0.00000000000E+00  0.17455843513E+04  0.31236613376E+04  0.25904044905E+04 0.  0.
        3    1    3    3  502    0 -0.10955502436E+04 -0.19538745693E+03  0.16718881999E+04  0.20083866057E+04  0.10100000352E+00 0.  1.
       -3    1    3    3    0  502  0.10955502436E+04  0.19538745693E+03  0.73696151434E+02  0.11152747319E+04  0.10100000352E+00 0. -1.
</event>
<event>
 5   0  0.7138294E-06  0.2562331E+04  0.7818609E-02  0.8381110E-01
        1   -1    0    0  501    0  0.00000000000E+00  0.00000000000E+00  0.17155433313E+04  0.17155433313E+04  0.50400001928E-02 0. -1.
       -1   -1    0    0    0  501  0.00000000000E+00  0.00000000000E+00 -0.95677277966E+03  0.95677277968E+03  0.50400001928E-02 0.  1.
    10030    2    1    2    0    0  0.00000000000E+00  0.00000000000E+00  0.75877055164E+03  0.26723161110E+04  0.25623310963E+04 0.  0.
        2    1    3    3  502    0  0.19448111613E+03  0.36685593092E+03  0.16434239857E+04  0.16950659501E+04  0.25500000920E-02 0. -1.
       -2    1    3    3    0  502 -0.19448111613E+03 -0.36685593092E+03 -0.88465343403E+03  0.97725016087E+03  0.25500000920E-02 0.  1.
</event>
<event>
 5   0  0.6918420E-06  0.2579003E+04  0.7818609E-02  0.8375369E-01
       -1   -1    0    0    0  501  0.00000000000E+00  0.00000000000E+00  0.80255273093E+03  0.80255273094E+03  0.50400001928E-02 0.  1.
        1   -1    0    0  501    0  0.00000000000E+00  0.00000000000E+00 -0.20719065820E+04  0.20719065820E+04  0.50400001928E-02 0. -1.
    10030    2    1    2    0    0  0.00000000000E+00  0.00000000000E+00 -0.12693538511E+04  0.28744593130E+04  0.25790031296E+04 0.  0.
        4    1    3    3  502    0  0.40573510697E+03  0.94011087759E+03 -0.15082997546E+04  0.18230192543E+04  0.12699999809E+01 0. -1.
       -4    1    3    3    0  502 -0.40573510697E+03 -0.94011087759E+03  0.23894590347E+03  0.10514400586E+04  0.12699999809E+01 0.  1.
</event>
<event>
 5   0  0.6984287E-06  0.2598996E+04  0.7818609E-02  0.8368542E-01
        1   -1    0    0  501    0  0.00000000000E+00  0.00000000000E+00  0.23277924412E+04  0.23277924412E+04  0.50400001928E-02 0. -1.
       -1   -1    0    0    0  501  0.00000000000E+00  0.00000000000E+00 -0.72544940469E+03  0.72544940470E+03  0.50400001928E-02 0.  1.
    10030    2    1    2    0    0  0.00000000000E+00  0.00000000000E+00  0.16023430365E+04  0.30532418459E+04  0.25989964530E+04 0.  0.
        3    1    3    3  502    0  0.14125002074E+03 -0.97292345329E+00 -0.71640382810E+03  0.73019652838E+03  0.10100000352E+00 0.  1.
       -3    1    3    3    0  502 -0.14125002074E+03  0.97292345329E+00  0.23187468646E+04  0.23230453175E+04  0.10100000352E+00 0. -1.
</event>
<event>
 5   0  0.6918420E-06  0.2587307E+04  0.7818609E-02  0.8372526E-01
        1   -1    0    0  501    0  0.00000000000E+00  0.00000000000E+00  0.15191923746E+04  0.15191923746E+04  0.50400001928E-02 0. -1.
       -1   -1    0    0    0  501  0.00000000000E+00  0.00000000000E+00 -0.11015977365E+04  0.11015977365E+04  0.50400001928E-02 0.  1.
    10030    2    1    2    0    0  0.00000000000E+00  0.00000000000E+00  0.41759463812E+03  0.26207901111E+04  0.25873066159E+04 0.  0.
        4    1    3    3  502    0 -0.35959807519E+03  0.29509854372E+03 -0.10139465122E+04  0.11155640137E+04  0.12699999809E+01 0.  1.
       -4    1    3    3    0  502  0.35959807519E+03 -0.29509854372E+03  0.14315411504E+04  0.15052260974E+04  0.12699999809E+01 0. -1.
</event>
<event>
 5   0  0.1681731E-05  0.2599059E+04  0.7818609E-02  0.8368521E-01
        2   -1    0    0  501    0  0.00000000000E+00  0.00000000000E+00  0.14370962158E+04  0.14370962158E+04  0.25500000920E-02 0.  1.
       -2   -1    0    0    0  501  0.00000000000E+00  0.00000000000E+00 -0.11751313468E+04  0.11751313468E+04  0.25500000920E-02 0. -1.
    10030    2    1    2    0    0  0.00000000000E+00  0.00000000000E+00  0.26196486900E+03  0.26122275626E+04  0.25990589155E+04 0.  0.
        2    1    3    3  502    0  0.93187052409E+03 -0.50302933985E+02  0.10399227439E+04  0.13972660348E+04  0.25500000920E-02 0.  1.
       -2    1    3    3    0  502 -0.93187052409E+03  0.50302933985E+02 -0.77795787491E+03  0.12149615278E+04  0.25500000920E-02 0. -1.
</event>
<event>
 5   0  0.1869956E-05  0.2592488E+04  0.7818609E-02  0.8370757E-01
       -2   -1    0    0    0  501  0.00000000000E+00  0.00000000000E+00  0.13802746917E+04  0.13802746917E+04  0.25500000920E-02 0.  1.
        2   -1    0    0  501    0  0.00000000000E+00  0.00000000000E+00 -0.12173287449E+04  0.12173287449E+04  0.25500000920E-02 0. -1.
    10030    2    1    2    0    0  0.00000000000E+00  0.00000000000E+00  0.16294594680E+03  0.25976034365E+04  0.25924876532E+04 0.  0.
        5    1    3    3  502    0  0.29617010703E+03  0.11582324532E+04  0.58346742185E+03  0.13302914982E+04  0.46999998093E+01 0.  1.
       -5    1    3    3    0  502 -0.29617010703E+03 -0.11582324532E+04 -0.42052147506E+03  0.12673119383E+04  0.46999998093E+01 0. -1.
</event>
<event>
 5   0  0.1720129E-05  0.2593937E+04  0.7818609E-02  0.8370264E-01
       -2   -1    0    0    0  501  0.00000000000E+00  0.00000000000E+00  0.10988833544E+04  0.10988833544E+04  0.25500000920E-02 0.  1.
        2   -1    0    0  501    0  0.00000000000E+00  0.00000000000E+00 -0.15307605141E+04  0.15307605141E+04  0.25500000920E-02 0. -1.
    10030    2    1    2    0    0  0.00000000000E+00  0.00000000000E+00 -0.43187715966E+03  0.26296438685E+04  0.25939369680E+04 0.  0.
        3    1    3    3  502    0  0.54509449108E+03 -0.82500794547E+03  0.63487655428E+03  0.11750890875E+04  0.10100000352E+00 0.  1.
       -3    1    3    3    0  502 -0.54509449108E+03  0.82500794547E+03 -0.10667537139E+04  0.14545547809E+04  0.10100000352E+00 0. -1.
</event>
<event>
 5   0  0.1869956E-05  0.2617433E+04  0.7818609E-02  0.8362304E-01
        2   -1    0    0  501    0  0.00000000000E+00  0.00000000000E+00  0.11865709039E+04  0.11865709039E+04  0.25500000920E-02 0. -1.
       -2   -1    0    0    0  501  0.00000000000E+00  0.00000000000E+00 -0.14434354393E+04  0.14434354393E+04  0.25500000920E-02 0.  1.
    10030    2    1    2    0    0  0.00000000000E+00  0.00000000000E+00 -0.25686453541E+03  0.26300063432E+04  0.26174327070E+04 0.  0.
        5    1    3    3  502    0 -0.77915365524E+03 -0.59715015727E+03 -0.99806524687E+03  0.13999375185E+04  0.46999998093E+01 0.  1.
       -5    1    3    3    0  502  0.77915365524E+03  0.59715015727E+03  0.74120071147E+03  0.12300688247E+04  0.46999998093E+01 0. -1.
</event>
<event>
 5   0  0.6918420E-06  0.2626755E+04  0.7818609E-02  0.8359169E-01
       -1   -1    0    0    0  501  0.00000000000E+00  0.00000000000E+00  0.11745919063E+04  0.11745919063E+04  0.50400001928E-02 0. -1.
        1   -1    0    0  501    0  0.00000000000E+00  0.00000000000E+00 -0.14685618755E+04  0.14685618755E+04  0.50400001928E-02 0.  1.
    10030    2    1    2    0    0  0.00000000000E+00  0.00000000000E+00 -0.29396996923E+03  0.26431537818E+04  0.26267553315E+04 0.  0.
        4    1    3    3  502    0 -0.48375649784E+03  0.84770591035E+03 -0.10312964981E+04  0.14199294840E+04  0.12699999809E+01 0.  1.
       -4    1    3    3    0  502  0.48375649784E+03 -0.84770591035E+03  0.73732652890E+03  0.12232242978E+04  0.12699999809E+01 0. -1.
</event>
<event>
 5   0  0.6706225E-06  0.2597929E+04  0.7818609E-02  0.8368905E-01
        1   -1    0    0  501    0  0.00000000000E+00  0.00000000000E+00  0.19178749199E+04  0.19178749199E+04  0.50400001928E-02 0. -1.
       -1   -1    0    0    0  501  0.00000000000E+00  0.00000000000E+00 -0.87978068949E+03  0.87978068950E+03  0.50400001928E-02 0.  1.
    10030    2    1    2    0    0  0.00000000000E+00  0.00000000000E+00  0.10380942304E+04  0.27976556094E+04  0.25979294212E+04 0.  0.
        5    1    3    3  502    0  0.87996247006E+03  0.92019735476E+03  0.24199373587E+03  0.12960247600E+04  0.46999998093E+01 0.  1.
       -5    1    3    3    0  502 -0.87996247006E+03 -0.92019735476E+03  0.79610049454E+03  0.15016308494E+04  0.46999998093E+01 0. -1.
</event>
<event>
 5   0  0.6984287E-06  0.2610719E+04  0.7818609E-02  0.8364569E-01
       -1   -1    0    0    0  501  0.00000000000E+00  0.00000000000E+00  0.91697623888E+03  0.91697623889E+03  0.50400001928E-02 0.  1.
        1   -1    0    0  501    0  0.00000000000E+00  0.00000000000E+00 -0.18582419058E+04  0.18582419058E+04  0.50400001928E-02 0. -1.
    10030    2    1    2    0    0  0.00000000000E+00  0.00000000000E+00 -0.94126566693E+03  0.27752181447E+04  0.26107191911E+04 0.  0.
        3    1    3    3  502    0  0.59970905169E+03 -0.54206526387E+03  0.61887520413E+03  0.10180826221E+04  0.10100000352E+00 0.  1.
       -3    1    3    3    0  502 -0.59970905169E+03  0.54206526387E+03 -0.15601408711E+04  0.17571355226E+04  0.10100000352E+00 0. -1.
</event>
<event>
 5   0  0.6706225E-06  0.2626498E+04  0.7818609E-02  0.8359256E-01
        1   -1    0    0  501    0  0.00000000000E+00  0.00000000000E+00  0.12743972759E+04  0.12743972759E+04  0.50400001928E-02 0.  1.
       -1   -1    0    0    0  501  0.00000000000E+00  0.00000000000E+00 -0.13532855073E+04  0.13532855074E+04  0.50400001928E-02 0. -1.
    10030    2    1    2    0    0  0.00000000000E+00  0.00000000000E+00 -0.78888231464E+02  0.26276827832E+04  0.26264983260E+04 0.  0.
        5    1    3    3  502    0 -0.14626145688E+03 -0.12590619033E+04  0.30418127676E+03  0.13035250781E+04  0.46999998093E+01 0.  1.
       -5    1    3    3    0  502  0.14626145688E+03  0.12590619033E+04 -0.38306950823E+03  0.13241577052E+04  0.46999998093E+01 0. -1.
</event>
<event>
 5   0  0.1681731E-05  0.2574751E+04  0.7818609E-02  0.8376829E-01
       -2   -1    0    0    0  501  0.00000000000E+00  0.00000000000E+00  0.85314663684E+03  0.85314663685E+03  0.25500000920E-02 0.  1.
        2   -1    0    0  501    0  0.00000000000E+00  0.00000000000E+00 -0.19426157061E+04  0.19426157061E+04  0.25500000920E-02 0. -1.
    10030    2    1    2    0    0  0.00000000000E+00  0.00000000000E+00 -0.10894690692E+04  0.27957623429E+04  0.25747512939E+04 0.  0.
        2    1    3    3  502    0 -0.94574898937E+03  0.27037927960E+03 -0.14465618746E+04  0.17493105393E+04  0.25500000920E-02 0. -1.
       -2    1    3    3    0  502  0.94574898937E+03 -0.27037927960E+03  0.35709280537E+03  0.10464518037E+04  0.25500000920E-02 0.  1.
</event>
<event>
 5   0  0.1720129E-05  0.2604086E+04  0.7818609E-02  0.8366815E-01
        2   -1    0    0  501    0  0.00000000000E+00  0.00000000000E+00  0.14891421582E+04  0.14891421582E+04  0.25500000920E-02 0.  1.
       -2   -1    0    0    0  501  0.00000000000E+00  0.00000000000E+00 -0.11384515861E+04  0.11384515861E+04  0.25500000920E-02 0. -1.
    10030    2    1    2    0    0  0.00000000000E+00  0.00000000000E+00  0.35069057213E+03  0.26275937443E+04  0.26040862136E+04 0.  0.
        3    1    3    3  502    0  0.39671559197E+02 -0.51409653617E+03 -0.10310424514E+04  0.11527868961E+04  0.10100000352E+00 0. -1.
       -3    1    3    3    0  502 -0.39671559197E+02  0.51409653617E+03  0.13817330235E+04  0.14748068482E+04  0.10100000352E+00 0.  1.
</event>
<event>
 5   0  0.1720129E-05  0.2570611E+04  0.7818609E-02  0.8378253E-01
       -2   -1    0    0    0  501  0.00000000000E+00  0.00000000000E+00  0.95575691236E+03  0.95575691236E+03  0.25500000920E-02 0. -1.
        2   -1    0    0  501    0  0.00000000000E+00  0.00000000000E+00 -0.17284836500E+04  0.17284836500E+04  0.25500000920E-02 0.  1.
    10030    2    1    2    0    0  0.00000000000E+00  0.00000000000E+00 -0.77272673764E+03  0.26842405624E+04  0.25706109751E+04 0.  0.
        3    1    3    3  502    0 -0.11420591634E+04  0.47820694861E+02 -0.10000709375E+04  0.15187915729E+04  0.10100000352E+00 0. -1.
       -3    1    3    3    0  502  0.11420591634E+04 -0.47820694861E+02  0.22734419990E+03  0.11654489895E+04  0.10100000352E+00 0.  1.
</event>
<event>
 5   0  0.7138294E-06  0.2566296E+04  0.7818609E-02  0.8379741E-01
        1   -1    0    0  501    0  0.00000000000E+00  0.00000000000E+00  0.11371637706E+04  0.11371637706E+04  0.50400001928E-02 0. -1.
       -1   -1    0    0    0  501  0.00000000000E+00  0.00000000000E+00 -0.14478733303E+04  0.14478733303E+04  0.50400001928E-02 0.  1.
    10030    2    1    2    0    0  0.00000000000E+00  0.00000000000E+00 -0.31070955970E+03  0.25850371009E+04  0.25662962382E+04 0.  0.
        2    1    3    3  502    0  0.83764358895E+03 -0.37421006017E+02  0.82303743595E+03  0.11749203100E+04  0.25500000920E-02 0. -1.
       -2    1    3    3    0  502 -0.83764358895E+03  0.37421006017E+02 -0.11337469956E+04  0.14101167909E+04  0.25500000920E-02 0.  1.
</event>
<event>
 5   0  0.1677971E-05  0.2602508E+04  0.7818609E-02  0.8367350E-01
        2   -1    0    0  501    0  0.00000000000E+00  0.00000000000E+00  0.17603321686E+04  0.17603321686E+04  0.25500000920E-02 0.  1.
       -2   -1    0    0    0  501  0.00000000000E+00  0.00000000000E+00 -0.96189901108E+03  0.96189901108E+03  0.25500000920E-02 0. -1.
    10030    2    1    2    0    0  0.00000000000E+00  0.00000000000E+00  0.79843315749E+03  0.27222311796E+04  0.26025078460E+04 0.  0.
        4    1    3    3  502    0 -0.47001526702E+03  0.12040895231E+04  0.24226651726E+03  0.13150819781E+04  0.12699999809E+01 0. -1.
       -4    1    3    3    0  502  0.47001526702E+03 -0.12040895231E+04  0.55616664023E+03  0.14071492016E+04  0.12699999809E+01 0.  1.
</event>
<event>
 5   0  0.1720129E-05  0.2598994E+04  0.7818609E-02  0.8368543E-01
       -2   -1    0    0    0  501  0.00000000000E+00  0.00000000000E+00  0.13939813342E+04  0.13939813342E+04  0.25500000920E-02 0. -1.
        2   -1    0    0  501    0  0.00000000000E+00  0.00000000000E+00 -0.12114164984E+04  0.12114164984E+04  0.25500000920E-02 0.  1.
    10030    2    1    2    0    0  0.00000000000E+00  0.00000000000E+00  0.18256483581E+03  0.26053978326E+04  0.25989936412E+04 0.  0.
        3    1    3    3  502    0  0.11596094424E+04 -0.54265551270E+03  0.31436821351E+03  0.13183309327E+04  0.10100000352E+00 0. -1.
       -3    1    3    3    0  502 -0.11596094424E+04  0.54265551270E+03 -0.13180337771E+03  0.12870668999E+04  0.10100000352E+00 0.  1.
</event>
<event>
 5   0  0.1720129E-05  0.2594651E+04  0.7818609E-02  0.8370020E-01
        2   -1    0    0  501    0  0.00000000000E+00  0.00000000000E+00  0.10404799390E+04  0.10404799390E+04  0.25500000920E-02 0.  1.
       -2   -1    0    0    0  501  0.00000000000E+00  0.00000000000E+00 -0.16175741136E+04  0.16175741137E+04  0.25500000920E-02 0. -1.
    10030    2    1    2    0    0  0.00000000000E+00  0.00000000000E+00 -0.57709417468E+03  0.26580540526E+04  0.25946509708E+04 0.  0.
        3    1    3    3  502    0 -0.33664267382E+03  0.70544333545E+03  0.77216473619E+03  0.10987342624E+04  0.10100000352E+00 0.  1.
       -3    1    3    3    0  502  0.33664267382E+03 -0.70544333545E+03 -0.13492589109E+04  0.15593197902E+04  0.10100000352E+00 0. -1.
</event>
<event>
 5   0  0.1720129E-05  0.2590069E+04  0.7818609E-02  0.8371582E-01
       -2   -1    0    0    0  501  0.00000000000E+00  0.00000000000E+00  0.74709757499E+03  0.74709757499E+03  0.25500000920E-02 0. -1.
        2   -1    0    0  501    0  0.00000000000E+00  0.00000000000E+00 -0.22448392629E+04  0.22448392629E+04  0.25500000920E-02 0.  1.
    10030    2    1    2    0    0  0.00000000000E+00  0.00000000000E+00 -0.14977416880E+04  0.29919368379E+04  0.25900687015E+04 0.  0.
        3    1    3    3  502    0 -0.10749895688E+03 -0.10436309420E+04  0.12813049502E+03  0.10569479660E+04  0.10100000352E+00 0. -1.
       -3    1    3    3    0  502  0.10749895688E+03  0.10436309420E+04 -0.16258721830E+04  0.19349888719E+04  0.10100000352E+00 0.  1.
</event>
<event>
 5   0  0.1869956E-05  0.2622680E+04  0.7818609E-02  0.8360538E-01
       -2   -1    0    0    0  501  0.00000000000E+00  0.00000000000E+00  0.14165891546E+04  0.14165891546E+04  0.25500000920E-02 0. -1.
        2   -1    0    0  501    0  0.00000000000E+00  0.00000000000E+00 -0.12139102524E+04  0.12139102524E+04  0.25500000920E-02 0.  1.
    10030    2    1    2    0    0  0.00000000000E+00  0.00000000000E+00  0.20267890217E+03  0.26304994069E+04  0.26226796206E+04 0.  0.
        5    1    3    3  502    0 -0.76398930330E+03 -0.56575069735E+03 -0.80459032154E+03  0.12454481854E+04  0.46999998093E+01 0.  1.
       -5    1    3    3    0  502  0.76398930330E+03  0.56575069735E+03  0.10072692237E+04  0.13850512215E+04  0.46999998093E+01 0. -1.
</event>
<event>
 5   0  0.6984287E-06  0.2445974E+04  0.7818609E-02  0.8422489E-01
       -1   -1    0    0    0  501  0.00000000000E+00  0.00000000000E+00  0.97834040671E+03  0.97834040672E+03  0.50400001928E-02 0.  1.
        1   -1    0    0  501    0  0.00000000000E+00  0.00000000000E+00 -0.15288108384E+04  0.15288108384E+04  0.50400001928E-02 0. -1.
    10030    2    1    2    0    0  0.00000000000E+00  0.00000000000E+00 -0.55047043172E+03  0.25071512452E+04  0.24459741761E+04 0.  0.
        3    1    3    3  502    0  0.80884390572E+03 -0.52131865896E+03 -0.10488952718E+04  0.14234405184E+04  0.10100000352E+00 0. -1.
       -3    1    3    3    0  502 -0.80884390572E+03  0.52131865896E+03  0.49842484005E+03  0.10837107268E+04  0.10100000352E+00 0.  1.
</event>
<event>
 5   0  0.7138294E-06  0.2641787E+04  0.7818609E-02  0.8354144E-01
       -1   -1    0    0    0  501  0.00000000000E+00  0.00000000000E+00  0.10951074227E+04  0.10951074227E+04  0.50400001928E-02 0.  1.
        1   -1    0    0  501    0  0.00000000000E+00  0.00000000000E+00 -0.15932309011E+04  0.15932309011E+04  0.50400001928E-02 0. -1.
    10030    2    1    2    0    0  0.00000000000E+00  0.00000000000E+00 -0.49812347842E+03  0.26883383238E+04  0.26417865060E+04 0.  0.
        2    1    3    3  502    0 -0.72219700355E+03  0.85104928864E+03  0.46971727257E+03  0.12109862591E+04  0.25500000920E-02 0.  1.
       -2    1    3    3    0  502  0.72219700355E+03 -0.85104928864E+03 -0.96784075098E+03  0.14773520646E+04  0.25500000920E-02 0. -1.
</event>
<event>
 5   0  0.6918420E-06  0.2456790E+04  0.7818609E-02  0.8418543E-01
       -1   -1    0    0    0  501  0.00000000000E+00  0.00000000000E+00  0.67202405255E+03  0.67202405257E+03  0.50400001928E-02 0. -1.
        1   -1    0    0  501    0  0.00000000000E+00  0.00000000000E+00 -0.22453873677E+04  0.22453873677E+04  0.50400001928E-02 0.  1.
    10030    2    1    2    0    0  0.00000000000E+00  0.00000000000E+00 -0.15733633152E+04  0.29174114203E+04  0.24567900345E+04 0.  0.
        4    1    3    3  502    0  0.47125116589E+03  0.37644744038E+03  0.48407727442E+03  0.77338396494E+03  0.12699999809E+01 0. -1.
       -4    1    3    3    0  502 -0.47125116589E+03 -0.37644744038E+03 -0.20574405896E+04  0.21440274554E+04  0.12699999809E+01 0.  1.
</event>
<event>
 5   0  0.1720129E-05  0.2688665E+04  0.7818609E-02  0.8338692E-01
        2   -1    0    0  501    0  0.00000000000E+00  0.00000000000E+00  0.17895993438E+04  0.17895993438E+04  0.25500000920E-02 0. -1.
       -2   -1    0    0    0  501  0.00000000000E+00  0.00000000000E+00 -0.10098518997E+04  0.10098518997E+04  0.25500000920E-02 0.  1.
    10030    2    1    2    0    0  0.00000000000E+00  0.00000000000E+00  0.77974744412E+03  0.27994512435E+04  0.26886653173E+04 0.  0.
        3    1    3    3  502    0  0.13108705284E+04 -0.29660054420E+03  0.42070572751E+03  0.14083134396E+04  0.10100000352E+00 0.  1.
       -3    1    3    3    0  502 -0.13108705284E+04  0.29660054420E+03  0.35904171661E+03  0.13911378039E+04  0.10100000352E+00 0. -1.
</event>
<event>
 5   0  0.1720129E-05  0.2596955E+04  0.7818609E-02  0.8369236E-01
        2   -1    0    0  501    0  0.00000000000E+00  0.00000000000E+00  0.12160246347E+04  0.12160246347E+04  0.25500000920E-02 0. -1.
       -2   -1    0    0    0  501  0.00000000000E+00  0.00000000000E+00 -0.13865211504E+04  0.13865211504E+04  0.25500000920E-02 0.  1.
    10030    2    1    2    0    0  0.00000000000E+00  0.00000000000E+00 -0.17049651569E+03  0.26025457852E+04  0.25969550443E+04 0.  0.
        3    1    3    3  502    0 -0.98166316202E+03 -0.65381280504E+03  0.45897711186E+03  0.12656199063E+04  0.10100000352E+00 0. -1.
       -3    1    3    3    0  502  0.98166316202E+03  0.65381280504E+03 -0.62947362755E+03  0.13369258789E+04  0.10100000352E+00 0.  1.
</event>
<event>
 5   0  0.1702345E-05  0.2634675E+04  0.7818609E-02  0.8356517E-01
       -2   -1    0    0    0  501  0.00000000000E+00  0.00000000000E+00  0.13159086734E+04  0.13159086734E+04  0.25500000920E-02 0.  1.
        2   -1    0    0  501    0  0.00000000000E+00  0.00000000000E+00 -0.13187678371E+04  0.13187678371E+04  0.25500000920E-02 0. -1.
    10030    2    1    2    0    0  0.00000000000E+00  0.00000000000E+00 -0.28591637104E+01  0.26346765106E+04  0.26346749592E+04 0.  0.
        1    1    3    3  502    0  0.61723595725E+03  0.10946540775E+04 -0.39656303090E+03  0.13177670560E+04  0.50400001928E-02 0. -1.
       -1    1    3    3    0  502 -0.61723595725E+03 -0.10946540775E+04  0.39370386719E+03  0.13169094546E+04  0.50400001928E-02 0.  1.
</event>
<event>
 5   0  0.6993678E-06  0.2598195E+04  0.7818609E-02  0.8368814E-01
       -1   -1    0    0    0  501  0.00000000000E+00  0.00000000000E+00  0.92357681993E+03  0.92357681994E+03  0.50400001928E-02 0. -1.
        1   -1    0    0  501    0  0.00000000000E+00  0.00000000000E+00 -0.18273031116E+04  0.18273031116E+04  0.50400001928E-02 0.  1.
    10030    2    1    2    0    0  0.00000000000E+00  0.00000000000E+00 -0.90372629167E+03  0.27508799315E+04  0.25981953713E+04 0.  0.
        1    1    3    3  502    0  0.56568926645E+03 -0.10204890537E+04  0.15288811472E+03  0.11767654952E+04  0.50400001928E-02 0. -1.
       -1    1    3    3    0  502 -0.56568926645E+03  0.10204890537E+04 -0.10566144064E+04  0.15741144364E+04  0.50400001928E-02 0.  1.
</event>
<event>
 5   0  0.1681731E-05  0.2600805E+04  0.7818609E-02  0.8367928E-01
        2   -1    0    0  501    0  0.00000000000E+00  0.00000000000E+00  0.12975410532E+04  0.12975410532E+04  0.25500000920E-02 0. -1.
       -2   -1    0    0    0  501  0.00000000000E+00  0.00000000000E+00 -0.13032705436E+04  0.13032705436E+04  0.25500000920E-02 0.  1.
    10030    2    1    2    0    0  0.00000000000E+00  0.00000000000E+00 -0.57294903238E+01  0.26008115968E+04  0.26008052859E+04 0.  0.
        2    1    3    3  502    0 -0.88987571372E+03 -0.81154014225E+03 -0.49334615452E+03  0.13014863105E+04  0.25500000920E-02 0. -1.
       -2    1    3    3    0  502  0.88987571372E+03  0.81154014225E+03  0.48761666419E+03  0.12993252863E+04  0.25500000920E-02 0.  1.
</event>
<event>
 5   0  0.1720129E-05  0.2605085E+04  0.7818609E-02  0.8366476E-01
       -2   -1    0    0    0  501  0.00000000000E+00  0.00000000000E+00  0.11871808751E+04  0.11871808751E+04  0.25500000920E-02 0. -1.
        2   -1    0    0  501    0  0.00000000000E+00  0.00000000000E+00 -0.14291136089E+04  0.14291136089E+04  0.25500000920E-02 0.  1.
    10030    2    1    2    0    0  0.00000000000E+00  0.00000000000E+00 -0.24193273386E+03  0.26162944840E+04  0.26050845244E+04 0.  0.
        3    1    3    3  502    0 -0.70334981287E+03 -0.10127728207E+04 -0.54254236673E+03  0.13471310165E+04  0.10100000352E+00 0.  1.
       -3    1    3    3    0  502  0.70334981287E+03  0.10127728207E+04  0.30060963287E+03  0.12691634675E+04  0.10100000352E+00 0. -1.
</event>
<event>
 5   0  0.6993678E-06  0.2605887E+04  0.7818609E-02  0.8366204E-01
        1   -1    0    0  501    0  0.00000000000E+00  0.00000000000E+00  0.20001030927E+04  0.20001030927E+04  0.50400001928E-02 0. -1.
       -1   -1    0    0    0  501  0.00000000000E+00  0.00000000000E+00 -0.84878707418E+03  0.84878707419E+03  0.50400001928E-02 0.  1.
    10030    2    1    2    0    0  0.00000000000E+00  0.00000000000E+00  0.11513160185E+04  0.28488901669E+04  0.26058869140E+04 0.  0.
        1    1    3    3  502    0 -0.86352266913E+03 -0.11953671005E+03  0.16343079643E+04  0.18522750733E+04  0.50400001928E-02 0. -1.
       -1    1    3    3    0  502  0.86352266913E+03  0.11953671005E+03 -0.48299194571E+03  0.99661509361E+03  0.50400001928E-02 0.  1.
</event>
<event>
 5   0  0.1677971E-05  0.2608060E+04  0.7818609E-02  0.8365469E-01
       -2   -1    0    0    0  501  0.00000000000E+00  0.00000000000E+00  0.12239285224E+04  0.12239285224E+04  0.25500000920E-02 0. -1.
        2   -1    0    0  501    0  0.00000000000E+00  0.00000000000E+00 -0.13893737655E+04  0.13893737655E+04  0.25500000920E-02 0.  1.
    10030    2    1    2    0    0  0.00000000000E+00  0.00000000000E+00 -0.16544524313E+03  0.26133022879E+04  0.26080599532E+04 0.  0.
        4    1    3    3  502    0 -0.12471045456E+04  0.29133182838E+03 -0.32887589963E+03  0.13222348325E+04  0.12699999809E+01 0.  1.
       -4    1    3    3    0  502  0.12471045456E+04 -0.29133182838E+03  0.16343065650E+03  0.12910674554E+04  0.12699999809E+01 0. -1.
</event>
<event>
 5   0  0.5840500E-06  0.2636528E+04  0.7818609E-02  0.8355898E-01
       -3   -1    0    0    0  501  0.00000000000E+00  0.00000000000E+00  0.17169984385E+04  0.17169984414E+04  0.10100000352E+00 0.  1.
        3   -1    0    0  501    0  0.00000000000E+00  0.00000000000E+00 -0.10121263870E+04  0.10121263920E+04  0.10100000352E+00 0. -1.
    10030    2    1    2    0    0  0.00000000000E+00  0.00000000000E+00  0.70487205146E+03  0.27291248335E+04  0.26365275928E+04 0.  0.
        2    1    3    3  502    0 -0.10349316297E+04 -0.24146032104E+03 -0.45498009352E+03  0.11560248484E+04  0.25500000920E-02 0. -1.
       -2    1    3    3    0  502  0.10349316297E+04  0.24146032104E+03  0.11598521450E+04  0.15730999850E+04  0.25500000920E-02 0.  1.
</event>
<event>
 5   0  0.1869956E-05  0.2569202E+04  0.7818609E-02  0.8378739E-01
        2   -1    0    0  501    0  0.00000000000E+00  0.00000000000E+00  0.10698062278E+04  0.10698062278E+04  0.25500000920E-02 0. -1.
       -2   -1    0    0    0  501  0.00000000000E+00  0.00000000000E+00 -0.15425216018E+04  0.15425216018E+04  0.25500000920E-02 0.  1.
    10030    2    1    2    0    0  0.00000000000E+00  0.00000000000E+00 -0.47271537408E+03  0.26123278296E+04  0.25692016006E+04 0.  0.
        5    1    3    3  502    0 -0.29643363967E+02 -0.49099858931E+03  0.97024575370E+03  0.10878222540E+04  0.46999998093E+01 0. -1.
       -5    1    3    3    0  502  0.29643363967E+02  0.49099858931E+03 -0.14429611278E+04  0.15245055756E+04  0.46999998093E+01 0.  1.
</event>
<event>
 5   0  0.1677971E-05  0.2604843E+04  0.7818609E-02  0.8366558E-01
       -2   -1    0    0    0  501  0.00000000000E+00  0.00000000000E+00  0.11937977559E+04  0.11937977559E+04  0.25500000920E-02 0. -1.
        2   -1    0    0  501    0  0.00000000000E+00  0.00000000000E+00 -0.14209294177E+04  0.14209294177E+04  0.25500000920E-02 0.  1.
    10030    2    1    2    0    0  0.00000000000E+00  0.00000000000E+00 -0.22713166186E+03  0.26147271736E+04  0.26048434503E+04 0.  0.
        4    1    3    3  502    0 -0.59353880613E+03  0.35207972973E+03  0.99518504110E+03  0.12110505065E+04  0.12699999809E+01 0. -1.
       -4    1    3    3    0  502  0.59353880613E+03 -0.35207972973E+03 -0.12223167030E+04  0.14036766671E+04  0.12699999809E+01 0.  1.
</event>
<event>
 5   0  0.1720129E-05  0.2604470E+04  0.7818609E-02  0.8366684E-01
        2   -1    0    0  501    0  0.00000000000E+00  0.00000000000E+00  0.17898400127E+04  0.17898400127E+04  0.25500000920E-02 0. -1.
       -2   -1    0    0    0  501  0.00000000000E+00  0.00000000000E+00 -0.94746817643E+03  0.94746817644E+03  0.25500000920E-02 0.  1.
    10030    2    1    2    0    0  0.00000000000E+00  0.00000000000E+00  0.84237183630E+03  0.27373081892E+04  0.26044703515E+04 0.  0.
        3    1    3    3  502    0 -0.42084845410E+03  0.88666480240E+02  0.17130407070E+04  0.17662060016E+04  0.10100000352E+00 0. -1.
       -3    1    3    3    0  502  0.42084845410E+03 -0.88666480240E+02 -0.87066887072E+03  0.97110218756E+03  0.10100000352E+00 0.  1.
</event>
<event>
 5   0  0.1720129E-05  0.2624790E+04  0.7818609E-02  0.8359829E-01
        2   -1    0    0  501    0  0.00000000000E+00  0.00000000000E+00  0.15920310857E+04  0.15920310857E+04  0.25500000920E-02 0. -1.
       -2   -1    0    0    0  501  0.00000000000E+00  0.00000000000E+00 -0.10818763152E+04  0.10818763152E+04  0.25500000920E-02 0.  1.
    10030    2    1    2    0    0  0.00000000000E+00  0.00000000000E+00  0.51015477051E+03  0.26739074009E+04  0.26247900676E+04 0.  0.
        3    1    3    3  502    0  0.12011005216E+04  0.45851212198E+03 -0.13493824551E+02  0.12857130016E+04  0.10100000352E+00 0.  1.
       -3    1    3    3    0  502 -0.12011005216E+04 -0.45851212198E+03  0.52364859506E+03  0.13881943993E+04  0.10100000352E+00 0. -1.
</event>
<event>
 5   0  0.1677971E-05  0.2558985E+04  0.7818609E-02  0.8382268E-01
       -2   -1    0    0    0  501  0.00000000000E+00  0.00000000000E+00  0.82534349712E+03  0.82534349712E+03  0.25500000920E-02 0. -1.
        2   -1    0    0  501    0  0.00000000000E+00  0.00000000000E+00 -0.19835392280E+04  0.19835392280E+04  0.25500000920E-02 0.  1.
    10030    2    1    2    0    0  0.00000000000E+00  0.00000000000E+00 -0.11581957309E+04  0.28088827251E+04  0.25589851138E+04 0.  0.
        4    1    3    3  502    0  0.75292188763E+03 -0.89694998151E+03 -0.11448843847E+04  0.16377339544E+04  0.12699999809E+01 0.  1.
       -4    1    3    3    0  502 -0.75292188763E+03  0.89694998151E+03 -0.13311346138E+02  0.11711487707E+04  0.12699999809E+01 0. -1.
</event>
<event>
 5   0  0.1720129E-05  0.2613264E+04  0.7818609E-02  0.8363710E-01
        2   -1    0    0  501    0  0.00000000000E+00  0.00000000000E+00  0.19363524364E+04  0.19363524364E+04  0.25500000920E-02 0.  1.
       -2   -1    0    0    0  501  0.00000000000E+00  0.00000000000E+00 -0.88170270536E+03  0.88170270536E+03  0.25500000920E-02 0. -1.
    10030    2    1    2    0    0  0.00000000000E+00  0.00000000000E+00  0.10546497310E+04  0.28180551417E+04  0.26132639987E+04 0.  0.
        3    1    3    3  502    0  0.40095817949E+03  0.40206644292E+03  0.17963478712E+04  0.18839560958E+04  0.10100000352E+00 0.  1.
       -3    1    3    3    0  502 -0.40095817949E+03 -0.40206644292E+03 -0.74169814022E+03  0.93409904594E+03  0.10100000352E+00 0. -1.
</event>
<event>
 5   0  0.6706225E-06  0.2583948E+04  0.7818609E-02  0.8373674E-01
       -1   -1    0    0    0  501  0.00000000000E+00  0.00000000000E+00  0.80873648536E+03  0.80873648537E+03  0.50400001928E-02 0. -1.
        1   -1    0    0  501    0  0.00000000000E+00  0.00000000000E+00 -0.20639556024E+04  0.20639556024E+04  0.50400001928E-02 0.  1.
    10030    2    1    2    0    0  0.00000000000E+00  0.00000000000E+00 -0.12552191170E+04  0.28726920877E+04  0.25839475225E+04 0.  0.
        5    1    3    3  502    0  0.17285366012E+03 -0.87914400565E+03  0.40721087698E+03  0.98418258408E+03  0.46999998093E+01 0. -1.
       -5    1    3    3    0  502 -0.17285366012E+03  0.87914400565E+03 -0.16624299940E+04  0.18885095037E+04  0.46999998093E+01 0.  1.
</event>
<event>
 5   0  0.1702345E-05  0.2605552E+04  0.7818609E-02  0.8366318E-01
       -2   -1    0    0    0  501  0.00000000000E+00  0.00000000000E+00  0.10817867354E+04  0.10817867354E+04  0.25500000920E-02 0. -1.
        2   -1    0    0  501    0  0.00000000000E+00  0.00000000000E+00 -0.15689091697E+04  0.15689091697E+04  0.25500000920E-02 0.  1.
    10030    2    1    2    0    0  0.00000000000E+00  0.00000000000E+00 -0.48712243433E+03  0.26506959051E+04  0.26055518639E+04 0.  0.
        1    1    3    3  502    0  0.12976819133E+04 -0.62212538662E+02 -0.34207064642E+03  0.13434511808E+04  0.50400001928E-02 0. -1.
       -1    1    3    3    0  502 -0.12976819133E+04  0.62212538662E+02 -0.14505178791E+03  0.13072447243E+04  0.50400001928E-02 0.  1.
</event>
<event>
 5   0  0.6984287E-06  0.2518341E+04  0.7818609E-02  0.8396480E-01
        1   -1    0    0  501    0  0.00000000000E+00  0.00000000000E+00  0.21429738755E+04  0.21429738755E+04  0.50400001928E-02 0. -1.
       -1   -1    0    0    0  501  0.00000000000E+00  0.00000000000E+00 -0.73986464805E+03  0.73986464807E+03  0.50400001928E-02 0.  1.
    10030    2    1    2    0    0  0.00000000000E+00  0.00000000000E+00  0.14031092274E+04  0.28828385235E+04  0.25183412098E+04 0.  0.
        3    1    3    3  502    0  0.10468234283E+04  0.15449755252E+03 -0.79724716137E+02  0.10611620160E+04  0.10100000352E+00 0.  1.
       -3    1    3    3    0  502 -0.10468234283E+04 -0.15449755252E+03  0.14828339436E+04  0.18216765075E+04  0.10100000352E+00 0. -1.
</event>
<event>
 5   0  0.1677971E-05  0.2673663E+04  0.7818609E-02  0.8343601E-01
        2   -1    0    0  501    0  0.00000000000E+00  0.00000000000E+00  0.70901524611E+03  0.70901524612E+03  0.25500000920E-02 0.  1.
       -2   -1    0    0    0  501  0.00000000000E+00  0.00000000000E+00 -0.25205645807E+04  0.25205645807E+04  0.25500000920E-02 0. -1.
    10030    2    1    2    0    0  0.00000000000E+00  0.00000000000E+00 -0.18115493346E+04  0.32295798268E+04  0.26736631923E+04 0.  0.
        4    1    3    3  502    0  0.89127526549E+03 -0.96418793980E+03 -0.60237878486E+03  0.14446078345E+04  0.12699999809E+01 0. -1.
       -4    1    3    3    0  502 -0.89127526549E+03  0.96418793980E+03 -0.12091705497E+04  0.17849719923E+04  0.12699999809E+01 0.  1.
</event>
<event>
 5   0  0.1677971E-05  0.2615404E+04  0.7818609E-02  0.8362987E-01
        2   -1    0    0  501    0  0.00000000000E+00  0.00000000000E+00  0.15857395471E+04  0.15857395472E+04  0.25500000920E-02 0.  1.
       -2   -1    0    0    0  501  0.00000000000E+00  0.00000000000E+00 -0.10784147882E+04  0.10784147882E+04  0.25500000920E-02 0. -1.
    10030    2    1    2    0    0  0.00000000000E+00  0.00000000000E+00  0.50732475897E+03  0.26641543353E+04  0.26154043495E+04 0.  0.
        4    1    3    3  502    0 -0.50283622009E+03 -0.11856097959E+04  0.48498219677E+03  0.13761265191E+04  0.12699999809E+01 0.  1.
       -4    1    3    3    0  502  0.50283622009E+03  0.11856097959E+04  0.22342562200E+02  0.12880278162E+04  0.12699999809E+01 0. -1.
</event>
<event>
 5   0  0.5840500E-06  0.2549569E+04  0.7818609E-02  0.8385536E-01
       -3   -1    0    0    0  501  0.00000000000E+00  0.00000000000E+00  0.19885662963E+04  0.19885662988E+04  0.10100000352E+00 0. -1.
        3   -1    0    0  501    0  0.00000000000E+00  0.00000000000E+00 -0.81720970962E+03  0.81720971586E+03  0.10100000352E+00 0.  1.
    10030    2    1    2    0    0  0.00000000000E+00  0.00000000000E+00  0.11713565866E+04  0.28057760147E+04  0.25495691384E+04 0.  0.
        5    1    3    3  502    0 -0.18480785377E+03 -0.12419215936E+04  0.34324445855E+03  0.13016766249E+04  0.46999998093E+01 0.  1.
       -5    1    3    3    0  502  0.18480785377E+03  0.12419215936E+04  0.82811212809E+03  0.15040993898E+04  0.46999998093E+01 0. -1.
</event>
<event>
 5   0  0.1677971E-05  0.2637180E+04  0.7818609E-02  0.8355681E-01
       -2   -1    0    0    0  501  0.00000000000E+00  0.00000000000E+00  0.10378981231E+04  0.10378981231E+04  0.25500000920E-02 0. -1.
        2   -1    0    0  501    0  0.00000000000E+00  0.00000000000E+00 -0.16751924038E+04  0.16751924038E+04  0.25500000920E-02 0.  1.
    10030    2    1    2    0    0  0.00000000000E+00  0.00000000000E+00 -0.63729428068E+03  0.27130905269E+04  0.26371795933E+04 0.  0.
        4    1    3    3  502    0  0.12059284232E+04  0.14519271373E+03 -0.84657836347E+03  0.14805542288E+04  0.12699999809E+01 0. -1.
       -4    1    3    3    0  502 -0.12059284232E+04 -0.14519271373E+03  0.20928408279E+03  0.12325362981E+04  0.12699999809E+01 0.  1.
</event>
<event>
 5   0  0.1702345E-05  0.2491125E+04  0.7818609E-02  0.8406154E-01
       -2   -1    0    0    0  501  0.00000000000E+00  0.00000000000E+00  0.12842928185E+04  0.12842928185E+04  0.25500000920E-02 0.  1.
        2   -1    0    0  501    0  0.00000000000E+00  0.00000000000E+00 -0.12079998790E+04  0.12079998790E+04  0.25500000920E-02 0. -1.
    10030    2    1    2    0    0  0.00000000000E+00  0.00000000000E+00  0.76292939516E+02  0.24922926976E+04  0.24911247014E+04 0.  0.
        1    1    3    3  502    0  0.35404266709E+03  0.55355765339E+03  0.10967792946E+04  0.12785527392E+04  0.50400001928E-02 0.  1.
       -1    1    3    3    0  502 -0.35404266709E+03 -0.55355765339E+03 -0.10204863551E+04  0.12137399584E+04  0.50400001928E-02 0. -1.
</event>
<event>
 5   0  0.6918420E-06  0.2631542E+04  0.7818609E-02  0.8357566E-01
       -1   -1    0    0    0  501  0.00000000000E+00  0.00000000000E+00  0.10119666937E+04  0.10119666937E+04  0.50400001928E-02 0. -1.
        1   -1    0    0  501    0  0.00000000000E+00  0.00000000000E+00 -0.17107803190E+04  0.17107803190E+04  0.50400001928E-02 0.  1.
    10030    2    1    2    0    0  0.00000000000E+00  0.00000000000E+00 -0.69881362536E+03  0.27227470127E+04  0.26315415277E+04 0.  0.
        4    1    3    3  502    0  0.86139632957E+03 -0.98624824463E+03 -0.21625363617E+03  0.13271987359E+04  0.12699999809E+01 0. -1.
       -4    1    3    3    0  502 -0.86139632957E+03  0.98624824463E+03 -0.48255998919E+03  0.13955482767E+04  0.12699999809E+01 0.  1.
</event>
<event>
 5   0  0.6706225E-06  0.2635601E+04  0.7818609E-02  0.8356208E-01
       -1   -1    0    0    0  501  0.00000000000E+00  0.00000000000E+00  0.11703050535E+04  0.11703050535E+04  0.50400001928E-02 0. -1.
        1   -1    0    0  501    0  0.00000000000E+00  0.00000000000E+00 -0.14838854321E+04  0.14838854321E+04  0.50400001928E-02 0.  1.
    10030    2    1    2    0    0  0.00000000000E+00  0.00000000000E+00 -0.31358037866E+03  0.26541904856E+04  0.26356013507E+04 0.  0.
        5    1    3    3  502    0 -0.10552902412E+03 -0.60683075387E+03  0.10164143824E+04  0.11884865273E+04  0.46999998093E+01 0. -1.
       -5    1    3    3    0  502  0.10552902412E+03  0.60683075387E+03 -0.13299947611E+04  0.14657039583E+04  0.46999998093E+01 0.  1.
</event>
<event>
 5   0  0.1677971E-05  0.2542990E+04  0.7818609E-02  0.8387828E-01
       -2   -1    0    0    0  501  0.00000000000E+00  0.00000000000E+00  0.89726648724E+03  0.89726648725E+03  0.25500000920E-02 0. -1.
        2   -1    0    0  501    0  0.00000000000E+00  0.00000000000E+00 -0.18018049781E+04  0.18018049781E+04  0.25500000920E-02 0.  1.
    10030    2    1    2    0    0  0.00000000000E+00  0.00000000000E+00 -0.90453849088E+03  0.26990714654E+04  0.25429897549E+04 0.  0.
        4    1    3    3  502    0  0.68617850043E+03  0.17392246128E+02 -0.15882673105E+04  0.17302422047E+04  0.12699999809E+01 0.  1.
       -4    1    3    3    0  502 -0.68617850043E+03 -0.17392246128E+02  0.68372881957E+03  0.96882926065E+03  0.12699999809E+01 0. -1.
</event>
<event>
 5   0  0.1702345E-05  0.2599184E+04  0.7818609E-02  0.8368479E-01
       -2   -1    0    0    0  501  0.00000000000E+00  0.00000000000E+00  0.12951801917E+04  0.12951801917E+04  0.25500000920E-02 0. -1.
        2   -1    0    0  501    0  0.00000000000E+00  0.00000000000E+00 -0.13040183896E+04  0.13040183896E+04  0.25500000920E-02 0.  1.
    10030    2    1    2    0    0  0.00000000000E+00  0.00000000000E+00 -0.88381978363E+01  0.25991985813E+04  0.25991835547E+04 0.  0.
        1    1    3    3  502    0  0.74162604958E+03  0.88812771784E+03  0.58732645106E+03  0.12975871457E+04  0.50400001928E-02 0. -1.
       -1    1    3    3    0  502 -0.74162604958E+03 -0.88812771784E+03 -0.59616464890E+03  0.13016114356E+04  0.50400001928E-02 0.  1.
</event>
<event>
 5   0  0.1681731E-05  0.2616823E+04  0.7818609E-02  0.8362509E-01
       -2   -1    0    0    0  501  0.00000000000E+00  0.00000000000E+00  0.98794704017E+03  0.98794704017E+03  0.25500000920E-02 0. -1.
        2   -1    0    0  501    0  0.00000000000E+00  0.00000000000E+00 -0.17328263325E+04  0.17328263325E+04  0.25500000920E-02 0.  1.
    10030    2    1    2    0    0  0.00000000000E+00  0.00000000000E+00 -0.74487929237E+03  0.27207733727E+04  0.26168229947E+04 0.  0.
        2    1    3    3  502    0  0.12770071404E+02 -0.12622843898E+04 -0.14654218674E+02  0.12624340385E+04  0.25500000920E-02 0.  1.
       -2    1    3    3    0  502 -0.12770071404E+02  0.12622843898E+04 -0.73022507369E+03  0.14583393342E+04  0.25500000920E-02 0. -1.
</event>
<event>
 5   0  0.1869956E-05  0.2636895E+04  0.7818609E-02  0.8355776E-01
        2   -1    0    0  501    0  0.00000000000E+00  0.00000000000E+00  0.13020837146E+04  0.13020837146E+04  0.25500000920E-02 0.  1.
       -2   -1    0    0    0  501  0.00000000000E+00  0.00000000000E+00 -0.13350171022E+04  0.13350171022E+04  0.25500000920E-02 0. -1.
    10030    2    1    2    0    0  0.00000000000E+00  0.00000000000E+00 -0.32933387547E+02  0.26371008168E+04  0.26368951647E+04 0.  0.
        5    1    3    3  502    0  0.65635870906E+03 -0.11190888283E+04  0.21831825893E+03  0.13156183006E+04  0.46999998093E+01 0. -1.
       -5    1    3    3    0  502 -0.65635870906E+03  0.11190888283E+04 -0.25125164648E+03  0.13214825162E+04  0.46999998093E+01 0.  1.
</event>
<event>
 5   0  0.1681731E-05  0.2615822E+04  0.7818609E-02  0.8362847E-01
        2   -1    0    0  501    0  0.00000000000E+00  0.00000000000E+00  0.18974648331E+04  0.18974648331E+04  0.25500000920E-02 0.  1.
       -2   -1    0    0    0  501  0.00000000000E+00  0.00000000000E+00 -0.90153524718E+03  0.90153524718E+03  0.25500000920E-02 0. -1.
    10030    2    1    2    0    0  0.00000000000E+00  0.00000000000E+00  0.99592958596E+03  0.27990000803E+04  0.26158221861E+04 0.  0.
        2    1    3    3  502    0  0.11246348539E+04 -0.39212206904E+03 -0.80313374660E+02  0.11937392972E+04  0.25500000920E-02 0. -1.
       -2    1    3    3    0  502 -0.11246348539E+04  0.39212206904E+03  0.10762429606E+04  0.16052607831E+04  0.25500000920E-02 0.  1.
</event>
<event>
 5   0  0.6984287E-06  0.2490201E+04  0.7818609E-02  0.8406485E-01
       -1   -1    0    0    0  501  0.00000000000E+00  0.00000000000E+00  0.10934025127E+04  0.10934025127E+04  0.50400001928E-02 0.  1.
        1   -1    0    0  501    0  0.00000000000E+00  0.00000000000E+00 -0.14178445901E+04  0.14178445901E+04  0.50400001928E-02 0. -1.
    10030    2    1    2    0    0  0.00000000000E+00  0.00000000000E+00 -0.32444207736E+03  0.25112471028E+04  0.24902006645E+04 0.  0.
        3    1    3    3  502    0 -0.48864733898E+03  0.68183573355E+03 -0.10901054675E+04  0.13755021373E+04  0.10100000352E+00 0. -1.
       -3    1    3    3    0  502  0.48864733898E+03 -0.68183573355E+03  0.76566339010E+03  0.11357449655E+04  0.10100000352E+00 0.  1.
</event>
<event>
 5   0  0.1702345E-05  0.2586730E+04  0.7818609E-02  0.8372723E-01
        2   -1    0    0  501    0  0.00000000000E+00  0.00000000000E+00  0.11564369403E+04  0.11564369403E+04  0.25500000920E-02 0.  1.
       -2   -1    0    0    0  501  0.00000000000E+00  0.00000000000E+00 -0.14465065763E+04  0.14465065764E+04  0.25500000920E-02 0. -1.
    10030    2    1    2    0    0  0.00000000000E+00  0.00000000000E+00 -0.29006963602E+03  0.26029435167E+04  0.25867304764E+04 0.  0.
        1    1    3    3  502    0  0.10719666277E+04 -0.65111890096E+03 -0.46280737022E+03  0.13368840398E+04  0.50400001928E-02 0. -1.
       -1    1    3    3    0  502 -0.10719666277E+04  0.65111890096E+03  0.17273773420E+03  0.12660594768E+04  0.50400001928E-02 0.  1.
</event>
<event>
 5   0  0.6918420E-06  0.2577482E+04  0.7818609E-02  0.8375891E-01
       -1   -1    0    0    0  501  0.00000000000E+00  0.00000000000E+00  0.14159129670E+04  0.14159129671E+04  0.50400001928E-02 0. -1.
        1   -1    0    0  501    0  0.00000000000E+00  0.00000000000E+00 -0.11729907271E+04  0.11729907271E+04  0.50400001928E-02 0.  1.
    10030    2    1    2    0    0  0.00000000000E+00  0.00000000000E+00  0.24292223993E+03  0.25889036942E+04  0.25774815466E+04 0.  0.
        4    1    3    3  502    0  0.55656800216E+03  0.11370232863E+04  0.36390449218E+03  0.13172008150E+04  0.12699999809E+01 0. -1.
       -4    1    3    3    0  502 -0.55656800216E+03 -0.11370232863E+04 -0.12098225225E+03  0.12717028792E+04  0.12699999809E+01 0.  1.
</event>
<event>
 5   0  0.6918420E-06  0.2606552E+04  0.7818609E-02  0.8365979E-01
        1   -1    0    0  501    0  0.00000000000E+00  0.00000000000E+00  0.18717397706E+04  0.18717397706E+04  0.50400001928E-02 0. -1.
       -1   -1    0    0    0  501  0.00000000000E+00  0.00000000000E+00 -0.90745994913E+03  0.90745994914E+03  0.50400001928E-02 0.  1.
    10030    2    1    2    0    0  0.00000000000E+00  0.00000000000E+00  0.96427982150E+03  0.27791997198E+04  0.26065524181E+04 0.  0.
        4    1    3    3  502    0 -0.19108780018E+03  0.50928644498E+03 -0.78063635141E+03  0.95146306101E+03  0.12699999809E+01 0.  1.
       -4    1    3    3    0  502  0.19108780018E+03 -0.50928644498E+03  0.17449161729E+04  0.18277366588E+04  0.12699999809E+01 0. -1.
</event>
<event>
 5   0  0.1720129E-05  0.2601153E+04  0.7818609E-02  0.8367810E-01
        2   -1    0    0  501    0  0.00000000000E+00  0.00000000000E+00  0.13210196395E+04  0.13210196395E+04  0.25500000920E-02 0.  1.
       -2   -1    0    0    0  501  0.00000000000E+00  0.00000000000E+00 -0.12804497285E+04  0.12804497285E+04  0.25500000920E-02 0. -1.
    10030    2    1    2    0    0  0.00000000000E+00  0.00000000000E+00  0.40569910986E+02  0.26014693680E+04  0.26011530049E+04 0.  0.
        3    1    3    3  502    0 -0.10265157295E+04 -0.24244391785E+03  0.78128855482E+03  0.13126025340E+04  0.10100000352E+00 0.  1.
       -3    1    3    3    0  502  0.10265157295E+04  0.24244391785E+03 -0.74071864383E+03  0.12888668340E+04  0.10100000352E+00 0. -1.
</event>
<event>
 5   0  0.1869956E-05  0.2624714E+04  0.7818609E-02  0.8359854E-01
       -2   -1    0    0    0  501  0.00000000000E+00  0.00000000000E+00  0.13650876390E+04  0.13650876390E+04  0.25500000920E-02 0.  1.
        2   -1    0    0  501    0  0.00000000000E+00  0.00000000000E+00 -0.12616635624E+04  0.12616635624E+04  0.25500000920E-02 0. -1.
    10030    2    1    2    0    0  0.00000000000E+00  0.00000000000E+00  0.10342407659E+03  0.26267512014E+04  0.26247143339E+04 0.  0.
        5    1    3    3  502    0  0.82906428820E+03  0.74397264786E+03  0.74609221492E+03  0.13407156961E+04  0.46999998093E+01 0.  1.
       -5    1    3    3    0  502 -0.82906428820E+03 -0.74397264786E+03 -0.64266813833E+03  0.12860355052E+04  0.46999998093E+01 0. -1.
</event>
<event>
 5   0  0.1869956E-05  0.2582800E+04  0.7818609E-02  0.8374067E-01
       -2   -1    0    0    0  501  0.00000000000E+00  0.00000000000E+00  0.11769661085E+04  0.11769661085E+04  0.25500000920E-02 0. -1.
        2   -1    0    0  501    0  0.00000000000E+00  0.00000000000E+00 -0.14169599926E+04  0.14169599926E+04  0.25500000920E-02 0.  1.
    10030    2    1    2    0    0  0.00000000000E+00  0.00000000000E+00 -0.23999388410E+03  0.25939261012E+04  0.25827999446E+04 0.  0.
        5    1    3    3  502    0  0.25021650564E+03  0.12619645050E+04 -0.23241253141E+03  0.13073639074E+04  0.46999998093E+01 0. -1.
       -5    1    3    3    0  502 -0.25021650564E+03 -0.12619645050E+04 -0.75813526912E+01  0.12865621938E+04  0.46999998093E+01 0.  1.
</event>
<event>
 5   0  0.1702345E-05  0.2855683E+04  0.7818609E-02  0.8286187E-01
       -2   -1    0    0    0  501  0.00000000000E+00  0.00000000000E+00  0.88313216772E+03  0.88313216772E+03  0.25500000920E-02 0.  1.
        2   -1    0    0  501    0  0.00000000000E+00  0.00000000000E+00 -0.23085228285E+04  0.23085228285E+04  0.25500000920E-02 0. -1.
    10030    2    1    2    0    0  0.00000000000E+00  0.00000000000E+00 -0.14253906608E+04  0.31916549962E+04  0.28556825943E+04 0.  0.
        1    1    3    3  502    0  0.74508498716E+03  0.10090519332E+04  0.49762943735E+02  0.12553142207E+04  0.50400001928E-02 0.  1.
       -1    1    3    3    0  502 -0.74508498716E+03 -0.10090519332E+04 -0.14751536045E+04  0.19363407755E+04  0.50400001928E-02 0. -1.
</event>
<event>
 5   0  0.6918420E-06  0.2251822E+04  0.7818609E-02  0.8497163E-01
       -1   -1    0    0    0  501  0.00000000000E+00  0.00000000000E+00  0.10428417312E+04  0.10428417312E+04  0.50400001928E-02 0. -1.
        1   -1    0    0  501    0  0.00000000000E+00  0.00000000000E+00 -0.12155971064E+04  0.12155971064E+04  0.50400001928E-02 0.  1.
    10030    2    1    2    0    0  0.00000000000E+00  0.00000000000E+00 -0.17275537515E+03  0.22584388376E+04  0.22518218321E+04 0.  0.
        4    1    3    3  502    0 -0.11038771735E+04  0.14310074896E+03  0.83386178937E+02  0.11162336253E+04  0.12699999809E+01 0.  1.
       -4    1    3    3    0  502  0.11038771735E+04 -0.14310074896E+03 -0.25614155409E+03  0.11422052123E+04  0.12699999809E+01 0. -1.
</event>
<event>
 5   0  0.5840500E-06  0.2616485E+04  0.7818609E-02  0.8362623E-01
        3   -1    0    0  501    0  0.00000000000E+00  0.00000000000E+00  0.66015449946E+03  0.66015450718E+03  0.10100000352E+00 0. -1.
       -3   -1    0    0    0  501  0.00000000000E+00  0.00000000000E+00 -0.25925719015E+04  0.25925719035E+04  0.10100000352E+00 0.  1.
    10030    2    1    2    0    0  0.00000000000E+00  0.00000000000E+00 -0.19324174021E+04  0.32527264107E+04  0.26164846812E+04 0.  0.
        2    1    3    3  502    0  0.14032351033E+03  0.52088323252E+03  0.51544982002E+03  0.74612234013E+03  0.25500000920E-02 0. -1.
       -2    1    3    3    0  502 -0.14032351033E+03 -0.52088323252E+03 -0.24478672221E+04  0.25066040706E+04  0.25500000920E-02 0.  1.
</event>
<event>
 5   0  0.1869956E-05  0.2594441E+04  0.7818609E-02  0.8370092E-01
        2   -1    0    0  501    0  0.00000000000E+00  0.00000000000E+00  0.17024454002E+04  0.17024454002E+04  0.25500000920E-02 0. -1.
       -2   -1    0    0    0  501  0.00000000000E+00  0.00000000000E+00 -0.98844953004E+03  0.98844953004E+03  0.25500000920E-02 0.  1.
    10030    2    1    2    0    0  0.00000000000E+00  0.00000000000E+00  0.71399587020E+03  0.26908949303E+04  0.25944412545E+04 0.  0.
        5    1    3    3  502    0 -0.11452719843E+03  0.12894264657E+04  0.27008413042E+03  0.13223859562E+04  0.46999998093E+01 0. -1.
       -5    1    3    3    0  502  0.11452719843E+03 -0.12894264657E+04  0.44391173978E+03  0.13685089741E+04  0.46999998093E+01 0.  1.
</event>
<event>
 5   0  0.1681731E-05  0.2625547E+04  0.7818609E-02  0.8359575E-01
       -2   -1    0    0    0  501  0.00000000000E+00  0.00000000000E+00  0.14069372311E+04  0.14069372311E+04  0.25500000920E-02 0. -1.
        2   -1    0    0  501    0  0.00000000000E+00  0.00000000000E+00 -0.12249117330E+04  0.12249117330E+04  0.25500000920E-02 0.  1.
    10030    2    1    2    0    0  0.00000000000E+00  0.00000000000E+00  0.18202549808E+03  0.26318489642E+04  0.26255467408E+04 0.  0.
        2    1    3    3  502    0  0.74676205576E+03 -0.78207059312E+03 -0.65514348867E+03  0.12643183821E+04  0.25500000920E-02 0.  1.
       -2    1    3    3    0  502 -0.74676205576E+03  0.78207059312E+03  0.83716898675E+03  0.13675305821E+04  0.25500000920E-02 0. -1.
</event>
<event>
 5   0  0.1720129E-05  0.2619827E+04  0.7818609E-02  0.8361497E-01
        2   -1    0    0  501    0  0.00000000000E+00  0.00000000000E+00  0.29310895053E+04  0.29310895053E+04  0.25500000920E-02 0. -1.
       -2   -1    0    0    0  501  0.00000000000E+00  0.00000000000E+00 -0.58540475402E+03  0.58540475402E+03  0.25500000920E-02 0.  1.
    10030    2    1    2    0    0  0.00000000000E+00  0.00000000000E+00  0.23456847512E+04  0.35164942593E+04  0.26198272698E+04 0.  0.
        3    1    3    3  502    0 -0.12448327244E+04  0.23416586738E+03  0.16209077159E+04  0.20571300394E+04  0.10100000352E+00 0. -1.
       -3    1    3    3    0  502  0.12448327244E+04 -0.23416586738E+03  0.72477703534E+03  0.14593642199E+04  0.10100000352E+00 0.  1.
</event>
<event>
 5   0  0.6993678E-06  0.2606664E+04  0.7818609E-02  0.8365941E-01
        1   -1    0    0  501    0  0.00000000000E+00  0.00000000000E+00  0.18532751638E+04  0.18532751638E+04  0.50400001928E-02 0.  1.
       -1   -1    0    0    0  501  0.00000000000E+00  0.00000000000E+00 -0.91657982170E+03  0.91657982172E+03  0.50400001928E-02 0. -1.
    10030    2    1    2    0    0  0.00000000000E+00  0.00000000000E+00  0.93669534214E+03  0.27698549856E+04  0.26066642433E+04 0.  0.
        1    1    3    3  502    0  0.22904742486E+03  0.10640621111E+04  0.12301575840E+04  0.16425524590E+04  0.50400001928E-02 0. -1.
       -1    1    3    3    0  502 -0.22904742486E+03 -0.10640621111E+04 -0.29346224187E+03  0.11273025266E+04  0.50400001928E-02 0.  1.
</event>
<event>
 5   0  0.1720129E-05  0.2291276E+04  0.7818609E-02  0.8481369E-01
       -2   -1    0    0    0  501  0.00000000000E+00  0.00000000000E+00  0.80876915263E+03  0.80876915264E+03  0.25500000920E-02 0. -1.
        2   -1    0    0  501    0  0.00000000000E+00  0.00000000000E+00 -0.16228194913E+04  0.16228194913E+04  0.25500000920E-02 0.  1.
    10030    2    1    2    0    0  0.00000000000E+00  0.00000000000E+00 -0.81405033870E+03  0.24315886440E+04  0.22912759283E+04 0.  0.
        3    1    3    3  502    0  0.11139876338E+04 -0.23587395409E+03 -0.27328661705E+03  0.11710211594E+04  0.10100000352E+00 0. -1.
       -3    1    3    3    0  502 -0.11139876338E+04  0.23587395409E+03 -0.54076372164E+03  0.12605674846E+04  0.10100000352E+00 0.  1.
</event>
<event>
 5   0  0.1869956E-05  0.2553778E+04  0.7818609E-02  0.8384074E-01
       -2   -1    0    0    0  501  0.00000000000E+00  0.00000000000E+00  0.10752880806E+04  0.10752880806E+04  0.25500000920E-02 0. -1.
        2   -1    0    0  501    0  0.00000000000E+00  0.00000000000E+00 -0.15162865789E+04  0.15162865789E+04  0.25500000920E-02 0.  1.
    10030    2    1    2    0    0  0.00000000000E+00  0.00000000000E+00 -0.44099849836E+03  0.25915746595E+04  0.25537775040E+04 0.  0.
        5    1    3    3  502    0 -0.71938598749E+03 -0.98631971174E+03 -0.60031132512E+03  0.13604185201E+04  0.46999998093E+01 0.  1.
       -5    1    3    3    0  502  0.71938598749E+03  0.98631971174E+03  0.15931282676E+03  0.12311561394E+04  0.46999998093E+01 0. -1.
</event>
<event>
 5   0  0.6993678E-06  0.2281382E+04  0.7818609E-02  0.8485298E-01
        1   -1    0    0  501    0  0.00000000000E+00  0.00000000000E+00  0.13051478338E+04  0.13051478338E+04  0.50400001928E-02 0. -1.
       -1   -1    0    0    0  501  0.00000000000E+00  0.00000000000E+00 -0.99695636921E+03  0.99695636922E+03  0.50400001928E-02 0.  1.
    10030    2    1    2    0    0  0.00000000000E+00  0.00000000000E+00  0.30819146456E+03  0.23021042030E+04  0.22813815513E+04 0.  0.
        1    1    3    3  502    0  0.10795940175E+04  0.35244480062E+03  0.26200098394E+03  0.11654977888E+04  0.50400001928E-02 0.  1.
       -1    1    3    3    0  502 -0.10795940175E+04 -0.35244480062E+03  0.46190480620E+02  0.11366064142E+04  0.50400001928E-02 0. -1.
</event>
<event>
 5   0  0.7138294E-06  0.2546212E+04  0.7818609E-02  0.8386705E-01
       -1   -1    0    0    0  501  0.00000000000E+00  0.00000000000E+00  0.94236211299E+03  0.94236211300E+03  0.50400001928E-02 0. -1.
        1   -1    0    0  501    0  0.00000000000E+00  0.00000000000E+00 -0.17199318153E+04  0.17199318154E+04  0.50400001928E-02 0.  1.
    10030    2    1    2    0    0  0.00000000000E+00  0.00000000000E+00 -0.77756970236E+03  0.26622939284E+04  0.25462117585E+04 0.  0.
        2    1    3    3  502    0 -0.33306382421E+03  0.53176827997E+03 -0.15470276636E+04  0.16694321209E+04  0.25500000920E-02 0.  1.
       -2    1    3    3    0  502  0.33306382421E+03 -0.53176827997E+03  0.76945796120E+03  0.99286180742E+03  0.25500000920E-02 0. -1.
</event>
<event>
 5   0  0.1677971E-05  0.2613983E+04  0.7818609E-02  0.8363467E-01
        2   -1    0    0  501    0  0.00000000000E+00  0.00000000000E+00  0.97710306318E+03  0.97710306318E+03  0.25500000920E-02 0. -1.
       -2   -1    0    0    0  501  0.00000000000E+00  0.00000000000E+00 -0.17482563564E+04  0.17482563564E+04  0.25500000920E-02 0.  1.
    10030    2    1    2    0    0  0.00000000000E+00  0.00000000000E+00 -0.77115329322E+03  0.27253594196E+04  0.26139828929E+04 0.  0.
        4    1    3    3  502    0  0.66501084983E+03 -0.11250781170E+04 -0.39975107370E+03  0.13666904307E+04  0.12699999809E+01 0.  1.
       -4    1    3    3    0  502 -0.66501084983E+03  0.11250781170E+04 -0.37140221953E+03  0.13586689888E+04  0.12699999809E+01 0. -1.
</event>
<event>
 5   0  0.1677971E-05  0.2596525E+04  0.7818609E-02  0.8369382E-01
        2   -1    0    0  501    0  0.00000000000E+00  0.00000000000E+00  0.31567436835E+04  0.31567436835E+04  0.25500000920E-02 0.  1.
       -2   -1    0    0    0  501  0.00000000000E+00  0.00000000000E+00 -0.53393176172E+03  0.53393176173E+03  0.25500000920E-02 0. -1.
    10030    2    1    2    0    0  0.00000000000E+00  0.00000000000E+00  0.26228119218E+04  0.36906754452E+04  0.25965251520E+04 0.  0.
        4    1    3    3  502    0  0.54837362039E+03  0.71706195305E+03  0.26376419687E+04  0.27878393498E+04  0.12699999809E+01 0.  1.
       -4    1    3    3    0  502 -0.54837362039E+03 -0.71706195305E+03 -0.14830046953E+02  0.90283609545E+03  0.12699999809E+01 0. -1.
</event>
<event>
 5   0  0.1681731E-05  0.2638513E+04  0.7818609E-02  0.8355236E-01
        2   -1    0    0  501    0  0.00000000000E+00  0.00000000000E+00  0.11806229848E+04  0.11806229848E+04  0.25500000920E-02 0. -1.
       -2   -1    0    0    0  501  0.00000000000E+00  0.00000000000E+00 -0.14741688794E+04  0.14741688794E+04  0.25500000920E-02 0.  1.
    10030    2    1    2    0    0  0.00000000000E+00  0.00000000000E+00 -0.29354589460E+03  0.26547918643E+04  0.26385129620E+04 0.  0.
        2    1    3    3  502    0  0.11335876263E+04  0.33049491585E+03 -0.73878210080E+03  0.13928556237E+04  0.25500000920E-02 0.  1.
       -2    1    3    3    0  502 -0.11335876263E+04 -0.33049491585E+03  0.44523620621E+03  0.12619362406E+04  0.25500000920E-02 0. -1.
</event>
<event>
 5   0  0.1702345E-05  0.2550747E+04  0.7818609E-02  0.8385126E-01
        2   -1    0    0  501    0  0.00000000000E+00  0.00000000000E+00  0.14473007488E+04  0.14473007488E+04  0.25500000920E-02 0. -1.
       -2   -1    0    0    0  501  0.00000000000E+00  0.00000000000E+00 -0.11238701665E+04  0.11238701665E+04  0.25500000920E-02 0.  1.
    10030    2    1    2    0    0  0.00000000000E+00  0.00000000000E+00  0.32343058226E+03  0.25711709153E+04  0.25507474462E+04 0.  0.
        1    1    3    3  502    0  0.55056549979E+03 -0.75441649624E+03 -0.71374984308E+03  0.11754596794E+04  0.50400001928E-02 0.  1.
       -1    1    3    3    0  502 -0.55056549979E+03  0.75441649624E+03  0.10371804253E+04  0.13957112359E+04  0.50400001928E-02 0. -1.
</event>
<event>
 5   0  0.1677971E-05  0.2414914E+04  0.7818609E-02  0.8433941E-01
        2   -1    0    0  501    0  0.00000000000E+00  0.00000000000E+00  0.18754539939E+04  0.18754539939E+04  0.25500000920E-02 0.  1.
       -2   -1    0    0    0  501  0.00000000000E+00  0.00000000000E+00 -0.77738613665E+03  0.77738613665E+03  0.25500000920E-02 0. -1.
    10030    2    1    2    0    0  0.00000000000E+00  0.00000000000E+00  0.10980678573E+04  0.26528401306E+04  0.24149136091E+04 0.  0.
        4    1    3    3  502    0 -0.88531674181E+03  0.78015310848E+03  0.26783389584E+03  0.12100252950E+04  0.12699999809E+01 0. -1.
       -4    1    3    3    0  502  0.88531674181E+03 -0.78015310848E+03  0.83023396144E+03  0.14428148355E+04  0.12699999809E+01 0.  1.
</event>
<event>
 5   0  0.1720129E-05  0.2614762E+04  0.7818609E-02  0.8363204E-01
       -2   -1    0    0    0  501  0.00000000000E+00  0.00000000000E+00  0.69389298531E+03  0.69389298531E+03  0.25500000920E-02 0.  1.
        2   -1    0    0  501    0  0.00000000000E+00  0.00000000000E+00 -0.24632694106E+04  0.24632694106E+04  0.25500000920E-02 0. -1.
    10030    2    1    2    0    0  0.00000000000E+00  0.00000000000E+00 -0.17693764253E+04  0.31571623959E+04  0.26147622186E+04 0.  0.
        3    1    3    3  502    0 -0.12256380856E+04  0.42894760302E+03 -0.70133017842E+03  0.14758213958E+04  0.10100000352E+00 0.  1.
       -3    1    3    3    0  502  0.12256380856E+04 -0.42894760302E+03 -0.10680462469E+04  0.16813410001E+04  0.10100000352E+00 0. -1.
</event>
<event>
 5   0  0.6984287E-06  0.2650011E+04  0.7818609E-02  0.8351409E-01
        1   -1    0    0  501    0  0.00000000000E+00  0.00000000000E+00  0.15705486252E+04  0.15705486252E+04  0.50400001928E-02 0.  1.
       -1   -1    0    0    0  501  0.00000000000E+00  0.00000000000E+00 -0.11178508570E+04  0.11178508570E+04  0.50400001928E-02 0. -1.
    10030    2    1    2    0    0  0.00000000000E+00  0.00000000000E+00  0.45269776819E+03  0.26883994823E+04  0.26500106617E+04 0.  0.
        3    1    3    3  502    0  0.11850789326E+04  0.54766634848E+03 -0.34017137473E+01  0.13055121935E+04  0.10100000352E+00 0. -1.
       -3    1    3    3    0  502 -0.11850789326E+04 -0.54766634848E+03  0.45609948194E+03  0.13828872887E+04  0.10100000352E+00 0.  1.
</event>
<event>
 5   0  0.6984287E-06  0.2515302E+04  0.7818609E-02  0.8397554E-01
        1   -1    0    0  501    0  0.00000000000E+00  0.00000000000E+00  0.12270778042E+04  0.12270778042E+04  0.50400001928E-02 0. -1.
       -1   -1    0    0    0  501  0.00000000000E+00  0.00000000000E+00 -0.12889860273E+04  0.12889860273E+04  0.50400001928E-02 0.  1.
    10030    2    1    2    0    0  0.00000000000E+00  0.00000000000E+00 -0.61908223117E+02  0.25160638316E+04  0.25153020845E+04 0.  0.
        3    1    3    3  502    0  0.54161307969E+03  0.11864246533E+03  0.10982213834E+04  0.12302483407E+04  0.10100000352E+00 0. -1.
       -3    1    3    3    0  502 -0.54161307969E+03 -0.11864246533E+03 -0.11601296065E+04  0.12858154909E+04  0.10100000352E+00 0.  1.
</event>
<event>
 5   0  0.6918420E-06  0.2489253E+04  0.7818609E-02  0.8406824E-01
       -1   -1    0    0    0  501  0.00000000000E+00  0.00000000000E+00  0.80239113695E+03  0.80239113697E+03  0.50400001928E-02 0.  1.
        1   -1    0    0  501    0  0.00000000000E+00  0.00000000000E+00 -0.19305992725E+04  0.19305992725E+04  0.50400001928E-02 0. -1.
    10030    2    1    2    0    0  0.00000000000E+00  0.00000000000E+00 -0.11282081355E+04  0.27329904094E+04  0.24892534988E+04 0.  0.
        4    1    3    3  502    0 -0.11045296025E+03 -0.11526136548E+04 -0.10652830736E+04  0.15733873438E+04  0.12699999809E+01 0. -1.
       -4    1    3    3    0  502  0.11045296025E+03  0.11526136548E+04 -0.62925061887E+02  0.11596030657E+04  0.12699999809E+01 0.  1.
</event>
<event>
 5   0  0.6993678E-06  0.2593177E+04  0.7818609E-02  0.8370522E-01
       -1   -1    0    0    0  501  0.00000000000E+00  0.00000000000E+00  0.10008055401E+04  0.10008055401E+04  0.50400001928E-02 0.  1.
        1   -1    0    0  501    0  0.00000000000E+00  0.00000000000E+00 -0.16797887157E+04  0.16797887157E+04  0.50400001928E-02 0. -1.
    10030    2    1    2    0    0  0.00000000000E+00  0.00000000000E+00 -0.67898317561E+03  0.26805942558E+04  0.25931770883E+04 0.  0.
        1    1    3    3  502    0  0.10383504305E+04 -0.25540929521E+03  0.41853352816E+03  0.11482925754E+04  0.50400001928E-02 0.  1.
       -1    1    3    3    0  502 -0.10383504305E+04  0.25540929521E+03 -0.10975167038E+04  0.15323016804E+04  0.50400001928E-02 0. -1.
</event>
<event>
 5   0  0.1702345E-05  0.2580357E+04  0.7818609E-02  0.8374904E-01
       -2   -1    0    0    0  501  0.00000000000E+00  0.00000000000E+00  0.66034643271E+03  0.66034643272E+03  0.25500000920E-02 0. -1.
        2   -1    0    0  501    0  0.00000000000E+00  0.00000000000E+00 -0.25207389604E+04  0.25207389604E+04  0.25500000920E-02 0.  1.
    10030    2    1    2    0    0  0.00000000000E+00  0.00000000000E+00 -0.18603925277E+04  0.31810853931E+04  0.25803573243E+04 0.  0.
        1    1    3    3  502    0  0.40815780965E+03 -0.12086615874E+04 -0.69272353525E+03  0.14516616433E+04  0.50400001928E-02 0. -1.
       -1    1    3    3    0  502 -0.40815780965E+03  0.12086615874E+04 -0.11676689925E+04  0.17294237498E+04  0.50400001928E-02 0.  1.
</event>
<event>
 5   0  0.1677971E-05  0.2595644E+04  0.7818609E-02  0.8369682E-01
       -2   -1    0    0    0  501  0.00000000000E+00  0.00000000000E+00  0.80543070826E+03  0.80543070827E+03  0.25500000920E-02 0. -1.
        2   -1    0    0  501    0  0.00000000000E+00  0.00000000000E+00 -0.20912315382E+04  0.20912315382E+04  0.25500000920E-02 0.  1.
    10030    2    1    2    0    0  0.00000000000E+00  0.00000000000E+00 -0.12858008300E+04  0.28966622465E+04  0.25956441197E+04 0.  0.
        4    1    3    3  502    0 -0.90300748495E+03 -0.57265081359E+02 -0.16811960739E+04  0.19092206942E+04  0.12699999809E+01 0.  1.
       -4    1    3    3    0  502  0.90300748495E+03  0.57265081359E+02  0.39539524390E+03  0.98744155231E+03  0.12699999809E+01 0. -1.
</event>
<event>
 5   0  0.1681731E-05  0.2541115E+04  0.7818609E-02  0.8388483E-01
        2   -1    0    0  501    0  0.00000000000E+00  0.00000000000E+00  0.17862861454E+04  0.17862861454E+04  0.25500000920E-02 0.  1.
       -2   -1    0    0    0  501  0.00000000000E+00  0.00000000000E+00 -0.90372787234E+03  0.90372787234E+03  0.25500000920E-02 0. -1.
    10030    2    1    2    0    0  0.00000000000E+00  0.00000000000E+00  0.88255827307E+03  0.26900140177E+04  0.25411151706E+04 0.  0.
        2    1    3    3  502    0  0.29459397597E+03  0.92398005770E+02 -0.86341335390E+03  0.91695453642E+03  0.25500000920E-02 0. -1.
       -2    1    3    3    0  502 -0.29459397597E+03 -0.92398005770E+02  0.17459716270E+04  0.17730594813E+04  0.25500000920E-02 0.  1.
</event>
<event>
 5   0  0.6706225E-06  0.2537995E+04  0.7818609E-02  0.8389573E-01
       -1   -1    0    0    0  501  0.00000000000E+00  0.00000000000E+00  0.10047145967E+04  0.10047145967E+04  0.50400001928E-02 0. -1.
        1   -1    0    0  501    0  0.00000000000E+00  0.00000000000E+00 -0.16027986755E+04  0.16027986755E+04  0.50400001928E-02 0.  1.
    10030    2    1    2    0    0  0.00000000000E+00  0.00000000000E+00 -0.59808407887E+03  0.26075132722E+04  0.25379954490E+04 0.  0.
        5    1    3    3  502    0  0.65534084256E+03  0.28620371945E+03  0.77797964423E+03  0.10567206849E+04  0.46999998093E+01 0. -1.
       -5    1    3    3    0  502 -0.65534084256E+03 -0.28620371945E+03 -0.13760637231E+04  0.15507925874E+04  0.46999998093E+01 0.  1.
</event>
<event>
 5   0  0.6984287E-06  0.2596151E+04  0.7818609E-02  0.8369510E-01
        1   -1    0    0  501    0  0.00000000000E+00  0.00000000000E+00  0.14449739429E+04  0.14449739429E+04  0.50400001928E-02 0.  1.
       -1   -1    0    0    0  501  0.00000000000E+00  0.00000000000E+00 -0.11661106449E+04  0.11661106449E+04  0.50400001928E-02 0. -1.
    10030    2    1    2    0    0  0.00000000000E+00  0.00000000000E+00  0.27886329795E+03  0.26110845878E+04  0.25961506092E+04 0.  0.
        3    1    3    3  502    0  0.11502406901E+03 -0.10655451133E+04 -0.59716270018E+03  0.12268741686E+04  0.10100000352E+00 0. -1.
       -3    1    3    3    0  502 -0.11502406901E+03  0.10655451133E+04  0.87602599813E+03  0.13842104192E+04  0.10100000352E+00 0.  1.
</event>
<event>
 5   0  0.1702345E-05  0.2607806E+04  0.7818609E-02  0.8365555E-01
        2   -1    0    0  501    0  0.00000000000E+00  0.00000000000E+00  0.11614340154E+04  0.11614340154E+04  0.25500000920E-02 0.  1.
       -2   -1    0    0    0  501  0.00000000000E+00  0.00000000000E+00 -0.14638476371E+04  0.14638476371E+04  0.25500000920E-02 0. -1.
    10030    2    1    2    0    0  0.00000000000E+00  0.00000000000E+00 -0.30241362179E+03  0.26252816525E+04  0.26078055442E+04 0.  0.
        1    1    3    3  502    0  0.52071280690E+03  0.20151493576E+03 -0.13374123070E+04  0.14492831937E+04  0.50400001928E-02 0. -1.
       -1    1    3    3    0  502 -0.52071280690E+03 -0.20151493576E+03  0.10349986852E+04  0.11759984588E+04  0.50400001928E-02 0.  1.
</event>
<event>
 5   0  0.6918420E-06  0.2610726E+04  0.7818609E-02  0.8364567E-01
        1   -1    0    0  501    0  0.00000000000E+00  0.00000000000E+00  0.13529964343E+04  0.13529964343E+04  0.50400001928E-02 0.  1.
       -1   -1    0    0    0  501  0.00000000000E+00  0.00000000000E+00 -0.12594068238E+04  0.12594068239E+04  0.50400001928E-02 0. -1.
    10030    2    1    2    0    0  0.00000000000E+00  0.00000000000E+00  0.93589610434E+02  0.26124032581E+04  0.26107262913E+04 0.  0.
        4    1    3    3  502    0  0.11095460420E+04 -0.29647917441E+03 -0.57407051065E+03  0.12839590665E+04  0.12699999809E+01 0. -1.
       -4    1    3    3    0  502 -0.11095460420E+04  0.29647917441E+03  0.66766012108E+03  0.13284441917E+04  0.12699999809E+01 0.  1.
</event>
<event>
 5   0  0.6984287E-06  0.2612548E+04  0.7818609E-02  0.8363952E-01
        1   -1    0    0  501    0  0.00000000000E+00  0.00000000000E+00  0.14699498809E+04  0.14699498809E+04  0.50400001928E-02 0.  1.
       -1   -1    0    0    0  501  0.00000000000E+00  0.00000000000E+00 -0.11608226673E+04  0.11608226673E+04  0.50400001928E-02 0. -1.
    10030    2    1    2    0    0  0.00000000000E+00  0.00000000000E+00  0.30912721362E+03  0.26307725482E+04  0.26125475242E+04 0.  0.
        3    1    3    3  502    0 -0.22360883128E+03 -0.82748877176E+03 -0.83801671513E+03  0.11987537703E+04  0.10100000352E+00 0. -1.
       -3    1    3    3    0  502  0.22360883128E+03  0.82748877176E+03  0.11471439288E+04  0.14320187779E+04  0.10100000352E+00 0.  1.
</event>
<event>
 5   0  0.6993678E-06  0.2607765E+04  0.7818609E-02  0.8365568E-01
       -1   -1    0    0    0  501  0.00000000000E+00  0.00000000000E+00  0.65203044080E+03  0.65203044082E+03  0.50400001928E-02 0. -1.
        1   -1    0    0  501    0  0.00000000000E+00  0.00000000000E+00 -0.26074088554E+04  0.26074088554E+04  0.50400001928E-02 0.  1.
    10030    2    1    2    0    0  0.00000000000E+00  0.00000000000E+00 -0.19553784146E+04  0.32594392962E+04  0.26077652850E+04 0.  0.
        1    1    3    3  502    0  0.56709191582E+03 -0.54844057242E+03  0.31987635774E+03  0.85129383102E+03  0.50400001928E-02 0. -1.
       -1    1    3    3    0  502 -0.56709191582E+03  0.54844057242E+03 -0.22752547723E+04  0.24081454652E+04  0.50400001928E-02 0.  1.
</event>
<event>
 5   0  0.6706225E-06  0.2615874E+04  0.7818609E-02  0.8362829E-01
       -1   -1    0    0    0  501  0.00000000000E+00  0.00000000000E+00  0.11359906142E+04  0.11359906142E+04  0.50400001928E-02 0. -1.
        1   -1    0    0  501    0  0.00000000000E+00  0.00000000000E+00 -0.15059096297E+04  0.15059096297E+04  0.50400001928E-02 0.  1.
    10030    2    1    2    0    0  0.00000000000E+00  0.00000000000E+00 -0.36991901544E+03  0.26419002439E+04  0.26158740071E+04 0.  0.
        5    1    3    3  502    0 -0.11114185963E+04  0.47887069242E+02  0.50973049801E+03  0.12236795897E+04  0.46999998093E+01 0.  1.
       -5    1    3    3    0  502  0.11114185963E+04 -0.47887069242E+02 -0.87964951346E+03  0.14182206543E+04  0.46999998093E+01 0. -1.
</event>
<event>
 5   0  0.6984287E-06  0.2606069E+04  0.7818609E-02  0.8366143E-01
        1   -1    0    0  501    0  0.00000000000E+00  0.00000000000E+00  0.15356989064E+04  0.15356989064E+04  0.50400001928E-02 0. -1.
       -1   -1    0    0    0  501  0.00000000000E+00  0.00000000000E+00 -0.11056196925E+04  0.11056196925E+04  0.50400001928E-02 0.  1.
    10030    2    1    2    0    0  0.00000000000E+00  0.00000000000E+00  0.43007921391E+03  0.26413185990E+04  0.26060690342E+04 0.  0.
        3    1    3    3  502    0  0.11089196077E+04 -0.60017192085E+03 -0.11802345196E+03  0.12664274856E+04  0.10100000352E+00 0.  1.
       -3    1    3    3    0  502 -0.11089196077E+04  0.60017192085E+03  0.54810266587E+03  0.13748911133E+04  0.10100000352E+00 0. -1.
</event>
<event>
 5   0  0.1677971E-05  0.2592210E+04  0.7818609E-02  0.8370852E-01
        2   -1    0    0  501    0  0.00000000000E+00  0.00000000000E+00  0.19101394284E+04  0.19101394284E+04  0.25500000920E-02 0. -1.
       -2   -1    0    0    0  501  0.00000000000E+00  0.00000000000E+00 -0.87945821963E+03  0.87945821963E+03  0.25500000920E-02 0.  1.
    10030    2    1    2    0    0  0.00000000000E+00  0.00000000000E+00  0.10306812087E+04  0.27895976480E+04  0.25922097299E+04 0.  0.
        4    1    3    3  502    0 -0.10146700237E+04 -0.22434745531E+03  0.13489195882E+04  0.17027838107E+04  0.12699999809E+01 0. -1.
       -4    1    3    3    0  502  0.10146700237E+04  0.22434745531E+03 -0.31823837946E+03  0.10868138373E+04  0.12699999809E+01 0.  1.
</event>
<event>
 5   0  0.1702345E-05  0.2537478E+04  0.7818609E-02  0.8389754E-01
        2   -1    0    0  501    0  0.00000000000E+00  0.00000000000E+00  0.12145520835E+04  0.12145520836E+04  0.25500000920E-02 0.  1.
       -2   -1    0    0    0  501  0.00000000000E+00  0.00000000000E+00 -0.13253430186E+04  0.13253430186E+04  0.25500000920E-02 0. -1.
    10030    2    1    2    0    0  0.00000000000E+00  0.00000000000E+00 -0.11079093500E+03  0.25398951021E+04  0.25374775858E+04 0.  0.
        1    1    3    3  502    0  0.69430869635E+03 -0.44123206204E+03  0.91141700498E+03  0.12277749205E+04  0.50400001928E-02 0.  1.
       -1    1    3    3    0  502 -0.69430869635E+03  0.44123206204E+03 -0.10222079400E+04  0.13121201816E+04  0.50400001928E-02 0. -1.
</event>
<event>
 5   0  0.6918420E-06  0.2634954E+04  0.7818609E-02  0.8356424E-01
        1   -1    0    0  501    0  0.00000000000E+00  0.00000000000E+00  0.16175037645E+04  0.16175037645E+04  0.50400001928E-02 0. -1.
       -1   -1    0    0    0  501  0.00000000000E+00  0.00000000000E+00 -0.10731016172E+04  0.10731016172E+04  0.50400001928E-02 0.  1.
    10030    2    1    2    0    0  0.00000000000E+00  0.00000000000E+00  0.54440214732E+03  0.26906053816E+04  0.26349541973E+04 0.  0.
        4    1    3    3  502    0  0.10293447082E+03  0.47463058557E+03 -0.97835857282E+03  0.10922713985E+04  0.12699999809E+01 0.  1.
       -4    1    3    3    0  502 -0.10293447082E+03 -0.47463058557E+03  0.15227607201E+04  0.15983339832E+04  0.12699999809E+01 0. -1.
</event>
<event>
 5   0  0.1869956E-05  0.2602638E+04  0.7818609E-02  0.8367306E-01
        2   -1    0    0  501    0  0.00000000000E+00  0.00000000000E+00  0.19169849910E+04  0.19169849910E+04  0.25500000920E-02 0. -1.
       -2   -1    0    0    0  501  0.00000000000E+00  0.00000000000E+00 -0.88338272174E+03  0.88338272174E+03  0.25500000920E-02 0.  1.
    10030    2    1    2    0    0  0.00000000000E+00  0.00000000000E+00  0.10336022693E+04  0.28003677127E+04  0.26026382145E+04 0.  0.
        5    1    3    3  502    0 -0.10582230336E+04  0.55462221073E+03  0.10717022279E+04  0.16049951840E+04  0.46999998093E+01 0. -1.
       -5    1    3    3    0  502  0.10582230336E+04 -0.55462221073E+03 -0.38099958587E+02  0.11953725287E+04  0.46999998093E+01 0.  1.
</event>
<event>
 5   0  0.6918420E-06  0.2584595E+04  0.7818609E-02  0.8373453E-01
        1   -1    0    0  501    0  0.00000000000E+00  0.00000000000E+00  0.24396475091E+04  0.24396475091E+04  0.50400001928E-02 0. -1.
       -1   -1    0    0    0  501  0.00000000000E+00  0.00000000000E+00 -0.68453832451E+03  0.68453832453E+03  0.50400001928E-02 0.  1.
    10030    2    1    2    0    0  0.00000000000E+00  0.00000000000E+00  0.17551091846E+04  0.31241858337E+04  0.25845945278E+04 0.  0.
        4    1    3    3  502    0  0.39232435557E+03  0.12072356051E+04  0.58470625083E+03  0.13975761943E+04  0.12699999809E+01 0. -1.
       -4    1    3    3    0  502 -0.39232435557E+03 -0.12072356051E+04  0.11704029338E+04  0.17266096393E+04  0.12699999809E+01 0.  1.
</event>
<event>
 5   0  0.6993678E-06  0.2612642E+04  0.7818609E-02  0.8363920E-01
       -1   -1    0    0    0  501  0.00000000000E+00  0.00000000000E+00  0.98687037980E+03  0.98687037981E+03  0.50400001928E-02 0.  1.
        1   -1    0    0  501    0  0.00000000000E+00  0.00000000000E+00 -0.17291776691E+04  0.17291776691E+04  0.50400001928E-02 0. -1.
    10030    2    1    2    0    0  0.00000000000E+00  0.00000000000E+00 -0.74230728931E+03  0.27160480489E+04  0.26126417459E+04 0.  0.
        1    1    3    3  502    0  0.99770033514E+03  0.67931196990E+03  0.14822361725E+03  0.12160760469E+04  0.50400001928E-02 0.  1.
       -1    1    3    3    0  502 -0.99770033514E+03 -0.67931196990E+03 -0.89053090656E+03  0.14999720020E+04  0.50400001928E-02 0. -1.
</event>
<event>
 5   0  0.6993678E-06  0.2617675E+04  0.7818609E-02  0.8362222E-01
       -1   -1    0    0    0  501  0.00000000000E+00  0.00000000000E+00  0.14843354131E+04  0.14843354131E+04  0.50400001928E-02 0.  1.
        1   -1    0    0  501    0  0.00000000000E+00  0.00000000000E+00 -0.11540894604E+04  0.11540894604E+04  0.50400001928E-02 0. -1.
    10030    2    1    2    0    0  0.00000000000E+00  0.00000000000E+00  0.33024595272E+03  0.26384248735E+04  0.26176751945E+04 0.  0.
        1    1    3    3  502    0  0.63545507737E+03  0.56490415705E+03 -0.83782036470E+03  0.11936761812E+04  0.50400001928E-02 0. -1.
       -1    1    3    3    0  502 -0.63545507737E+03 -0.56490415705E+03  0.11680663174E+04  0.14447486923E+04  0.50400001928E-02 0.  1.
</event>
<event>
 5   0  0.6984287E-06  0.2600185E+04  0.7818609E-02  0.8368138E-01
       -1   -1    0    0    0  501  0.00000000000E+00  0.00000000000E+00  0.12234962914E+04  0.12234962914E+04  0.50400001928E-02 0. -1.
        1   -1    0    0  501    0  0.00000000000E+00  0.00000000000E+00 -0.13814842980E+04  0.13814842980E+04  0.50400001928E-02 0.  1.
    10030    2    1    2    0    0  0.00000000000E+00  0.00000000000E+00 -0.15798800668E+03  0.26049805894E+04  0.26001853128E+04 0.  0.
        3    1    3    3  502    0  0.71792484018E+03  0.16130761179E+03 -0.11527937308E+04  0.13676145721E+04  0.10100000352E+00 0.  1.
       -3    1    3    3    0  502 -0.71792484018E+03 -0.16130761179E+03  0.99480572417E+03  0.12373660173E+04  0.10100000352E+00 0. -1.
</event>
<event>
 5   0  0.1869956E-05  0.2581604E+04  0.7818609E-02  0.8374477E-01
        2   -1    0    0  501    0  0.00000000000E+00  0.00000000000E+00  0.13315807127E+04  0.13315807127E+04  0.25500000920E-02 0. -1.
       -2   -1    0    0    0  501  0.00000000000E+00  0.00000000000E+00 -0.12512725527E+04  0.12512725527E+04  0.25500000920E-02 0.  1.
    10030    2    1    2    0    0  0.00000000000E+00  0.00000000000E+00  0.80308160001E+02  0.25828532654E+04  0.25816044604E+04 0.  0.
        5    1    3    3  502    0 -0.47689606476E+03  0.10203069373E+04  0.67108755552E+03  0.13110441259E+04  0.46999998093E+01 0. -1.
       -5    1    3    3    0  502  0.47689606476E+03 -0.10203069373E+04 -0.59077939552E+03  0.12718091394E+04  0.46999998093E+01 0.  1.
</event>
<event>
 5   0  0.1702345E-05  0.2170671E+04  0.7818609E-02  0.8530736E-01
       -2   -1    0    0    0  501  0.00000000000E+00  0.00000000000E+00  0.11788565266E+04  0.11788565266E+04  0.25500000920E-02 0. -1.
        2   -1    0    0  501    0  0.00000000000E+00  0.00000000000E+00 -0.99923374155E+03  0.99923374156E+03  0.25500000920E-02 0.  1.
    10030    2    1    2    0    0  0.00000000000E+00  0.00000000000E+00  0.17962278500E+03  0.21780902681E+04  0.21706710647E+04 0.  0.
        1    1    3    3  502    0 -0.35969144439E+03  0.63658667468E+03 -0.71501028773E+03  0.10226730861E+04  0.50400001928E-02 0.  1.
       -1    1    3    3    0  502  0.35969144439E+03 -0.63658667468E+03  0.89463307273E+03  0.11554171820E+04  0.50400001928E-02 0. -1.
</event>
<event>
 5   0  0.6918420E-06  0.2625005E+04  0.7818609E-02  0.8359757E-01
        1   -1    0    0  501    0  0.00000000000E+00  0.00000000000E+00  0.28232695879E+04  0.28232695879E+04  0.50400001928E-02 0. -1.
       -1   -1    0    0    0  501  0.00000000000E+00  0.00000000000E+00 -0.61016609884E+03  0.61016609886E+03  0.50400001928E-02 0.  1.
    10030    2    1    2    0    0  0.00000000000E+00  0.00000000000E+00  0.22131034891E+04  0.34334356868E+04  0.26250054404E+04 0.  0.
        4    1    3    3  502    0 -0.11397980519E+04  0.36487976657E+03  0.18113839655E+04  0.21710343909E+04  0.12699999809E+01 0. -1.
       -4    1    3    3    0  502  0.11397980519E+04 -0.36487976657E+03  0.40171952359E+03  0.12624012959E+04  0.12699999809E+01 0.  1.
</event>
<event>
 5   0  0.6984287E-06  0.2615197E+04  0.7818609E-02  0.8363057E-01
        1   -1    0    0  501    0  0.00000000000E+00  0.00000000000E+00  0.19798976621E+04  0.19798976621E+04  0.50400001928E-02 0.  1.
       -1   -1    0    0    0  501  0.00000000000E+00  0.00000000000E+00 -0.86358708571E+03  0.86358708573E+03  0.50400001928E-02 0. -1.
    10030    2    1    2    0    0  0.00000000000E+00  0.00000000000E+00  0.11163105764E+04  0.28434847479E+04  0.26151971643E+04 0.  0.
        3    1    3    3  502    0 -0.94339844655E+03 -0.14319068693E+03 -0.41392927414E+03  0.10401161743E+04  0.10100000352E+00 0. -1.
       -3    1    3    3    0  502  0.94339844655E+03  0.14319068693E+03  0.15302398505E+04  0.18033685736E+04  0.10100000352E+00 0.  1.
</event>
<event>
 5   0  0.1869956E-05  0.2569052E+04  0.7818609E-02  0.8378790E-01
       -2   -1    0    0    0  501  0.00000000000E+00  0.00000000000E+00  0.89971189968E+03  0.89971189968E+03  0.25500000920E-02 0. -1.
        2   -1    0    0  501    0  0.00000000000E+00  0.00000000000E+00 -0.18339283870E+04  0.18339283870E+04  0.25500000920E-02 0.  1.
    10030    2    1    2    0    0  0.00000000000E+00  0.00000000000E+00 -0.93421648734E+03  0.27336402867E+04  0.25690521154E+04 0.  0.
        5    1    3    3  502    0 -0.11975498683E+03 -0.11792377991E+04  0.59622622586E+02  0.11868108488E+04  0.46999998093E+01 0. -1.
       -5    1    3    3    0  502  0.11975498683E+03  0.11792377991E+04 -0.99383910992E+03  0.15468294379E+04  0.46999998093E+01 0.  1.
</event>
<event>
 5   0  0.6984287E-06  0.2636034E+04  0.7818609E-02  0.8356063E-01
        1   -1    0    0  501    0  0.00000000000E+00  0.00000000000E+00  0.17805032098E+04  0.17805032098E+04  0.50400001928E-02 0.  1.
       -1   -1    0    0    0  501  0.00000000000E+00  0.00000000000E+00 -0.97566196129E+03  0.97566196131E+03  0.50400001928E-02 0. -1.
    10030    2    1    2    0    0  0.00000000000E+00  0.00000000000E+00  0.80484124851E+03  0.27561651711E+04  0.26360343350E+04 0.  0.
        3    1    3    3  502    0  0.42364206292E+03 -0.39522550817E+03 -0.83537719394E+03  0.10166272012E+04  0.10100000352E+00 0. -1.
       -3    1    3    3    0  502 -0.42364206292E+03  0.39522550817E+03  0.16402184425E+04  0.17395379700E+04  0.10100000352E+00 0.  1.
</event>
<event>
 5   0  0.6984287E-06  0.2611992E+04  0.7818609E-02  0.8364139E-01
       -1   -1    0    0    0  501  0.00000000000E+00  0.00000000000E+00  0.85804390632E+03  0.85804390633E+03  0.50400001928E-02 0. -1.
        1   -1    0    0  501    0  0.00000000000E+00  0.00000000000E+00 -0.19878062756E+04  0.19878062756E+04  0.50400001928E-02 0.  1.
    10030    2    1    2    0    0  0.00000000000E+00  0.00000000000E+00 -0.11297623693E+04  0.28458501819E+04  0.26119916246E+04 0.  0.
        3    1    3    3  502    0 -0.13456897091E+03  0.19417463600E+03  0.83456931661E+03  0.86736298724E+03  0.10100000352E+00 0. -1.
       -3    1    3    3    0  502  0.13456897091E+03 -0.19417463600E+03 -0.19643316859E+04  0.19784871947E+04  0.10100000352E+00 0.  1.
</event>
<event>
 5   0  0.1677971E-05  0.2610670E+04  0.7818609E-02  0.8364586E-01
        2   -1    0    0  501    0  0.00000000000E+00  0.00000000000E+00  0.14344496834E+04  0.14344496834E+04  0.25500000920E-02 0. -1.
       -2   -1    0    0    0  501  0.00000000000E+00  0.00000000000E+00 -0.11878421634E+04  0.11878421634E+04  0.25500000920E-02 0.  1.
    10030    2    1    2    0    0  0.00000000000E+00  0.00000000000E+00  0.24660751998E+03  0.26222918468E+04  0.26106702705E+04 0.  0.
        4    1    3    3  502    0  0.77221812729E+03  0.86636608274E+03  0.72344753993E+03  0.13675850911E+04  0.12699999809E+01 0. -1.
       -4    1    3    3    0  502 -0.77221812729E+03 -0.86636608274E+03 -0.47684001995E+03  0.12547067558E+04  0.12699999809E+01 0.  1.
</event>
<event>
 5   0  0.1681731E-05  0.2590289E+04  0.7818609E-02  0.8371507E-01
       -2   -1    0    0    0  501  0.00000000000E+00  0.00000000000E+00  0.17261410244E+04  0.17261410245E+04  0.25500000920E-02 0.  1.
        2   -1    0    0  501    0  0.00000000000E+00  0.00000000000E+00 -0.97176242102E+03  0.97176242102E+03  0.25500000920E-02 0. -1.
    10030    2    1    2    0    0  0.00000000000E+00  0.00000000000E+00  0.75437860343E+03  0.26979034455E+04  0.25902887723E+04 0.  0.
        2    1    3    3  502    0  0.26764662849E+03 -0.10755157723E+04 -0.32074724516E+03  0.11537970746E+04  0.25500000920E-02 0. -1.
       -2    1    3    3    0  502 -0.26764662849E+03  0.10755157723E+04  0.10751258486E+04  0.15441063708E+04  0.25500000920E-02 0.  1.
</event>
<event>
 5   0  0.7138294E-06  0.2671084E+04  0.7818609E-02  0.8344448E-01
       -1   -1    0    0    0  501  0.00000000000E+00  0.00000000000E+00  0.15529280936E+04  0.15529280936E+04  0.50400001928E-02 0. -1.
        1   -1    0    0  501    0  0.00000000000E+00  0.00000000000E+00 -0.11485869558E+04  0.11485869558E+04  0.50400001928E-02 0.  1.
    10030    2    1    2    0    0  0.00000000000E+00  0.00000000000E+00  0.40434113786E+03  0.27015150494E+04  0.26710843878E+04 0.  0.
        2    1    3    3  502    0  0.73264075301E+03 -0.10864982679E+04  0.46285099458E+03  0.13897740832E+04  0.25500000920E-02 0.  1.
       -2    1    3    3    0  502 -0.73264075301E+03  0.10864982679E+04 -0.58509856723E+02  0.13117409662E+04  0.25500000920E-02 0. -1.
</event>
<event>
 5   0  0.1681731E-05  0.2642655E+04  0.7818609E-02  0.8353855E-01
       -2   -1    0    0    0  501  0.00000000000E+00  0.00000000000E+00  0.13488629948E+04  0.13488629948E+04  0.25500000920E-02 0.  1.
        2   -1    0    0  501    0  0.00000000000E+00  0.00000000000E+00 -0.12943539674E+04  0.12943539674E+04  0.25500000920E-02 0. -1.
    10030    2    1    2    0    0  0.00000000000E+00  0.00000000000E+00  0.54509027394E+02  0.26432169621E+04  0.26426548535E+04 0.  0.
        2    1    3    3  502    0  0.12813505495E+04 -0.17933883565E+03  0.29542442958E+03  0.13271387427E+04  0.25500000920E-02 0.  1.
       -2    1    3    3    0  502 -0.12813505495E+04  0.17933883565E+03 -0.24091540219E+03  0.13160782195E+04  0.25500000920E-02 0. -1.
</event>
<event>
 5   0  0.7138294E-06  0.2601287E+04  0.7818609E-02  0.8367764E-01
        1   -1    0    0  501    0  0.00000000000E+00  0.00000000000E+00  0.23306825594E+04  0.23306825594E+04  0.50400001928E-02 0. -1.
       -1   -1    0    0    0  501  0.00000000000E+00  0.00000000000E+00 -0.72582774433E+03  0.72582774435E+03  0.50400001928E-02 0.  1.
    10030    2    1    2    0    0  0.00000000000E+00  0.00000000000E+00  0.16048548151E+04  0.30565103038E+04  0.26012874235E+04 0.  0.
        2    1    3    3  502    0 -0.10524718133E+04 -0.74045345811E+03  0.58039976370E+03  0.14116770619E+04  0.25500000920E-02 0.  1.
       -2    1    3    3    0  502  0.10524718133E+04  0.74045345811E+03  0.10244550514E+04  0.16448332419E+04  0.25500000920E-02 0. -1.
</event>
<event>
 5   0  0.5840500E-06  0.2583571E+04  0.7818609E-02  0.8373803E-01
        3   -1    0    0  501    0  0.00000000000E+00  0.00000000000E+00  0.14429162236E+04  0.14429162271E+04  0.10100000352E+00 0.  1.
       -3   -1    0    0    0  501  0.00000000000E+00  0.00000000000E+00 -0.11564845138E+04  0.11564845182E+04  0.10100000352E+00 0. -1.
    10030    2    1    2    0    0  0.00000000000E+00  0.00000000000E+00  0.28643170980E+03  0.25994007453E+04  0.25835713867E+04 0.  0.
        5    1    3    3  502    0  0.82215638058E+03 -0.73166755452E+03  0.82368030438E+03  0.13746817298E+04  0.46999998093E+01 0.  1.
       -5    1    3    3    0  502 -0.82215638058E+03  0.73166755452E+03 -0.53724859458E+03  0.12247190155E+04  0.46999998093E+01 0. -1.
</event>
<event>
 5   0  0.6993678E-06  0.2595714E+04  0.7818609E-02  0.8369659E-01
       -1   -1    0    0    0  501  0.00000000000E+00  0.00000000000E+00  0.15630586739E+04  0.15630586739E+04  0.50400001928E-02 0. -1.
        1   -1    0    0  501    0  0.00000000000E+00  0.00000000000E+00 -0.10776513081E+04  0.10776513081E+04  0.50400001928E-02 0.  1.
    10030    2    1    2    0    0  0.00000000000E+00  0.00000000000E+00  0.48540736583E+03  0.26407099820E+04  0.25957135625E+04 0.  0.
        1    1    3    3  502    0 -0.67157697791E+03  0.77506789990E+03  0.10519079590E+04  0.14691004870E+04  0.50400001928E-02 0. -1.
       -1    1    3    3    0  502  0.67157697791E+03 -0.77506789990E+03 -0.56650059316E+03  0.11716094950E+04  0.50400001928E-02 0.  1.
</event>
<event>
 5   0  0.1681731E-05  0.2589919E+04  0.7818609E-02  0.8371634E-01
        2   -1    0    0  501    0  0.00000000000E+00  0.00000000000E+00  0.13822646652E+04  0.13822646652E+04  0.25500000920E-02 0. -1.
       -2   -1    0    0    0  501  0.00000000000E+00  0.00000000000E+00 -0.12131686675E+04  0.12131686675E+04  0.25500000920E-02 0.  1.
    10030    2    1    2    0    0  0.00000000000E+00  0.00000000000E+00  0.16909599768E+03  0.25954333327E+04  0.25899190582E+04 0.  0.
        2    1    3    3  502    0 -0.45921075490E+03  0.33608955160E+03  0.12502483972E+04  0.13736636265E+04  0.25500000920E-02 0. -1.
       -2    1    3    3    0  502  0.45921075490E+03 -0.33608955160E+03 -0.10811523995E+04  0.12217697062E+04  0.25500000920E-02 0.  1.
</event>
<event>
 5   0  0.1677971E-05  0.2598346E+04  0.7818609E-02  0.8368763E-01
       -2   -1    0    0    0  501  0.00000000000E+00  0.00000000000E+00  0.15477387920E+04  0.15477387920E+04  0.25500000920E-02 0.  1.
        2   -1    0    0  501    0  0.00000000000E+00  0.00000000000E+00 -0.10905265553E+04  0.10905265553E+04  0.25500000920E-02 0. -1.
    10030    2    1    2    0    0  0.00000000000E+00  0.00000000000E+00  0.45721223673E+03  0.26382653472E+04  0.25983458224E+04 0.  0.
        4    1    3    3  502    0 -0.45542649191E+03  0.22000582411E+03  0.14436668955E+04  0.15297030987E+04  0.12699999809E+01 0.  1.
       -4    1    3    3    0  502  0.45542649191E+03 -0.22000582411E+03 -0.98645465876E+03  0.11085622485E+04  0.12699999809E+01 0. -1.
</event>
<event>
 5   0  0.1702345E-05  0.2555282E+04  0.7818609E-02  0.8383551E-01
       -2   -1    0    0    0  501  0.00000000000E+00  0.00000000000E+00  0.11712295071E+04  0.11712295071E+04  0.25500000920E-02 0. -1.
        2   -1    0    0  501    0  0.00000000000E+00  0.00000000000E+00 -0.13937209766E+04  0.13937209766E+04  0.25500000920E-02 0.  1.
    10030    2    1    2    0    0  0.00000000000E+00  0.00000000000E+00 -0.22249146948E+03  0.25649504836E+04  0.25552824755E+04 0.  0.
        1    1    3    3  502    0  0.41560661842E+03 -0.25780133937E+03  0.10735491665E+04  0.11797025917E+04  0.50400001928E-02 0. -1.
       -1    1    3    3    0  502 -0.41560661842E+03  0.25780133937E+03 -0.12960406360E+04  0.13852478919E+04  0.50400001928E-02 0.  1.
</event>
<event>
 5   0  0.1702345E-05  0.2644880E+04  0.7818609E-02  0.8353114E-01
        2   -1    0    0  501    0  0.00000000000E+00  0.00000000000E+00  0.12175705315E+04  0.12175705315E+04  0.25500000920E-02 0. -1.
       -2   -1    0    0    0  501  0.00000000000E+00  0.00000000000E+00 -0.14363413620E+04  0.14363413620E+04  0.25500000920E-02 0.  1.
    10030    2    1    2    0    0  0.00000000000E+00  0.00000000000E+00 -0.21877083043E+03  0.26539118935E+04  0.26448795176E+04 0.  0.
        1    1    3    3  502    0 -0.58038999647E+03  0.97788284798E+03  0.56800483996E+03  0.12711164033E+04  0.50400001928E-02 0. -1.
       -1    1    3    3    0  502  0.58038999647E+03 -0.97788284798E+03 -0.78677567039E+03  0.13827954903E+04  0.50400001928E-02 0.  1.
</event>
<event>
 5   0  0.7138294E-06  0.2572533E+04  0.7818609E-02  0.8377591E-01
       -1   -1    0    0    0  501  0.00000000000E+00  0.00000000000E+00  0.14310715487E+04  0.14310715487E+04  0.50400001928E-02 0. -1.
        1   -1    0    0  501    0  0.00000000000E+00  0.00000000000E+00 -0.11561138987E+04  0.11561138987E+04  0.50400001928E-02 0.  1.
    10030    2    1    2    0    0  0.00000000000E+00  0.00000000000E+00  0.27495765001E+03  0.25871854475E+04  0.25725331544E+04 0.  0.
        2    1    3    3  502    0  0.96099228745E+03 -0.19626004071E+03  0.97435874870E+03  0.13825335986E+04  0.25500000920E-02 0. -1.
       -2    1    3    3    0  502 -0.96099228745E+03  0.19626004071E+03 -0.69940109868E+03  0.12046518489E+04  0.25500000920E-02 0.  1.
</event>
<event>
 5   0  0.7138294E-06  0.2488741E+04  0.7818609E-02  0.8407008E-01
        1   -1    0    0  501    0  0.00000000000E+00  0.00000000000E+00  0.13116475567E+04  0.13116475567E+04  0.50400001928E-02 0.  1.
       -1   -1    0    0    0  501  0.00000000000E+00  0.00000000000E+00 -0.11805442147E+04  0.11805442147E+04  0.50400001928E-02 0. -1.
    10030    2    1    2    0    0  0.00000000000E+00  0.00000000000E+00  0.13110334200E+03  0.24921917715E+04  0.24887409948E+04 0.  0.
        2    1    3    3  502    0  0.10925948740E+04 -0.37332649302E+03 -0.39911942822E+03  0.12216515654E+04  0.25500000920E-02 0. -1.
       -2    1    3    3    0  502 -0.10925948740E+04  0.37332649302E+03  0.53022277022E+03  0.12705402061E+04  0.25500000920E-02 0.  1.
</event>
<event>
 5   0  0.1702345E-05  0.2285651E+04  0.7818609E-02  0.8483600E-01
       -2   -1    0    0    0  501  0.00000000000E+00  0.00000000000E+00  0.95295846513E+03  0.95295846513E+03  0.25500000920E-02 0.  1.
        2   -1    0    0  501    0  0.00000000000E+00  0.00000000000E+00 -0.13705217976E+04  0.13705217976E+04  0.25500000920E-02 0. -1.
    10030    2    1    2    0    0  0.00000000000E+00  0.00000000000E+00 -0.41756333245E+03  0.23234802627E+04  0.22856511971E+04 0.  0.
        1    1    3    3  502    0  0.24501350510E+03  0.50994400215E+03  0.80061570673E+03  0.98033668344E+03  0.50400001928E-02 0.  1.
       -1    1    3    3    0  502 -0.24501350510E+03 -0.50994400215E+03 -0.12181790392E+04  0.13431435793E+04  0.50400001928E-02 0. -1.
</event>
<event>
 5   0  0.1869956E-05  0.2589496E+04  0.7818609E-02  0.8371778E-01
       -2   -1    0    0    0  501  0.00000000000E+00  0.00000000000E+00  0.71357392901E+03  0.71357392901E+03  0.25500000920E-02 0. -1.
        2   -1    0    0  501    0  0.00000000000E+00  0.00000000000E+00 -0.23492620569E+04  0.23492620569E+04  0.25500000920E-02 0.  1.
    10030    2    1    2    0    0  0.00000000000E+00  0.00000000000E+00 -0.16356881279E+04  0.30628359860E+04  0.25894958245E+04 0.  0.
        5    1    3    3  502    0  0.11468669581E+04 -0.15591821833E+03 -0.15042059247E+04  0.18979651905E+04  0.46999998093E+01 0. -1.
       -5    1    3    3    0  502 -0.11468669581E+04  0.15591821833E+03 -0.13148220326E+03  0.11648707955E+04  0.46999998093E+01 0.  1.
</event>
<event>
 5   0  0.1677971E-05  0.2539105E+04  0.7818609E-02  0.8389185E-01
        2   -1    0    0  501    0  0.00000000000E+00  0.00000000000E+00  0.18149297437E+04  0.18149297437E+04  0.25500000920E-02 0. -1.
       -2   -1    0    0    0  501  0.00000000000E+00  0.00000000000E+00 -0.88805857035E+03  0.88805857036E+03  0.25500000920E-02 0.  1.
    10030    2    1    2    0    0  0.00000000000E+00  0.00000000000E+00  0.92687117335E+03  0.27029883141E+04  0.25391052861E+04 0.  0.
        4    1    3    3  502    0 -0.63010562751E+03  0.16061190346E+03 -0.69732366009E+03  0.95346273402E+03  0.12699999809E+01 0.  1.
       -4    1    3    3    0  502  0.63010562751E+03 -0.16061190346E+03  0.16241948334E+04  0.17495255800E+04  0.12699999809E+01 0. -1.
</event>
<event>
 5   0  0.6993678E-06  0.2621916E+04  0.7818609E-02  0.8360795E-01
       -1   -1    0    0    0  501  0.00000000000E+00  0.00000000000E+00  0.74906773870E+03  0.74906773872E+03  0.50400001928E-02 0.  1.
        1   -1    0    0  501    0  0.00000000000E+00  0.00000000000E+00 -0.22943330306E+04  0.22943330306E+04  0.50400001928E-02 0. -1.
    10030    2    1    2    0    0  0.00000000000E+00  0.00000000000E+00 -0.15452652919E+04  0.30434007693E+04  0.26219159827E+04 0.  0.
        1    1    3    3  502    0  0.95366117121E+03  0.17018333313E+03 -0.17979007906E+04  0.20422730594E+04  0.50400001928E-02 0. -1.
       -1    1    3    3    0  502 -0.95366117121E+03 -0.17018333313E+03  0.25263549868E+03  0.10011277099E+04  0.50400001928E-02 0.  1.
</event>
<event>
 5   0  0.1720129E-05  0.2595933E+04  0.7818609E-02  0.8369584E-01
       -2   -1    0    0    0  501  0.00000000000E+00  0.00000000000E+00  0.14974305434E+04  0.14974305434E+04  0.25500000920E-02 0. -1.
        2   -1    0    0  501    0  0.00000000000E+00  0.00000000000E+00 -0.11250722403E+04  0.11250722404E+04  0.25500000920E-02 0.  1.
    10030    2    1    2    0    0  0.00000000000E+00  0.00000000000E+00  0.37235830307E+03  0.26225027838E+04  0.25959333861E+04 0.  0.
        3    1    3    3  502    0 -0.92314185328E+03  0.75502670481E+03  0.70373243496E+03  0.13847366379E+04  0.10100000352E+00 0. -1.
       -3    1    3    3    0  502  0.92314185328E+03 -0.75502670481E+03 -0.33137413189E+03  0.12377661458E+04  0.10100000352E+00 0.  1.
</event>
<event>
 5   0  0.1702345E-05  0.2613731E+04  0.7818609E-02  0.8363552E-01
       -2   -1    0    0    0  501  0.00000000000E+00  0.00000000000E+00  0.96712640392E+03  0.96712640392E+03  0.25500000920E-02 0.  1.
        2   -1    0    0  501    0  0.00000000000E+00  0.00000000000E+00 -0.17659509757E+04  0.17659509757E+04  0.25500000920E-02 0. -1.
    10030    2    1    2    0    0  0.00000000000E+00  0.00000000000E+00 -0.79882457181E+03  0.27330773797E+04  0.26137312920E+04 0.  0.
        1    1    3    3  502    0  0.11494083942E+03  0.12950205056E+04 -0.53816766578E+03  0.14070941486E+04  0.50400001928E-02 0. -1.
       -1    1    3    3    0  502 -0.11494083942E+03 -0.12950205056E+04 -0.26065690603E+03  0.13259832311E+04  0.50400001928E-02 0.  1.
</event>
<event>
 5   0  0.6918420E-06  0.2604337E+04  0.7818609E-02  0.8366729E-01
        1   -1    0    0  501    0  0.00000000000E+00  0.00000000000E+00  0.22875936697E+04  0.22875936697E+04  0.50400001928E-02 0.  1.
       -1   -1    0    0    0  501  0.00000000000E+00  0.00000000000E+00 -0.74123431735E+03  0.74123431737E+03  0.50400001928E-02 0. -1.
    10030    2    1    2    0    0  0.00000000000E+00  0.00000000000E+00  0.15463593523E+04  0.30288279871E+04  0.26043370997E+04 0.  0.
        4    1    3    3  502    0  0.12932929315E+04 -0.68218687170E+02  0.93085403481E+03  0.15949141804E+04  0.12699999809E+01 0. -1.
       -4    1    3    3    0  502 -0.12932929315E+04  0.68218687170E+02  0.61550531751E+03  0.14339138066E+04  0.12699999809E+01 0.  1.
</event>
<event>
 5   0  0.1720129E-05  0.2586015E+04  0.7818609E-02  0.8372967E-01
       -2   -1    0    0    0  501  0.00000000000E+00  0.00000000000E+00  0.64317231332E+03  0.64317231332E+03  0.25500000920E-02 0. -1.
        2   -1    0    0  501    0  0.00000000000E+00  0.00000000000E+00 -0.25994091269E+04  0.25994091269E+04  0.25500000920E-02 0.  1.
    10030    2    1    2    0    0  0.00000000000E+00  0.00000000000E+00 -0.19562368136E+04  0.32425814403E+04  0.25860146801E+04 0.  0.
        3    1    3    3  502    0 -0.93202383041E+03 -0.79918687229E+03 -0.46955779859E+03  0.13144780765E+04  0.10100000352E+00 0. -1.
       -3    1    3    3    0  502  0.93202383041E+03  0.79918687229E+03 -0.14866790150E+04  0.19281033637E+04  0.10100000352E+00 0.  1.
</event>
<event>
 5   0  0.1702345E-05  0.2513605E+04  0.7818609E-02  0.8398155E-01
        2   -1    0    0  501    0  0.00000000000E+00  0.00000000000E+00  0.16613029386E+04  0.16613029386E+04  0.25500000920E-02 0.  1.
       -2   -1    0    0    0  501  0.00000000000E+00  0.00000000000E+00 -0.95079107895E+03  0.95079107895E+03  0.25500000920E-02 0. -1.
    10030    2    1    2    0    0  0.00000000000E+00  0.00000000000E+00  0.71051185964E+03  0.26120940175E+04  0.25136045938E+04 0.  0.
        1    1    3    3  502    0  0.27689069454E+03  0.12133994111E+04  0.53687645861E+03  0.13554493422E+04  0.50400001928E-02 0.  1.
       -1    1    3    3    0  502 -0.27689069454E+03 -0.12133994111E+04  0.17363540103E+03  0.12566446753E+04  0.50400001928E-02 0. -1.
</event>
<event>
 5   0  0.7138294E-06  0.2611875E+04  0.7818609E-02  0.8364179E-01
        1   -1    0    0  501    0  0.00000000000E+00  0.00000000000E+00  0.24608659557E+04  0.24608659557E+04  0.50400001928E-02 0.  1.
       -1   -1    0    0    0  501  0.00000000000E+00  0.00000000000E+00 -0.69303786432E+03  0.69303786434E+03  0.50400001928E-02 0. -1.
    10030    2    1    2    0    0  0.00000000000E+00  0.00000000000E+00  0.17678280913E+04  0.31539038200E+04  0.26118754077E+04 0.  0.
        2    1    3    3  502    0  0.12758276450E+04 -0.19494362506E+03  0.64321319621E+03  0.14420341232E+04  0.25500000920E-02 0.  1.
       -2    1    3    3    0  502 -0.12758276450E+04  0.19494362506E+03  0.11246148951E+04  0.17118696968E+04  0.25500000920E-02 0. -1.
</event>
<event>
 5   0  0.1869956E-05  0.2605337E+04  0.7818609E-02  0.8366391E-01
       -2   -1    0    0    0  501  0.00000000000E+00  0.00000000000E+00  0.12486563976E+04  0.12486563976E+04  0.25500000920E-02 0.  1.
        2   -1    0    0  501    0  0.00000000000E+00  0.00000000000E+00 -0.13590168582E+04  0.13590168582E+04  0.25500000920E-02 0. -1.
    10030    2    1    2    0    0  0.00000000000E+00  0.00000000000E+00 -0.11036046051E+03  0.26076732558E+04  0.26053369029E+04 0.  0.
        5    1    3    3  502    0  0.75116637615E+03 -0.68178882696E+03 -0.87312545152E+03  0.13384532391E+04  0.46999998093E+01 0. -1.
       -5    1    3    3    0  502 -0.75116637615E+03  0.68178882696E+03  0.76276499101E+03  0.12692200167E+04  0.46999998093E+01 0.  1.
</event>
<event>
 5   0  0.6993678E-06  0.2574538E+04  0.7818609E-02  0.8376902E-01
        1   -1    0    0  501    0  0.00000000000E+00  0.00000000000E+00  0.23006363213E+04  0.23006363214E+04  0.50400001928E-02 0.  1.
       -1   -1    0    0    0  501  0.00000000000E+00  0.00000000000E+00 -0.72026220124E+03  0.72026220125E+03  0.50400001928E-02 0. -1.
    10030    2    1    2    0    0  0.00000000000E+00  0.00000000000E+00  0.15803741201E+04  0.30208985226E+04  0.25745379244E+04 0.  0.
        1    1    3    3  502    0 -0.10097231052E+04  0.73106634118E+03  0.11668799886E+04  0.17075150519E+04  0.50400001928E-02 0.  1.
       -1    1    3    3    0  502  0.10097231052E+04 -0.73106634118E+03  0.41349413149E+03  0.13133834708E+04  0.50400001928E-02 0. -1.
</event>
<event>
 5   0  0.1702345E-05  0.2608531E+04  0.7818609E-02  0.8365309E-01
       -2   -1    0    0    0  501  0.00000000000E+00  0.00000000000E+00  0.13941057366E+04  0.13941057366E+04  0.25500000920E-02 0. -1.
        2   -1    0    0  501    0  0.00000000000E+00  0.00000000000E+00 -0.12202145977E+04  0.12202145977E+04  0.25500000920E-02 0.  1.
    10030    2    1    2    0    0  0.00000000000E+00  0.00000000000E+00  0.17389113889E+03  0.26143203343E+04  0.26085307516E+04 0.  0.
        1    1    3    3  502    0 -0.50174888593E+01 -0.62732915964E+03  0.12329611389E+04  0.13833872270E+04  0.50400001928E-02 0. -1.
       -1    1    3    3    0  502  0.50174888593E+01  0.62732915964E+03 -0.10590700000E+04  0.12309331073E+04  0.50400001928E-02 0.  1.
</event>
<event>
 5   0  0.1681731E-05  0.2583830E+04  0.7818609E-02  0.8373715E-01
        2   -1    0    0  501    0  0.00000000000E+00  0.00000000000E+00  0.12565966268E+04  0.12565966268E+04  0.25500000920E-02 0. -1.
       -2   -1    0    0    0  501  0.00000000000E+00  0.00000000000E+00 -0.13282258156E+04  0.13282258156E+04  0.25500000920E-02 0.  1.
    10030    2    1    2    0    0  0.00000000000E+00  0.00000000000E+00 -0.71629188866E+02  0.25848224424E+04  0.25838297773E+04 0.  0.
        2    1    3    3  502    0 -0.73926375038E+03 -0.10501098496E+04 -0.17658998001E+03  0.12963123119E+04  0.25500000920E-02 0. -1.
       -2    1    3    3    0  502  0.73926375038E+03  0.10501098496E+04  0.10496079114E+03  0.12885101306E+04  0.25500000920E-02 0.  1.
</event>
<event>
 5   0  0.6706225E-06  0.2307570E+04  0.7818609E-02  0.8474942E-01
       -1   -1    0    0    0  501  0.00000000000E+00  0.00000000000E+00  0.12952813841E+04  0.12952813841E+04  0.50400001928E-02 0.  1.
        1   -1    0    0  501    0  0.00000000000E+00  0.00000000000E+00 -0.10277453761E+04  0.10277453761E+04  0.50400001928E-02 0. -1.
    10030    2    1    2    0    0  0.00000000000E+00  0.00000000000E+00  0.26753600796E+03  0.23230267603E+04  0.23075696768E+04 0.  0.
        5    1    3    3  502    0 -0.77750323312E+03 -0.73921894406E+03 -0.29362431400E+03  0.11122918918E+04  0.46999998093E+01 0.  1.
       -5    1    3    3    0  502  0.77750323312E+03  0.73921894406E+03  0.56116032196E+03  0.12107348685E+04  0.46999998093E+01 0. -1.
</event>
<event>
 5   0  0.6984287E-06  0.2591132E+04  0.7818609E-02  0.8371220E-01
        1   -1    0    0  501    0  0.00000000000E+00  0.00000000000E+00  0.12243549069E+04  0.12243549069E+04  0.50400001928E-02 0. -1.
       -1   -1    0    0    0  501  0.00000000000E+00  0.00000000000E+00 -0.13709187510E+04  0.13709187510E+04  0.50400001928E-02 0.  1.
    10030    2    1    2    0    0  0.00000000000E+00  0.00000000000E+00 -0.14656384406E+03  0.25952736579E+04  0.25911318760E+04 0.  0.
        3    1    3    3  502    0 -0.41303841523E+03  0.35524670405E+02 -0.13026918332E+04  0.13670657472E+04  0.10100000352E+00 0.  1.
       -3    1    3    3    0  502  0.41303841523E+03 -0.35524670405E+02  0.11561279891E+04  0.12282079108E+04  0.10100000352E+00 0. -1.
</event>
<event>
 5   0  0.1702345E-05  0.2599900E+04  0.7818609E-02  0.8368235E-01
       -2   -1    0    0    0  501  0.00000000000E+00  0.00000000000E+00  0.11119974782E+04  0.11119974782E+04  0.25500000920E-02 0.  1.
        2   -1    0    0  501    0  0.00000000000E+00  0.00000000000E+00 -0.15196704023E+04  0.15196704023E+04  0.25500000920E-02 0. -1.
    10030    2    1    2    0    0  0.00000000000E+00  0.00000000000E+00 -0.40767292416E+03  0.26316678805E+04  0.25998997327E+04 0.  0.
        1    1    3    3  502    0  0.87864720700E+02 -0.80610711442E+03 -0.12322931799E+04  0.14751526600E+04  0.50400001928E-02 0. -1.
       -1    1    3    3    0  502 -0.87864720700E+02  0.80610711442E+03  0.82462025575E+03  0.11565152205E+04  0.50400001928E-02 0.  1.
</event>
<event>
 5   0  0.1869956E-05  0.2625085E+04  0.7818609E-02  0.8359730E-01
        2   -1    0    0  501    0  0.00000000000E+00  0.00000000000E+00  0.16746972802E+04  0.16746972802E+04  0.25500000920E-02 0. -1.
       -2   -1    0    0    0  501  0.00000000000E+00  0.00000000000E+00 -0.10287041787E+04  0.10287041787E+04  0.25500000920E-02 0.  1.
    10030    2    1    2    0    0  0.00000000000E+00  0.00000000000E+00  0.64599310150E+03  0.27034014589E+04  0.26250852102E+04 0.  0.
        5    1    3    3  502    0  0.18035592962E+02  0.13062833864E+04  0.45344211402E+03  0.13828714362E+04  0.46999998093E+01 0. -1.
       -5    1    3    3    0  502 -0.18035592962E+02 -0.13062833864E+04  0.19255098748E+03  0.13205300228E+04  0.46999998093E+01 0.  1.
</event>
<event>
 5   0  0.6706225E-06  0.2546396E+04  0.7818609E-02  0.8386641E-01
        1   -1    0    0  501    0  0.00000000000E+00  0.00000000000E+00  0.24363733165E+04  0.24363733165E+04  0.50400001928E-02 0.  1.
       -1   -1    0    0    0  501  0.00000000000E+00  0.00000000000E+00 -0.66534654533E+03  0.66534654535E+03  0.50400001928E-02 0. -1.
    10030    2    1    2    0    0  0.00000000000E+00  0.00000000000E+00  0.17710267711E+04  0.31017198618E+04  0.25463955461E+04 0.  0.
        5    1    3    3  502    0 -0.12420536286E+04 -0.27188944343E+03  0.80481237636E+03  0.15047810927E+04  0.46999998093E+01 0. -1.
       -5    1    3    3    0  502  0.12420536286E+04  0.27188944343E+03  0.96621439477E+03  0.15969387691E+04  0.46999998093E+01 0.  1.
</event>
<event>
 5   0  0.1702345E-05  0.2650027E+04  0.7818609E-02  0.8351404E-01
        2   -1    0    0  501    0  0.00000000000E+00  0.00000000000E+00  0.16511060431E+04  0.16511060431E+04  0.25500000920E-02 0.  1.
       -2   -1    0    0    0  501  0.00000000000E+00  0.00000000000E+00 -0.10633244022E+04  0.10633244022E+04  0.25500000920E-02 0. -1.
    10030    2    1    2    0    0  0.00000000000E+00  0.00000000000E+00  0.58778164089E+03  0.27144304453E+04  0.26500274310E+04 0.  0.
        1    1    3    3  502    0  0.93865152381E+03 -0.78750823563E+03  0.81055531438E+03  0.14690935375E+04  0.50400001928E-02 0.  1.
       -1    1    3    3    0  502 -0.93865152381E+03  0.78750823563E+03 -0.22277367348E+03  0.12453369078E+04  0.50400001928E-02 0. -1.
</event>
<event>
 5   0  0.6993678E-06  0.2612111E+04  0.7818609E-02  0.8364099E-01
        1   -1    0    0  501    0  0.00000000000E+00  0.00000000000E+00  0.12630683377E+04  0.12630683378E+04  0.50400001928E-02 0. -1.
       -1   -1    0    0    0  501  0.00000000000E+00  0.00000000000E+00 -0.13505059566E+04  0.13505059566E+04  0.50400001928E-02 0.  1.
    10030    2    1    2    0    0  0.00000000000E+00  0.00000000000E+00 -0.87437618867E+02  0.26135742944E+04  0.26121112639E+04 0.  0.
        1    1    3    3  502    0  0.34651646553E+03 -0.12271714141E+04 -0.32629152988E+03  0.13162406706E+04  0.50400001928E-02 0. -1.
       -1    1    3    3    0  502 -0.34651646553E+03  0.12271714141E+04  0.23885391102E+03  0.12973336238E+04  0.50400001928E-02 0.  1.
</event>
<event>
 5   0  0.1720129E-05  0.2565467E+04  0.7818609E-02  0.8380027E-01
        2   -1    0    0  501    0  0.00000000000E+00  0.00000000000E+00  0.16547982444E+04  0.16547982444E+04  0.25500000920E-02 0. -1.
       -2   -1    0    0    0  501  0.00000000000E+00  0.00000000000E+00 -0.99432351308E+03  0.99432351308E+03  0.25500000920E-02 0.  1.
    10030    2    1    2    0    0  0.00000000000E+00  0.00000000000E+00  0.66047473135E+03  0.26491217575E+04  0.25654666662E+04 0.  0.
        3    1    3    3  502    0  0.75545112028E+03 -0.80754307300E+02 -0.73699056618E+03  0.10584813452E+04  0.10100000352E+00 0. -1.
       -3    1    3    3    0  502 -0.75545112028E+03  0.80754307300E+02  0.13974652975E+04  0.15906404123E+04  0.10100000352E+00 0.  1.
</event>
<event>
 5   0  0.1677971E-05  0.2610547E+04  0.7818609E-02  0.8364628E-01
        2   -1    0    0  501    0  0.00000000000E+00  0.00000000000E+00  0.19671523347E+04  0.19671523347E+04  0.25500000920E-02 0.  1.
       -2   -1    0    0    0  501  0.00000000000E+00  0.00000000000E+00 -0.86609389987E+03  0.86609389987E+03  0.25500000920E-02 0. -1.
    10030    2    1    2    0    0  0.00000000000E+00  0.00000000000E+00  0.11010584349E+04  0.28332462346E+04  0.26105467912E+04 0.  0.
        4    1    3    3  502    0  0.11069000827E+04  0.57250950703E+03  0.97190552434E+03  0.15803787173E+04  0.12699999809E+01 0.  1.
       -4    1    3    3    0  502 -0.11069000827E+04 -0.57250950703E+03  0.12915291053E+03  0.12528675173E+04  0.12699999809E+01 0. -1.
</event>
<event>
 5   0  0.1681731E-05  0.2555575E+04  0.7818609E-02  0.8383450E-01
       -2   -1    0    0    0  501  0.00000000000E+00  0.00000000000E+00  0.92426575618E+03  0.92426575619E+03  0.25500000920E-02 0.  1.
        2   -1    0    0  501    0  0.00000000000E+00  0.00000000000E+00 -0.17665274336E+04  0.17665274336E+04  0.25500000920E-02 0. -1.
    10030    2    1    2    0    0  0.00000000000E+00  0.00000000000E+00 -0.84226167739E+03  0.26907931898E+04  0.25555749367E+04 0.  0.
        2    1    3    3  502    0  0.11835013756E+04  0.12254644510E+03  0.69403337464E+02  0.11918514842E+04  0.25500000920E-02 0.  1.
       -2    1    3    3    0  502 -0.11835013756E+04 -0.12254644510E+03 -0.91166501485E+03  0.14989417055E+04  0.25500000920E-02 0. -1.
</event>
<event>
 5   0  0.1681731E-05  0.2567657E+04  0.7818609E-02  0.8379271E-01
       -2   -1    0    0    0  501  0.00000000000E+00  0.00000000000E+00  0.15558860868E+04  0.15558860868E+04  0.25500000920E-02 0. -1.
        2   -1    0    0  501    0  0.00000000000E+00  0.00000000000E+00 -0.10593420414E+04  0.10593420414E+04  0.25500000920E-02 0.  1.
    10030    2    1    2    0    0  0.00000000000E+00  0.00000000000E+00  0.49654404538E+03  0.26152281282E+04  0.25676569424E+04 0.  0.
        2    1    3    3  502    0 -0.10733303294E+04  0.20713069969E+02 -0.46886689556E+03  0.11714534532E+04  0.25500000920E-02 0.  1.
       -2    1    3    3    0  502  0.10733303294E+04 -0.20713069969E+02  0.96541094094E+03  0.14437746750E+04  0.25500000920E-02 0. -1.
</event>
<event>
 5   0  0.1702345E-05  0.2659854E+04  0.7818609E-02  0.8348150E-01
        2   -1    0    0  501    0  0.00000000000E+00  0.00000000000E+00  0.11805277188E+04  0.11805277188E+04  0.25500000920E-02 0. -1.
       -2   -1    0    0    0  501  0.00000000000E+00  0.00000000000E+00 -0.14982337598E+04  0.14982337598E+04  0.25500000920E-02 0.  1.
    10030    2    1    2    0    0  0.00000000000E+00  0.00000000000E+00 -0.31770604104E+03  0.26787614786E+04  0.26598544942E+04 0.  0.
        1    1    3    3  502    0 -0.13201425058E+04 -0.99626104079E+02 -0.31443329280E+02  0.13242697154E+04  0.50400001928E-02 0. -1.
       -1    1    3    3    0  502  0.13201425058E+04  0.99626104079E+02 -0.28626271176E+03  0.13544917631E+04  0.50400001928E-02 0.  1.
</event>
<event>
 5   0  0.6706225E-06  0.2582176E+04  0.7818609E-02  0.8374281E-01
       -1   -1    0    0    0  501  0.00000000000E+00  0.00000000000E+00  0.12599335593E+04  0.12599335593E+04  0.50400001928E-02 0.  1.
        1   -1    0    0  501    0  0.00000000000E+00  0.00000000000E+00 -0.13230132636E+04  0.13230132636E+04  0.50400001928E-02 0. -1.
    10030    2    1    2    0    0  0.00000000000E+00  0.00000000000E+00 -0.63079704259E+02  0.25829468229E+04  0.25821764543E+04 0.  0.
        5    1    3    3  502    0  0.10569497152E+04 -0.44801894405E+03  0.55941812629E+03  0.12770412698E+04  0.46999998093E+01 0.  1.
       -5    1    3    3    0  502 -0.10569497152E+04  0.44801894405E+03 -0.62249783055E+03  0.13059055532E+04  0.46999998093E+01 0. -1.
</event>
<event>
 5   0  0.6993678E-06  0.2600476E+04  0.7818609E-02  0.8368039E-01
        1   -1    0    0  501    0  0.00000000000E+00  0.00000000000E+00  0.19390627193E+04  0.19390627193E+04  0.50400001928E-02 0.  1.
       -1   -1    0    0    0  501  0.00000000000E+00  0.00000000000E+00 -0.87187436248E+03  0.87187436250E+03  0.50400001928E-02 0. -1.
    10030    2    1    2    0    0  0.00000000000E+00  0.00000000000E+00  0.10671883568E+04  0.28109370818E+04  0.26004761658E+04 0.  0.
        1    1    3    3  502    0 -0.39312931759E+03  0.73164985221E+01 -0.80607004255E+03  0.89685734932E+03  0.50400001928E-02 0. -1.
       -1    1    3    3    0  502  0.39312931759E+03 -0.73164985221E+01  0.18732583993E+04  0.19140797324E+04  0.50400001928E-02 0.  1.
</event>
<event>
 5   0  0.1702345E-05  0.2598109E+04  0.7818609E-02  0.8368844E-01
        2   -1    0    0  501    0  0.00000000000E+00  0.00000000000E+00  0.13347258170E+04  0.13347258170E+04  0.25500000920E-02 0.  1.
       -2   -1    0    0    0  501  0.00000000000E+00  0.00000000000E+00 -0.12643368947E+04  0.12643368947E+04  0.25500000920E-02 0. -1.
    10030    2    1    2    0    0  0.00000000000E+00  0.00000000000E+00  0.70388922299E+02  0.25990627116E+04  0.25981093854E+04 0.  0.
        1    1    3    3  502    0  0.25086114911E+03  0.28044339378E+03  0.12790184087E+04  0.13332171252E+04  0.50400001928E-02 0.  1.
       -1    1    3    3    0  502 -0.25086114911E+03 -0.28044339378E+03 -0.12086294864E+04  0.12658455864E+04  0.50400001928E-02 0. -1.
</event>
<event>
 5   0  0.7138294E-06  0.2599359E+04  0.7818609E-02  0.8368419E-01
       -1   -1    0    0    0  501  0.00000000000E+00  0.00000000000E+00  0.10048159155E+04  0.10048159155E+04  0.50400001928E-02 0. -1.
        1   -1    0    0  501    0  0.00000000000E+00  0.00000000000E+00 -0.16810711288E+04  0.16810711289E+04  0.50400001928E-02 0.  1.
    10030    2    1    2    0    0  0.00000000000E+00  0.00000000000E+00 -0.67625521333E+03  0.26858870444E+04  0.25993591713E+04 0.  0.
        2    1    3    3  502    0 -0.53077592115E+02 -0.29661326431E+03  0.96822423179E+03  0.10140290047E+04  0.25500000920E-02 0. -1.
       -2    1    3    3    0  502  0.53077592115E+02  0.29661326431E+03 -0.16444794451E+04  0.16718580397E+04  0.25500000920E-02 0.  1.
</event>
<event>
 5   0  0.6984287E-06  0.2585253E+04  0.7818609E-02  0.8373228E-01
        1   -1    0    0  501    0  0.00000000000E+00  0.00000000000E+00  0.10555512001E+04  0.10555512001E+04  0.50400001928E-02 0.  1.
       -1   -1    0    0    0  501  0.00000000000E+00  0.00000000000E+00 -0.15829489015E+04  0.15829489015E+04  0.50400001928E-02 0. -1.
    10030    2    1    2    0    0  0.00000000000E+00  0.00000000000E+00 -0.52739770143E+03  0.26385001016E+04  0.25852532663E+04 0.  0.
        3    1    3    3  502    0  0.46281052288E+03 -0.96358433815E+03 -0.10054381055E+04  0.14675129134E+04  0.10100000352E+00 0. -1.
       -3    1    3    3    0  502 -0.46281052288E+03  0.96358433815E+03  0.47804040409E+03  0.11709871882E+04  0.10100000352E+00 0.  1.
</event>
<event>
 5   0  0.6918420E-06  0.2602962E+04  0.7818609E-02  0.8367196E-01
        1   -1    0    0  501    0  0.00000000000E+00  0.00000000000E+00  0.22834374657E+04  0.22834374657E+04  0.50400001928E-02 0.  1.
       -1   -1    0    0    0  501  0.00000000000E+00  0.00000000000E+00 -0.74179924321E+03  0.74179924322E+03  0.50400001928E-02 0. -1.
    10030    2    1    2    0    0  0.00000000000E+00  0.00000000000E+00  0.15416382225E+04  0.30252367090E+04  0.26029615318E+04 0.  0.
        4    1    3    3  502    0 -0.49065816444E+03 -0.84662409424E+03 -0.22648745641E+03  0.10043983135E+04  0.12699999809E+01 0.  1.
       -4    1    3    3    0  502  0.49065816444E+03  0.84662409424E+03  0.17681256789E+04  0.20208383955E+04  0.12699999809E+01 0. -1.
</event>
<event>
 5   0  0.1702345E-05  0.2583464E+04  0.7818609E-02  0.8373840E-01
        2   -1    0    0  501    0  0.00000000000E+00  0.00000000000E+00  0.10892705628E+04  0.10892705628E+04  0.25500000920E-02 0. -1.
       -2   -1    0    0    0  501  0.00000000000E+00  0.00000000000E+00 -0.15318243134E+04  0.15318243134E+04  0.25500000920E-02 0.  1.
    10030    2    1    2    0    0  0.00000000000E+00  0.00000000000E+00 -0.44255375056E+03  0.26210948762E+04  0.25834636688E+04 0.  0.
        1    1    3    3  502    0 -0.70196263520E+03 -0.10820809555E+04 -0.29244416619E+03  0.13225635432E+04  0.50400001928E-02 0. -1.
       -1    1    3    3    0  502  0.70196263520E+03  0.10820809555E+04 -0.15010958437E+03  0.12985313330E+04  0.50400001928E-02 0.  1.
</event>
<event>
 5   0  0.7138294E-06  0.2603082E+04  0.7818609E-02  0.8367155E-01
        1   -1    0    0  501    0  0.00000000000E+00  0.00000000000E+00  0.13862413887E+04  0.13862413887E+04  0.50400001928E-02 0.  1.
       -1   -1    0    0    0  501  0.00000000000E+00  0.00000000000E+00 -0.12220158763E+04  0.12220158763E+04  0.50400001928E-02 0. -1.
    10030    2    1    2    0    0  0.00000000000E+00  0.00000000000E+00  0.16422551247E+03  0.26082572650E+04  0.26030820082E+04 0.  0.
        2    1    3    3  502    0  0.10779363757E+04  0.36581565528E+03 -0.55020531501E+03  0.12643155509E+04  0.25500000920E-02 0. -1.
       -2    1    3    3    0  502 -0.10779363757E+04 -0.36581565528E+03  0.71443082748E+03  0.13439417141E+04  0.25500000920E-02 0.  1.
</event>
<event>
 5   0  0.6706225E-06  0.2609913E+04  0.7818609E-02  0.8364842E-01
       -1   -1    0    0    0  501  0.00000000000E+00  0.00000000000E+00  0.81058311169E+03  0.81058311171E+03  0.50400001928E-02 0. -1.
        1   -1    0    0  501    0  0.00000000000E+00  0.00000000000E+00 -0.21008469618E+04  0.21008469619E+04  0.50400001928E-02 0.  1.
    10030    2    1    2    0    0  0.00000000000E+00  0.00000000000E+00 -0.12902638502E+04  0.29114300736E+04  0.26099126940E+04 0.  0.
        5    1    3    3  502    0  0.65313472299E+03 -0.82805773827E+03  0.21217449079E+03  0.10757809669E+04  0.46999998093E+01 0. -1.
       -5    1    3    3    0  502 -0.65313472299E+03  0.82805773827E+03 -0.15024383409E+04  0.18356491066E+04  0.46999998093E+01 0.  1.
</event>
<event>
 5   0  0.6706225E-06  0.2600512E+04  0.7818609E-02  0.8368027E-01
        1   -1    0    0  501    0  0.00000000000E+00  0.00000000000E+00  0.13069459891E+04  0.13069459891E+04  0.50400001928E-02 0.  1.
       -1   -1    0    0    0  501  0.00000000000E+00  0.00000000000E+00 -0.12936004821E+04  0.12936004821E+04  0.50400001928E-02 0. -1.
    10030    2    1    2    0    0  0.00000000000E+00  0.00000000000E+00  0.13345506984E+02  0.26005464712E+04  0.26005122277E+04 0.  0.
        5    1    3    3  502    0 -0.83703893566E+03 -0.14506119661E+03 -0.97770139279E+03  0.12952216158E+04  0.46999998093E+01 0. -1.
       -5    1    3    3    0  502  0.83703893566E+03  0.14506119661E+03  0.99104689978E+03  0.13053248554E+04  0.46999998093E+01 0.  1.
</event>
<event>
 5   0  0.1702345E-05  0.2604652E+04  0.7818609E-02  0.8366623E-01
       -2   -1    0    0    0  501  0.00000000000E+00  0.00000000000E+00  0.11603415956E+04  0.11603415956E+04  0.25500000920E-02 0. -1.
        2   -1    0    0  501    0  0.00000000000E+00  0.00000000000E+00 -0.14616836698E+04  0.14616836698E+04  0.25500000920E-02 0.  1.
    10030    2    1    2    0    0  0.00000000000E+00  0.00000000000E+00 -0.30134207422E+03  0.26220252654E+04  0.26046515020E+04 0.  0.
        1    1    3    3  502    0  0.80544418164E+03 -0.59957169334E+02 -0.11791103333E+04  0.14292083018E+04  0.50400001928E-02 0.  1.
       -1    1    3    3    0  502 -0.80544418164E+03  0.59957169334E+02  0.87776825909E+03  0.11928169636E+04  0.50400001928E-02 0. -1.
</event>
<event>
 5   0  0.6706225E-06  0.2594770E+04  0.7818609E-02  0.8369980E-01
       -1   -1    0    0    0  501  0.00000000000E+00  0.00000000000E+00  0.17396406204E+04  0.17396406204E+04  0.50400001928E-02 0. -1.
        1   -1    0    0  501    0  0.00000000000E+00  0.00000000000E+00 -0.96756081368E+03  0.96756081369E+03  0.50400001928E-02 0.  1.
    10030    2    1    2    0    0  0.00000000000E+00  0.00000000000E+00  0.77207980676E+03  0.27072014341E+04  0.25947701973E+04 0.  0.
        5    1    3    3  502    0  0.91090195866E+03  0.62302184386E+03 -0.32563609624E+03  0.11506344134E+04  0.46999998093E+01 0.  1.
       -5    1    3    3    0  502 -0.91090195866E+03 -0.62302184386E+03  0.10977159030E+04  0.15565670207E+04  0.46999998093E+01 0. -1.
</event>
<event>
 5   0  0.1681731E-05  0.2617416E+04  0.7818609E-02  0.8362309E-01
       -2   -1    0    0    0  501  0.00000000000E+00  0.00000000000E+00  0.77751294941E+03  0.77751294941E+03  0.25500000920E-02 0.  1.
        2   -1    0    0  501    0  0.00000000000E+00  0.00000000000E+00 -0.22028138081E+04  0.22028138081E+04  0.25500000920E-02 0. -1.
    10030    2    1    2    0    0  0.00000000000E+00  0.00000000000E+00 -0.14253008587E+04  0.29803267575E+04  0.26174157185E+04 0.  0.
        2    1    3    3  502    0  0.65524682561E+03 -0.24946719493E+03 -0.19709175067E+04  0.20919125464E+04  0.25500000920E-02 0. -1.
       -2    1    3    3    0  502 -0.65524682561E+03  0.24946719493E+03  0.54561664800E+03  0.88841421106E+03  0.25500000920E-02 0.  1.
</event>
<event>
 5   0  0.7138294E-06  0.2607655E+04  0.7818609E-02  0.8365606E-01
       -1   -1    0    0    0  501  0.00000000000E+00  0.00000000000E+00  0.71032051100E+03  0.71032051102E+03  0.50400001928E-02 0.  1.
        1   -1    0    0  501    0  0.00000000000E+00  0.00000000000E+00 -0.23932385729E+04  0.23932385729E+04  0.50400001928E-02 0. -1.
    10030    2    1    2    0    0  0.00000000000E+00  0.00000000000E+00 -0.16829180619E+04  0.31035590839E+04  0.26076552273E+04 0.  0.
        2    1    3    3  502    0 -0.50909403191E+03  0.10025825651E+04 -0.55929145667E+02  0.11258226337E+04  0.25500000920E-02 0.  1.
       -2    1    3    3    0  502  0.50909403191E+03 -0.10025825651E+04 -0.16269889163E+04  0.19777364503E+04  0.25500000920E-02 0. -1.
</event>
<event>
 5   0  0.1869956E-05  0.2619459E+04  0.7818609E-02  0.8361621E-01
       -2   -1    0    0    0  501  0.00000000000E+00  0.00000000000E+00  0.11694051295E+04  0.11694051296E+04  0.25500000920E-02 0.  1.
        2   -1    0    0  501    0  0.00000000000E+00  0.00000000000E+00 -0.14668927766E+04  0.14668927766E+04  0.25500000920E-02 0. -1.
    10030    2    1    2    0    0  0.00000000000E+00  0.00000000000E+00 -0.29748764704E+03  0.26362979061E+04  0.26194594385E+04 0.  0.
        5    1    3    3  502    0  0.55585646524E+03  0.56672033315E+01  0.10447804706E+04  0.11834681444E+04  0.46999998093E+01 0.  1.
       -5    1    3    3    0  502 -0.55585646524E+03 -0.56672033315E+01 -0.13422681176E+04  0.14528297618E+04  0.46999998093E+01 0. -1.
</event>
<event>
 5   0  0.1677971E-05  0.2593768E+04  0.7818609E-02  0.8370321E-01
       -2   -1    0    0    0  501  0.00000000000E+00  0.00000000000E+00  0.73263266143E+03  0.73263266144E+03  0.25500000920E-02 0.  1.
        2   -1    0    0  501    0  0.00000000000E+00  0.00000000000E+00 -0.22957043825E+04  0.22957043825E+04  0.25500000920E-02 0. -1.
    10030    2    1    2    0    0  0.00000000000E+00  0.00000000000E+00 -0.15630717211E+04  0.30283370440E+04  0.25937679246E+04 0.  0.
        4    1    3    3  502    0 -0.93194613525E+03  0.59118617851E+03 -0.15767364893E+04  0.19246101595E+04  0.12699999809E+01 0. -1.
       -4    1    3    3    0  502  0.93194613525E+03 -0.59118617851E+03  0.13664768160E+02  0.11037268844E+04  0.12699999809E+01 0.  1.
</event>
<event>
 5   0  0.1677971E-05  0.2607198E+04  0.7818609E-02  0.8365760E-01
        2   -1    0    0  501    0  0.00000000000E+00  0.00000000000E+00  0.14574442012E+04  0.14574442012E+04  0.25500000920E-02 0.  1.
       -2   -1    0    0    0  501  0.00000000000E+00  0.00000000000E+00 -0.11659937900E+04  0.11659937900E+04  0.25500000920E-02 0. -1.
    10030    2    1    2    0    0  0.00000000000E+00  0.00000000000E+00  0.29145041112E+03  0.26234379912E+04  0.26071984105E+04 0.  0.
        4    1    3    3  502    0 -0.12757764424E+04 -0.25753579139E+03  0.71515851865E+02  0.13034747197E+04  0.12699999809E+01 0. -1.
       -4    1    3    3    0  502  0.12757764424E+04  0.25753579139E+03  0.21993455925E+03  0.13199632715E+04  0.12699999809E+01 0.  1.
</event>
<event>
 5   0  0.6706225E-06  0.2613959E+04  0.7818609E-02  0.8363475E-01
       -1   -1    0    0    0  501  0.00000000000E+00  0.00000000000E+00  0.16610381960E+04  0.16610381960E+04  0.50400001928E-02 0. -1.
        1   -1    0    0  501    0  0.00000000000E+00  0.00000000000E+00 -0.10283899031E+04  0.10283899031E+04  0.50400001928E-02 0.  1.
    10030    2    1    2    0    0  0.00000000000E+00  0.00000000000E+00  0.63264829286E+03  0.26894280991E+04  0.26139586144E+04 0.  0.
        5    1    3    3  502    0 -0.53644383098E+02  0.10338100513E+04  0.11371883357E+04  0.15378102428E+04  0.46999998093E+01 0. -1.
       -5    1    3    3    0  502  0.53644383098E+02 -0.10338100513E+04 -0.50454004282E+03  0.11516178563E+04  0.46999998093E+01 0.  1.
</event>
<event>
 5   0  0.5840500E-06  0.2615850E+04  0.7818609E-02  0.8362837E-01
        3   -1    0    0  501    0  0.00000000000E+00  0.00000000000E+00  0.11919104854E+04  0.11919104897E+04  0.10100000352E+00 0. -1.
       -3   -1    0    0    0  501  0.00000000000E+00  0.00000000000E+00 -0.14352319379E+04  0.14352319414E+04  0.10100000352E+00 0.  1.
    10030    2    1    2    0    0  0.00000000000E+00  0.00000000000E+00 -0.24332145246E+03  0.26271424311E+04  0.26158501532E+04 0.  0.
        4    1    3    3  502    0 -0.12063856233E+03 -0.12565579867E+03 -0.14235294331E+04  0.14341480754E+04  0.12699999809E+01 0.  1.
       -4    1    3    3    0  502  0.12063856233E+03  0.12565579867E+03  0.11802079806E+04  0.11929943557E+04  0.12699999809E+01 0. -1.
</event>
<event>
 5   0  0.6706225E-06  0.2590836E+04  0.7818609E-02  0.8371321E-01
       -1   -1    0    0    0  501  0.00000000000E+00  0.00000000000E+00  0.49338188597E+03  0.49338188599E+03  0.50400001928E-02 0. -1.
        1   -1    0    0  501    0  0.00000000000E+00  0.00000000000E+00 -0.34012352249E+04  0.34012352249E+04  0.50400001928E-02 0.  1.
    10030    2    1    2    0    0  0.00000000000E+00  0.00000000000E+00 -0.29078533389E+04  0.38946171109E+04  0.25908360426E+04 0.  0.
        5    1    3    3  502    0 -0.18755341341E+03  0.40497264795E+03 -0.32820067465E+04  0.33122151956E+04  0.46999998093E+01 0.  1.
       -5    1    3    3    0  502  0.18755341341E+03 -0.40497264795E+03  0.37415340756E+03  0.58240191522E+03  0.46999998093E+01 0. -1.
</event>
<event>
 5   0  0.1677971E-05  0.2588178E+04  0.7818609E-02  0.8372228E-01
       -2   -1    0    0    0  501  0.00000000000E+00  0.00000000000E+00  0.77701970321E+03  0.77701970322E+03  0.25500000920E-02 0.  1.
        2   -1    0    0  501    0  0.00000000000E+00  0.00000000000E+00 -0.21552430644E+04  0.21552430644E+04  0.25500000920E-02 0. -1.
    10030    2    1    2    0    0  0.00000000000E+00  0.00000000000E+00 -0.13782233612E+04  0.29322627676E+04  0.25881779894E+04 0.  0.
        4    1    3    3  502    0 -0.86397836614E+03  0.94104214959E+03 -0.45514892867E+03  0.13561641142E+04  0.12699999809E+01 0. -1.
       -4    1    3    3    0  502  0.86397836614E+03 -0.94104214959E+03 -0.92307443250E+03  0.15760986534E+04  0.12699999809E+01 0.  1.
</event>
<event>
 5   0  0.1869956E-05  0.2605676E+04  0.7818609E-02  0.8366276E-01
        2   -1    0    0  501    0  0.00000000000E+00  0.00000000000E+00  0.21885519648E+04  0.21885519648E+04  0.25500000920E-02 0. -1.
       -2   -1    0    0    0  501  0.00000000000E+00  0.00000000000E+00 -0.77557518895E+03  0.77557518896E+03  0.25500000920E-02 0.  1.
    10030    2    1    2    0    0  0.00000000000E+00  0.00000000000E+00  0.14129767759E+04  0.29641271538E+04  0.26056758077E+04 0.  0.
        5    1    3    3  502    0 -0.50051259856E+03  0.11004185610E+04  0.15394215201E+03  0.12186690063E+04  0.46999998093E+01 0.  1.
       -5    1    3    3    0  502  0.50051259856E+03 -0.11004185610E+04  0.12590346239E+04  0.17454581475E+04  0.46999998093E+01 0. -1.
</event>
<event>
 5   0  0.6984287E-06  0.2561413E+04  0.7818609E-02  0.8381428E-01
        1   -1    0    0  501    0  0.00000000000E+00  0.00000000000E+00  0.26302410998E+04  0.26302410998E+04  0.50400001928E-02 0. -1.
       -1   -1    0    0    0  501  0.00000000000E+00  0.00000000000E+00 -0.62359656339E+03  0.62359656341E+03  0.50400001928E-02 0.  1.
    10030    2    1    2    0    0  0.00000000000E+00  0.00000000000E+00  0.20066445364E+04  0.32538376632E+04  0.25614131340E+04 0.  0.
        3    1    3    3  502    0  0.34284654182E+03 -0.35798625435E+03  0.25034466949E+04  0.25520468793E+04  0.10100000352E+00 0. -1.
       -3    1    3    3    0  502 -0.34284654182E+03  0.35798625435E+03 -0.49680215849E+03  0.70179078394E+03  0.10100000352E+00 0.  1.
</event>
<event>
 5   0  0.1677971E-05  0.2547565E+04  0.7818609E-02  0.8386234E-01
        2   -1    0    0  501    0  0.00000000000E+00  0.00000000000E+00  0.26696294544E+04  0.26696294544E+04  0.25500000920E-02 0. -1.
       -2   -1    0    0    0  501  0.00000000000E+00  0.00000000000E+00 -0.60777037406E+03  0.60777037407E+03  0.25500000920E-02 0.  1.
    10030    2    1    2    0    0  0.00000000000E+00  0.00000000000E+00  0.20618590803E+04  0.32773998284E+04  0.25475648703E+04 0.  0.
        4    1    3    3  502    0 -0.24749656632E+03 -0.59643962084E+03  0.24434421744E+04  0.25273318033E+04  0.12699999809E+01 0. -1.
       -4    1    3    3    0  502  0.24749656632E+03  0.59643962084E+03 -0.38158309410E+03  0.75006802508E+03  0.12699999809E+01 0.  1.
</event>
<event>
 5   0  0.1702345E-05  0.2587097E+04  0.7818609E-02  0.8372597E-01
        2   -1    0    0  501    0  0.00000000000E+00  0.00000000000E+00  0.22156606642E+04  0.22156606642E+04  0.25500000920E-02 0. -1.
       -2   -1    0    0    0  501  0.00000000000E+00  0.00000000000E+00 -0.75520006390E+03  0.75520006391E+03  0.25500000920E-02 0.  1.
    10030    2    1    2    0    0  0.00000000000E+00  0.00000000000E+00  0.14604606003E+04  0.29708607281E+04  0.25870965001E+04 0.  0.
        1    1    3    3  502    0  0.53004023772E+03  0.96538810724E+02 -0.62022896635E+03  0.82155119518E+03  0.50400001928E-02 0.  1.
       -1    1    3    3    0  502 -0.53004023772E+03 -0.96538810724E+02  0.20806895667E+04  0.21493095330E+04  0.50400001928E-02 0. -1.
</event>
<event>
 5   0  0.6984287E-06  0.2649108E+04  0.7818609E-02  0.8351709E-01
       -1   -1    0    0    0  501  0.00000000000E+00  0.00000000000E+00  0.17150645655E+04  0.17150645655E+04  0.50400001928E-02 0.  1.
        1   -1    0    0  501    0  0.00000000000E+00  0.00000000000E+00 -0.10229601222E+04  0.10229601222E+04  0.50400001928E-02 0. -1.
    10030    2    1    2    0    0  0.00000000000E+00  0.00000000000E+00  0.69210444328E+03  0.27380246877E+04  0.26491075158E+04 0.  0.
        3    1    3    3  502    0 -0.43610141697E+01  0.11383579209E+04 -0.35385128058E+03  0.11920941714E+04  0.10100000352E+00 0. -1.
       -3    1    3    3    0  502  0.43610141697E+01 -0.11383579209E+04  0.10459557239E+04  0.15459305163E+04  0.10100000352E+00 0.  1.
</event>
<event>
 5   0  0.1720129E-05  0.2559695E+04  0.7818609E-02  0.8382022E-01
       -2   -1    0    0    0  501  0.00000000000E+00  0.00000000000E+00  0.70181865471E+03  0.70181865471E+03  0.25500000920E-02 0.  1.
        2   -1    0    0  501    0  0.00000000000E+00  0.00000000000E+00 -0.23339500689E+04  0.23339500689E+04  0.25500000920E-02 0. -1.
    10030    2    1    2    0    0  0.00000000000E+00  0.00000000000E+00 -0.16321314142E+04  0.30357687236E+04  0.25596950580E+04 0.  0.
        3    1    3    3  502    0 -0.44717329769E+03  0.59657492766E+03 -0.20498038654E+04  0.21811835089E+04  0.10100000352E+00 0. -1.
       -3    1    3    3    0  502  0.44717329769E+03 -0.59657492766E+03  0.41767245126E+03  0.85458521472E+03  0.10100000352E+00 0.  1.
</event>
<event>
 5   0  0.6984287E-06  0.2553505E+04  0.7818609E-02  0.8384168E-01
        1   -1    0    0  501    0  0.00000000000E+00  0.00000000000E+00  0.13477247181E+04  0.13477247181E+04  0.50400001928E-02 0.  1.
       -1   -1    0    0    0  501  0.00000000000E+00  0.00000000000E+00 -0.12095175066E+04  0.12095175066E+04  0.50400001928E-02 0. -1.
    10030    2    1    2    0    0  0.00000000000E+00  0.00000000000E+00  0.13820721147E+03  0.25572422247E+04  0.25535047606E+04 0.  0.
        3    1    3    3  502    0 -0.11643952190E+04  0.44835285761E+03 -0.20195862361E+03  0.12639714423E+04  0.10100000352E+00 0. -1.
       -3    1    3    3    0  502  0.11643952190E+04 -0.44835285761E+03  0.34016583507E+03  0.12932707824E+04  0.10100000352E+00 0.  1.
</event>
<event>
 5   0  0.6706225E-06  0.2586676E+04  0.7818609E-02  0.8372741E-01
       -1   -1    0    0    0  501  0.00000000000E+00  0.00000000000E+00  0.69249311175E+03  0.69249311177E+03  0.50400001928E-02 0. -1.
        1   -1    0    0  501    0  0.00000000000E+00  0.00000000000E+00 -0.24155088790E+04  0.24155088790E+04  0.50400001928E-02 0.  1.
    10030    2    1    2    0    0  0.00000000000E+00  0.00000000000E+00 -0.17230157673E+04  0.31080019908E+04  0.25866760602E+04 0.  0.
        5    1    3    3  502    0 -0.40437862821E+03  0.94520325284E+03 -0.18043706260E+04  0.20767057351E+04  0.46999998093E+01 0.  1.
       -5    1    3    3    0  502  0.40437862821E+03 -0.94520325284E+03  0.81354858688E+02  0.10312962558E+04  0.46999998093E+01 0. -1.
</event>
<event>
 5   0  0.6993678E-06  0.2576688E+04  0.7818609E-02  0.8376163E-01
       -1   -1    0    0    0  501  0.00000000000E+00  0.00000000000E+00  0.80775119321E+03  0.80775119322E+03  0.50400001928E-02 0.  1.
        1   -1    0    0  501    0  0.00000000000E+00  0.00000000000E+00 -0.20548781403E+04  0.20548781403E+04  0.50400001928E-02 0. -1.
    10030    2    1    2    0    0  0.00000000000E+00  0.00000000000E+00 -0.12471269471E+04  0.28626293335E+04  0.25766880058E+04 0.  0.
        1    1    3    3  502    0  0.71751337506E+03 -0.10430021776E+04 -0.88915626092E+03  0.15470222501E+04  0.50400001928E-02 0.  1.
       -1    1    3    3    0  502 -0.71751337506E+03  0.10430021776E+04 -0.35797068618E+03  0.13156070835E+04  0.50400001928E-02 0. -1.
</event>
<event>
 5   0  0.6993678E-06  0.2616720E+04  0.7818609E-02  0.8362544E-01
        1   -1    0    0  501    0  0.00000000000E+00  0.00000000000E+00  0.14004096027E+04  0.14004096027E+04  0.50400001928E-02 0. -1.
       -1   -1    0    0    0  501  0.00000000000E+00  0.00000000000E+00 -0.12223604913E+04  0.12223604913E+04  0.50400001928E-02 0.  1.
    10030    2    1    2    0    0  0.00000000000E+00  0.00000000000E+00  0.17804911134E+03  0.26227700940E+04  0.26167196028E+04 0.  0.
        1    1    3    3  502    0  0.54730908987E+03  0.11799896014E+04  0.23035652017E+03  0.13209794948E+04  0.50400001928E-02 0. -1.
       -1    1    3    3    0  502 -0.54730908987E+03 -0.11799896014E+04 -0.52307408832E+02  0.13017905992E+04  0.50400001928E-02 0.  1.
</event>
<event>
 5   0  0.1720129E-05  0.2540996E+04  0.7818609E-02  0.8388524E-01
        2   -1    0    0  501    0  0.00000000000E+00  0.00000000000E+00  0.20648450020E+04  0.20648450020E+04  0.25500000920E-02 0.  1.
       -2   -1    0    0    0  501  0.00000000000E+00  0.00000000000E+00 -0.78173686433E+03  0.78173686433E+03  0.25500000920E-02 0. -1.
    10030    2    1    2    0    0  0.00000000000E+00  0.00000000000E+00  0.12831081377E+04  0.28465818664E+04  0.25409962276E+04 0.  0.
        3    1    3    3  502    0 -0.68042030930E+03  0.10696679780E+04  0.73530914548E+03  0.14655514082E+04  0.10100000352E+00 0. -1.
       -3    1    3    3    0  502  0.68042030930E+03 -0.10696679780E+04  0.54779899222E+03  0.13810304582E+04  0.10100000352E+00 0.  1.
</event>
<event>
 5   0  0.6993678E-06  0.2614930E+04  0.7818609E-02  0.8363148E-01
        1   -1    0    0  501    0  0.00000000000E+00  0.00000000000E+00  0.90596718717E+03  0.90596718719E+03  0.50400001928E-02 0.  1.
       -1   -1    0    0    0  501  0.00000000000E+00  0.00000000000E+00 -0.18868945085E+04  0.18868945085E+04  0.50400001928E-02 0. -1.
    10030    2    1    2    0    0  0.00000000000E+00  0.00000000000E+00 -0.98092732129E+03  0.27928616957E+04  0.26149298349E+04 0.  0.
        1    1    3    3  502    0 -0.75804045568E+03 -0.86835021321E+03 -0.11495493767E+04  0.16279192838E+04  0.50400001928E-02 0. -1.
       -1    1    3    3    0  502  0.75804045568E+03  0.86835021321E+03  0.16862205540E+03  0.11649424118E+04  0.50400001928E-02 0.  1.
</event>
<event>
 5   0  0.7138294E-06  0.2601227E+04  0.7818609E-02  0.8367785E-01
        1   -1    0    0  501    0  0.00000000000E+00  0.00000000000E+00  0.24198368056E+04  0.24198368056E+04  0.50400001928E-02 0.  1.
       -1   -1    0    0    0  501  0.00000000000E+00  0.00000000000E+00 -0.69905335325E+03  0.69905335326E+03  0.50400001928E-02 0. -1.
    10030    2    1    2    0    0  0.00000000000E+00  0.00000000000E+00  0.17207834524E+04  0.31188901589E+04  0.26012266593E+04 0.  0.
        2    1    3    3  502    0  0.12468129504E+04  0.29895415864E+03  0.11222010128E+04  0.17038929648E+04  0.25500000920E-02 0.  1.
       -2    1    3    3    0  502 -0.12468129504E+04 -0.29895415864E+03  0.59858243957E+03  0.14149971941E+04  0.25500000920E-02 0. -1.
</event>
<event>
 5   0  0.6706225E-06  0.2603205E+04  0.7818609E-02  0.8367113E-01
       -1   -1    0    0    0  501  0.00000000000E+00  0.00000000000E+00  0.11812346766E+04  0.11812346767E+04  0.50400001928E-02 0. -1.
        1   -1    0    0  501    0  0.00000000000E+00  0.00000000000E+00 -0.14342359243E+04  0.14342359243E+04  0.50400001928E-02 0.  1.
    10030    2    1    2    0    0  0.00000000000E+00  0.00000000000E+00 -0.25300124761E+03  0.26154706009E+04  0.26032051077E+04 0.  0.
        5    1    3    3  502    0  0.31700510900E+03  0.43586755676E+03 -0.13168505169E+04  0.14228809297E+04  0.46999998093E+01 0.  1.
       -5    1    3    3    0  502 -0.31700510900E+03 -0.43586755676E+03  0.10638492693E+04  0.11925896712E+04  0.46999998093E+01 0. -1.
</event>
<event>
 5   0  0.1677971E-05  0.2613625E+04  0.7818609E-02  0.8363588E-01
        2   -1    0    0  501    0  0.00000000000E+00  0.00000000000E+00  0.16082422864E+04  0.16082422865E+04  0.25500000920E-02 0. -1.
       -2   -1    0    0    0  501  0.00000000000E+00  0.00000000000E+00 -0.10618787370E+04  0.10618787370E+04  0.25500000920E-02 0.  1.
    10030    2    1    2    0    0  0.00000000000E+00  0.00000000000E+00  0.54636354943E+03  0.26701210235E+04  0.26136245239E+04 0.  0.
        4    1    3    3  502    0  0.21566812128E+03  0.70699238695E+03  0.13741625270E+04  0.15603445893E+04  0.12699999809E+01 0. -1.
       -4    1    3    3    0  502 -0.21566812128E+03 -0.70699238695E+03 -0.82779897757E+03  0.11097764342E+04  0.12699999809E+01 0.  1.
</event>
<event>
 5   0  0.1720129E-05  0.2604770E+04  0.7818609E-02  0.8366583E-01
        2   -1    0    0  501    0  0.00000000000E+00  0.00000000000E+00  0.17910134520E+04  0.17910134520E+04  0.25500000920E-02 0. -1.
       -2   -1    0    0    0  501  0.00000000000E+00  0.00000000000E+00 -0.94706529667E+03  0.94706529668E+03  0.25500000920E-02 0.  1.
    10030    2    1    2    0    0  0.00000000000E+00  0.00000000000E+00  0.84394815536E+03  0.27380787487E+04  0.26047699985E+04 0.  0.
        3    1    3    3  502    0 -0.56453455681E+03  0.11343110318E+04  0.10514195742E+03  0.12713833506E+04  0.10100000352E+00 0.  1.
       -3    1    3    3    0  502  0.56453455681E+03 -0.11343110318E+04  0.73880619795E+03  0.14666953982E+04  0.10100000352E+00 0. -1.
</event>
<event>
 5   0  0.6993678E-06  0.2625164E+04  0.7818609E-02  0.8359704E-01
       -1   -1    0    0    0  501  0.00000000000E+00  0.00000000000E+00  0.85136476131E+03  0.85136476132E+03  0.50400001928E-02 0. -1.
        1   -1    0    0  501    0  0.00000000000E+00  0.00000000000E+00 -0.20236577385E+04  0.20236577385E+04  0.50400001928E-02 0.  1.
    10030    2    1    2    0    0  0.00000000000E+00  0.00000000000E+00 -0.11722929772E+04  0.28750224998E+04  0.26251635283E+04 0.  0.
        1    1    3    3  502    0 -0.35974007638E+03 -0.42434654199E+03 -0.18881602734E+04  0.19684085268E+04  0.50400001928E-02 0.  1.
       -1    1    3    3    0  502  0.35974007638E+03  0.42434654199E+03  0.71586729622E+03  0.90661397302E+03  0.50400001928E-02 0. -1.
</event>
<event>
 5   0  0.7138294E-06  0.2597751E+04  0.7818609E-02  0.8368965E-01
       -1   -1    0    0    0  501  0.00000000000E+00  0.00000000000E+00  0.89349483547E+03  0.89349483549E+03  0.50400001928E-02 0.  1.
        1   -1    0    0  501    0  0.00000000000E+00  0.00000000000E+00 -0.18881789000E+04  0.18881789001E+04  0.50400001928E-02 0. -1.
    10030    2    1    2    0    0  0.00000000000E+00  0.00000000000E+00 -0.99468406457E+03  0.27816737355E+04  0.25977514089E+04 0.  0.
        2    1    3    3  502    0  0.88974821508E+02  0.94498433530E+03 -0.14467782186E+04  0.17303407545E+04  0.25500000920E-02 0. -1.
       -2    1    3    3    0  502 -0.88974821508E+02 -0.94498433530E+03  0.45209415407E+03  0.10513329810E+04  0.25500000920E-02 0.  1.
</event>
<event>
 5   0  0.6918420E-06  0.2597325E+04  0.7818609E-02  0.8369110E-01
        1   -1    0    0  501    0  0.00000000000E+00  0.00000000000E+00  0.16828377036E+04  0.16828377036E+04  0.50400001928E-02 0.  1.
       -1   -1    0    0    0  501  0.00000000000E+00  0.00000000000E+00 -0.10021910118E+04  0.10021910118E+04  0.50400001928E-02 0. -1.
    10030    2    1    2    0    0  0.00000000000E+00  0.00000000000E+00  0.68064669178E+03  0.26850287155E+04  0.25973254097E+04 0.  0.
        4    1    3    3  502    0 -0.10651123352E+04  0.67426358962E+03  0.66299693795E+03  0.14243111414E+04  0.12699999809E+01 0.  1.
       -4    1    3    3    0  502  0.10651123352E+04 -0.67426358962E+03  0.17649753833E+02  0.12607175741E+04  0.12699999809E+01 0. -1.
</event>
<event>
 5   0  0.6984287E-06  0.2549410E+04  0.7818609E-02  0.8385591E-01
       -1   -1    0    0    0  501  0.00000000000E+00  0.00000000000E+00  0.14699569366E+04  0.14699569366E+04  0.50400001928E-02 0. -1.
        1   -1    0    0  501    0  0.00000000000E+00  0.00000000000E+00 -0.11053884074E+04  0.11053884074E+04  0.50400001928E-02 0.  1.
    10030    2    1    2    0    0  0.00000000000E+00  0.00000000000E+00  0.36456852921E+03  0.25753453441E+04  0.25494104081E+04 0.  0.
        3    1    3    3  502    0  0.11034644436E+03 -0.25252202067E+03 -0.10749365569E+04  0.11096992026E+04  0.10100000352E+00 0.  1.
       -3    1    3    3    0  502 -0.11034644436E+03  0.25252202067E+03  0.14395050861E+04  0.14656461414E+04  0.10100000352E+00 0. -1.
</event>
<event>
 5   0  0.5840500E-06  0.2609146E+04  0.7818609E-02  0.8365101E-01
       -3   -1    0    0    0  501  0.00000000000E+00  0.00000000000E+00  0.85803911776E+03  0.85803912370E+03  0.10100000352E+00 0. -1.
        3   -1    0    0  501    0  0.00000000000E+00  0.00000000000E+00 -0.19834883050E+04  0.19834883076E+04  0.10100000352E+00 0.  1.
    10030    2    1    2    0    0  0.00000000000E+00  0.00000000000E+00 -0.11254491873E+04  0.28415274313E+04  0.26091458889E+04 0.  0.
        5    1    3    3  502    0  0.18359171469E+03 -0.11891955894E+04 -0.11115917945E+04  0.16381545943E+04  0.46999998093E+01 0. -1.
       -5    1    3    3    0  502 -0.18359171469E+03  0.11891955894E+04 -0.13857392816E+02  0.12033728370E+04  0.46999998093E+01 0.  1.
</event>
<event>
 5   0  0.6993678E-06  0.2610316E+04  0.7818609E-02  0.8364706E-01
       -1   -1    0    0    0  501  0.00000000000E+00  0.00000000000E+00  0.13617121503E+04  0.13617121503E+04  0.50400001928E-02 0. -1.
        1   -1    0    0  501    0  0.00000000000E+00  0.00000000000E+00 -0.12509522780E+04  0.12509522780E+04  0.50400001928E-02 0.  1.
    10030    2    1    2    0    0  0.00000000000E+00  0.00000000000E+00  0.11075987223E+03  0.26126644283E+04  0.26103156257E+04 0.  0.
        1    1    3    3  502    0 -0.21580066557E+03  0.12003735649E+04 -0.40976427330E+03  0.12866131440E+04  0.50400001928E-02 0.  1.
       -1    1    3    3    0  502  0.21580066557E+03 -0.12003735649E+04  0.52052414553E+03  0.13260512843E+04  0.50400001928E-02 0. -1.
</event>
<event>
 5   0  0.1677971E-05  0.2571763E+04  0.7818609E-02  0.8377857E-01
        2   -1    0    0  501    0  0.00000000000E+00  0.00000000000E+00  0.25748987745E+04  0.25748987745E+04  0.25500000920E-02 0.  1.
       -2   -1    0    0    0  501  0.00000000000E+00  0.00000000000E+00 -0.64215756937E+03  0.64215756937E+03  0.25500000920E-02 0. -1.
    10030    2    1    2    0    0  0.00000000000E+00  0.00000000000E+00  0.19327412051E+04  0.32170563439E+04  0.25717626161E+04 0.  0.
        4    1    3    3  502    0 -0.10302779911E+04 -0.76758898063E+03  0.89990070429E+03  0.15685944258E+04  0.12699999809E+01 0. -1.
       -4    1    3    3    0  502  0.10302779911E+04  0.76758898063E+03  0.10328405008E+04  0.16484619181E+04  0.12699999809E+01 0.  1.
</event>
<event>
 5   0  0.1677971E-05  0.2601208E+04  0.7818609E-02  0.8367791E-01
       -2   -1    0    0    0  501  0.00000000000E+00  0.00000000000E+00  0.12544905415E+04  0.12544905415E+04  0.25500000920E-02 0.  1.
        2   -1    0    0  501    0  0.00000000000E+00  0.00000000000E+00 -0.13484125809E+04  0.13484125809E+04  0.25500000920E-02 0. -1.
    10030    2    1    2    0    0  0.00000000000E+00  0.00000000000E+00 -0.93922039373E+02  0.26029031224E+04  0.26012080492E+04 0.  0.
        4    1    3    3  502    0 -0.12110231578E+04  0.47278407575E+03 -0.85291918238E+02  0.13028346769E+04  0.12699999809E+01 0.  1.
       -4    1    3    3    0  502  0.12110231578E+04 -0.47278407575E+03 -0.86301211355E+01  0.13000684455E+04  0.12699999809E+01 0. -1.
</event>
<event>
 5   0  0.6993678E-06  0.2603172E+04  0.7818609E-02  0.8367125E-01
       -1   -1    0    0    0  501  0.00000000000E+00  0.00000000000E+00  0.88070157177E+03  0.88070157179E+03  0.50400001928E-02 0. -1.
        1   -1    0    0  501    0  0.00000000000E+00  0.00000000000E+00 -0.19236093281E+04  0.19236093281E+04  0.50400001928E-02 0.  1.
    10030    2    1    2    0    0  0.00000000000E+00  0.00000000000E+00 -0.10429077563E+04  0.28043108999E+04  0.26031717260E+04 0.  0.
        1    1    3    3  502    0  0.15706230484E+03  0.12106306266E+04 -0.35093581232E+02  0.12212807381E+04  0.50400001928E-02 0. -1.
       -1    1    3    3    0  502 -0.15706230484E+03 -0.12106306266E+04 -0.10078141751E+04  0.15830301618E+04  0.50400001928E-02 0.  1.
</event>
<event>
 5   0  0.6918420E-06  0.2583640E+04  0.7818609E-02  0.8373780E-01
       -1   -1    0    0    0  501  0.00000000000E+00  0.00000000000E+00  0.73904367417E+03  0.73904367419E+03  0.50400001928E-02 0.  1.
        1   -1    0    0  501    0  0.00000000000E+00  0.00000000000E+00 -0.22580511081E+04  0.22580511081E+04  0.50400001928E-02 0. -1.
    10030    2    1    2    0    0  0.00000000000E+00  0.00000000000E+00 -0.15190074339E+04  0.29970947823E+04  0.25836395936E+04 0.  0.
        4    1    3    3  502    0  0.41077177773E+03 -0.73422254826E+03 -0.18966749106E+04  0.20748960295E+04  0.12699999809E+01 0. -1.
       -4    1    3    3    0  502 -0.41077177773E+03  0.73422254826E+03  0.37766747671E+03  0.92219875277E+03  0.12699999809E+01 0.  1.
</event>
<event>
 5   0  0.1677971E-05  0.2601177E+04  0.7818609E-02  0.8367802E-01
       -2   -1    0    0    0  501  0.00000000000E+00  0.00000000000E+00  0.76803850344E+03  0.76803850344E+03  0.25500000920E-02 0. -1.
        2   -1    0    0  501    0  0.00000000000E+00  0.00000000000E+00 -0.22024031747E+04  0.22024031747E+04  0.25500000920E-02 0.  1.
    10030    2    1    2    0    0  0.00000000000E+00  0.00000000000E+00 -0.14343646713E+04  0.29704416782E+04  0.26011769938E+04 0.  0.
        4    1    3    3  502    0 -0.41171085957E+03 -0.12222251412E+04 -0.90891169961E+03  0.15778029720E+04  0.12699999809E+01 0. -1.
       -4    1    3    3    0  502  0.41171085957E+03  0.12222251412E+04 -0.52545297169E+03  0.13926387062E+04  0.12699999809E+01 0.  1.
</event>
<event>
 5   0  0.1677971E-05  0.2608744E+04  0.7818609E-02  0.8365237E-01
       -2   -1    0    0    0  501  0.00000000000E+00  0.00000000000E+00  0.10130355540E+04  0.10130355540E+04  0.25500000920E-02 0. -1.
        2   -1    0    0  501    0  0.00000000000E+00  0.00000000000E+00 -0.16794933240E+04  0.16794933240E+04  0.25500000920E-02 0.  1.
    10030    2    1    2    0    0  0.00000000000E+00  0.00000000000E+00 -0.66645776998E+03  0.26925288781E+04  0.26087441040E+04 0.  0.
        4    1    3    3  502    0  0.38768002385E+03 -0.82521162627E+03 -0.12959869586E+04  0.15845673980E+04  0.12699999809E+01 0.  1.
       -4    1    3    3    0  502 -0.38768002385E+03  0.82521162627E+03  0.62952918863E+03  0.11079614800E+04  0.12699999809E+01 0. -1.
</event>
<event>
 5   0  0.1869956E-05  0.2640772E+04  0.7818609E-02  0.8354482E-01
        2   -1    0    0  501    0  0.00000000000E+00  0.00000000000E+00  0.13940349334E+04  0.13940349334E+04  0.25500000920E-02 0. -1.
       -2   -1    0    0    0  501  0.00000000000E+00  0.00000000000E+00 -0.12506279579E+04  0.12506279579E+04  0.25500000920E-02 0.  1.
    10030    2    1    2    0    0  0.00000000000E+00  0.00000000000E+00  0.14340697544E+03  0.26446628913E+04  0.26407719038E+04 0.  0.
        5    1    3    3  502    0 -0.10625903677E+04 -0.71227336022E+03  0.39924094605E+03  0.13400921805E+04  0.46999998093E+01 0. -1.
       -5    1    3    3    0  502  0.10625903677E+04  0.71227336022E+03 -0.25583397061E+03  0.13045707109E+04  0.46999998093E+01 0.  1.
</event>
<event>
 5   0  0.1702345E-05  0.2611657E+04  0.7818609E-02  0.8364252E-01
       -2   -1    0    0    0  501  0.00000000000E+00  0.00000000000E+00  0.86875185051E+03  0.86875185052E+03  0.25500000920E-02 0.  1.
        2   -1    0    0  501    0  0.00000000000E+00  0.00000000000E+00 -0.19628018210E+04  0.19628018210E+04  0.25500000920E-02 0. -1.
    10030    2    1    2    0    0  0.00000000000E+00  0.00000000000E+00 -0.10940499705E+04  0.28315536715E+04  0.26116567265E+04 0.  0.
        1    1    3    3  502    0  0.12297347962E+04 -0.38846477385E+03 -0.76931250589E+03  0.15016638376E+04  0.50400001928E-02 0. -1.
       -1    1    3    3    0  502 -0.12297347962E+04  0.38846477385E+03 -0.32473746462E+03  0.13298898339E+04  0.50400001928E-02 0.  1.
</event>
<event>
 5   0  0.6706225E-06  0.2570231E+04  0.7818609E-02  0.8378384E-01
       -1   -1    0    0    0  501  0.00000000000E+00  0.00000000000E+00  0.86651965596E+03  0.86651965597E+03  0.50400001928E-02 0. -1.
        1   -1    0    0  501    0  0.00000000000E+00  0.00000000000E+00 -0.19059258131E+04  0.19059258131E+04  0.50400001928E-02 0.  1.
    10030    2    1    2    0    0  0.00000000000E+00  0.00000000000E+00 -0.10394061571E+04  0.27724454690E+04  0.25702312579E+04 0.  0.
        5    1    3    3  502    0  0.38880784241E+03  0.56734596050E+03 -0.16906733252E+04  0.18252263859E+04  0.46999998093E+01 0.  1.
       -5    1    3    3    0  502 -0.38880784241E+03 -0.56734596050E+03  0.65126716810E+03  0.94721908314E+03  0.46999998093E+01 0. -1.
</event>
<event>
 5   0  0.1869956E-05  0.2594338E+04  0.7818609E-02  0.8370127E-01
        2   -1    0    0  501    0  0.00000000000E+00  0.00000000000E+00  0.90779388283E+03  0.90779388283E+03  0.25500000920E-02 0.  1.
       -2   -1    0    0    0  501  0.00000000000E+00  0.00000000000E+00 -0.18535562560E+04  0.18535562560E+04  0.25500000920E-02 0. -1.
    10030    2    1    2    0    0  0.00000000000E+00  0.00000000000E+00 -0.94576237318E+03  0.27613501388E+04  0.25943377041E+04 0.  0.
        5    1    3    3  502    0  0.20787111920E+03  0.95244602620E+03 -0.13836915317E+04  0.16926275963E+04  0.46999998093E+01 0. -1.
       -5    1    3    3    0  502 -0.20787111920E+03 -0.95244602620E+03  0.43792915849E+03  0.10687225425E+04  0.46999998093E+01 0.  1.
</event>
<event>
 5   0  0.7138294E-06  0.2620614E+04  0.7818609E-02  0.8361233E-01
        1   -1    0    0  501    0  0.00000000000E+00  0.00000000000E+00  0.17388857277E+04  0.17388857277E+04  0.50400001928E-02 0.  1.
       -1   -1    0    0    0  501  0.00000000000E+00  0.00000000000E+00 -0.98735889203E+03  0.98735889205E+03  0.50400001928E-02 0. -1.
    10030    2    1    2    0    0  0.00000000000E+00  0.00000000000E+00  0.75152683563E+03  0.27262446197E+04  0.26206138865E+04 0.  0.
        2    1    3    3  502    0 -0.63362659115E+01 -0.16091465104E+03  0.17285516400E+04  0.17360369942E+04  0.25500000920E-02 0.  1.
       -2    1    3    3    0  502  0.63362659115E+01  0.16091465104E+03 -0.97702480438E+03  0.99020762548E+03  0.25500000920E-02 0. -1.
</event>
<event>
 5   0  0.1869956E-05  0.2148407E+04  0.7818609E-02  0.8540215E-01
       -2   -1    0    0    0  501  0.00000000000E+00  0.00000000000E+00  0.10114369358E+04  0.10114369358E+04  0.25500000920E-02 0. -1.
        2   -1    0    0  501    0  0.00000000000E+00  0.00000000000E+00 -0.11408647357E+04  0.11408647357E+04  0.25500000920E-02 0.  1.
    10030    2    1    2    0    0  0.00000000000E+00  0.00000000000E+00 -0.12942779986E+03  0.21523016715E+04  0.21484066025E+04 0.  0.
        5    1    3    3  502    0 -0.26003528917E+03  0.67543704867E+03 -0.85991434427E+03  0.11239698963E+04  0.46999998093E+01 0.  1.
       -5    1    3    3    0  502  0.26003528917E+03 -0.67543704867E+03  0.73048654441E+03  0.10283317752E+04  0.46999998093E+01 0. -1.
</event>
<event>
 5   0  0.6984287E-06  0.2596675E+04  0.7818609E-02  0.8369332E-01
        1   -1    0    0  501    0  0.00000000000E+00  0.00000000000E+00  0.23709051761E+04  0.23709051761E+04  0.50400001928E-02 0. -1.
       -1   -1    0    0    0  501  0.00000000000E+00  0.00000000000E+00 -0.71098574397E+03  0.71098574399E+03  0.50400001928E-02 0.  1.
    10030    2    1    2    0    0  0.00000000000E+00  0.00000000000E+00  0.16599194321E+04  0.30818909201E+04  0.25966746277E+04 0.  0.
        3    1    3    3  502    0  0.46626589786E+03  0.10888989288E+04  0.19905089238E+03  0.12011353099E+04  0.10100000352E+00 0.  1.
       -3    1    3    3    0  502 -0.46626589786E+03 -0.10888989288E+04  0.14608685398E+04  0.18807556102E+04  0.10100000352E+00 0. -1.
</event>
<event>
 5   0  0.6918420E-06  0.2529931E+04  0.7818609E-02  0.8392399E-01
        1   -1    0    0  501    0  0.00000000000E+00  0.00000000000E+00  0.24155433240E+04  0.24155433240E+04  0.50400001928E-02 0. -1.
       -1   -1    0    0    0  501  0.00000000000E+00  0.00000000000E+00 -0.66243396340E+03  0.66243396342E+03  0.50400001928E-02 0.  1.
    10030    2    1    2    0    0  0.00000000000E+00  0.00000000000E+00  0.17531093606E+04  0.30779772874E+04  0.25299311753E+04 0.  0.
        4    1    3    3  502    0  0.12460374543E+03 -0.28443995441E+03  0.23684484572E+04  0.23887197175E+04  0.12699999809E+01 0. -1.
       -4    1    3    3    0  502 -0.12460374543E+03  0.28443995441E+03 -0.61533909663E+03  0.68925756999E+03  0.12699999809E+01 0.  1.
</event>
<event>
 5   0  0.6984287E-06  0.2622749E+04  0.7818609E-02  0.8360515E-01
       -1   -1    0    0    0  501  0.00000000000E+00  0.00000000000E+00  0.96334561205E+03  0.96334561206E+03  0.50400001928E-02 0. -1.
        1   -1    0    0  501    0  0.00000000000E+00  0.00000000000E+00 -0.17851359556E+04  0.17851359556E+04  0.50400001928E-02 0.  1.
    10030    2    1    2    0    0  0.00000000000E+00  0.00000000000E+00 -0.82179034352E+03  0.27484815676E+04  0.26227488555E+04 0.  0.
        3    1    3    3  502    0 -0.13078610648E+02 -0.10812511366E+04 -0.11883699449E+04  0.16067041441E+04  0.10100000352E+00 0.  1.
       -3    1    3    3    0  502  0.13078610648E+02  0.10812511366E+04  0.36657960138E+03  0.11417774235E+04  0.10100000352E+00 0. -1.
</event>
<event>
 5   0  0.6984287E-06  0.2578812E+04  0.7818609E-02  0.8375434E-01
        1   -1    0    0  501    0  0.00000000000E+00  0.00000000000E+00  0.73290683755E+03  0.73290683757E+03  0.50400001928E-02 0.  1.
       -1   -1    0    0    0  501  0.00000000000E+00  0.00000000000E+00 -0.22684565581E+04  0.22684565581E+04  0.50400001928E-02 0. -1.
    10030    2    1    2    0    0  0.00000000000E+00  0.00000000000E+00 -0.15355497205E+04  0.30013633957E+04  0.25788116039E+04 0.  0.
        3    1    3    3  502    0  0.58977782884E+02  0.12235639679E+04 -0.29936086385E+03  0.12610329494E+04  0.10100000352E+00 0.  1.
       -3    1    3    3    0  502 -0.58977782884E+02 -0.12235639679E+04 -0.12361888567E+04  0.17403304462E+04  0.10100000352E+00 0. -1.
</event>
<event>
 5   0  0.1681731E-05  0.2584139E+04  0.7818609E-02  0.8373609E-01
        2   -1    0    0  501    0  0.00000000000E+00  0.00000000000E+00  0.98908356080E+03  0.98908356080E+03  0.25500000920E-02 0.  1.
       -2   -1    0    0    0  501  0.00000000000E+00  0.00000000000E+00 -0.16878687706E+04  0.16878687706E+04  0.25500000920E-02 0. -1.
    10030    2    1    2    0    0  0.00000000000E+00  0.00000000000E+00 -0.69878520978E+03  0.26769523314E+04  0.25841387376E+04 0.  0.
        2    1    3    3  502    0 -0.12606116497E+04 -0.21338889037E+03 -0.15623733077E+03  0.12880553767E+04  0.25500000920E-02 0.  1.
       -2    1    3    3    0  502  0.12606116497E+04  0.21338889037E+03 -0.54254787901E+03  0.13888969547E+04  0.25500000920E-02 0. -1.
</event>
<event>
 5   0  0.6706225E-06  0.2600498E+04  0.7818609E-02  0.8368032E-01
        1   -1    0    0  501    0  0.00000000000E+00  0.00000000000E+00  0.17359885995E+04  0.17359885995E+04  0.50400001928E-02 0.  1.
       -1   -1    0    0    0  501  0.00000000000E+00  0.00000000000E+00 -0.97388189602E+03  0.97388189603E+03  0.50400001928E-02 0. -1.
    10030    2    1    2    0    0  0.00000000000E+00  0.00000000000E+00  0.76210670348E+03  0.27098704955E+04  0.26004983128E+04 0.  0.
        5    1    3    3  502    0  0.58780908638E+01  0.20561359138E+03 -0.95681065673E+03  0.97868290255E+03  0.46999998093E+01 0. -1.
       -5    1    3    3    0  502 -0.58780908638E+01 -0.20561359138E+03  0.17189173602E+04  0.17311875930E+04  0.46999998093E+01 0.  1.
</event>
<event>
 5   0  0.7138294E-06  0.2566976E+04  0.7818609E-02  0.8379506E-01
       -1   -1    0    0    0  501  0.00000000000E+00  0.00000000000E+00  0.13794725513E+04  0.13794725513E+04  0.50400001928E-02 0. -1.
        1   -1    0    0  501    0  0.00000000000E+00  0.00000000000E+00 -0.11941819260E+04  0.11941819260E+04  0.50400001928E-02 0.  1.
    10030    2    1    2    0    0  0.00000000000E+00  0.00000000000E+00  0.18529062525E+03  0.25736544773E+04  0.25669757990E+04 0.  0.
        2    1    3    3  502    0  0.59612386350E+03  0.10756939411E+04 -0.27554313772E+03  0.12603194581E+04  0.25500000920E-02 0.  1.
       -2    1    3    3    0  502 -0.59612386350E+03 -0.10756939411E+04  0.46083376297E+03  0.13133350192E+04  0.25500000920E-02 0. -1.
</event>
<event>
 5   0  0.6984287E-06  0.2606497E+04  0.7818609E-02  0.8365998E-01
        1   -1    0    0  501    0  0.00000000000E+00  0.00000000000E+00  0.21900502130E+04  0.21900502130E+04  0.50400001928E-02 0.  1.
       -1   -1    0    0    0  501  0.00000000000E+00  0.00000000000E+00 -0.77553317487E+03  0.77553317488E+03  0.50400001928E-02 0. -1.
    10030    2    1    2    0    0  0.00000000000E+00  0.00000000000E+00  0.14145170381E+04  0.29655833879E+04  0.26064969556E+04 0.  0.
        3    1    3    3  502    0 -0.79554323698E+03  0.72163021206E+03  0.15470634009E+04  0.18833598651E+04  0.10100000352E+00 0.  1.
       -3    1    3    3    0  502  0.79554323698E+03 -0.72163021206E+03 -0.13254636274E+03  0.10822235228E+04  0.10100000352E+00 0. -1.
</event>
<event>
 5   0  0.1702345E-05  0.2623120E+04  0.7818609E-02  0.8360390E-01
        2   -1    0    0  501    0  0.00000000000E+00  0.00000000000E+00  0.13679402567E+04  0.13679402567E+04  0.25500000920E-02 0. -1.
       -2   -1    0    0    0  501  0.00000000000E+00  0.00000000000E+00 -0.12575033824E+04  0.12575033824E+04  0.25500000920E-02 0.  1.
    10030    2    1    2    0    0  0.00000000000E+00  0.00000000000E+00  0.11043687428E+03  0.26254436391E+04  0.26231198979E+04 0.  0.
        1    1    3    3  502    0 -0.52584818540E+03 -0.41953790557E+03 -0.10716835507E+04  0.12653197229E+04  0.50400001928E-02 0.  1.
       -1    1    3    3    0  502  0.52584818540E+03  0.41953790557E+03  0.11821204250E+04  0.13601239162E+04  0.50400001928E-02 0. -1.
</event>
<event>
 5   0  0.1681731E-05  0.2462568E+04  0.7818609E-02  0.8416444E-01
        2   -1    0    0  501    0  0.00000000000E+00  0.00000000000E+00  0.11502331720E+04  0.11502331720E+04  0.25500000920E-02 0.  1.
       -2   -1    0    0    0  501  0.00000000000E+00  0.00000000000E+00 -0.13180456272E+04  0.13180456272E+04  0.25500000920E-02 0. -1.
    10030    2    1    2    0    0  0.00000000000E+00  0.00000000000E+00 -0.16781245525E+03  0.24682787992E+04  0.24625676053E+04 0.  0.
        2    1    3    3  502    0  0.35456603195E+03 -0.48965428660E+02  0.10969368765E+04  0.11538566614E+04  0.25500000920E-02 0.  1.
       -2    1    3    3    0  502 -0.35456603195E+03  0.48965428660E+02 -0.12647493317E+04  0.13144221378E+04  0.25500000920E-02 0. -1.
</event>
<event>
 5   0  0.6984287E-06  0.2363624E+04  0.7818609E-02  0.8453249E-01
        1   -1    0    0  501    0  0.00000000000E+00  0.00000000000E+00  0.10521914134E+04  0.10521914134E+04  0.50400001928E-02 0.  1.
       -1   -1    0    0    0  501  0.00000000000E+00  0.00000000000E+00 -0.13274002486E+04  0.13274002486E+04  0.50400001928E-02 0. -1.
    10030    2    1    2    0    0  0.00000000000E+00  0.00000000000E+00 -0.27520883522E+03  0.23795916620E+04  0.23636236110E+04 0.  0.
        3    1    3    3  502    0  0.11030164561E+04  0.26553543527E+03  0.19557662365E+03  0.11512621751E+04  0.10100000352E+00 0.  1.
       -3    1    3    3    0  502 -0.11030164561E+04 -0.26553543527E+03 -0.47078545887E+03  0.12283294869E+04  0.10100000352E+00 0. -1.
</event>
<event>
 5   0  0.1702345E-05  0.2623625E+04  0.7818609E-02  0.8360220E-01
       -2   -1    0    0    0  501  0.00000000000E+00  0.00000000000E+00  0.69739457384E+03  0.69739457384E+03  0.25500000920E-02 0.  1.
        2   -1    0    0  501    0  0.00000000000E+00  0.00000000000E+00 -0.24675452026E+04  0.24675452026E+04  0.25500000920E-02 0. -1.
    10030    2    1    2    0    0  0.00000000000E+00  0.00000000000E+00 -0.17701506288E+04  0.31649397765E+04  0.26236254573E+04 0.  0.
        1    1    3    3  502    0 -0.80590520961E+03 -0.76324128353E+03 -0.41656073449E+02  0.11107455569E+04  0.50400001928E-02 0.  1.
       -1    1    3    3    0  502  0.80590520961E+03  0.76324128353E+03 -0.17284945553E+04  0.20541942196E+04  0.50400001928E-02 0. -1.
</event>
<event>
 5   0  0.6993678E-06  0.2599011E+04  0.7818609E-02  0.8368537E-01
       -1   -1    0    0    0  501  0.00000000000E+00  0.00000000000E+00  0.22009407850E+04  0.22009407850E+04  0.50400001928E-02 0.  1.
        1   -1    0    0  501    0  0.00000000000E+00  0.00000000000E+00 -0.76726935185E+03  0.76726935187E+03  0.50400001928E-02 0. -1.
    10030    2    1    2    0    0  0.00000000000E+00  0.00000000000E+00  0.14336714331E+04  0.29682101369E+04  0.25990108962E+04 0.  0.
        1    1    3    3  502    0 -0.59095821817E+03 -0.75773826694E+03 -0.28225932109E+03  0.10015334349E+04  0.50400001928E-02 0. -1.
       -1    1    3    3    0  502  0.59095821817E+03  0.75773826694E+03  0.17159307542E+04  0.19666767020E+04  0.50400001928E-02 0.  1.
</event>
<event>
 5   0  0.6984287E-06  0.2489820E+04  0.7818609E-02  0.8406621E-01
       -1   -1    0    0    0  501  0.00000000000E+00  0.00000000000E+00  0.13250549155E+04  0.13250549155E+04  0.50400001928E-02 0.  1.
        1   -1    0    0  501    0  0.00000000000E+00  0.00000000000E+00 -0.11696130255E+04  0.11696130255E+04  0.50400001928E-02 0. -1.
    10030    2    1    2    0    0  0.00000000000E+00  0.00000000000E+00  0.15544189001E+03  0.24946679410E+04  0.24898204664E+04 0.  0.
        3    1    3    3  502    0  0.17950299129E+03 -0.12317585345E+04  0.96494213465E+02  0.12485037263E+04  0.10100000352E+00 0.  1.
       -3    1    3    3    0  502 -0.17950299129E+03  0.12317585345E+04  0.58947676547E+02  0.12461642147E+04  0.10100000352E+00 0. -1.
</event>
<event>
 5   0  0.1677971E-05  0.2523448E+04  0.7818609E-02  0.8394680E-01
       -2   -1    0    0    0  501  0.00000000000E+00  0.00000000000E+00  0.18626921834E+04  0.18626921834E+04  0.25500000920E-02 0.  1.
        2   -1    0    0  501    0  0.00000000000E+00  0.00000000000E+00 -0.85464840343E+03  0.85464840343E+03  0.25500000920E-02 0. -1.
    10030    2    1    2    0    0  0.00000000000E+00  0.00000000000E+00  0.10080437799E+04  0.27173405868E+04  0.25234475628E+04 0.  0.
        4    1    3    3  502    0  0.65468790281E+03 -0.71130096478E+03 -0.36906612440E+03  0.10347834216E+04  0.12699999809E+01 0. -1.
       -4    1    3    3    0  502 -0.65468790281E+03  0.71130096478E+03  0.13771099043E+04  0.16825571652E+04  0.12699999809E+01 0.  1.
</event>
<event>
 5   0  0.5840500E-06  0.2550110E+04  0.7818609E-02  0.8385348E-01
        4   -1    0    0  501    0  0.00000000000E+00  0.00000000000E+00  0.83222513524E+03  0.83222610427E+03  0.12699999809E+01 0. -1.
       -4   -1    0    0    0  501  0.00000000000E+00  0.00000000000E+00 -0.19535141219E+04  0.19535145347E+04  0.12699999809E+01 0.  1.
    10030    2    1    2    0    0  0.00000000000E+00  0.00000000000E+00 -0.11212889866E+04  0.27857406390E+04  0.25501101772E+04 0.  0.
        4    1    3    3  502    0 -0.84470970787E+03  0.93824104056E+03 -0.75585466719E+03  0.14714444032E+04  0.12699999809E+01 0.  1.
       -4    1    3    3    0  502  0.84470970787E+03 -0.93824104056E+03 -0.36543431945E+03  0.13142962358E+04  0.12699999809E+01 0. -1.
</event>
<event>
 5   0  0.1702345E-05  0.2603019E+04  0.7818609E-02  0.8367176E-01
       -2   -1    0    0    0  501  0.00000000000E+00  0.00000000000E+00  0.29432273857E+04  0.29432273857E+04  0.25500000920E-02 0.  1.
        2   -1    0    0  501    0  0.00000000000E+00  0.00000000000E+00 -0.57553390824E+03  0.57553390825E+03  0.25500000920E-02 0. -1.
    10030    2    1    2    0    0  0.00000000000E+00  0.00000000000E+00  0.23676934775E+04  0.35187612940E+04  0.26030191395E+04 0.  0.
        1    1    3    3  502    0 -0.82031074573E+03  0.59770368633E+02 -0.17969332707E+03  0.84188592360E+03  0.50400001928E-02 0. -1.
       -1    1    3    3    0  502  0.82031074573E+03 -0.59770368633E+02  0.25473868046E+04  0.26768753704E+04  0.50400001928E-02 0.  1.
</event>
<event>
 5   0  0.1869956E-05  0.2618428E+04  0.7818609E-02  0.8361968E-01
        2   -1    0    0  501    0  0.00000000000E+00  0.00000000000E+00  0.12848215857E+04  0.12848215857E+04  0.25500000920E-02 0.  1.
       -2   -1    0    0    0  501  0.00000000000E+00  0.00000000000E+00 -0.13340698722E+04  0.13340698722E+04  0.25500000920E-02 0. -1.
    10030    2    1    2    0    0  0.00000000000E+00  0.00000000000E+00 -0.49248286498E+02  0.26188914580E+04  0.26184283597E+04 0.  0.
        5    1    3    3  502    0 -0.64365337513E+03  0.19695393085E+02 -0.11647126266E+04  0.13308851071E+04  0.46999998093E+01 0. -1.
       -5    1    3    3    0  502  0.64365337513E+03 -0.19695393085E+02  0.11154643401E+04  0.12880063508E+04  0.46999998093E+01 0.  1.
</event>
<event>
 5   0  0.1677971E-05  0.2601022E+04  0.7818609E-02  0.8367854E-01
       -2   -1    0    0    0  501  0.00000000000E+00  0.00000000000E+00  0.88765297325E+03  0.88765297326E+03  0.25500000920E-02 0.  1.
        2   -1    0    0  501    0  0.00000000000E+00  0.00000000000E+00 -0.19053935939E+04  0.19053935939E+04  0.25500000920E-02 0. -1.
    10030    2    1    2    0    0  0.00000000000E+00  0.00000000000E+00 -0.10177406207E+04  0.27930465672E+04  0.26010215600E+04 0.  0.
        4    1    3    3  502    0  0.25032468788E+03  0.75683910073E+03  0.59454027728E+03  0.99445845965E+03  0.12699999809E+01 0.  1.
       -4    1    3    3    0  502 -0.25032468788E+03 -0.75683910073E+03 -0.16122808979E+04  0.17985881075E+04  0.12699999809E+01 0. -1.
</event>
<event>
 5   0  0.6984287E-06  0.2573204E+04  0.7818609E-02  0.8377361E-01
       -1   -1    0    0    0  501  0.00000000000E+00  0.00000000000E+00  0.95367642698E+03  0.95367642699E+03  0.50400001928E-02 0.  1.
        1   -1    0    0  501    0  0.00000000000E+00  0.00000000000E+00 -0.17357508506E+04  0.17357508506E+04  0.50400001928E-02 0. -1.
    10030    2    1    2    0    0  0.00000000000E+00  0.00000000000E+00 -0.78207442359E+03  0.26894272776E+04  0.25732039712E+04 0.  0.
        3    1    3    3  502    0 -0.72060388409E+03  0.90676832276E+03 -0.97656003644E+03  0.15149812751E+04  0.10100000352E+00 0. -1.
       -3    1    3    3    0  502  0.72060388409E+03 -0.90676832276E+03  0.19448561285E+03  0.11744460025E+04  0.10100000352E+00 0.  1.
</event>
<event>
 5   0  0.6984287E-06  0.2616410E+04  0.7818609E-02  0.8362648E-01
        1   -1    0    0  501    0  0.00000000000E+00  0.00000000000E+00  0.18226358657E+04  0.18226358657E+04  0.50400001928E-02 0.  1.
       -1   -1    0    0    0  501  0.00000000000E+00  0.00000000000E+00 -0.93896984447E+03  0.93896984448E+03  0.50400001928E-02 0. -1.
    10030    2    1    2    0    0  0.00000000000E+00  0.00000000000E+00  0.88366602125E+03  0.27616057102E+04  0.26164098420E+04 0.  0.
        3    1    3    3  502    0 -0.90912188505E+03 -0.91025663095E+03  0.19132178231E+03  0.13006435986E+04  0.10100000352E+00 0. -1.
       -3    1    3    3    0  502  0.90912188505E+03  0.91025663095E+03  0.69234423894E+03  0.14609621116E+04  0.10100000352E+00 0.  1.
</event>
<event>
 5   0  0.1720129E-05  0.2598284E+04  0.7818609E-02  0.8368784E-01
       -2   -1    0    0    0  501  0.00000000000E+00  0.00000000000E+00  0.67010660784E+03  0.67010660785E+03  0.25500000920E-02 0. -1.
        2   -1    0    0  501    0  0.00000000000E+00  0.00000000000E+00 -0.25186592182E+04  0.25186592182E+04  0.25500000920E-02 0.  1.
    10030    2    1    2    0    0  0.00000000000E+00  0.00000000000E+00 -0.18485526104E+04  0.31887658261E+04  0.25982841916E+04 0.  0.
        3    1    3    3  502    0  0.11471178570E+04 -0.42199548773E+03 -0.14645635876E+04  0.19075916969E+04  0.10100000352E+00 0.  1.
       -3    1    3    3    0  502 -0.11471178570E+04  0.42199548773E+03 -0.38398902277E+03  0.12811741292E+04  0.10100000352E+00 0. -1.
</event>
<event>
 5   0  0.1677971E-05  0.2576580E+04  0.7818609E-02  0.8376200E-01
        2   -1    0    0  501    0  0.00000000000E+00  0.00000000000E+00  0.18944783481E+04  0.18944783481E+04  0.25500000920E-02 0. -1.
       -2   -1    0    0    0  501  0.00000000000E+00  0.00000000000E+00 -0.87606769161E+03  0.87606769161E+03  0.25500000920E-02 0.  1.
    10030    2    1    2    0    0  0.00000000000E+00  0.00000000000E+00  0.10184106565E+04  0.27705460397E+04  0.25765801157E+04 0.  0.
        4    1    3    3  502    0  0.78098969518E+03 -0.38539771474E+03 -0.51158261227E+03  0.10100468725E+04  0.12699999809E+01 0.  1.
       -4    1    3    3    0  502 -0.78098969518E+03  0.38539771474E+03  0.15299932687E+04  0.17604991672E+04  0.12699999809E+01 0. -1.
</event>
<event>
 5   0  0.7138294E-06  0.2611161E+04  0.7818609E-02  0.8364420E-01
       -1   -1    0    0    0  501  0.00000000000E+00  0.00000000000E+00  0.63796733487E+03  0.63796733489E+03  0.50400001928E-02 0.  1.
        1   -1    0    0  501    0  0.00000000000E+00  0.00000000000E+00 -0.26718300741E+04  0.26718300741E+04  0.50400001928E-02 0. -1.
    10030    2    1    2    0    0  0.00000000000E+00  0.00000000000E+00 -0.20338627392E+04  0.33097974090E+04  0.26111609002E+04 0.  0.
        2    1    3    3  502    0  0.16713649854E+03 -0.94628210111E+03 -0.21372372948E+04  0.23433240660E+04  0.25500000920E-02 0. -1.
       -2    1    3    3    0  502 -0.16713649854E+03  0.94628210111E+03  0.10337455554E+03  0.96647334302E+03  0.25500000920E-02 0.  1.
</event>
<event>
 5   0  0.6993678E-06  0.2606418E+04  0.7818609E-02  0.8366024E-01
       -1   -1    0    0    0  501  0.00000000000E+00  0.00000000000E+00  0.18665497794E+04  0.18665497794E+04  0.50400001928E-02 0.  1.
        1   -1    0    0  501    0  0.00000000000E+00  0.00000000000E+00 -0.90988961620E+03  0.90988961622E+03  0.50400001928E-02 0. -1.
    10030    2    1    2    0    0  0.00000000000E+00  0.00000000000E+00  0.95666016324E+03  0.27764393957E+04  0.26064184334E+04 0.  0.
        1    1    3    3  502    0  0.42072984262E+03  0.34971804730E+03 -0.78163586406E+03  0.95408120047E+03  0.50400001928E-02 0. -1.
       -1    1    3    3    0  502 -0.42072984262E+03 -0.34971804730E+03  0.17382960273E+04  0.18223581952E+04  0.50400001928E-02 0.  1.
</event>
<event>
 5   0  0.7138294E-06  0.2600534E+04  0.7818609E-02  0.8368020E-01
       -1   -1    0    0    0  501  0.00000000000E+00  0.00000000000E+00  0.20875507422E+04  0.20875507422E+04  0.50400001928E-02 0.  1.
        1   -1    0    0  501    0  0.00000000000E+00  0.00000000000E+00 -0.80989352010E+03  0.80989352012E+03  0.50400001928E-02 0. -1.
    10030    2    1    2    0    0  0.00000000000E+00  0.00000000000E+00  0.12776572221E+04  0.28974442623E+04  0.26005336522E+04 0.  0.
        2    1    3    3  502    0  0.13024959494E+03 -0.11566097043E+04  0.12846481340E+04  0.17335027526E+04  0.25500000920E-02 0.  1.
       -2    1    3    3    0  502 -0.13024959494E+03  0.11566097043E+04 -0.69909119245E+01  0.11639415097E+04  0.25500000920E-02 0. -1.
</event>
<event>
 5   0  0.1677971E-05  0.2598856E+04  0.7818609E-02  0.8368590E-01
       -2   -1    0    0    0  501  0.00000000000E+00  0.00000000000E+00  0.17130307957E+04  0.17130307957E+04  0.25500000920E-02 0.  1.
        2   -1    0    0  501    0  0.00000000000E+00  0.00000000000E+00 -0.98568775880E+03  0.98568775880E+03  0.25500000920E-02 0. -1.
    10030    2    1    2    0    0  0.00000000000E+00  0.00000000000E+00  0.72734303689E+03  0.26987185545E+04  0.25988562760E+04 0.  0.
        4    1    3    3  502    0 -0.31197089927E+03  0.26685929103E+03  0.16439166935E+04  0.16944035621E+04  0.12699999809E+01 0.  1.
       -4    1    3    3    0  502  0.31197089927E+03 -0.26685929103E+03 -0.91657365657E+03  0.10043149924E+04  0.12699999809E+01 0. -1.
</event>
<event>
 5   0  0.1677971E-05  0.2455129E+04  0.7818609E-02  0.8419148E-01
       -2   -1    0    0    0  501  0.00000000000E+00  0.00000000000E+00  0.19965817439E+04  0.19965817439E+04  0.25500000920E-02 0. -1.
        2   -1    0    0  501    0  0.00000000000E+00  0.00000000000E+00 -0.75474706412E+03  0.75474706412E+03  0.25500000920E-02 0.  1.
    10030    2    1    2    0    0  0.00000000000E+00  0.00000000000E+00  0.12418346798E+04  0.27513288080E+04  0.24551286805E+04 0.  0.
        4    1    3    3  502    0  0.73362393666E+03  0.46832014354E+03 -0.34919195111E+03  0.93779766950E+03  0.12699999809E+01 0.  1.
       -4    1    3    3    0  502 -0.73362393666E+03 -0.46832014354E+03  0.15910266309E+04  0.18135311385E+04  0.12699999809E+01 0. -1.
</event>
<event>
 5   0  0.1869956E-05  0.2604577E+04  0.7818609E-02  0.8366648E-01
        2   -1    0    0  501    0  0.00000000000E+00  0.00000000000E+00  0.15036317309E+04  0.15036317309E+04  0.25500000920E-02 0.  1.
       -2   -1    0    0    0  501  0.00000000000E+00  0.00000000000E+00 -0.11279061011E+04  0.11279061011E+04  0.25500000920E-02 0. -1.
    10030    2    1    2    0    0  0.00000000000E+00  0.00000000000E+00  0.37572562977E+03  0.26315378320E+04  0.26045770506E+04 0.  0.
        5    1    3    3  502    0 -0.12262368770E+04 -0.43374464771E+03  0.25288749812E+03  0.13250530083E+04  0.46999998093E+01 0.  1.
       -5    1    3    3    0  502  0.12262368770E+04  0.43374464771E+03  0.12283813166E+03  0.13064848237E+04  0.46999998093E+01 0. -1.
</event>
<event>
 5   0  0.6984287E-06  0.2556168E+04  0.7818609E-02  0.8383244E-01
       -1   -1    0    0    0  501  0.00000000000E+00  0.00000000000E+00  0.10404366149E+04  0.10404366149E+04  0.50400001928E-02 0.  1.
        1   -1    0    0  501    0  0.00000000000E+00  0.00000000000E+00 -0.15700126353E+04  0.15700126353E+04  0.50400001928E-02 0. -1.
    10030    2    1    2    0    0  0.00000000000E+00  0.00000000000E+00 -0.52957602038E+03  0.26104492502E+04  0.25561679379E+04 0.  0.
        3    1    3    3  502    0  0.58752833231E+03 -0.30881515532E+03 -0.13802007149E+04  0.15315059141E+04  0.10100000352E+00 0. -1.
       -3    1    3    3    0  502 -0.58752833231E+03  0.30881515532E+03  0.85062469451E+03  0.10789433361E+04  0.10100000352E+00 0.  1.
</event>
<event>
 5   0  0.7138294E-06  0.2616379E+04  0.7818609E-02  0.8362659E-01
        1   -1    0    0  501    0  0.00000000000E+00  0.00000000000E+00  0.11682044124E+04  0.11682044124E+04  0.50400001928E-02 0. -1.
       -1   -1    0    0    0  501  0.00000000000E+00  0.00000000000E+00 -0.14649487734E+04  0.14649487734E+04  0.50400001928E-02 0.  1.
    10030    2    1    2    0    0  0.00000000000E+00  0.00000000000E+00 -0.29674436102E+03  0.26331531858E+04  0.26163788877E+04 0.  0.
        2    1    3    3  502    0  0.58947301119E+03 -0.71827419439E+03  0.77838089462E+03  0.12121357458E+04  0.25500000920E-02 0. -1.
       -2    1    3    3    0  502 -0.58947301119E+03  0.71827419439E+03 -0.10751252556E+04  0.14210174399E+04  0.25500000920E-02 0.  1.
</event>
<event>
 5   0  0.1702345E-05  0.2716200E+04  0.7818609E-02  0.8329768E-01
        2   -1    0    0  501    0  0.00000000000E+00  0.00000000000E+00  0.15656538102E+04  0.15656538102E+04  0.25500000920E-02 0.  1.
       -2   -1    0    0    0  501  0.00000000000E+00  0.00000000000E+00 -0.11780612913E+04  0.11780612913E+04  0.25500000920E-02 0. -1.
    10030    2    1    2    0    0  0.00000000000E+00  0.00000000000E+00  0.38759251894E+03  0.27437151015E+04  0.27162003971E+04 0.  0.
        1    1    3    3  502    0 -0.84664554793E+03 -0.23744843710E+03 -0.85169823974E+03  0.12241651587E+04  0.50400001928E-02 0. -1.
       -1    1    3    3    0  502  0.84664554793E+03  0.23744843710E+03  0.12392907587E+04  0.15195499428E+04  0.50400001928E-02 0.  1.
</event>
<event>
 5   0  0.6918420E-06  0.2599552E+04  0.7818609E-02  0.8368353E-01
       -1   -1    0    0    0  501  0.00000000000E+00  0.00000000000E+00  0.73902300790E+03  0.73902300792E+03  0.50400001928E-02 0.  1.
        1   -1    0    0  501    0  0.00000000000E+00  0.00000000000E+00 -0.22860152678E+04  0.22860152678E+04  0.50400001928E-02 0. -1.
    10030    2    1    2    0    0  0.00000000000E+00  0.00000000000E+00 -0.15469922599E+04  0.30250382757E+04  0.25995521763E+04 0.  0.
        4    1    3    3  502    0  0.70168918647E+03 -0.98223067579E+03 -0.21266740123E+03  0.12257136090E+04  0.12699999809E+01 0.  1.
       -4    1    3    3    0  502 -0.70168918647E+03  0.98223067579E+03 -0.13343248587E+04  0.17993246667E+04  0.12699999809E+01 0. -1.
</event>
<event>
 5   0  0.1677971E-05  0.2532566E+04  0.7818609E-02  0.8391475E-01
       -2   -1    0    0    0  501  0.00000000000E+00  0.00000000000E+00  0.11223456311E+04  0.11223456311E+04  0.25500000920E-02 0.  1.
        2   -1    0    0  501    0  0.00000000000E+00  0.00000000000E+00 -0.14286798963E+04  0.14286798963E+04  0.25500000920E-02 0. -1.
    10030    2    1    2    0    0  0.00000000000E+00  0.00000000000E+00 -0.30633426523E+03  0.25510255274E+04  0.25325660030E+04 0.  0.
        4    1    3    3  502    0  0.55857658330E+03  0.67519979761E+03 -0.10739241794E+04  0.13860798397E+04  0.12699999809E+01 0. -1.
       -4    1    3    3    0  502 -0.55857658330E+03 -0.67519979761E+03  0.76758991412E+03  0.11649456877E+04  0.12699999809E+01 0.  1.
</event>
<event>
 5   0  0.1681731E-05  0.2512943E+04  0.7818609E-02  0.8398389E-01
        2   -1    0    0  501    0  0.00000000000E+00  0.00000000000E+00  0.10092649252E+04  0.10092649252E+04  0.25500000920E-02 0. -1.
       -2   -1    0    0    0  501  0.00000000000E+00  0.00000000000E+00 -0.15642284066E+04  0.15642284066E+04  0.25500000920E-02 0.  1.
    10030    2    1    2    0    0  0.00000000000E+00  0.00000000000E+00 -0.55496348142E+03  0.25734933317E+04  0.25129431873E+04 0.  0.
        2    1    3    3  502    0 -0.15289406964E+03 -0.11956805840E+04 -0.64055524641E+03  0.13650420064E+04  0.25500000920E-02 0.  1.
       -2    1    3    3    0  502  0.15289406964E+03  0.11956805840E+04  0.85591764986E+02  0.12084513253E+04  0.25500000920E-02 0. -1.
</event>
<event>
 5   0  0.6918420E-06  0.2601139E+04  0.7818609E-02  0.8367815E-01
        1   -1    0    0  501    0  0.00000000000E+00  0.00000000000E+00  0.29228461017E+04  0.29228461017E+04  0.50400001928E-02 0. -1.
       -1   -1    0    0    0  501  0.00000000000E+00  0.00000000000E+00 -0.57871008663E+03  0.57871008666E+03  0.50400001928E-02 0.  1.
    10030    2    1    2    0    0  0.00000000000E+00  0.00000000000E+00  0.23441360151E+04  0.35015561884E+04  0.26011386128E+04 0.  0.
        4    1    3    3  502    0  0.53887249507E+03 -0.10645233506E+04  0.18688101957E+04  0.22172159774E+04  0.12699999809E+01 0. -1.
       -4    1    3    3    0  502 -0.53887249507E+03  0.10645233506E+04  0.47532581936E+03  0.12843402109E+04  0.12699999809E+01 0.  1.
</event>
<event>
 5   0  0.1677971E-05  0.2599934E+04  0.7818609E-02  0.8368224E-01
        2   -1    0    0  501    0  0.00000000000E+00  0.00000000000E+00  0.19253517798E+04  0.19253517798E+04  0.25500000920E-02 0. -1.
       -2   -1    0    0    0  501  0.00000000000E+00  0.00000000000E+00 -0.87771714357E+03  0.87771714358E+03  0.25500000920E-02 0.  1.
    10030    2    1    2    0    0  0.00000000000E+00  0.00000000000E+00  0.10476346363E+04  0.28030689234E+04  0.25999340488E+04 0.  0.
        4    1    3    3  502    0  0.19251582277E+03  0.85089625800E+02 -0.85922322840E+03  0.88462916273E+03  0.12699999809E+01 0.  1.
       -4    1    3    3    0  502 -0.19251582277E+03 -0.85089625800E+02  0.19068578647E+04  0.19184397607E+04  0.12699999809E+01 0. -1.
</event>
<event>
 5   0  0.6984287E-06  0.2502443E+04  0.7818609E-02  0.8402116E-01
        1   -1    0    0  501    0  0.00000000000E+00  0.00000000000E+00  0.14609123592E+04  0.14609123592E+04  0.50400001928E-02 0. -1.
       -1   -1    0    0    0  501  0.00000000000E+00  0.00000000000E+00 -0.10716285401E+04  0.10716285401E+04  0.50400001928E-02 0.  1.
    10030    2    1    2    0    0  0.00000000000E+00  0.00000000000E+00  0.38928381913E+03  0.25325408994E+04  0.25024431093E+04 0.  0.
        3    1    3    3  502    0  0.79888179414E+03  0.54264945803E+02  0.11676621752E+04  0.14158360678E+04  0.10100000352E+00 0. -1.
       -3    1    3    3    0  502 -0.79888179414E+03 -0.54264945803E+02 -0.77837835608E+03  0.11167048315E+04  0.10100000352E+00 0.  1.
</event>
<event>
 5   0  0.1869956E-05  0.2577571E+04  0.7818609E-02  0.8375860E-01
       -2   -1    0    0    0  501  0.00000000000E+00  0.00000000000E+00  0.13357943562E+04  0.13357943562E+04  0.25500000920E-02 0. -1.
        2   -1    0    0  501    0  0.00000000000E+00  0.00000000000E+00 -0.12434310048E+04  0.12434310048E+04  0.25500000920E-02 0.  1.
    10030    2    1    2    0    0  0.00000000000E+00  0.00000000000E+00  0.92363351378E+02  0.25792253611E+04  0.25775710416E+04 0.  0.
        5    1    3    3  502    0 -0.71089989720E+03 -0.80015621983E+03  0.76449851113E+03  0.13153359660E+04  0.46999998093E+01 0. -1.
       -5    1    3    3    0  502  0.71089989720E+03  0.80015621983E+03 -0.67213515975E+03  0.12638893951E+04  0.46999998093E+01 0.  1.
</event>
<event>
 5   0  0.1869956E-05  0.2628652E+04  0.7818609E-02  0.8358533E-01
       -2   -1    0    0    0  501  0.00000000000E+00  0.00000000000E+00  0.98128990392E+03  0.98128990392E+03  0.25500000920E-02 0. -1.
        2   -1    0    0  501    0  0.00000000000E+00  0.00000000000E+00 -0.17603896511E+04  0.17603896511E+04  0.25500000920E-02 0.  1.
    10030    2    1    2    0    0  0.00000000000E+00  0.00000000000E+00 -0.77909974720E+03  0.27416795550E+04  0.26286518154E+04 0.  0.
        5    1    3    3  502    0  0.29937115651E+03  0.94767953571E+03 -0.12865957232E+04  0.16257522064E+04  0.46999998093E+01 0.  1.
       -5    1    3    3    0  502 -0.29937115651E+03 -0.94767953571E+03  0.50749597599E+03  0.11159273486E+04  0.46999998093E+01 0. -1.
</event>
<event>
 5   0  0.1702345E-05  0.2557954E+04  0.7818609E-02  0.8382625E-01
       -2   -1    0    0    0  501  0.00000000000E+00  0.00000000000E+00  0.88187865264E+03  0.88187865264E+03  0.25500000920E-02 0. -1.
        2   -1    0    0  501    0  0.00000000000E+00  0.00000000000E+00 -0.18548833088E+04  0.18548833088E+04  0.25500000920E-02 0.  1.
    10030    2    1    2    0    0  0.00000000000E+00  0.00000000000E+00 -0.97300465619E+03  0.27367619615E+04  0.25579538645E+04 0.  0.
        1    1    3    3  502    0  0.44916064798E+03 -0.11136987802E+04 -0.95739537765E+03  0.15357982191E+04  0.50400001928E-02 0.  1.
       -1    1    3    3    0  502 -0.44916064798E+03  0.11136987802E+04 -0.15609278542E+02  0.12009637423E+04  0.50400001928E-02 0. -1.
</event>
<event>
 5   0  0.6918420E-06  0.2596959E+04  0.7818609E-02  0.8369235E-01
        1   -1    0    0  501    0  0.00000000000E+00  0.00000000000E+00  0.14094672956E+04  0.14094672956E+04  0.50400001928E-02 0.  1.
       -1   -1    0    0    0  501  0.00000000000E+00  0.00000000000E+00 -0.11962318343E+04  0.11962318343E+04  0.50400001928E-02 0. -1.
    10030    2    1    2    0    0  0.00000000000E+00  0.00000000000E+00  0.21323546136E+03  0.26056991299E+04  0.25969594902E+04 0.  0.
        4    1    3    3  502    0  0.36408803004E+03  0.21640357341E+03  0.13382082934E+04  0.14036358679E+04  0.12699999809E+01 0.  1.
       -4    1    3    3    0  502 -0.36408803004E+03 -0.21640357341E+03 -0.11249728320E+04  0.12020632620E+04  0.12699999809E+01 0. -1.
</event>
<event>
 5   0  0.6984287E-06  0.2598768E+04  0.7818609E-02  0.8368620E-01
       -1   -1    0    0    0  501  0.00000000000E+00  0.00000000000E+00  0.11068951857E+04  0.11068951857E+04  0.50400001928E-02 0.  1.
        1   -1    0    0  501    0  0.00000000000E+00  0.00000000000E+00 -0.15253464306E+04  0.15253464306E+04  0.50400001928E-02 0. -1.
    10030    2    1    2    0    0  0.00000000000E+00  0.00000000000E+00 -0.41845124490E+03  0.26322416163E+04  0.25987678777E+04 0.  0.
        3    1    3    3  502    0  0.12908639389E+04 -0.10500621975E+03 -0.31566292059E+03  0.13330412989E+04  0.10100000352E+00 0.  1.
       -3    1    3    3    0  502 -0.12908639389E+04  0.10500621975E+03 -0.10278832432E+03  0.12992003174E+04  0.10100000352E+00 0. -1.
</event>
<event>
 5   0  0.6984287E-06  0.2606124E+04  0.7818609E-02  0.8366124E-01
        1   -1    0    0  501    0  0.00000000000E+00  0.00000000000E+00  0.11288148799E+04  0.11288148800E+04  0.50400001928E-02 0. -1.
       -1   -1    0    0    0  501  0.00000000000E+00  0.00000000000E+00 -0.15042066017E+04  0.15042066017E+04  0.50400001928E-02 0.  1.
    10030    2    1    2    0    0  0.00000000000E+00  0.00000000000E+00 -0.37539172177E+03  0.26330214817E+04  0.26061241678E+04 0.  0.
        3    1    3    3  502    0 -0.77062732791E+03 -0.44427899066E+03  0.77435052473E+03  0.11793511120E+04  0.10100000352E+00 0. -1.
       -3    1    3    3    0  502  0.77062732791E+03  0.44427899066E+03 -0.11497422465E+04  0.14536703697E+04  0.10100000352E+00 0.  1.
</event>
<event>
 5   0  0.1677971E-05  0.2586808E+04  0.7818609E-02  0.8372696E-01
       -2   -1    0    0    0  501  0.00000000000E+00  0.00000000000E+00  0.73375081090E+03  0.73375081091E+03  0.25500000920E-02 0. -1.
        2   -1    0    0  501    0  0.00000000000E+00  0.00000000000E+00 -0.22799211179E+04  0.22799211179E+04  0.25500000920E-02 0.  1.
    10030    2    1    2    0    0  0.00000000000E+00  0.00000000000E+00 -0.15461703070E+04  0.30136719288E+04  0.25868080478E+04 0.  0.
        4    1    3    3  502    0 -0.81906903968E+03  0.45556913025E+02  0.39189722215E+03  0.90913946659E+03  0.12699999809E+01 0. -1.
       -4    1    3    3    0  502  0.81906903968E+03 -0.45556913025E+02 -0.19380675291E+04  0.21045324622E+04  0.12699999809E+01 0.  1.
</event>
<event>
 5   0  0.6706225E-06  0.2635695E+04  0.7818609E-02  0.8356177E-01
       -1   -1    0    0    0  501  0.00000000000E+00  0.00000000000E+00  0.12265445332E+04  0.12265445332E+04  0.50400001928E-02 0. -1.
        1   -1    0    0  501    0  0.00000000000E+00  0.00000000000E+00 -0.14159467262E+04  0.14159467262E+04  0.50400001928E-02 0.  1.
    10030    2    1    2    0    0  0.00000000000E+00  0.00000000000E+00 -0.18940219302E+03  0.26424912594E+04  0.26356947595E+04 0.  0.
        5    1    3    3  502    0  0.26705765326E+03  0.90597686470E+03  0.82668217487E+03  0.12552049147E+04  0.46999998093E+01 0. -1.
       -5    1    3    3    0  502 -0.26705765326E+03 -0.90597686470E+03 -0.10160843679E+04  0.13872863447E+04  0.46999998093E+01 0.  1.
</event>
<event>
 5   0  0.6918420E-06  0.2638761E+04  0.7818609E-02  0.8355153E-01
       -1   -1    0    0    0  501  0.00000000000E+00  0.00000000000E+00  0.92059595298E+03  0.92059595299E+03  0.50400001928E-02 0.  1.
        1   -1    0    0  501    0  0.00000000000E+00  0.00000000000E+00 -0.18909110177E+04  0.18909110177E+04  0.50400001928E-02 0. -1.
    10030    2    1    2    0    0  0.00000000000E+00  0.00000000000E+00 -0.97031506470E+03  0.28115069707E+04  0.26387610959E+04 0.  0.
        4    1    3    3  502    0  0.40801262272E+03  0.11890006678E+04 -0.58217772159E+02  0.12584068540E+04  0.12699999809E+01 0.  1.
       -4    1    3    3    0  502 -0.40801262272E+03 -0.11890006678E+04 -0.91209729254E+03  0.15531001166E+04  0.12699999809E+01 0. -1.
</event>
<event>
 5   0  0.7138294E-06  0.2634619E+04  0.7818609E-02  0.8356536E-01
        1   -1    0    0  501    0  0.00000000000E+00  0.00000000000E+00  0.13167971672E+04  0.13167971672E+04  0.50400001928E-02 0. -1.
       -1   -1    0    0    0  501  0.00000000000E+00  0.00000000000E+00 -0.13178220327E+04  0.13178220327E+04  0.50400001928E-02 0.  1.
    10030    2    1    2    0    0  0.00000000000E+00  0.00000000000E+00 -0.10248655001E+01  0.26346191999E+04  0.26346190006E+04 0.  0.
        2    1    3    3  502    0 -0.11221451361E+04 -0.15356226467E+03  0.67217866462E+03  0.13170479235E+04  0.25500000920E-02 0. -1.
       -2    1    3    3    0  502  0.11221451361E+04  0.15356226467E+03 -0.67320353012E+03  0.13175712765E+04  0.25500000920E-02 0.  1.
</event>
<event>
 5   0  0.1720129E-05  0.2606871E+04  0.7818609E-02  0.8365871E-01
       -2   -1    0    0    0  501  0.00000000000E+00  0.00000000000E+00  0.74927534153E+03  0.74927534153E+03  0.25500000920E-02 0. -1.
        2   -1    0    0  501    0  0.00000000000E+00  0.00000000000E+00 -0.22674487766E+04  0.22674487766E+04  0.25500000920E-02 0.  1.
    10030    2    1    2    0    0  0.00000000000E+00  0.00000000000E+00 -0.15181734350E+04  0.30167241181E+04  0.26068705042E+04 0.  0.
        3    1    3    3  502    0 -0.11595756878E+03 -0.98519211484E+03 -0.17375327984E+04  0.20007673270E+04  0.10100000352E+00 0.  1.
       -3    1    3    3    0  502  0.11595756878E+03  0.98519211484E+03  0.21935936339E+03  0.10159567911E+04  0.10100000352E+00 0. -1.
</event>
<event>
 5   0  0.1677971E-05  0.2604652E+04  0.7818609E-02  0.8366623E-01
       -2   -1    0    0    0  501  0.00000000000E+00  0.00000000000E+00  0.12787872599E+04  0.12787872599E+04  0.25500000920E-02 0.  1.
        2   -1    0    0  501    0  0.00000000000E+00  0.00000000000E+00 -0.13262979688E+04  0.13262979688E+04  0.25500000920E-02 0. -1.
    10030    2    1    2    0    0  0.00000000000E+00  0.00000000000E+00 -0.47510708915E+02  0.26050852287E+04  0.26046519501E+04 0.  0.
        4    1    3    3  502    0  0.31233533938E+03 -0.36528897654E+03 -0.12343541288E+04  0.13246211265E+04  0.12699999809E+01 0. -1.
       -4    1    3    3    0  502 -0.31233533938E+03  0.36528897654E+03  0.11868434199E+04  0.12804641021E+04  0.12699999809E+01 0.  1.
</event>
<event>
 5   0  0.1702345E-05  0.2597927E+04  0.7818609E-02  0.8368906E-01
       -2   -1    0    0    0  501  0.00000000000E+00  0.00000000000E+00  0.64786560160E+03  0.64786560160E+03  0.25500000920E-02 0.  1.
        2   -1    0    0  501    0  0.00000000000E+00  0.00000000000E+00 -0.26044082477E+04  0.26044082477E+04  0.25500000920E-02 0. -1.
    10030    2    1    2    0    0  0.00000000000E+00  0.00000000000E+00 -0.19565426461E+04  0.32522738493E+04  0.25979272632E+04 0.  0.
        1    1    3    3  502    0  0.30098928781E+03  0.77263498319E+03 -0.22299856018E+04  0.23791584968E+04  0.50400001928E-02 0. -1.
       -1    1    3    3    0  502 -0.30098928781E+03 -0.77263498319E+03  0.27344295575E+03  0.87311535246E+03  0.50400001928E-02 0.  1.
</event>
<event>
 5   0  0.1720129E-05  0.2570722E+04  0.7818609E-02  0.8378215E-01
       -2   -1    0    0    0  501  0.00000000000E+00  0.00000000000E+00  0.89357380262E+03  0.89357380263E+03  0.25500000920E-02 0. -1.
        2   -1    0    0  501    0  0.00000000000E+00  0.00000000000E+00 -0.18489272905E+04  0.18489272905E+04  0.25500000920E-02 0.  1.
    10030    2    1    2    0    0  0.00000000000E+00  0.00000000000E+00 -0.95535348786E+03  0.27425010931E+04  0.25707220696E+04 0.  0.
        3    1    3    3  502    0 -0.25142573997E+03 -0.70584459364E+03 -0.15918394506E+04  0.17593704385E+04  0.10100000352E+00 0.  1.
       -3    1    3    3    0  502  0.25142573997E+03  0.70584459364E+03  0.63648596275E+03  0.98313065463E+03  0.10100000352E+00 0. -1.
</event>
<event>
 5   0  0.6706225E-06  0.2583360E+04  0.7818609E-02  0.8373875E-01
       -1   -1    0    0    0  501  0.00000000000E+00  0.00000000000E+00  0.11699797505E+04  0.11699797505E+04  0.50400001928E-02 0.  1.
        1   -1    0    0  501    0  0.00000000000E+00  0.00000000000E+00 -0.14260398820E+04  0.14260398820E+04  0.50400001928E-02 0. -1.
    10030    2    1    2    0    0  0.00000000000E+00  0.00000000000E+00 -0.25606013146E+03  0.25960196325E+04  0.25833604358E+04 0.  0.
        5    1    3    3  502    0 -0.71336168505E+03 -0.71857542299E+03  0.67788502721E+03  0.12185178424E+04  0.46999998093E+01 0.  1.
       -5    1    3    3    0  502  0.71336168505E+03  0.71857542299E+03 -0.93394515867E+03  0.13775017901E+04  0.46999998093E+01 0. -1.
</event>
<event>
 5   0  0.6918420E-06  0.2594425E+04  0.7818609E-02  0.8370097E-01
       -1   -1    0    0    0  501  0.00000000000E+00  0.00000000000E+00  0.90641714725E+03  0.90641714727E+03  0.50400001928E-02 0. -1.
        1   -1    0    0  501    0  0.00000000000E+00  0.00000000000E+00 -0.18564968258E+04  0.18564968258E+04  0.50400001928E-02 0.  1.
    10030    2    1    2    0    0  0.00000000000E+00  0.00000000000E+00 -0.95007967858E+03  0.27629139731E+04  0.25944252210E+04 0.  0.
        4    1    3    3  502    0 -0.11826667659E+04  0.22128515965E+03 -0.99139002643E+03  0.15590136621E+04  0.12699999809E+01 0.  1.
       -4    1    3    3    0  502  0.11826667659E+04 -0.22128515965E+03  0.41310347848E+02  0.12039003110E+04  0.12699999809E+01 0. -1.
</event>
<event>
 5   0  0.6706225E-06  0.2728128E+04  0.7818609E-02  0.8325936E-01
       -1   -1    0    0    0  501  0.00000000000E+00  0.00000000000E+00  0.20847702532E+04  0.20847702532E+04  0.50400001928E-02 0. -1.
        1   -1    0    0  501    0  0.00000000000E+00  0.00000000000E+00 -0.89250617727E+03  0.89250617728E+03  0.50400001928E-02 0.  1.
    10030    2    1    2    0    0  0.00000000000E+00  0.00000000000E+00  0.11922640760E+04  0.29772764305E+04  0.27281278043E+04 0.  0.
        5    1    3    3  502    0 -0.43426838527E+03  0.12258053199E+04  0.14688137874E+03  0.13087337171E+04  0.46999998093E+01 0.  1.
       -5    1    3    3    0  502  0.43426838527E+03 -0.12258053199E+04  0.10453826972E+04  0.16685427134E+04  0.46999998093E+01 0. -1.
</event>
<event>
 5   0  0.6993678E-06  0.2571597E+04  0.7818609E-02  0.8377913E-01
        1   -1    0    0  501    0  0.00000000000E+00  0.00000000000E+00  0.16088538017E+04  0.16088538017E+04  0.50400001928E-02 0. -1.
       -1   -1    0    0    0  501  0.00000000000E+00  0.00000000000E+00 -0.10276122545E+04  0.10276122545E+04  0.50400001928E-02 0.  1.
    10030    2    1    2    0    0  0.00000000000E+00  0.00000000000E+00  0.58124154721E+03  0.26364660562E+04  0.25715970776E+04 0.  0.
        1    1    3    3  502    0 -0.11455340546E+04 -0.12017615750E+03 -0.29527303542E+03  0.11890654922E+04  0.50400001928E-02 0.  1.
       -1    1    3    3    0  502  0.11455340546E+04  0.12017615750E+03  0.87651458263E+03  0.14474005640E+04  0.50400001928E-02 0. -1.
</event>
<event>
 5   0  0.1677971E-05  0.2633892E+04  0.7818609E-02  0.8356779E-01
        2   -1    0    0  501    0  0.00000000000E+00  0.00000000000E+00  0.20170512063E+04  0.20170512063E+04  0.25500000920E-02 0.  1.
       -2   -1    0    0    0  501  0.00000000000E+00  0.00000000000E+00 -0.85984243759E+03  0.85984243759E+03  0.25500000920E-02 0. -1.
    10030    2    1    2    0    0  0.00000000000E+00  0.00000000000E+00  0.11572087687E+04  0.28768936439E+04  0.26338915893E+04 0.  0.
        4    1    3    3  502    0 -0.38265704537E+03  0.94928456756E+03  0.14837819572E+04  0.18025476731E+04  0.12699999809E+01 0.  1.
       -4    1    3    3    0  502  0.38265704537E+03 -0.94928456756E+03 -0.32657318845E+03  0.10743459708E+04  0.12699999809E+01 0. -1.
</event>
<event>
 5   0  0.1702345E-05  0.2600933E+04  0.7818609E-02  0.8367884E-01
       -2   -1    0    0    0  501  0.00000000000E+00  0.00000000000E+00  0.13532930069E+04  0.13532930069E+04  0.25500000920E-02 0.  1.
        2   -1    0    0  501    0  0.00000000000E+00  0.00000000000E+00 -0.12497021744E+04  0.12497021744E+04  0.25500000920E-02 0. -1.
    10030    2    1    2    0    0  0.00000000000E+00  0.00000000000E+00  0.10359083251E+03  0.26029951814E+04  0.26009330737E+04 0.  0.
        1    1    3    3  502    0 -0.15937757104E+03  0.11404066880E+04  0.65666237588E+03  0.13255693494E+04  0.50400001928E-02 0.  1.
       -1    1    3    3    0  502  0.15937757104E+03 -0.11404066880E+04 -0.55307154336E+03  0.12774258320E+04  0.50400001928E-02 0. -1.
</event>
<event>
 5   0  0.1681731E-05  0.2606229E+04  0.7818609E-02  0.8366088E-01
       -2   -1    0    0    0  501  0.00000000000E+00  0.00000000000E+00  0.16714047424E+04  0.16714047424E+04  0.25500000920E-02 0.  1.
        2   -1    0    0  501    0  0.00000000000E+00  0.00000000000E+00 -0.10159761731E+04  0.10159761731E+04  0.25500000920E-02 0. -1.
    10030    2    1    2    0    0  0.00000000000E+00  0.00000000000E+00  0.65542856927E+03  0.26873809155E+04  0.26062289952E+04 0.  0.
        2    1    3    3  502    0  0.32318184530E+03  0.11929424795E+04  0.75354933943E+03  0.14475478823E+04  0.25500000920E-02 0.  1.
       -2    1    3    3    0  502 -0.32318184530E+03 -0.11929424795E+04 -0.98120770161E+02  0.12398330332E+04  0.25500000920E-02 0. -1.
</event>
<event>
 5   0  0.6984287E-06  0.2616251E+04  0.7818609E-02  0.8362702E-01
        1   -1    0    0  501    0  0.00000000000E+00  0.00000000000E+00  0.20629794023E+04  0.20629794024E+04  0.50400001928E-02 0.  1.
       -1   -1    0    0    0  501  0.00000000000E+00  0.00000000000E+00 -0.82947615846E+03  0.82947615848E+03  0.50400001928E-02 0. -1.
    10030    2    1    2    0    0  0.00000000000E+00  0.00000000000E+00  0.12335032439E+04  0.28924555608E+04  0.26162509281E+04 0.  0.
        3    1    3    3  502    0 -0.25243906493E+03  0.95779166416E+03 -0.32791599717E+03  0.10433691891E+04  0.10100000352E+00 0. -1.
       -3    1    3    3    0  502  0.25243906493E+03 -0.95779166416E+03  0.15614192411E+04  0.18490863717E+04  0.10100000352E+00 0.  1.
</event>
<event>
 5   0  0.1720129E-05  0.2593594E+04  0.7818609E-02  0.8370380E-01
        2   -1    0    0  501    0  0.00000000000E+00  0.00000000000E+00  0.20499620780E+04  0.20499620780E+04  0.25500000920E-02 0. -1.
       -2   -1    0    0    0  501  0.00000000000E+00  0.00000000000E+00 -0.82034826749E+03  0.82034826749E+03  0.25500000920E-02 0.  1.
    10030    2    1    2    0    0  0.00000000000E+00  0.00000000000E+00  0.12296138105E+04  0.28703103455E+04  0.25935942930E+04 0.  0.
        3    1    3    3  502    0  0.43459562127E+03  0.11398373890E+04  0.11017265353E+04  0.16437469380E+04  0.10100000352E+00 0.  1.
       -3    1    3    3    0  502 -0.43459562127E+03 -0.11398373890E+04  0.12788727521E+03  0.12265634075E+04  0.10100000352E+00 0. -1.
</event>
<event>
 5   0  0.1869956E-05  0.2782283E+04  0.7818609E-02  0.8308790E-01
        2   -1    0    0  501    0  0.00000000000E+00  0.00000000000E+00  0.19613488692E+04  0.19613488692E+04  0.25500000920E-02 0. -1.
       -2   -1    0    0    0  501  0.00000000000E+00  0.00000000000E+00 -0.98670575430E+03  0.98670575430E+03  0.25500000920E-02 0.  1.
    10030    2    1    2    0    0  0.00000000000E+00  0.00000000000E+00  0.97464311493E+03  0.29480546235E+04  0.27822826711E+04 0.  0.
        5    1    3    3  502    0  0.46207499157E+03  0.20204216574E+03  0.18610709463E+04  0.19281964350E+04  0.46999998093E+01 0. -1.
       -5    1    3    3    0  502 -0.46207499157E+03 -0.20204216574E+03 -0.88642783138E+03  0.10198581886E+04  0.46999998093E+01 0.  1.
</event>
<event>
 5   0  0.1702345E-05  0.2601688E+04  0.7818609E-02  0.8367628E-01
        2   -1    0    0  501    0  0.00000000000E+00  0.00000000000E+00  0.13624292797E+04  0.13624292797E+04  0.25500000920E-02 0. -1.
       -2   -1    0    0    0  501  0.00000000000E+00  0.00000000000E+00 -0.12420422003E+04  0.12420422003E+04  0.25500000920E-02 0.  1.
    10030    2    1    2    0    0  0.00000000000E+00  0.00000000000E+00  0.12038707943E+03  0.26044714800E+04  0.26016876525E+04 0.  0.
        1    1    3    3  502    0 -0.72701013383E+03 -0.40348057653E+03 -0.94130400935E+03  0.12559432903E+04  0.50400001928E-02 0.  1.
       -1    1    3    3    0  502  0.72701013383E+03  0.40348057653E+03  0.10616910888E+04  0.13485281897E+04  0.50400001928E-02 0. -1.
</event>
<event>
 5   0  0.6984287E-06  0.2608077E+04  0.7818609E-02  0.8365463E-01
        1   -1    0    0  501    0  0.00000000000E+00  0.00000000000E+00  0.14963699974E+04  0.14963699974E+04  0.50400001928E-02 0.  1.
       -1   -1    0    0    0  501  0.00000000000E+00  0.00000000000E+00 -0.11364275199E+04  0.11364275199E+04  0.50400001928E-02 0. -1.
    10030    2    1    2    0    0  0.00000000000E+00  0.00000000000E+00  0.35994247751E+03  0.26327975173E+04  0.26080767205E+04 0.  0.
        3    1    3    3  502    0 -0.11935983464E+04 -0.46883825091E+03  0.41892084031E+03  0.13490667140E+04  0.10100000352E+00 0. -1.
       -3    1    3    3    0  502  0.11935983464E+04  0.46883825091E+03 -0.58978362807E+02  0.12837308034E+04  0.10100000352E+00 0.  1.
</event>
<event>
 5   0  0.6918420E-06  0.2576670E+04  0.7818609E-02  0.8376169E-01
       -1   -1    0    0    0  501  0.00000000000E+00  0.00000000000E+00  0.12838251585E+04  0.12838251585E+04  0.50400001928E-02 0.  1.
        1   -1    0    0  501    0  0.00000000000E+00  0.00000000000E+00 -0.12928610751E+04  0.12928610751E+04  0.50400001928E-02 0. -1.
    10030    2    1    2    0    0  0.00000000000E+00  0.00000000000E+00 -0.90359165691E+01  0.25766862336E+04  0.25766703900E+04 0.  0.
        4    1    3    3  502    0 -0.46744572977E+03  0.44887470346E+03  0.11089573217E+04  0.12844383846E+04  0.12699999809E+01 0.  1.
       -4    1    3    3    0  502  0.46744572977E+03 -0.44887470346E+03 -0.11179932382E+04  0.12922478490E+04  0.12699999809E+01 0. -1.
</event>
<event>
 5   0  0.6984287E-06  0.2522475E+04  0.7818609E-02  0.8395022E-01
        1   -1    0    0  501    0  0.00000000000E+00  0.00000000000E+00  0.21294154250E+04  0.21294154250E+04  0.50400001928E-02 0.  1.
       -1   -1    0    0    0  501  0.00000000000E+00  0.00000000000E+00 -0.74702198793E+03  0.74702198795E+03  0.50400001928E-02 0. -1.
    10030    2    1    2    0    0  0.00000000000E+00  0.00000000000E+00  0.13823934371E+04  0.28764374130E+04  0.25224750892E+04 0.  0.
        3    1    3    3  502    0  0.16387708463E+02 -0.19225652679E+03  0.21124848671E+04  0.21212787306E+04  0.10100000352E+00 0.  1.
       -3    1    3    3    0  502 -0.16387708463E+02  0.19225652679E+03 -0.73009143004E+03  0.75515868233E+03  0.10100000352E+00 0. -1.
</event>
<event>
 5   0  0.1677971E-05  0.2641884E+04  0.7818609E-02  0.8354112E-01
       -2   -1    0    0    0  501  0.00000000000E+00  0.00000000000E+00  0.14624524970E+04  0.14624524970E+04  0.25500000920E-02 0. -1.
        2   -1    0    0  501    0  0.00000000000E+00  0.00000000000E+00 -0.11931246533E+04  0.11931246533E+04  0.25500000920E-02 0.  1.
    10030    2    1    2    0    0  0.00000000000E+00  0.00000000000E+00  0.26932784362E+03  0.26555771503E+04  0.26418842734E+04 0.  0.
        4    1    3    3  502    0 -0.10865630483E+04  0.73876869761E+03  0.27133949729E+03  0.13416501713E+04  0.12699999809E+01 0. -1.
       -4    1    3    3    0  502  0.10865630483E+04 -0.73876869761E+03 -0.20116536729E+01  0.13139269790E+04  0.12699999809E+01 0.  1.
</event>
<event>
 5   0  0.1869956E-05  0.2580951E+04  0.7818609E-02  0.8374701E-01
        2   -1    0    0  501    0  0.00000000000E+00  0.00000000000E+00  0.18618734687E+04  0.18618734687E+04  0.25500000920E-02 0. -1.
       -2   -1    0    0    0  501  0.00000000000E+00  0.00000000000E+00 -0.89443620941E+03  0.89443620941E+03  0.25500000920E-02 0.  1.
    10030    2    1    2    0    0  0.00000000000E+00  0.00000000000E+00  0.96743725929E+03  0.27563096781E+04  0.25809510245E+04 0.  0.
        5    1    3    3  502    0 -0.81667770309E+03  0.81761796179E+03 -0.12962253917E+03  0.11628781943E+04  0.46999998093E+01 0.  1.
       -5    1    3    3    0  502  0.81667770309E+03 -0.81761796179E+03  0.10970597985E+04  0.15934314838E+04  0.46999998093E+01 0. -1.
</event>
<event>
 5   0  0.1681731E-05  0.2592290E+04  0.7818609E-02  0.8370825E-01
        2   -1    0    0  501    0  0.00000000000E+00  0.00000000000E+00  0.14724889902E+04  0.14724889902E+04  0.25500000920E-02 0.  1.
       -2   -1    0    0    0  501  0.00000000000E+00  0.00000000000E+00 -0.11409196478E+04  0.11409196478E+04  0.25500000920E-02 0. -1.
    10030    2    1    2    0    0  0.00000000000E+00  0.00000000000E+00  0.33156934241E+03  0.26134086380E+04  0.25922898141E+04 0.  0.
        2    1    3    3  502    0 -0.89026792037E+03  0.28702525621E+03  0.10703295354E+04  0.14214660679E+04  0.25500000920E-02 0.  1.
       -2    1    3    3    0  502  0.89026792037E+03 -0.28702525621E+03 -0.73876019298E+03  0.11919425701E+04  0.25500000920E-02 0. -1.
</event>
<event>
 5   0  0.1720129E-05  0.2607340E+04  0.7818609E-02  0.8365712E-01
       -2   -1    0    0    0  501  0.00000000000E+00  0.00000000000E+00  0.10252070865E+04  0.10252070865E+04  0.25500000920E-02 0. -1.
        2   -1    0    0  501    0  0.00000000000E+00  0.00000000000E+00 -0.16577682123E+04  0.16577682123E+04  0.25500000920E-02 0.  1.
    10030    2    1    2    0    0  0.00000000000E+00  0.00000000000E+00 -0.63256112577E+03  0.26829752988E+04  0.26073401919E+04 0.  0.
        3    1    3    3  502    0  0.11962620697E+04 -0.13942705670E+03 -0.82982991226E+03  0.14625664214E+04  0.10100000352E+00 0.  1.
       -3    1    3    3    0  502 -0.11962620697E+04  0.13942705670E+03  0.19726878649E+03  0.12204088774E+04  0.10100000352E+00 0. -1.
</event>
<event>
 5   0  0.1681731E-05  0.2578329E+04  0.7818609E-02  0.8375600E-01
        2   -1    0    0  501    0  0.00000000000E+00  0.00000000000E+00  0.15154056218E+04  0.15154056218E+04  0.25500000920E-02 0. -1.
       -2   -1    0    0    0  501  0.00000000000E+00  0.00000000000E+00 -0.10966997143E+04  0.10966997143E+04  0.25500000920E-02 0.  1.
    10030    2    1    2    0    0  0.00000000000E+00  0.00000000000E+00  0.41870590748E+03  0.26121053362E+04  0.25783288484E+04 0.  0.
        2    1    3    3  502    0 -0.10267808807E+04  0.77865249052E+03  0.24679978100E+03  0.13120551855E+04  0.25500000920E-02 0.  1.
       -2    1    3    3    0  502  0.10267808807E+04 -0.77865249052E+03  0.17190612648E+03  0.13000501507E+04  0.25500000920E-02 0. -1.
</event>
<event>
 5   0  0.1720129E-05  0.2616632E+04  0.7818609E-02  0.8362574E-01
       -2   -1    0    0    0  501  0.00000000000E+00  0.00000000000E+00  0.75150676801E+03  0.75150676801E+03  0.25500000920E-02 0. -1.
        2   -1    0    0  501    0  0.00000000000E+00  0.00000000000E+00 -0.22776786633E+04  0.22776786633E+04  0.25500000920E-02 0.  1.
    10030    2    1    2    0    0  0.00000000000E+00  0.00000000000E+00 -0.15261718953E+04  0.30291854313E+04  0.26166321338E+04 0.  0.
        3    1    3    3  502    0  0.84452756135E+03  0.68081030892E+03 -0.16098149380E+04  0.19411938655E+04  0.10100000352E+00 0.  1.
       -3    1    3    3    0  502 -0.84452756135E+03 -0.68081030892E+03  0.83643042661E+02  0.10879915659E+04  0.10100000352E+00 0. -1.
</event>
<event>
 5   0  0.1720129E-05  0.2588211E+04  0.7818609E-02  0.8372217E-01
       -2   -1    0    0    0  501  0.00000000000E+00  0.00000000000E+00  0.12975804967E+04  0.12975804967E+04  0.25500000920E-02 0.  1.
        2   -1    0    0  501    0  0.00000000000E+00  0.00000000000E+00 -0.12906402991E+04  0.12906402991E+04  0.25500000920E-02 0. -1.
    10030    2    1    2    0    0  0.00000000000E+00  0.00000000000E+00  0.69401976451E+01  0.25882207958E+04  0.25882114909E+04 0.  0.
        3    1    3    3  502    0  0.26776295270E+02 -0.70462536074E+03  0.10885987860E+04  0.12970201217E+04  0.10100000352E+00 0.  1.
       -3    1    3    3    0  502 -0.26776295270E+02  0.70462536074E+03 -0.10816585884E+04  0.12912006742E+04  0.10100000352E+00 0. -1.
</event>
<event>
 5   0  0.1677971E-05  0.2611100E+04  0.7818609E-02  0.8364441E-01
        2   -1    0    0  501    0  0.00000000000E+00  0.00000000000E+00  0.14051026817E+04  0.14051026817E+04  0.25500000920E-02 0. -1.
       -2   -1    0    0    0  501  0.00000000000E+00  0.00000000000E+00 -0.12130503948E+04  0.12130503948E+04  0.25500000920E-02 0.  1.
    10030    2    1    2    0    0  0.00000000000E+00  0.00000000000E+00  0.19205228691E+03  0.26181530764E+04  0.26110996631E+04 0.  0.
        4    1    3    3  502    0 -0.11432223849E+04 -0.35035951373E+03 -0.42955535998E+03  0.12705229752E+04  0.12699999809E+01 0.  1.
       -4    1    3    3    0  502  0.11432223849E+04  0.35035951373E+03  0.62160764689E+03  0.13476301013E+04  0.12699999809E+01 0. -1.
</event>
<event>
 5   0  0.6706225E-06  0.2487939E+04  0.7818609E-02  0.8407295E-01
       -1   -1    0    0    0  501  0.00000000000E+00  0.00000000000E+00  0.73443430828E+03  0.73443430829E+03  0.50400001928E-02 0.  1.
        1   -1    0    0  501    0  0.00000000000E+00  0.00000000000E+00 -0.21070091343E+04  0.21070091343E+04  0.50400001928E-02 0. -1.
    10030    2    1    2    0    0  0.00000000000E+00  0.00000000000E+00 -0.13725748260E+04  0.28414434426E+04  0.24879387421E+04 0.  0.
        5    1    3    3  502    0 -0.12093126806E+04 -0.95929016605E+02 -0.37185399640E+03  0.12688329363E+04  0.46999998093E+01 0.  1.
       -5    1    3    3    0  502  0.12093126806E+04  0.95929016605E+02 -0.10007208296E+04  0.15726105063E+04  0.46999998093E+01 0. -1.
</event>
<event>
 5   0  0.7138294E-06  0.2624154E+04  0.7818609E-02  0.8360043E-01
       -1   -1    0    0    0  501  0.00000000000E+00  0.00000000000E+00  0.87545283876E+03  0.87545283877E+03  0.50400001928E-02 0. -1.
        1   -1    0    0  501    0  0.00000000000E+00  0.00000000000E+00 -0.19664634800E+04  0.19664634800E+04  0.50400001928E-02 0.  1.
    10030    2    1    2    0    0  0.00000000000E+00  0.00000000000E+00 -0.10910106413E+04  0.28419163188E+04  0.26241539863E+04 0.  0.
        2    1    3    3  502    0  0.12710479502E+04 -0.28332165227E+03 -0.71916131467E+03  0.14876246324E+04  0.25500000920E-02 0.  1.
       -2    1    3    3    0  502 -0.12710479502E+04  0.28332165227E+03 -0.37184932660E+03  0.13542916864E+04  0.25500000920E-02 0. -1.
</event>
<event>
 5   0  0.7138294E-06  0.2354703E+04  0.7818609E-02  0.8456660E-01
       -1   -1    0    0    0  501  0.00000000000E+00  0.00000000000E+00  0.77156798154E+03  0.77156798156E+03  0.50400001928E-02 0.  1.
        1   -1    0    0  501    0  0.00000000000E+00  0.00000000000E+00 -0.17965443606E+04  0.17965443606E+04  0.50400001928E-02 0. -1.
    10030    2    1    2    0    0  0.00000000000E+00  0.00000000000E+00 -0.10249763791E+04  0.25681123422E+04  0.23547026191E+04 0.  0.
        2    1    3    3  502    0  0.49501307463E+03  0.86255505715E+03 -0.11997736482E+04  0.15583632367E+04  0.25500000920E-02 0. -1.
       -2    1    3    3    0  502 -0.49501307463E+03 -0.86255505715E+03  0.17479726913E+03  0.10097491055E+04  0.25500000920E-02 0.  1.
</event>
<event>
 5   0  0.6984287E-06  0.2477730E+04  0.7818609E-02  0.8410963E-01
        1   -1    0    0  501    0  0.00000000000E+00  0.00000000000E+00  0.10421092695E+04  0.10421092695E+04  0.50400001928E-02 0. -1.
       -1   -1    0    0    0  501  0.00000000000E+00  0.00000000000E+00 -0.14727691642E+04  0.14727691642E+04  0.50400001928E-02 0.  1.
    10030    2    1    2    0    0  0.00000000000E+00  0.00000000000E+00 -0.43065989468E+03  0.25148784337E+04  0.24777299270E+04 0.  0.
        3    1    3    3  502    0 -0.58104793894E+03  0.39667427965E+03 -0.12503337502E+04  0.14346782526E+04  0.10100000352E+00 0.  1.
       -3    1    3    3    0  502  0.58104793894E+03 -0.39667427965E+03  0.81967385553E+03  0.10802001810E+04  0.10100000352E+00 0. -1.
</event>
<event>
 5   0  0.1702345E-05  0.2622429E+04  0.7818609E-02  0.8360622E-01
        2   -1    0    0  501    0  0.00000000000E+00  0.00000000000E+00  0.22580400475E+04  0.22580400475E+04  0.25500000920E-02 0. -1.
       -2   -1    0    0    0  501  0.00000000000E+00  0.00000000000E+00 -0.76140533811E+03  0.76140533811E+03  0.25500000920E-02 0.  1.
    10030    2    1    2    0    0  0.00000000000E+00  0.00000000000E+00  0.14966347094E+04  0.30194453856E+04  0.26224292142E+04 0.  0.
        1    1    3    3  502    0  0.16167126046E+03 -0.12875504071E+04  0.53180626929E+03  0.14024056316E+04  0.50400001928E-02 0.  1.
       -1    1    3    3    0  502 -0.16167126046E+03  0.12875504071E+04  0.96482844013E+03  0.16170397541E+04  0.50400001928E-02 0. -1.
</event>
<event>
 5   0  0.6984287E-06  0.2591385E+04  0.7818609E-02  0.8371133E-01
        1   -1    0    0  501    0  0.00000000000E+00  0.00000000000E+00  0.11700123390E+04  0.11700123390E+04  0.50400001928E-02 0. -1.
       -1   -1    0    0    0  501  0.00000000000E+00  0.00000000000E+00 -0.14348727759E+04  0.14348727759E+04  0.50400001928E-02 0.  1.
    10030    2    1    2    0    0  0.00000000000E+00  0.00000000000E+00 -0.26486043692E+03  0.26048851150E+04  0.25913848443E+04 0.  0.
        3    1    3    3  502    0  0.59706851158E+03 -0.11485750366E+04 -0.76431646045E+02  0.12967487147E+04  0.10100000352E+00 0.  1.
       -3    1    3    3    0  502 -0.59706851158E+03  0.11485750366E+04 -0.18842879087E+03  0.13081364003E+04  0.10100000352E+00 0. -1.
</event>
<event>
 5   0  0.1720129E-05  0.2633705E+04  0.7818609E-02  0.8356842E-01
        2   -1    0    0  501    0  0.00000000000E+00  0.00000000000E+00  0.18641757216E+04  0.18641757216E+04  0.25500000920E-02 0.  1.
       -2   -1    0    0    0  501  0.00000000000E+00  0.00000000000E+00 -0.93022377570E+03  0.93022377571E+03  0.25500000920E-02 0. -1.
    10030    2    1    2    0    0  0.00000000000E+00  0.00000000000E+00  0.93395194586E+03  0.27943994973E+04  0.26337050543E+04 0.  0.
        3    1    3    3  502    0  0.10580228369E+04 -0.78337532873E+03  0.43323405657E+03  0.13859224318E+04  0.10100000352E+00 0.  1.
       -3    1    3    3    0  502 -0.10580228369E+04  0.78337532873E+03  0.50071788929E+03  0.14084770655E+04  0.10100000352E+00 0. -1.
</event>
<event>
 5   0  0.6993678E-06  0.2607261E+04  0.7818609E-02  0.8365739E-01
        1   -1    0    0  501    0  0.00000000000E+00  0.00000000000E+00  0.16686321978E+04  0.16686321978E+04  0.50400001928E-02 0. -1.
       -1   -1    0    0    0  501  0.00000000000E+00  0.00000000000E+00 -0.10184701628E+04  0.10184701628E+04  0.50400001928E-02 0.  1.
    10030    2    1    2    0    0  0.00000000000E+00  0.00000000000E+00  0.65016203501E+03  0.26871023606E+04  0.26072607129E+04 0.  0.
        1    1    3    3  502    0  0.65564740565E+03  0.13281971926E+03  0.14782450161E+04  0.16225667709E+04  0.50400001928E-02 0. -1.
       -1    1    3    3    0  502 -0.65564740565E+03 -0.13281971926E+03 -0.82808298105E+03  0.10645355898E+04  0.50400001928E-02 0.  1.
</event>
<event>
 5   0  0.1677971E-05  0.2577479E+04  0.7818609E-02  0.8375892E-01
       -2   -1    0    0    0  501  0.00000000000E+00  0.00000000000E+00  0.14600692533E+04  0.14600692533E+04  0.25500000920E-02 0.  1.
        2   -1    0    0  501    0  0.00000000000E+00  0.00000000000E+00 -0.11375138052E+04  0.11375138052E+04  0.25500000920E-02 0. -1.
    10030    2    1    2    0    0  0.00000000000E+00  0.00000000000E+00  0.32255544812E+03  0.25975830584E+04  0.25774785602E+04 0.  0.
        4    1    3    3  502    0  0.12790727359E+04 -0.73349606956E+02  0.20762453500E+02  0.12813430146E+04  0.12699999809E+01 0. -1.
       -4    1    3    3    0  502 -0.12790727359E+04  0.73349606956E+02  0.30179299462E+03  0.13162400439E+04  0.12699999809E+01 0.  1.
</event>
<event>
 5   0  0.1677971E-05  0.2601607E+04  0.7818609E-02  0.8367656E-01
        2   -1    0    0  501    0  0.00000000000E+00  0.00000000000E+00  0.29010527381E+04  0.29010527381E+04  0.25500000920E-02 0.  1.
       -2   -1    0    0    0  501  0.00000000000E+00  0.00000000000E+00 -0.58326738709E+03  0.58326738709E+03  0.25500000920E-02 0. -1.
    10030    2    1    2    0    0  0.00000000000E+00  0.00000000000E+00  0.23177853510E+04  0.34843201252E+04  0.26016067730E+04 0.  0.
        4    1    3    3  502    0  0.42266780080E+03  0.22524264368E+03 -0.46088289584E+03  0.66467809874E+03  0.12699999809E+01 0. -1.
       -4    1    3    3    0  502 -0.42266780080E+03 -0.22524264368E+03  0.27786682469E+04  0.28196420265E+04  0.12699999809E+01 0.  1.
</event>
<event>
 5   0  0.6706225E-06  0.2621091E+04  0.7818609E-02  0.8361072E-01
        1   -1    0    0  501    0  0.00000000000E+00  0.00000000000E+00  0.14013624495E+04  0.14013624495E+04  0.50400001928E-02 0. -1.
       -1   -1    0    0    0  501  0.00000000000E+00  0.00000000000E+00 -0.12256144404E+04  0.12256144404E+04  0.50400001928E-02 0.  1.
    10030    2    1    2    0    0  0.00000000000E+00  0.00000000000E+00  0.17574800915E+03  0.26269768899E+04  0.26210914172E+04 0.  0.
        5    1    3    3  502    0  0.18034755063E+03 -0.97704257660E+03  0.94441016875E+03  0.13707917757E+04  0.46999998093E+01 0. -1.
       -5    1    3    3    0  502 -0.18034755063E+03  0.97704257660E+03 -0.76866215961E+03  0.12561851142E+04  0.46999998093E+01 0.  1.
</event>
<event>
 5   0  0.6984287E-06  0.2473563E+04  0.7818609E-02  0.8412465E-01
       -1   -1    0    0    0  501  0.00000000000E+00  0.00000000000E+00  0.14622796515E+04  0.14622796515E+04  0.50400001928E-02 0.  1.
        1   -1    0    0  501    0  0.00000000000E+00  0.00000000000E+00 -0.10460576399E+04  0.10460576399E+04  0.50400001928E-02 0. -1.
    10030    2    1    2    0    0  0.00000000000E+00  0.00000000000E+00  0.41622201156E+03  0.25083372914E+04  0.24735632607E+04 0.  0.
        3    1    3    3  502    0 -0.72090490145E+03 -0.90947725807E+02 -0.80678525697E+03  0.10857614042E+04  0.10100000352E+00 0. -1.
       -3    1    3    3    0  502  0.72090490145E+03  0.90947725807E+02  0.12230072685E+04  0.14225758872E+04  0.10100000352E+00 0.  1.
</event>
<event>
 5   0  0.7138294E-06  0.2614914E+04  0.7818609E-02  0.8363153E-01
       -1   -1    0    0    0  501  0.00000000000E+00  0.00000000000E+00  0.11705503926E+04  0.11705503926E+04  0.50400001928E-02 0.  1.
        1   -1    0    0  501    0  0.00000000000E+00  0.00000000000E+00 -0.14603759533E+04  0.14603759533E+04  0.50400001928E-02 0. -1.
    10030    2    1    2    0    0  0.00000000000E+00  0.00000000000E+00 -0.28982556073E+03  0.26309263459E+04  0.26149138766E+04 0.  0.
        2    1    3    3  502    0  0.56661908752E+03 -0.21420659617E+03  0.10208461986E+04  0.11870419611E+04  0.25500000920E-02 0.  1.
       -2    1    3    3    0  502 -0.56661908752E+03  0.21420659617E+03 -0.13106717593E+04  0.14438843849E+04  0.25500000920E-02 0. -1.
</event>
<event>
 5   0  0.1677971E-05  0.2613015E+04  0.7818609E-02  0.8363794E-01
        2   -1    0    0  501    0  0.00000000000E+00  0.00000000000E+00  0.16631775831E+04  0.16631775831E+04  0.25500000920E-02 0.  1.
       -2   -1    0    0    0  501  0.00000000000E+00  0.00000000000E+00 -0.10263257065E+04  0.10263257065E+04  0.25500000920E-02 0. -1.
    10030    2    1    2    0    0  0.00000000000E+00  0.00000000000E+00  0.63685187660E+03  0.26895032895E+04  0.26130150462E+04 0.  0.
        4    1    3    3  502    0 -0.12481197867E+04  0.88732198494E+02 -0.68454250776E+02  0.12531416529E+04  0.12699999809E+01 0. -1.
       -4    1    3    3    0  502  0.12481197867E+04 -0.88732198494E+02  0.70530612738E+03  0.14363616366E+04  0.12699999809E+01 0.  1.
</event>
<event>
 5   0  0.6984287E-06  0.2640805E+04  0.7818609E-02  0.8354471E-01
       -1   -1    0    0    0  501  0.00000000000E+00  0.00000000000E+00  0.69858095883E+03  0.69858095885E+03  0.50400001928E-02 0.  1.
        1   -1    0    0  501    0  0.00000000000E+00  0.00000000000E+00 -0.24957211632E+04  0.24957211632E+04  0.50400001928E-02 0. -1.
    10030    2    1    2    0    0  0.00000000000E+00  0.00000000000E+00 -0.17971402044E+04  0.31943021220E+04  0.26408053947E+04 0.  0.
        3    1    3    3  502    0 -0.10349061895E+04 -0.56934629497E+03 -0.18472802503E+03  0.11955377360E+04  0.10100000352E+00 0.  1.
       -3    1    3    3    0  502  0.10349061895E+04  0.56934629497E+03 -0.16124121793E+04  0.19987643861E+04  0.10100000352E+00 0. -1.
</event>
<event>
 5   0  0.1681731E-05  0.2612172E+04  0.7818609E-02  0.8364078E-01
       -2   -1    0    0    0  501  0.00000000000E+00  0.00000000000E+00  0.10422832034E+04  0.10422832034E+04  0.25500000920E-02 0.  1.
        2   -1    0    0  501    0  0.00000000000E+00  0.00000000000E+00 -0.16366571392E+04  0.16366571392E+04  0.25500000920E-02 0. -1.
    10030    2    1    2    0    0  0.00000000000E+00  0.00000000000E+00 -0.59437393576E+03  0.26789403426E+04  0.26121716987E+04 0.  0.
        2    1    3    3  502    0  0.50190300851E+03  0.56273651086E+03  0.79650559603E+03  0.10968136465E+04  0.25500000920E-02 0.  1.
       -2    1    3    3    0  502 -0.50190300851E+03 -0.56273651086E+03 -0.13908795318E+04  0.15821266961E+04  0.25500000920E-02 0. -1.
</event>
<event>
 5   0  0.1677971E-05  0.2596769E+04  0.7818609E-02  0.8369300E-01
        2   -1    0    0  501    0  0.00000000000E+00  0.00000000000E+00  0.17777574515E+04  0.17777574515E+04  0.25500000920E-02 0. -1.
       -2   -1    0    0    0  501  0.00000000000E+00  0.00000000000E+00 -0.94827436056E+03  0.94827436056E+03  0.25500000920E-02 0.  1.
    10030    2    1    2    0    0  0.00000000000E+00  0.00000000000E+00  0.82948309092E+03  0.27260318120E+04  0.25967686154E+04 0.  0.
        4    1    3    3  502    0 -0.35078734200E+03 -0.99392463290E+03 -0.38119705278E+03  0.11208259192E+04  0.12699999809E+01 0.  1.
       -4    1    3    3    0  502  0.35078734200E+03  0.99392463290E+03  0.12106801437E+04  0.16052058928E+04  0.12699999809E+01 0. -1.
</event>
<event>
 5   0  0.6706225E-06  0.2620366E+04  0.7818609E-02  0.8361316E-01
       -1   -1    0    0    0  501  0.00000000000E+00  0.00000000000E+00  0.14901286063E+04  0.14901286063E+04  0.50400001928E-02 0. -1.
        1   -1    0    0  501    0  0.00000000000E+00  0.00000000000E+00 -0.11519669558E+04  0.11519669558E+04  0.50400001928E-02 0.  1.
    10030    2    1    2    0    0  0.00000000000E+00  0.00000000000E+00  0.33816165046E+03  0.26420955621E+04  0.26203655579E+04 0.  0.
        5    1    3    3  502    0 -0.11465069118E+03  0.13050128144E+04  0.18804095715E+03  0.13234744872E+04  0.46999998093E+01 0. -1.
       -5    1    3    3    0  502  0.11465069118E+03 -0.13050128144E+04  0.15012069332E+03  0.13186210749E+04  0.46999998093E+01 0.  1.
</event>
<event>
 5   0  0.7138294E-06  0.2588130E+04  0.7818609E-02  0.8372244E-01
        1   -1    0    0  501    0  0.00000000000E+00  0.00000000000E+00  0.11904777921E+04  0.11904777921E+04  0.50400001928E-02 0.  1.
       -1   -1    0    0    0  501  0.00000000000E+00  0.00000000000E+00 -0.14066654934E+04  0.14066654934E+04  0.50400001928E-02 0. -1.
    10030    2    1    2    0    0  0.00000000000E+00  0.00000000000E+00 -0.21618770133E+03  0.25971432855E+04  0.25881298505E+04 0.  0.
        2    1    3    3  502    0  0.50642058899E+03 -0.96498525421E+03 -0.80833899500E+03  0.13568604514E+04  0.25500000920E-02 0. -1.
       -2    1    3    3    0  502 -0.50642058899E+03  0.96498525421E+03  0.59215129367E+03  0.12402828340E+04  0.25500000920E-02 0.  1.
</event>
<event>
 5   0  0.1681731E-05  0.2454706E+04  0.7818609E-02  0.8419302E-01
        2   -1    0    0  501    0  0.00000000000E+00  0.00000000000E+00  0.16778515686E+04  0.16778515686E+04  0.25500000920E-02 0.  1.
       -2   -1    0    0    0  501  0.00000000000E+00  0.00000000000E+00 -0.89781212619E+03  0.89781212620E+03  0.25500000920E-02 0. -1.
    10030    2    1    2    0    0  0.00000000000E+00  0.00000000000E+00  0.78003944243E+03  0.25756636948E+04  0.24547060796E+04 0.  0.
        2    1    3    3  502    0 -0.37856507033E+03 -0.84788163676E+03 -0.45213815230E+03  0.10327844360E+04  0.25500000920E-02 0. -1.
       -2    1    3    3    0  502  0.37856507033E+03  0.84788163676E+03  0.12321775947E+04  0.15428792588E+04  0.25500000920E-02 0.  1.
</event>
<event>
 5   0  0.1720129E-05  0.2587931E+04  0.7818609E-02  0.8372312E-01
        2   -1    0    0  501    0  0.00000000000E+00  0.00000000000E+00  0.11507403869E+04  0.11507403869E+04  0.25500000920E-02 0.  1.
       -2   -1    0    0    0  501  0.00000000000E+00  0.00000000000E+00 -0.14550165884E+04  0.14550165884E+04  0.25500000920E-02 0. -1.
    10030    2    1    2    0    0  0.00000000000E+00  0.00000000000E+00 -0.30427620150E+03  0.26057569753E+04  0.25879307192E+04 0.  0.
        3    1    3    3  502    0 -0.57276679690E+03 -0.11337138921E+04 -0.40077497242E+03  0.13319120021E+04  0.10100000352E+00 0.  1.
       -3    1    3    3    0  502  0.57276679690E+03  0.11337138921E+04  0.96498770917E+02  0.12738449732E+04  0.10100000352E+00 0. -1.
</event>
<event>
 5   0  0.1869956E-05  0.2619498E+04  0.7818609E-02  0.8361608E-01
        2   -1    0    0  501    0  0.00000000000E+00  0.00000000000E+00  0.14839498893E+04  0.14839498894E+04  0.25500000920E-02 0.  1.
       -2   -1    0    0    0  501  0.00000000000E+00  0.00000000000E+00 -0.11559971874E+04  0.11559971874E+04  0.25500000920E-02 0. -1.
    10030    2    1    2    0    0  0.00000000000E+00  0.00000000000E+00  0.32795270198E+03  0.26399470767E+04  0.26194975841E+04 0.  0.
        5    1    3    3  502    0 -0.46516871009E+03 -0.47659779140E+03  0.13005626295E+04  0.14611682405E+04  0.46999998093E+01 0.  1.
       -5    1    3    3    0  502  0.46516871009E+03  0.47659779140E+03 -0.97260992755E+03  0.11787788362E+04  0.46999998093E+01 0. -1.
</event>
<event>
 5   0  0.7138294E-06  0.2605318E+04  0.7818609E-02  0.8366397E-01
       -1   -1    0    0    0  501  0.00000000000E+00  0.00000000000E+00  0.13583750979E+04  0.13583750979E+04  0.50400001928E-02 0. -1.
        1   -1    0    0  501    0  0.00000000000E+00  0.00000000000E+00 -0.12492282636E+04  0.12492282636E+04  0.50400001928E-02 0.  1.
    10030    2    1    2    0    0  0.00000000000E+00  0.00000000000E+00  0.10914683422E+03  0.26076033615E+04  0.26053180726E+04 0.  0.
        2    1    3    3  502    0 -0.40867532097E+03 -0.12039922324E+04  0.33820821579E+03  0.13156738239E+04  0.25500000920E-02 0.  1.
       -2    1    3    3    0  502  0.40867532097E+03  0.12039922324E+04 -0.22906138157E+03  0.12919295376E+04  0.25500000920E-02 0. -1.
</event>
<event>
 5   0  0.1681731E-05  0.2509045E+04  0.7818609E-02  0.8399770E-01
       -2   -1    0    0    0  501  0.00000000000E+00  0.00000000000E+00  0.11204913576E+04  0.11204913576E+04  0.25500000920E-02 0.  1.
        2   -1    0    0  501    0  0.00000000000E+00  0.00000000000E+00 -0.14045861278E+04  0.14045861278E+04  0.25500000920E-02 0. -1.
    10030    2    1    2    0    0  0.00000000000E+00  0.00000000000E+00 -0.28409477029E+03  0.25250774854E+04  0.25090449316E+04 0.  0.
        2    1    3    3  502    0  0.10970192100E+04 -0.54857518665E+03 -0.40724732690E+03  0.12923762099E+04  0.25500000920E-02 0. -1.
       -2    1    3    3    0  502 -0.10970192100E+04  0.54857518665E+03  0.12315255661E+03  0.12327012755E+04  0.25500000920E-02 0.  1.
</event>
<event>
 5   0  0.7138294E-06  0.2599533E+04  0.7818609E-02  0.8368360E-01
        1   -1    0    0  501    0  0.00000000000E+00  0.00000000000E+00  0.14983610512E+04  0.14983610512E+04  0.50400001928E-02 0. -1.
       -1   -1    0    0    0  501  0.00000000000E+00  0.00000000000E+00 -0.11274940919E+04  0.11274940919E+04  0.50400001928E-02 0.  1.
    10030    2    1    2    0    0  0.00000000000E+00  0.00000000000E+00  0.37086695923E+03  0.26258551431E+04  0.25995332141E+04 0.  0.
        2    1    3    3  502    0 -0.19970865691E+02  0.12730909228E+04 -0.78427693858E+02  0.12756607058E+04  0.25500000920E-02 0. -1.
       -2    1    3    3    0  502  0.19970865691E+02 -0.12730909228E+04  0.44929465309E+03  0.13501944373E+04  0.25500000920E-02 0.  1.
</event>
<event>
 5   0  0.1869956E-05  0.2607078E+04  0.7818609E-02  0.8365801E-01
       -2   -1    0    0    0  501  0.00000000000E+00  0.00000000000E+00  0.13395528667E+04  0.13395528667E+04  0.25500000920E-02 0. -1.
        2   -1    0    0  501    0  0.00000000000E+00  0.00000000000E+00 -0.12684935291E+04  0.12684935291E+04  0.25500000920E-02 0.  1.
    10030    2    1    2    0    0  0.00000000000E+00  0.00000000000E+00  0.71059337551E+02  0.26080463958E+04  0.26070781678E+04 0.  0.
        5    1    3    3  502    0 -0.14580719502E+03 -0.82260752433E+03 -0.96546634054E+03  0.12767498666E+04  0.46999998093E+01 0.  1.
       -5    1    3    3    0  502  0.14580719502E+03  0.82260752433E+03  0.10365256781E+04  0.13312965292E+04  0.46999998093E+01 0. -1.
</event>
<event>
 5   0  0.6993678E-06  0.2599288E+04  0.7818609E-02  0.8368443E-01
       -1   -1    0    0    0  501  0.00000000000E+00  0.00000000000E+00  0.87788337144E+03  0.87788337145E+03  0.50400001928E-02 0. -1.
        1   -1    0    0  501    0  0.00000000000E+00  0.00000000000E+00 -0.19240306478E+04  0.19240306478E+04  0.50400001928E-02 0.  1.
    10030    2    1    2    0    0  0.00000000000E+00  0.00000000000E+00 -0.10461472764E+04  0.28019140192E+04  0.25992879886E+04 0.  0.
        1    1    3    3  502    0 -0.10581524755E+04  0.20816241720E+03  0.25876386743E+03  0.11090432780E+04  0.50400001928E-02 0. -1.
       -1    1    3    3    0  502  0.10581524755E+04 -0.20816241720E+03 -0.13049111438E+04  0.16928707412E+04  0.50400001928E-02 0.  1.
</event>
<event>
 5   0  0.6918420E-06  0.2568478E+04  0.7818609E-02  0.8378988E-01
        1   -1    0    0  501    0  0.00000000000E+00  0.00000000000E+00  0.18284341103E+04  0.18284341104E+04  0.50400001928E-02 0. -1.
       -1   -1    0    0    0  501  0.00000000000E+00  0.00000000000E+00 -0.90201224942E+03  0.90201224943E+03  0.50400001928E-02 0.  1.
    10030    2    1    2    0    0  0.00000000000E+00  0.00000000000E+00  0.92642186093E+03  0.27304463598E+04  0.25684781212E+04 0.  0.
        4    1    3    3  502    0  0.11618348472E+04 -0.51218247935E+03  0.66790795148E+03  0.14346754855E+04  0.12699999809E+01 0.  1.
       -4    1    3    3    0  502 -0.11618348472E+04  0.51218247935E+03  0.25851390944E+03  0.12957708742E+04  0.12699999809E+01 0. -1.
</event>
<event>
 5   0  0.6993678E-06  0.2704609E+04  0.7818609E-02  0.8333511E-01
       -1   -1    0    0    0  501  0.00000000000E+00  0.00000000000E+00  0.14318551333E+04  0.14318551333E+04  0.50400001928E-02 0.  1.
        1   -1    0    0  501    0  0.00000000000E+00  0.00000000000E+00 -0.12771732337E+04  0.12771732337E+04  0.50400001928E-02 0. -1.
    10030    2    1    2    0    0  0.00000000000E+00  0.00000000000E+00  0.15468189963E+03  0.27090283670E+04  0.27046086969E+04 0.  0.
        1    1    3    3  502    0 -0.83531263483E+02 -0.66397247425E+03  0.12543740485E+04  0.14217212005E+04  0.50400001928E-02 0.  1.
       -1    1    3    3    0  502  0.83531263483E+02  0.66397247425E+03 -0.10996921489E+04  0.12873071665E+04  0.50400001928E-02 0. -1.
</event>
<event>
 5   0  0.1869956E-05  0.2612010E+04  0.7818609E-02  0.8364133E-01
       -2   -1    0    0    0  501  0.00000000000E+00  0.00000000000E+00  0.11209095436E+04  0.11209095436E+04  0.25500000920E-02 0. -1.
        2   -1    0    0  501    0  0.00000000000E+00  0.00000000000E+00 -0.15216650067E+04  0.15216650067E+04  0.25500000920E-02 0.  1.
    10030    2    1    2    0    0  0.00000000000E+00  0.00000000000E+00 -0.40075546307E+03  0.26425745503E+04  0.26120098225E+04 0.  0.
        5    1    3    3  502    0  0.93624133645E+03  0.17166931298E+03  0.70429428255E+03  0.11840906720E+04  0.46999998093E+01 0. -1.
       -5    1    3    3    0  502 -0.93624133645E+03 -0.17166931298E+03 -0.11050497456E+04  0.14584838783E+04  0.46999998093E+01 0.  1.
</event>
<event>
 5   0  0.6706225E-06  0.2601800E+04  0.7818609E-02  0.8367590E-01
        1   -1    0    0  501    0  0.00000000000E+00  0.00000000000E+00  0.11664182411E+04  0.11664182411E+04  0.50400001928E-02 0. -1.
       -1   -1    0    0    0  501  0.00000000000E+00  0.00000000000E+00 -0.14508865445E+04  0.14508865445E+04  0.50400001928E-02 0.  1.
    10030    2    1    2    0    0  0.00000000000E+00  0.00000000000E+00 -0.28446830338E+03  0.26173047855E+04  0.26017997857E+04 0.  0.
        5    1    3    3  502    0  0.67038626359E+03  0.33947651249E+03  0.92600580770E+03  0.11925480665E+04  0.46999998093E+01 0. -1.
       -5    1    3    3    0  502 -0.67038626359E+03 -0.33947651249E+03 -0.12104741111E+04  0.14247567191E+04  0.46999998093E+01 0.  1.
</event>
<event>
 5   0  0.6984287E-06  0.2608759E+04  0.7818609E-02  0.8365232E-01
        1   -1    0    0  501    0  0.00000000000E+00  0.00000000000E+00  0.20212772263E+04  0.20212772263E+04  0.50400001928E-02 0.  1.
       -1   -1    0    0    0  501  0.00000000000E+00  0.00000000000E+00 -0.84174794431E+03  0.84174794432E+03  0.50400001928E-02 0. -1.
    10030    2    1    2    0    0  0.00000000000E+00  0.00000000000E+00  0.11795292820E+04  0.28630251706E+04  0.26087590538E+04 0.  0.
        3    1    3    3  502    0 -0.73622899320E+03 -0.40206808783E+03  0.16859758628E+04  0.18831374081E+04  0.10100000352E+00 0.  1.
       -3    1    3    3    0  502  0.73622899320E+03  0.40206808783E+03 -0.50644658083E+03  0.97988776250E+03  0.10100000352E+00 0. -1.
</event>
<event>
 5   0  0.1702345E-05  0.2600500E+04  0.7818609E-02  0.8368031E-01
        2   -1    0    0  501    0  0.00000000000E+00  0.00000000000E+00  0.17434950765E+04  0.17434950765E+04  0.25500000920E-02 0.  1.
       -2   -1    0    0    0  501  0.00000000000E+00  0.00000000000E+00 -0.96968992991E+03  0.96968992991E+03  0.25500000920E-02 0. -1.
    10030    2    1    2    0    0  0.00000000000E+00  0.00000000000E+00  0.77380514657E+03  0.27131850064E+04  0.26004996585E+04 0.  0.
        1    1    3    3  502    0  0.22339911186E+03  0.41908658857E+03  0.16497694097E+04  0.17167643511E+04  0.50400001928E-02 0.  1.
       -1    1    3    3    0  502 -0.22339911186E+03 -0.41908658857E+03 -0.87596426317E+03  0.99642065528E+03  0.50400001928E-02 0. -1.
</event>
<event>
 5   0  0.6984287E-06  0.2614923E+04  0.7818609E-02  0.8363150E-01
       -1   -1    0    0    0  501  0.00000000000E+00  0.00000000000E+00  0.13607210189E+04  0.13607210189E+04  0.50400001928E-02 0.  1.
        1   -1    0    0  501    0  0.00000000000E+00  0.00000000000E+00 -0.12562868237E+04  0.12562868237E+04  0.50400001928E-02 0. -1.
    10030    2    1    2    0    0  0.00000000000E+00  0.00000000000E+00  0.10443419516E+03  0.26170078426E+04  0.26149232393E+04 0.  0.
        3    1    3    3  502    0  0.10675935264E+04  0.75348669501E+03  0.79354743940E+01  0.13067368209E+04  0.10100000352E+00 0.  1.
       -3    1    3    3    0  502 -0.10675935264E+04 -0.75348669501E+03  0.96498720763E+02  0.13102710217E+04  0.10100000352E+00 0. -1.
</event>
<event>
 5   0  0.1720129E-05  0.2544788E+04  0.7818609E-02  0.8387201E-01
        2   -1    0    0  501    0  0.00000000000E+00  0.00000000000E+00  0.79572843121E+03  0.79572843121E+03  0.25500000920E-02 0.  1.
       -2   -1    0    0    0  501  0.00000000000E+00  0.00000000000E+00 -0.20345972820E+04  0.20345972820E+04  0.25500000920E-02 0. -1.
    10030    2    1    2    0    0  0.00000000000E+00  0.00000000000E+00 -0.12388688508E+04  0.28303257132E+04  0.25447883239E+04 0.  0.
        3    1    3    3  502    0  0.10063944122E+04  0.14659699025E+03  0.23099613791E+03  0.10429187966E+04  0.10100000352E+00 0.  1.
       -3    1    3    3    0  502 -0.10063944122E+04 -0.14659699025E+03 -0.14698649887E+04  0.17874069166E+04  0.10100000352E+00 0. -1.
</event>
<event>
 5   0  0.6993678E-06  0.2590812E+04  0.7818609E-02  0.8371329E-01
        1   -1    0    0  501    0  0.00000000000E+00  0.00000000000E+00  0.10324282636E+04  0.10324282636E+04  0.50400001928E-02 0.  1.
       -1   -1    0    0    0  501  0.00000000000E+00  0.00000000000E+00 -0.16253686686E+04  0.16253686686E+04  0.50400001928E-02 0. -1.
    10030    2    1    2    0    0  0.00000000000E+00  0.00000000000E+00 -0.59294040497E+03  0.26577969322E+04  0.25908118822E+04 0.  0.
        1    1    3    3  502    0  0.11676049564E+04  0.55710798007E+03 -0.22837695467E+03  0.13137072235E+04  0.50400001928E-02 0.  1.
       -1    1    3    3    0  502 -0.11676049564E+04 -0.55710798007E+03 -0.36456345031E+03  0.13440897087E+04  0.50400001928E-02 0. -1.
</event>
<event>
 5   0  0.6993678E-06  0.2494017E+04  0.7818609E-02  0.8405120E-01
        1   -1    0    0  501    0  0.00000000000E+00  0.00000000000E+00  0.15347977353E+04  0.15347977353E+04  0.50400001928E-02 0.  1.
       -1   -1    0    0    0  501  0.00000000000E+00  0.00000000000E+00 -0.10131821243E+04  0.10131821243E+04  0.50400001928E-02 0. -1.
    10030    2    1    2    0    0  0.00000000000E+00  0.00000000000E+00  0.52161561098E+03  0.25479798595E+04  0.24940165434E+04 0.  0.
        1    1    3    3  502    0  0.10685261141E+04 -0.56084953580E+03 -0.60203144483E+02  0.12082734281E+04  0.50400001928E-02 0. -1.
       -1    1    3    3    0  502 -0.10685261141E+04  0.56084953580E+03  0.58181875547E+03  0.13397064315E+04  0.50400001928E-02 0.  1.
</event>
<event>
 5   0  0.1702345E-05  0.2604057E+04  0.7818609E-02  0.8366824E-01
       -2   -1    0    0    0  501  0.00000000000E+00  0.00000000000E+00  0.12204989999E+04  0.12204989999E+04  0.25500000920E-02 0.  1.
        2   -1    0    0  501    0  0.00000000000E+00  0.00000000000E+00 -0.13890041380E+04  0.13890041380E+04  0.25500000920E-02 0. -1.
    10030    2    1    2    0    0  0.00000000000E+00  0.00000000000E+00 -0.16850513809E+03  0.26095031380E+04  0.26040569589E+04 0.  0.
        1    1    3    3  502    0 -0.44814580520E+03  0.88327097674E+03  0.76266342883E+03  0.12500631131E+04  0.50400001928E-02 0.  1.
       -1    1    3    3    0  502  0.44814580520E+03 -0.88327097674E+03 -0.93116856692E+03  0.13594400248E+04  0.50400001928E-02 0. -1.
</event>
<event>
 5   0  0.6984287E-06  0.2626031E+04  0.7818609E-02  0.8359412E-01
       -1   -1    0    0    0  501  0.00000000000E+00  0.00000000000E+00  0.12078450366E+04  0.12078450366E+04  0.50400001928E-02 0.  1.
        1   -1    0    0  501    0  0.00000000000E+00  0.00000000000E+00 -0.14273437933E+04  0.14273437933E+04  0.50400001928E-02 0. -1.
    10030    2    1    2    0    0  0.00000000000E+00  0.00000000000E+00 -0.21949875673E+03  0.26351888300E+04  0.26260313146E+04 0.  0.
        3    1    3    3  502    0 -0.27152039285E+03 -0.21331956249E+03 -0.13809666978E+04  0.14234808008E+04  0.10100000352E+00 0. -1.
       -3    1    3    3    0  502  0.27152039285E+03  0.21331956249E+03  0.11614679411E+04  0.12117080292E+04  0.10100000352E+00 0.  1.
</event>
<event>
 5   0  0.6993678E-06  0.2370675E+04  0.7818609E-02  0.8450564E-01
       -1   -1    0    0    0  501  0.00000000000E+00  0.00000000000E+00  0.12668890441E+04  0.12668890442E+04  0.50400001928E-02 0. -1.
        1   -1    0    0  501    0  0.00000000000E+00  0.00000000000E+00 -0.11090360103E+04  0.11090360103E+04  0.50400001928E-02 0.  1.
    10030    2    1    2    0    0  0.00000000000E+00  0.00000000000E+00  0.15785303383E+03  0.23759250545E+04  0.23706754911E+04 0.  0.
        1    1    3    3  502    0 -0.80290647074E+02 -0.11646622751E+04 -0.12681022156E+03  0.11742936751E+04  0.50400001928E-02 0.  1.
       -1    1    3    3    0  502  0.80290647074E+02  0.11646622751E+04  0.28466325538E+03  0.12016313794E+04  0.50400001928E-02 0. -1.
</event>
<event>
 5   0  0.1720129E-05  0.2614988E+04  0.7818609E-02  0.8363128E-01
        2   -1    0    0  501    0  0.00000000000E+00  0.00000000000E+00  0.24054513034E+04  0.24054513034E+04  0.25500000920E-02 0.  1.
       -2   -1    0    0    0  501  0.00000000000E+00  0.00000000000E+00 -0.71069451563E+03  0.71069451563E+03  0.25500000920E-02 0. -1.
    10030    2    1    2    0    0  0.00000000000E+00  0.00000000000E+00  0.16947567878E+04  0.31161458191E+04  0.26149883740E+04 0.  0.
        3    1    3    3  502    0 -0.17905929054E+03  0.41113707871E+03 -0.61618913579E+03  0.76209250638E+03  0.10100000352E+00 0. -1.
       -3    1    3    3    0  502  0.17905929054E+03 -0.41113707871E+03  0.23109459236E+04  0.23540533127E+04  0.10100000352E+00 0.  1.
</event>
<event>
 5   0  0.1869956E-05  0.2634206E+04  0.7818609E-02  0.8356674E-01
       -2   -1    0    0    0  501  0.00000000000E+00  0.00000000000E+00  0.19246393360E+04  0.19246393360E+04  0.25500000920E-02 0. -1.
        2   -1    0    0  501    0  0.00000000000E+00  0.00000000000E+00 -0.90134305167E+03  0.90134305167E+03  0.25500000920E-02 0.  1.
    10030    2    1    2    0    0  0.00000000000E+00  0.00000000000E+00  0.10232962844E+04  0.28259823877E+04  0.26342059847E+04 0.  0.
        5    1    3    3  502    0 -0.12694481266E+03 -0.47280532927E+03 -0.80010373169E+03  0.93800209825E+03  0.46999998093E+01 0.  1.
       -5    1    3    3    0  502  0.12694481266E+03  0.47280532927E+03  0.18234000161E+04  0.18879802895E+04  0.46999998093E+01 0. -1.
</event>
<event>
 5   0  0.1681731E-05  0.2600745E+04  0.7818609E-02  0.8367948E-01
       -2   -1    0    0    0  501  0.00000000000E+00  0.00000000000E+00  0.10319035366E+04  0.10319035366E+04  0.25500000920E-02 0. -1.
        2   -1    0    0  501    0  0.00000000000E+00  0.00000000000E+00 -0.16386889529E+04  0.16386889529E+04  0.25500000920E-02 0.  1.
    10030    2    1    2    0    0  0.00000000000E+00  0.00000000000E+00 -0.60678541638E+03  0.26705924895E+04  0.26007452208E+04 0.  0.
        2    1    3    3  502    0  0.46554240829E+01 -0.91901711993E+03 -0.12480755806E+04  0.15499376745E+04  0.25500000920E-02 0.  1.
       -2    1    3    3    0  502 -0.46554240829E+01  0.91901711993E+03  0.64129016426E+03  0.11206548150E+04  0.25500000920E-02 0. -1.
</event>
<event>
 5   0  0.1681731E-05  0.2618936E+04  0.7818609E-02  0.8361798E-01
       -2   -1    0    0    0  501  0.00000000000E+00  0.00000000000E+00  0.70390670717E+03  0.70390670718E+03  0.25500000920E-02 0. -1.
        2   -1    0    0  501    0  0.00000000000E+00  0.00000000000E+00 -0.24359844995E+04  0.24359844995E+04  0.25500000920E-02 0.  1.
    10030    2    1    2    0    0  0.00000000000E+00  0.00000000000E+00 -0.17320777923E+04  0.31398912067E+04  0.26189355302E+04 0.  0.
        2    1    3    3  502    0 -0.39581241141E+03 -0.64166747782E+03  0.41758906433E+03  0.86184989631E+03  0.25500000920E-02 0. -1.
       -2    1    3    3    0  502  0.39581241141E+03  0.64166747782E+03 -0.21496668567E+04  0.22780413104E+04  0.25500000920E-02 0.  1.
</event>
<event>
 5   0  0.1720129E-05  0.2608440E+04  0.7818609E-02  0.8365340E-01
        2   -1    0    0  501    0  0.00000000000E+00  0.00000000000E+00  0.85210951177E+03  0.85210951178E+03  0.25500000920E-02 0.  1.
       -2   -1    0    0    0  501  0.00000000000E+00  0.00000000000E+00 -0.19962103814E+04  0.19962103814E+04  0.25500000920E-02 0. -1.
    10030    2    1    2    0    0  0.00000000000E+00  0.00000000000E+00 -0.11441008696E+04  0.28483198932E+04  0.26084400346E+04 0.  0.
        3    1    3    3  502    0  0.43983442232E+03 -0.93792200583E+03 -0.14372805914E+04  0.17717018701E+04  0.10100000352E+00 0. -1.
       -3    1    3    3    0  502 -0.43983442232E+03  0.93792200583E+03  0.29317972176E+03  0.10766180230E+04  0.10100000352E+00 0.  1.
</event>
<event>
 5   0  0.7138294E-06  0.2522355E+04  0.7818609E-02  0.8395065E-01
       -1   -1    0    0    0  501  0.00000000000E+00  0.00000000000E+00  0.86779020327E+03  0.86779020329E+03  0.50400001928E-02 0. -1.
        1   -1    0    0  501    0  0.00000000000E+00  0.00000000000E+00 -0.18328953272E+04  0.18328953272E+04  0.50400001928E-02 0.  1.
    10030    2    1    2    0    0  0.00000000000E+00  0.00000000000E+00 -0.96510512389E+03  0.27006855305E+04  0.25223549382E+04 0.  0.
        2    1    3    3  502    0 -0.11238038494E+04  0.25931890765E+03  0.63805872111E+02  0.11550985140E+04  0.25500000920E-02 0. -1.
       -2    1    3    3    0  502  0.11238038494E+04 -0.25931890765E+03 -0.10289109960E+04  0.15455870164E+04  0.25500000920E-02 0.  1.
</event>
<event>
 5   0  0.1702345E-05  0.2533976E+04  0.7818609E-02  0.8390981E-01
        2   -1    0    0  501    0  0.00000000000E+00  0.00000000000E+00  0.22731432829E+04  0.22731432829E+04  0.25500000920E-02 0. -1.
       -2   -1    0    0    0  501  0.00000000000E+00  0.00000000000E+00 -0.70618437424E+03  0.70618437425E+03  0.25500000920E-02 0.  1.
    10030    2    1    2    0    0  0.00000000000E+00  0.00000000000E+00  0.15669589086E+04  0.29793276571E+04  0.25339757432E+04 0.  0.
        1    1    3    3  502    0 -0.62463806742E+03 -0.11010915541E+04  0.84438002670E+03  0.15216941070E+04  0.50400001928E-02 0. -1.
       -1    1    3    3    0  502  0.62463806742E+03  0.11010915541E+04  0.72257888192E+03  0.14576335501E+04  0.50400001928E-02 0.  1.
</event>
<event>
 5   0  0.6984287E-06  0.2593637E+04  0.7818609E-02  0.8370366E-01
        1   -1    0    0  501    0  0.00000000000E+00  0.00000000000E+00  0.82428501324E+03  0.82428501325E+03  0.50400001928E-02 0.  1.
       -1   -1    0    0    0  501  0.00000000000E+00  0.00000000000E+00 -0.20402392001E+04  0.20402392001E+04  0.50400001928E-02 0. -1.
    10030    2    1    2    0    0  0.00000000000E+00  0.00000000000E+00 -0.12159541869E+04  0.28645242134E+04  0.25936372885E+04 0.  0.
        3    1    3    3  502    0 -0.52572546712E+03 -0.55931041247E+03  0.54642893666E+03  0.94223139265E+03  0.10100000352E+00 0.  1.
       -3    1    3    3    0  502  0.52572546712E+03  0.55931041247E+03 -0.17623831236E+04  0.19222928207E+04  0.10100000352E+00 0. -1.
</event>
<event>
 5   0  0.6984287E-06  0.2551181E+04  0.7818609E-02  0.8384975E-01
       -1   -1    0    0    0  501  0.00000000000E+00  0.00000000000E+00  0.12391236177E+04  0.12391236177E+04  0.50400001928E-02 0.  1.
        1   -1    0    0  501    0  0.00000000000E+00  0.00000000000E+00 -0.13131310740E+04  0.13131310741E+04  0.50400001928E-02 0. -1.
    10030    2    1    2    0    0  0.00000000000E+00  0.00000000000E+00 -0.74007456357E+02  0.25522546918E+04  0.25511814730E+04 0.  0.
        3    1    3    3  502    0 -0.56211435922E+03  0.67135697336E+03  0.89098499009E+03  0.12492185563E+04  0.10100000352E+00 0.  1.
       -3    1    3    3    0  502  0.56211435922E+03 -0.67135697336E+03 -0.96499244644E+03  0.13030361355E+04  0.10100000352E+00 0. -1.
</event>
<event>
 5   0  0.6918420E-06  0.2594129E+04  0.7818609E-02  0.8370198E-01
       -1   -1    0    0    0  501  0.00000000000E+00  0.00000000000E+00  0.13989127704E+04  0.13989127704E+04  0.50400001928E-02 0.  1.
        1   -1    0    0  501    0  0.00000000000E+00  0.00000000000E+00 -0.12026311962E+04  0.12026311962E+04  0.50400001928E-02 0. -1.
    10030    2    1    2    0    0  0.00000000000E+00  0.00000000000E+00  0.19628157416E+03  0.26015439666E+04  0.25941288622E+04 0.  0.
        4    1    3    3  502    0 -0.10788273123E+04  0.33729168496E+03 -0.53986988439E+03  0.12526352843E+04  0.12699999809E+01 0. -1.
       -4    1    3    3    0  502  0.10788273123E+04 -0.33729168496E+03  0.73615145855E+03  0.13489086823E+04  0.12699999809E+01 0.  1.
</event>
<event>
 5   0  0.1677971E-05  0.2598610E+04  0.7818609E-02  0.8368674E-01
        2   -1    0    0  501    0  0.00000000000E+00  0.00000000000E+00  0.90878688870E+03  0.90878688871E+03  0.25500000920E-02 0. -1.
       -2   -1    0    0    0  501  0.00000000000E+00  0.00000000000E+00 -0.18576340680E+04  0.18576340680E+04  0.25500000920E-02 0.  1.
    10030    2    1    2    0    0  0.00000000000E+00  0.00000000000E+00 -0.94884717933E+03  0.27664209567E+04  0.25986100016E+04 0.  0.
        4    1    3    3  502    0 -0.10315686365E+04 -0.28344709052E+03 -0.12594117815E+04  0.16524514375E+04  0.12699999809E+01 0.  1.
       -4    1    3    3    0  502  0.10315686365E+04  0.28344709052E+03  0.31056460217E+03  0.11139695193E+04  0.12699999809E+01 0. -1.
</event>
<event>
 5   0  0.6984287E-06  0.2849014E+04  0.7818609E-02  0.8288211E-01
        1   -1    0    0  501    0  0.00000000000E+00  0.00000000000E+00  0.11569042423E+04  0.11569042423E+04  0.50400001928E-02 0. -1.
       -1   -1    0    0    0  501  0.00000000000E+00  0.00000000000E+00 -0.17540082482E+04  0.17540082482E+04  0.50400001928E-02 0.  1.
    10030    2    1    2    0    0  0.00000000000E+00  0.00000000000E+00 -0.59710400587E+03  0.29109124905E+04  0.28490135720E+04 0.  0.
        3    1    3    3  502    0  0.23817063800E+03  0.59554039181E+02  0.11351263066E+04  0.11613714645E+04  0.10100000352E+00 0. -1.
       -3    1    3    3    0  502 -0.23817063800E+03 -0.59554039181E+02 -0.17322303124E+04  0.17495410261E+04  0.10100000352E+00 0.  1.
</event>
<event>
 5   0  0.1869956E-05  0.2604944E+04  0.7818609E-02  0.8366524E-01
        2   -1    0    0  501    0  0.00000000000E+00  0.00000000000E+00  0.28702937755E+04  0.28702937755E+04  0.25500000920E-02 0.  1.
       -2   -1    0    0    0  501  0.00000000000E+00  0.00000000000E+00 -0.59103132335E+03  0.59103132336E+03  0.25500000920E-02 0. -1.
    10030    2    1    2    0    0  0.00000000000E+00  0.00000000000E+00  0.22792624521E+04  0.34613250988E+04  0.26049441672E+04 0.  0.
        5    1    3    3  502    0 -0.17951435699E+03  0.10752014907E+04  0.20868067031E+04  0.23543720938E+04  0.46999998093E+01 0.  1.
       -5    1    3    3    0  502  0.17951435699E+03 -0.10752014907E+04  0.19245574899E+03  0.11069530050E+04  0.46999998093E+01 0. -1.
</event>
<event>
 5   0  0.6984287E-06  0.2611415E+04  0.7818609E-02  0.8364334E-01
       -1   -1    0    0    0  501  0.00000000000E+00  0.00000000000E+00  0.13630324711E+04  0.13630324711E+04  0.50400001928E-02 0. -1.
        1   -1    0    0  501    0  0.00000000000E+00  0.00000000000E+00 -0.12507935899E+04  0.12507935899E+04  0.50400001928E-02 0.  1.
    10030    2    1    2    0    0  0.00000000000E+00  0.00000000000E+00  0.11223888125E+03  0.26138260610E+04  0.26114151548E+04 0.  0.
        3    1    3    3  502    0  0.95282832728E+02 -0.56210632963E+03  0.12318655306E+04  0.13574001030E+04  0.10100000352E+00 0. -1.
       -3    1    3    3    0  502 -0.95282832728E+02  0.56210632963E+03 -0.11196266493E+04  0.12564259580E+04  0.10100000352E+00 0.  1.
</event>
<event>
 5   0  0.1702345E-05  0.2554106E+04  0.7818609E-02  0.8383959E-01
        2   -1    0    0  501    0  0.00000000000E+00  0.00000000000E+00  0.12190321940E+04  0.12190321940E+04  0.25500000920E-02 0.  1.
       -2   -1    0    0    0  501  0.00000000000E+00  0.00000000000E+00 -0.13378356591E+04  0.13378356591E+04  0.25500000920E-02 0. -1.
    10030    2    1    2    0    0  0.00000000000E+00  0.00000000000E+00 -0.11880346512E+03  0.25568678532E+04  0.25541062929E+04 0.  0.
        1    1    3    3  502    0  0.43650735773E+03 -0.73951607170E+02 -0.12585521426E+04  0.13341517939E+04  0.50400001928E-02 0. -1.
       -1    1    3    3    0  502 -0.43650735773E+03  0.73951607170E+02  0.11397486775E+04  0.12227160592E+04  0.50400001928E-02 0.  1.
</event>
<event>
 5   0  0.6984287E-06  0.2599717E+04  0.7818609E-02  0.8368297E-01
        1   -1    0    0  501    0  0.00000000000E+00  0.00000000000E+00  0.13551372710E+04  0.13551372711E+04  0.50400001928E-02 0. -1.
       -1   -1    0    0    0  501  0.00000000000E+00  0.00000000000E+00 -0.12468342019E+04  0.12468342019E+04  0.50400001928E-02 0.  1.
    10030    2    1    2    0    0  0.00000000000E+00  0.00000000000E+00  0.10830306917E+03  0.26019714729E+04  0.25997165213E+04 0.  0.
        3    1    3    3  502    0  0.99955279080E+03 -0.11865589628E+03  0.87732859358E+03  0.13352492182E+04  0.10100000352E+00 0. -1.
       -3    1    3    3    0  502 -0.99955279080E+03  0.11865589628E+03 -0.76902552441E+03  0.12667222548E+04  0.10100000352E+00 0.  1.
</event>
<event>
 5   0  0.1869956E-05  0.2708363E+04  0.7818609E-02  0.8332297E-01
       -2   -1    0    0    0  501  0.00000000000E+00  0.00000000000E+00  0.19796883162E+04  0.19796883162E+04  0.25500000920E-02 0.  1.
        2   -1    0    0  501    0  0.00000000000E+00  0.00000000000E+00 -0.92631090836E+03  0.92631090836E+03  0.25500000920E-02 0. -1.
    10030    2    1    2    0    0  0.00000000000E+00  0.00000000000E+00  0.10533774078E+04  0.29059992245E+04  0.27083625181E+04 0.  0.
        5    1    3    3  502    0 -0.13473658646E+04 -0.12889069139E+03  0.48145543674E+03  0.14366032893E+04  0.46999998093E+01 0. -1.
       -5    1    3    3    0  502  0.13473658646E+04  0.12889069139E+03  0.57192197106E+03  0.14693959352E+04  0.46999998093E+01 0.  1.
</event>
<event>
 5   0  0.1720129E-05  0.2608346E+04  0.7818609E-02  0.8365372E-01
       -2   -1    0    0    0  501  0.00000000000E+00  0.00000000000E+00  0.10414090969E+04  0.10414090969E+04  0.25500000920E-02 0. -1.
        2   -1    0    0  501    0  0.00000000000E+00  0.00000000000E+00 -0.16332365906E+04  0.16332365906E+04  0.25500000920E-02 0.  1.
    10030    2    1    2    0    0  0.00000000000E+00  0.00000000000E+00 -0.59182749369E+03  0.26746456876E+04  0.26083461756E+04 0.  0.
        3    1    3    3  502    0  0.29007378354E+03 -0.67097358119E+03  0.81159446113E+03  0.10922609240E+04  0.10100000352E+00 0. -1.
       -3    1    3    3    0  502 -0.29007378354E+03  0.67097358119E+03 -0.14034219548E+04  0.15823847636E+04  0.10100000352E+00 0.  1.
</event>
<event>
 5   0  0.1720129E-05  0.2595339E+04  0.7818609E-02  0.8369786E-01
        2   -1    0    0  501    0  0.00000000000E+00  0.00000000000E+00  0.11789143695E+04  0.11789143695E+04  0.25500000920E-02 0.  1.
       -2   -1    0    0    0  501  0.00000000000E+00  0.00000000000E+00 -0.14283867374E+04  0.14283867374E+04  0.25500000920E-02 0. -1.
    10030    2    1    2    0    0  0.00000000000E+00  0.00000000000E+00 -0.24947236798E+03  0.26073011069E+04  0.25953386291E+04 0.  0.
        3    1    3    3  502    0 -0.77787512419E+03  0.68880408599E+03 -0.90575434530E+03  0.13783801079E+04  0.10100000352E+00 0. -1.
       -3    1    3    3    0  502  0.77787512419E+03 -0.68880408599E+03  0.65628197732E+03  0.12289209990E+04  0.10100000352E+00 0.  1.
</event>
<event>
 5   0  0.6993678E-06  0.2600777E+04  0.7818609E-02  0.8367937E-01
        1   -1    0    0  501    0  0.00000000000E+00  0.00000000000E+00  0.12612736861E+04  0.12612736861E+04  0.50400001928E-02 0.  1.
       -1   -1    0    0    0  501  0.00000000000E+00  0.00000000000E+00 -0.13407163202E+04  0.13407163202E+04  0.50400001928E-02 0. -1.
    10030    2    1    2    0    0  0.00000000000E+00  0.00000000000E+00 -0.79442634119E+02  0.26019900063E+04  0.26007769725E+04 0.  0.
        1    1    3    3  502    0  0.37808853734E+03  0.13381390891E+03  0.11978492092E+04  0.12632101299E+04  0.50400001928E-02 0.  1.
       -1    1    3    3    0  502 -0.37808853734E+03 -0.13381390891E+03 -0.12772918433E+04  0.13387798764E+04  0.50400001928E-02 0. -1.
</event>
<event>
 5   0  0.6918420E-06  0.2600263E+04  0.7818609E-02  0.8368112E-01
        1   -1    0    0  501    0  0.00000000000E+00  0.00000000000E+00  0.19896413714E+04  0.19896413714E+04  0.50400001928E-02 0.  1.
       -1   -1    0    0    0  501  0.00000000000E+00  0.00000000000E+00 -0.84957137191E+03  0.84957137193E+03  0.50400001928E-02 0. -1.
    10030    2    1    2    0    0  0.00000000000E+00  0.00000000000E+00  0.11400699995E+04  0.28392127433E+04  0.26002633324E+04 0.  0.
        4    1    3    3  502    0  0.66984483311E+03  0.11142387506E+04  0.58202809849E+03  0.14244221334E+04  0.12699999809E+01 0.  1.
       -4    1    3    3    0  502 -0.66984483311E+03 -0.11142387506E+04  0.55804190097E+03  0.14147906099E+04  0.12699999809E+01 0. -1.
</event>
<event>
 5   0  0.6993678E-06  0.2621903E+04  0.7818609E-02  0.8360799E-01
        1   -1    0    0  501    0  0.00000000000E+00  0.00000000000E+00  0.94476136285E+03  0.94476136286E+03  0.50400001928E-02 0.  1.
       -1   -1    0    0    0  501  0.00000000000E+00  0.00000000000E+00 -0.18190773863E+04  0.18190773863E+04  0.50400001928E-02 0. -1.
    10030    2    1    2    0    0  0.00000000000E+00  0.00000000000E+00 -0.87431602346E+03  0.27638387492E+04  0.26219031490E+04 0.  0.
        1    1    3    3  502    0  0.18997705664E+03  0.12666272436E+04 -0.73186013113E+03  0.14751457921E+04  0.50400001928E-02 0. -1.
       -1    1    3    3    0  502 -0.18997705664E+03 -0.12666272436E+04 -0.14245589233E+03  0.12886929571E+04  0.50400001928E-02 0.  1.
</event>
<event>
 5   0  0.5840500E-06  0.2582344E+04  0.7818609E-02  0.8374223E-01
       -3   -1    0    0    0  501  0.00000000000E+00  0.00000000000E+00  0.94654542057E+03  0.94654542595E+03  0.10100000352E+00 0.  1.
        3   -1    0    0  501    0  0.00000000000E+00  0.00000000000E+00 -0.17612739037E+04  0.17612739066E+04  0.10100000352E+00 0. -1.
    10030    2    1    2    0    0  0.00000000000E+00  0.00000000000E+00 -0.81472848312E+03  0.27078193325E+04  0.25823444845E+04 0.  0.
        4    1    3    3  502    0 -0.30810955462E+03 -0.10489433174E+04 -0.11277006369E+04  0.15706444283E+04  0.12699999809E+01 0. -1.
       -4    1    3    3    0  502  0.30810955462E+03  0.10489433174E+04  0.31297215378E+03  0.11371749042E+04  0.12699999809E+01 0.  1.
</event>
<event>
 5   0  0.6706225E-06  0.2621805E+04  0.7818609E-02  0.8360832E-01
        1   -1    0    0  501    0  0.00000000000E+00  0.00000000000E+00  0.17338218438E+04  0.17338218438E+04  0.50400001928E-02 0. -1.
       -1   -1    0    0    0  501  0.00000000000E+00  0.00000000000E+00 -0.99114285671E+03  0.99114285672E+03  0.50400001928E-02 0.  1.
    10030    2    1    2    0    0  0.00000000000E+00  0.00000000000E+00  0.74267898705E+03  0.27249647005E+04  0.26218048251E+04 0.  0.
        5    1    3    3  502    0 -0.80064755433E+03 -0.91221719397E+03 -0.14339051563E+03  0.12221946020E+04  0.46999998093E+01 0.  1.
       -5    1    3    3    0  502  0.80064755433E+03  0.91221719397E+03  0.88606950269E+03  0.15027700985E+04  0.46999998093E+01 0. -1.
</event>
<event>
 5   0  0.6918420E-06  0.2571394E+04  0.7818609E-02  0.8377983E-01
       -1   -1    0    0    0  501  0.00000000000E+00  0.00000000000E+00  0.10703793856E+04  0.10703793856E+04  0.50400001928E-02 0.  1.
        1   -1    0    0  501    0  0.00000000000E+00  0.00000000000E+00 -0.15443278200E+04  0.15443278200E+04  0.50400001928E-02 0. -1.
    10030    2    1    2    0    0  0.00000000000E+00  0.00000000000E+00 -0.47394843439E+03  0.26147072057E+04  0.25713939124E+04 0.  0.
        4    1    3    3  502    0  0.38864174119E+03  0.60762441621E+03 -0.13192162682E+04  0.15035235314E+04  0.12699999809E+01 0. -1.
       -4    1    3    3    0  502 -0.38864174119E+03 -0.60762441621E+03  0.84526783384E+03  0.11111836743E+04  0.12699999809E+01 0.  1.
</event>
<event>
 5   0  0.7138294E-06  0.2550558E+04  0.7818609E-02  0.8385192E-01
        1   -1    0    0  501    0  0.00000000000E+00  0.00000000000E+00  0.64534751476E+03  0.64534751478E+03  0.50400001928E-02 0.  1.
       -1   -1    0    0    0  501  0.00000000000E+00  0.00000000000E+00 -0.25200940199E+04  0.25200940199E+04  0.50400001928E-02 0. -1.
    10030    2    1    2    0    0  0.00000000000E+00  0.00000000000E+00 -0.18747465052E+04  0.31654415347E+04  0.25505579098E+04 0.  0.
        2    1    3    3  502    0 -0.33623280557E+02 -0.36937140512E+03  0.57693053172E+03  0.68586777031E+03  0.25500000920E-02 0.  1.
       -2    1    3    3    0  502  0.33623280557E+02  0.36937140512E+03 -0.24516770369E+04  0.24795737644E+04  0.25500000920E-02 0. -1.
</event>
<event>
 5   0  0.1681731E-05  0.2575873E+04  0.7818609E-02  0.8376443E-01
        2   -1    0    0  501    0  0.00000000000E+00  0.00000000000E+00  0.21563774060E+04  0.21563774060E+04  0.25500000920E-02 0.  1.
       -2   -1    0    0    0  501  0.00000000000E+00  0.00000000000E+00 -0.76924427431E+03  0.76924427432E+03  0.25500000920E-02 0. -1.
    10030    2    1    2    0    0  0.00000000000E+00  0.00000000000E+00  0.13871331317E+04  0.29256216804E+04  0.25758734230E+04 0.  0.
        2    1    3    3  502    0 -0.70921711205E+03  0.53000225824E+03 -0.36878996266E+03  0.95911278916E+03  0.25500000920E-02 0. -1.
       -2    1    3    3    0  502  0.70921711205E+03 -0.53000225824E+03  0.17559230944E+04  0.19665088912E+04  0.25500000920E-02 0.  1.
</event>
<event>
 5   0  0.6706225E-06  0.2624713E+04  0.7818609E-02  0.8359855E-01
       -1   -1    0    0    0  501  0.00000000000E+00  0.00000000000E+00  0.73012291139E+03  0.73012291141E+03  0.50400001928E-02 0.  1.
        1   -1    0    0  501    0  0.00000000000E+00  0.00000000000E+00 -0.23588907533E+04  0.23588907533E+04  0.50400001928E-02 0. -1.
    10030    2    1    2    0    0  0.00000000000E+00  0.00000000000E+00 -0.16287678419E+04  0.30890136647E+04  0.26247134582E+04 0.  0.
        5    1    3    3  502    0  0.12282608776E+04 -0.37938091016E+03 -0.50366691380E+03  0.13806727014E+04  0.46999998093E+01 0.  1.
       -5    1    3    3    0  502 -0.12282608776E+04  0.37938091016E+03 -0.11251009281E+04  0.17083409633E+04  0.46999998093E+01 0. -1.
</event>
<event>
 5   0  0.6984287E-06  0.2431866E+04  0.7818609E-02  0.8427669E-01
        1   -1    0    0  501    0  0.00000000000E+00  0.00000000000E+00  0.10460365689E+04  0.10460365689E+04  0.50400001928E-02 0. -1.
       -1   -1    0    0    0  501  0.00000000000E+00  0.00000000000E+00 -0.14134235283E+04  0.14134235283E+04  0.50400001928E-02 0.  1.
    10030    2    1    2    0    0  0.00000000000E+00  0.00000000000E+00 -0.36738695945E+03  0.24594600972E+04  0.24318657019E+04 0.  0.
        3    1    3    3  502    0  0.23135709901E+03 -0.14184536595E+03 -0.13824048530E+04  0.14087900493E+04  0.10100000352E+00 0.  1.
       -3    1    3    3    0  502 -0.23135709901E+03  0.14184536595E+03  0.10150178936E+04  0.10506700479E+04  0.10100000352E+00 0. -1.
</event>
<event>
 5   0  0.1681731E-05  0.2579112E+04  0.7818609E-02  0.8375331E-01
       -2   -1    0    0    0  501  0.00000000000E+00  0.00000000000E+00  0.10570802680E+04  0.10570802680E+04  0.25500000920E-02 0. -1.
        2   -1    0    0  501    0  0.00000000000E+00  0.00000000000E+00 -0.15731583274E+04  0.15731583274E+04  0.25500000920E-02 0.  1.
    10030    2    1    2    0    0  0.00000000000E+00  0.00000000000E+00 -0.51607805939E+03  0.26302385954E+04  0.25791119606E+04 0.  0.
        2    1    3    3  502    0  0.83558171670E+02 -0.38326395941E+03  0.99475963906E+03  0.10693081736E+04  0.25500000920E-02 0. -1.
       -2    1    3    3    0  502 -0.83558171670E+02  0.38326395941E+03 -0.15108376984E+04  0.15609304218E+04  0.25500000920E-02 0.  1.
</event>
<event>
 5   0  0.7138294E-06  0.2572573E+04  0.7818609E-02  0.8377578E-01
       -1   -1    0    0    0  501  0.00000000000E+00  0.00000000000E+00  0.12018667842E+04  0.12018667842E+04  0.50400001928E-02 0. -1.
        1   -1    0    0  501    0  0.00000000000E+00  0.00000000000E+00 -0.13766360022E+04  0.13766360022E+04  0.50400001928E-02 0.  1.
    10030    2    1    2    0    0  0.00000000000E+00  0.00000000000E+00 -0.17476921794E+03  0.25785027864E+04  0.25725730971E+04 0.  0.
        2    1    3    3  502    0  0.79925092014E+02  0.75060020548E+03 -0.11312958857E+04  0.13600070109E+04  0.25500000920E-02 0.  1.
       -2    1    3    3    0  502 -0.79925092014E+02 -0.75060020548E+03  0.95652666774E+03  0.12184957755E+04  0.25500000920E-02 0. -1.
</event>
<event>
 5   0  0.6706225E-06  0.2580471E+04  0.7818609E-02  0.8374865E-01
       -1   -1    0    0    0  501  0.00000000000E+00  0.00000000000E+00  0.74523361063E+03  0.74523361064E+03  0.50400001928E-02 0. -1.
        1   -1    0    0  501    0  0.00000000000E+00  0.00000000000E+00 -0.22338072572E+04  0.22338072572E+04  0.50400001928E-02 0.  1.
    10030    2    1    2    0    0  0.00000000000E+00  0.00000000000E+00 -0.14885736466E+04  0.29790408678E+04  0.25804714668E+04 0.  0.
        5    1    3    3  502    0  0.54803051254E+03  0.32340781913E+03  0.55146143695E+03  0.84205811355E+03  0.46999998093E+01 0. -1.
       -5    1    3    3    0  502 -0.54803051254E+03 -0.32340781913E+03 -0.20400350835E+04  0.21369827543E+04  0.46999998093E+01 0.  1.
</event>
<event>
 5   0  0.1702345E-05  0.2603412E+04  0.7818609E-02  0.8367043E-01
        2   -1    0    0  501    0  0.00000000000E+00  0.00000000000E+00  0.18072313458E+04  0.18072313458E+04  0.25500000920E-02 0. -1.
       -2   -1    0    0    0  501  0.00000000000E+00  0.00000000000E+00 -0.93758805938E+03  0.93758805938E+03  0.25500000920E-02 0.  1.
    10030    2    1    2    0    0  0.00000000000E+00  0.00000000000E+00  0.86964328645E+03  0.27448194052E+04  0.26034120153E+04 0.  0.
        1    1    3    3  502    0 -0.44113145521E+03 -0.73631295887E+01  0.17259984438E+04  0.17814942617E+04  0.50400001928E-02 0. -1.
       -1    1    3    3    0  502  0.44113145521E+03  0.73631295887E+01 -0.85635515739E+03  0.96332514348E+03  0.50400001928E-02 0.  1.
</event>
<event>
 5   0  0.1681731E-05  0.2614014E+04  0.7818609E-02  0.8363456E-01
        2   -1    0    0  501    0  0.00000000000E+00  0.00000000000E+00  0.17141729027E+04  0.17141729027E+04  0.25500000920E-02 0. -1.
       -2   -1    0    0    0  501  0.00000000000E+00  0.00000000000E+00 -0.99655510262E+03  0.99655510262E+03  0.25500000920E-02 0.  1.
    10030    2    1    2    0    0  0.00000000000E+00  0.00000000000E+00  0.71761780007E+03  0.27107280053E+04  0.26140143480E+04 0.  0.
        2    1    3    3  502    0 -0.23127871912E+03 -0.11543874755E+04  0.94740694379E+03  0.15111850339E+04  0.25500000920E-02 0. -1.
       -2    1    3    3    0  502  0.23127871912E+03  0.11543874755E+04 -0.22978914371E+03  0.11995429714E+04  0.25500000920E-02 0.  1.
</event>
<event>
 5   0  0.1677971E-05  0.2607124E+04  0.7818609E-02  0.8365785E-01
        2   -1    0    0  501    0  0.00000000000E+00  0.00000000000E+00  0.14959692336E+04  0.14959692336E+04  0.25500000920E-02 0.  1.
       -2   -1    0    0    0  501  0.00000000000E+00  0.00000000000E+00 -0.11359019164E+04  0.11359019164E+04  0.25500000920E-02 0. -1.
    10030    2    1    2    0    0  0.00000000000E+00  0.00000000000E+00  0.36006731718E+03  0.26318711499E+04  0.26071243309E+04 0.  0.
        4    1    3    3  502    0  0.51542986130E+03  0.11373348434E+04 -0.19778376727E+03  0.12642462258E+04  0.12699999809E+01 0. -1.
       -4    1    3    3    0  502 -0.51542986130E+03 -0.11373348434E+04  0.55785108446E+03  0.13676249242E+04  0.12699999809E+01 0.  1.
</event>
<event>
 5   0  0.1869956E-05  0.2591528E+04  0.7818609E-02  0.8371084E-01
       -2   -1    0    0    0  501  0.00000000000E+00  0.00000000000E+00  0.92060452173E+03  0.92060452174E+03  0.25500000920E-02 0.  1.
        2   -1    0    0  501    0  0.00000000000E+00  0.00000000000E+00 -0.18238070088E+04  0.18238070088E+04  0.25500000920E-02 0. -1.
    10030    2    1    2    0    0  0.00000000000E+00  0.00000000000E+00 -0.90320248703E+03  0.27444115305E+04  0.25915284903E+04 0.  0.
        5    1    3    3  502    0 -0.19939497680E+02 -0.34708547997E+03 -0.17734850342E+04  0.18072457416E+04  0.46999998093E+01 0. -1.
       -5    1    3    3    0  502  0.19939497680E+02  0.34708547997E+03  0.87028254718E+03  0.93716578890E+03  0.46999998093E+01 0.  1.
</event>
<event>
 5   0  0.1677971E-05  0.2598418E+04  0.7818609E-02  0.8368739E-01
        2   -1    0    0  501    0  0.00000000000E+00  0.00000000000E+00  0.24566494855E+04  0.24566494855E+04  0.25500000920E-02 0. -1.
       -2   -1    0    0    0  501  0.00000000000E+00  0.00000000000E+00 -0.68709216234E+03  0.68709216234E+03  0.25500000920E-02 0.  1.
    10030    2    1    2    0    0  0.00000000000E+00  0.00000000000E+00  0.17695573231E+04  0.31437416478E+04  0.25984184475E+04 0.  0.
        4    1    3    3  502    0 -0.11706491893E+04  0.22550225540E+03  0.25999936211E+03  0.12201934571E+04  0.12699999809E+01 0.  1.
       -4    1    3    3    0  502  0.11706491893E+04 -0.22550225540E+03  0.15095579610E+04  0.19235481907E+04  0.12699999809E+01 0. -1.
</event>
<event>
 5   0  0.1702345E-05  0.2570735E+04  0.7818609E-02  0.8378210E-01
        2   -1    0    0  501    0  0.00000000000E+00  0.00000000000E+00  0.18086081431E+04  0.18086081431E+04  0.25500000920E-02 0.  1.
       -2   -1    0    0    0  501  0.00000000000E+00  0.00000000000E+00 -0.91350359240E+03  0.91350359240E+03  0.25500000920E-02 0. -1.
    10030    2    1    2    0    0  0.00000000000E+00  0.00000000000E+00  0.89510455066E+03  0.27221117355E+04  0.25707353313E+04 0.  0.
        1    1    3    3  502    0 -0.28154842550E+03 -0.11584155191E+04 -0.61345009889E+02  0.11937165665E+04  0.50400001928E-02 0. -1.
       -1    1    3    3    0  502  0.28154842550E+03  0.11584155191E+04  0.95644956055E+03  0.15283951690E+04  0.50400001928E-02 0.  1.
</event>
<event>
 5   0  0.6918420E-06  0.2601240E+04  0.7818609E-02  0.8367780E-01
        1   -1    0    0  501    0  0.00000000000E+00  0.00000000000E+00  0.10160889633E+04  0.10160889633E+04  0.50400001928E-02 0.  1.
       -1   -1    0    0    0  501  0.00000000000E+00  0.00000000000E+00 -0.16648264420E+04  0.16648264420E+04  0.50400001928E-02 0. -1.
    10030    2    1    2    0    0  0.00000000000E+00  0.00000000000E+00 -0.64873747867E+03  0.26809154054E+04  0.26012395304E+04 0.  0.
        4    1    3    3  502    0 -0.24056274114E+03  0.12472649485E+04 -0.61233692583E+03  0.14101412723E+04  0.12699999809E+01 0.  1.
       -4    1    3    3    0  502  0.24056274114E+03 -0.12472649485E+04 -0.36400552841E+02  0.12707741331E+04  0.12699999809E+01 0. -1.
</event>
<event>
 5   0  0.1681731E-05  0.2594540E+04  0.7818609E-02  0.8370058E-01
        2   -1    0    0  501    0  0.00000000000E+00  0.00000000000E+00  0.14137169184E+04  0.14137169184E+04  0.25500000920E-02 0. -1.
       -2   -1    0    0    0  501  0.00000000000E+00  0.00000000000E+00 -0.11904149304E+04  0.11904149304E+04  0.25500000920E-02 0.  1.
    10030    2    1    2    0    0  0.00000000000E+00  0.00000000000E+00  0.22330198803E+03  0.26041318488E+04  0.25945402113E+04 0.  0.
        2    1    3    3  502    0  0.84340320824E+02 -0.30581481393E+03  0.13741858382E+04  0.14103271635E+04  0.25500000920E-02 0. -1.
       -2    1    3    3    0  502 -0.84340320824E+02  0.30581481393E+03 -0.11508838502E+04  0.11938046853E+04  0.25500000920E-02 0.  1.
</event>
<event>
 5   0  0.1720129E-05  0.2596985E+04  0.7818609E-02  0.8369226E-01
        2   -1    0    0  501    0  0.00000000000E+00  0.00000000000E+00  0.20686427186E+04  0.20686427186E+04  0.25500000920E-02 0. -1.
       -2   -1    0    0    0  501  0.00000000000E+00  0.00000000000E+00 -0.81506707365E+03  0.81506707365E+03  0.25500000920E-02 0.  1.
    10030    2    1    2    0    0  0.00000000000E+00  0.00000000000E+00  0.12535756450E+04  0.28837097923E+04  0.25969848418E+04 0.  0.
        3    1    3    3  502    0 -0.77547837144E+03 -0.42006138472E+03  0.16850377712E+04  0.19018860566E+04  0.10100000352E+00 0. -1.
       -3    1    3    3    0  502  0.77547837144E+03  0.42006138472E+03 -0.43146212622E+03  0.98182373574E+03  0.10100000352E+00 0.  1.
</event>
<event>
 5   0  0.5840500E-06  0.2491106E+04  0.7818609E-02  0.8406161E-01
       -4   -1    0    0    0  501  0.00000000000E+00  0.00000000000E+00  0.13347479063E+04  0.13347485105E+04  0.12699999809E+01 0. -1.
        4   -1    0    0  501    0  0.00000000000E+00  0.00000000000E+00 -0.11623173213E+04  0.11623180151E+04  0.12699999809E+01 0.  1.
    10030    2    1    2    0    0  0.00000000000E+00  0.00000000000E+00  0.17243058503E+03  0.24970665257E+04  0.24911059646E+04 0.  0.
        2    1    3    3  502    0 -0.11439333809E+04 -0.41886631588E+03 -0.17396242132E+03  0.12305671434E+04  0.25500000920E-02 0.  1.
       -2    1    3    3    0  502  0.11439333809E+04  0.41886631588E+03  0.34639300635E+03  0.12664993823E+04  0.25500000920E-02 0. -1.
</event>
<event>
 5   0  0.1702345E-05  0.2472104E+04  0.7818609E-02  0.8412991E-01
        2   -1    0    0  501    0  0.00000000000E+00  0.00000000000E+00  0.24920248045E+04  0.24920248045E+04  0.25500000920E-02 0.  1.
       -2   -1    0    0    0  501  0.00000000000E+00  0.00000000000E+00 -0.61308572350E+03  0.61308572350E+03  0.25500000920E-02 0. -1.
    10030    2    1    2    0    0  0.00000000000E+00  0.00000000000E+00  0.18789390810E+04  0.31051105280E+04  0.24721042294E+04 0.  0.
        1    1    3    3  502    0  0.15856402505E+03  0.37049572931E+03 -0.52824856571E+03  0.66442169040E+03  0.50400001928E-02 0. -1.
       -1    1    3    3    0  502 -0.15856402505E+03 -0.37049572931E+03  0.24071876467E+04  0.24406888376E+04  0.50400001928E-02 0.  1.
</event>
<event>
 5   0  0.6993678E-06  0.2603396E+04  0.7818609E-02  0.8367049E-01
        1   -1    0    0  501    0  0.00000000000E+00  0.00000000000E+00  0.14213115728E+04  0.14213115728E+04  0.50400001928E-02 0.  1.
       -1   -1    0    0    0  501  0.00000000000E+00  0.00000000000E+00 -0.11921505171E+04  0.11921505171E+04  0.50400001928E-02 0. -1.
    10030    2    1    2    0    0  0.00000000000E+00  0.00000000000E+00  0.22916105574E+03  0.26134620899E+04  0.26033957259E+04 0.  0.
        1    1    3    3  502    0  0.81591010357E+03  0.36031707407E+03  0.10663390800E+04  0.13901858597E+04  0.50400001928E-02 0.  1.
       -1    1    3    3    0  502 -0.81591010357E+03 -0.36031707407E+03 -0.83717802425E+03  0.12232762302E+04  0.50400001928E-02 0. -1.
</event>
<event>
 5   0  0.1681731E-05  0.2575191E+04  0.7818609E-02  0.8376677E-01
        2   -1    0    0  501    0  0.00000000000E+00  0.00000000000E+00  0.16472662749E+04  0.16472662749E+04  0.25500000920E-02 0. -1.
       -2   -1    0    0    0  501  0.00000000000E+00  0.00000000000E+00 -0.10064564820E+04  0.10064564820E+04  0.25500000920E-02 0.  1.
    10030    2    1    2    0    0  0.00000000000E+00  0.00000000000E+00  0.64080979284E+03  0.26537227569E+04  0.25751907269E+04 0.  0.
        2    1    3    3  502    0 -0.65806754016E+03 -0.96341630221E+03 -0.24088702542E+03  0.11913229696E+04  0.25500000920E-02 0.  1.
       -2    1    3    3    0  502  0.65806754016E+03  0.96341630221E+03  0.88169681826E+03  0.14623997874E+04  0.25500000920E-02 0. -1.
</event>
<event>
 5   0  0.6706225E-06  0.2610621E+04  0.7818609E-02  0.8364603E-01
       -1   -1    0    0    0  501  0.00000000000E+00  0.00000000000E+00  0.15980705408E+04  0.15980705408E+04  0.50400001928E-02 0. -1.
        1   -1    0    0  501    0  0.00000000000E+00  0.00000000000E+00 -0.10661826442E+04  0.10661826442E+04  0.50400001928E-02 0.  1.
    10030    2    1    2    0    0  0.00000000000E+00  0.00000000000E+00  0.53188789658E+03  0.26642531850E+04  0.26106206732E+04 0.  0.
        5    1    3    3  502    0 -0.10110427204E+04 -0.67014103349E+03 -0.22616209737E+03  0.12338832082E+04  0.46999998093E+01 0.  1.
       -5    1    3    3    0  502  0.10110427204E+04  0.67014103349E+03  0.75804999395E+03  0.14303699768E+04  0.46999998093E+01 0. -1.
</event>
<event>
 5   0  0.1869956E-05  0.2586482E+04  0.7818609E-02  0.8372807E-01
        2   -1    0    0  501    0  0.00000000000E+00  0.00000000000E+00  0.12549531699E+04  0.12549531699E+04  0.25500000920E-02 0.  1.
       -2   -1    0    0    0  501  0.00000000000E+00  0.00000000000E+00 -0.13326973621E+04  0.13326973621E+04  0.25500000920E-02 0. -1.
    10030    2    1    2    0    0  0.00000000000E+00  0.00000000000E+00 -0.77744192221E+02  0.25876505320E+04  0.25864823828E+04 0.  0.
        5    1    3    3  502    0  0.28316255703E+03 -0.86469904784E+03 -0.95828944255E+03  0.13214485320E+04  0.46999998093E+01 0. -1.
       -5    1    3    3    0  502 -0.28316255703E+03  0.86469904784E+03  0.88054525033E+03  0.12662020000E+04  0.46999998093E+01 0.  1.
</event>
<event>
 5   0  0.6918420E-06  0.2614303E+04  0.7818609E-02  0.8363359E-01
       -1   -1    0    0    0  501  0.00000000000E+00  0.00000000000E+00  0.92128551103E+03  0.92128551104E+03  0.50400001928E-02 0.  1.
        1   -1    0    0  501    0  0.00000000000E+00  0.00000000000E+00 -0.18546308901E+04  0.18546308901E+04  0.50400001928E-02 0. -1.
    10030    2    1    2    0    0  0.00000000000E+00  0.00000000000E+00 -0.93334537908E+03  0.27759164012E+04  0.26143026354E+04 0.  0.
        4    1    3    3  502    0  0.68183381757E+03  0.10528918327E+04 -0.76297989075E+02  0.12567026546E+04  0.12699999809E+01 0.  1.
       -4    1    3    3    0  502 -0.68183381757E+03 -0.10528918327E+04 -0.85704739001E+03  0.15192137466E+04  0.12699999809E+01 0. -1.
</event>
<event>
 5   0  0.1677971E-05  0.2603761E+04  0.7818609E-02  0.8366925E-01
       -2   -1    0    0    0  501  0.00000000000E+00  0.00000000000E+00  0.11058657135E+04  0.11058657136E+04  0.25500000920E-02 0.  1.
        2   -1    0    0  501    0  0.00000000000E+00  0.00000000000E+00 -0.15326383449E+04  0.15326383449E+04  0.25500000920E-02 0. -1.
    10030    2    1    2    0    0  0.00000000000E+00  0.00000000000E+00 -0.42677263135E+03  0.26385040585E+04  0.26037605089E+04 0.  0.
        4    1    3    3  502    0 -0.45109468548E+03  0.24305695171E+03 -0.14261547756E+04  0.15154148455E+04  0.12699999809E+01 0. -1.
       -4    1    3    3    0  502  0.45109468548E+03 -0.24305695171E+03  0.99938214428E+03  0.11230892129E+04  0.12699999809E+01 0.  1.
</event>
<event>
 5   0  0.6993678E-06  0.2589169E+04  0.7818609E-02  0.8371889E-01
        1   -1    0    0  501    0  0.00000000000E+00  0.00000000000E+00  0.13511413152E+04  0.13511413152E+04  0.50400001928E-02 0.  1.
       -1   -1    0    0    0  501  0.00000000000E+00  0.00000000000E+00 -0.12403955371E+04  0.12403955371E+04  0.50400001928E-02 0. -1.
    10030    2    1    2    0    0  0.00000000000E+00  0.00000000000E+00  0.11074577816E+03  0.25915368523E+04  0.25891694864E+04 0.  0.
        1    1    3    3  502    0  0.48557998536E+03  0.42974115979E+03  0.11768813306E+04  0.13436945534E+04  0.50400001928E-02 0.  1.
       -1    1    3    3    0  502 -0.48557998536E+03 -0.42974115979E+03 -0.10661355524E+04  0.12478422989E+04  0.50400001928E-02 0. -1.
</event>
<event>
 5   0  0.1702345E-05  0.2602224E+04  0.7818609E-02  0.8367446E-01
       -2   -1    0    0    0  501  0.00000000000E+00  0.00000000000E+00  0.13387753454E+04  0.13387753454E+04  0.25500000920E-02 0.  1.
        2   -1    0    0  501    0  0.00000000000E+00  0.00000000000E+00 -0.12645082111E+04  0.12645082111E+04  0.25500000920E-02 0. -1.
    10030    2    1    2    0    0  0.00000000000E+00  0.00000000000E+00  0.74267134282E+02  0.26032835565E+04  0.26022239851E+04 0.  0.
        1    1    3    3  502    0 -0.11562091624E+04 -0.53716174938E+02  0.63167123805E+03  0.13186028999E+04  0.50400001928E-02 0.  1.
       -1    1    3    3    0  502  0.11562091624E+04  0.53716174938E+02 -0.55740410377E+03  0.12846806566E+04  0.50400001928E-02 0. -1.
</event>
<event>
 5   0  0.6918420E-06  0.2588287E+04  0.7818609E-02  0.8372191E-01
       -1   -1    0    0    0  501  0.00000000000E+00  0.00000000000E+00  0.10305143919E+04  0.10305143919E+04  0.50400001928E-02 0. -1.
        1   -1    0    0  501    0  0.00000000000E+00  0.00000000000E+00 -0.16252146298E+04  0.16252146298E+04  0.50400001928E-02 0.  1.
    10030    2    1    2    0    0  0.00000000000E+00  0.00000000000E+00 -0.59470023796E+03  0.26557290217E+04  0.25882867429E+04 0.  0.
        4    1    3    3  502    0  0.85178399312E+03  0.57623513470E+03 -0.11034563246E+04  0.15083767349E+04  0.12699999809E+01 0.  1.
       -4    1    3    3    0  502 -0.85178399312E+03 -0.57623513470E+03  0.50875608660E+03  0.11473522868E+04  0.12699999809E+01 0. -1.
</event>
<event>
 5   0  0.1720129E-05  0.2603418E+04  0.7818609E-02  0.8367041E-01
       -2   -1    0    0    0  501  0.00000000000E+00  0.00000000000E+00  0.86365305669E+03  0.86365305670E+03  0.25500000920E-02 0. -1.
        2   -1    0    0  501    0  0.00000000000E+00  0.00000000000E+00 -0.19619524833E+04  0.19619524833E+04  0.25500000920E-02 0.  1.
    10030    2    1    2    0    0  0.00000000000E+00  0.00000000000E+00 -0.10982994266E+04  0.28256055400E+04  0.26034179528E+04 0.  0.
        3    1    3    3  502    0  0.62498036708E+03 -0.18460294139E+03 -0.17721589838E+04  0.18881806533E+04  0.10100000352E+00 0.  1.
       -3    1    3    3    0  502 -0.62498036708E+03  0.18460294139E+03  0.67385955722E+03  0.93742488673E+03  0.10100000352E+00 0. -1.
</event>
<event>
 5   0  0.6984287E-06  0.2531534E+04  0.7818609E-02  0.8391837E-01
        1   -1    0    0  501    0  0.00000000000E+00  0.00000000000E+00  0.14230593946E+04  0.14230593947E+04  0.50400001928E-02 0.  1.
       -1   -1    0    0    0  501  0.00000000000E+00  0.00000000000E+00 -0.11258607035E+04  0.11258607035E+04  0.50400001928E-02 0. -1.
    10030    2    1    2    0    0  0.00000000000E+00  0.00000000000E+00  0.29719869115E+03  0.25489200982E+04  0.25315344368E+04 0.  0.
        3    1    3    3  502    0 -0.11644933945E+04 -0.42806882494E+03 -0.10387932763E+03  0.12450215699E+04  0.10100000352E+00 0. -1.
       -3    1    3    3    0  502  0.11644933945E+04  0.42806882494E+03  0.40107801878E+03  0.13038985283E+04  0.10100000352E+00 0.  1.
</event>
<event>
 5   0  0.1702345E-05  0.2632416E+04  0.7818609E-02  0.8357273E-01
       -2   -1    0    0    0  501  0.00000000000E+00  0.00000000000E+00  0.16867847552E+04  0.16867847552E+04  0.25500000920E-02 0.  1.
        2   -1    0    0  501    0  0.00000000000E+00  0.00000000000E+00 -0.10270444823E+04  0.10270444823E+04  0.25500000920E-02 0. -1.
    10030    2    1    2    0    0  0.00000000000E+00  0.00000000000E+00  0.65974027288E+03  0.27138292376E+04  0.26324156022E+04 0.  0.
        1    1    3    3  502    0  0.67047561519E+03 -0.92892338912E+03  0.99796098199E+03  0.15193295676E+04  0.50400001928E-02 0.  1.
       -1    1    3    3    0  502 -0.67047561519E+03  0.92892338912E+03 -0.33822070911E+03  0.11944996699E+04  0.50400001928E-02 0. -1.
</event>
<event>
 5   0  0.6918420E-06  0.2682812E+04  0.7818609E-02  0.8340603E-01
        1   -1    0    0  501    0  0.00000000000E+00  0.00000000000E+00  0.11717572399E+04  0.11717572399E+04  0.50400001928E-02 0.  1.
       -1   -1    0    0    0  501  0.00000000000E+00  0.00000000000E+00 -0.15356170849E+04  0.15356170849E+04  0.50400001928E-02 0. -1.
    10030    2    1    2    0    0  0.00000000000E+00  0.00000000000E+00 -0.36385984504E+03  0.27073743248E+04  0.26828122834E+04 0.  0.
        4    1    3    3  502    0 -0.40778892448E+03  0.36246071675E+03  0.10547277640E+04  0.11874855145E+04  0.12699999809E+01 0.  1.
       -4    1    3    3    0  502  0.40778892448E+03 -0.36246071675E+03 -0.14185876091E+04  0.15198888103E+04  0.12699999809E+01 0. -1.
</event>
<event>
 5   0  0.1720129E-05  0.2597202E+04  0.7818609E-02  0.8369152E-01
       -2   -1    0    0    0  501  0.00000000000E+00  0.00000000000E+00  0.80719023548E+03  0.80719023549E+03  0.25500000920E-02 0.  1.
        2   -1    0    0  501    0  0.00000000000E+00  0.00000000000E+00 -0.20891781061E+04  0.20891781061E+04  0.25500000920E-02 0. -1.
    10030    2    1    2    0    0  0.00000000000E+00  0.00000000000E+00 -0.12819878706E+04  0.28963683416E+04  0.25972016998E+04 0.  0.
        3    1    3    3  502    0  0.12870085109E+04 -0.91835975379E+02 -0.80466237819E+03  0.15206269453E+04  0.10100000352E+00 0. -1.
       -3    1    3    3    0  502 -0.12870085109E+04  0.91835975379E+02 -0.47732549240E+03  0.13757413963E+04  0.10100000352E+00 0.  1.
</event>
<event>
 5   0  0.6918420E-06  0.2687549E+04  0.7818609E-02  0.8339056E-01
        1   -1    0    0  501    0  0.00000000000E+00  0.00000000000E+00  0.22667085081E+04  0.22667085081E+04  0.50400001928E-02 0. -1.
       -1   -1    0    0    0  501  0.00000000000E+00  0.00000000000E+00 -0.79663071785E+03  0.79663071787E+03  0.50400001928E-02 0.  1.
    10030    2    1    2    0    0  0.00000000000E+00  0.00000000000E+00  0.14700777903E+04  0.30633392260E+04  0.26875487910E+04 0.  0.
        4    1    3    3  502    0 -0.61744089819E+03  0.23312736800E+03  0.20692428345E+04  0.21719459371E+04  0.12699999809E+01 0. -1.
       -4    1    3    3    0  502  0.61744089819E+03 -0.23312736800E+03 -0.59916504422E+03  0.89139328895E+03  0.12699999809E+01 0.  1.
</event>
<event>
 5   0  0.5840500E-06  0.2550220E+04  0.7818609E-02  0.8385310E-01
        3   -1    0    0  501    0  0.00000000000E+00  0.00000000000E+00  0.17595013605E+04  0.17595013634E+04  0.10100000352E+00 0. -1.
       -3   -1    0    0    0  501  0.00000000000E+00  0.00000000000E+00 -0.92407169358E+03  0.92407169910E+03  0.10100000352E+00 0.  1.
    10030    2    1    2    0    0  0.00000000000E+00  0.00000000000E+00  0.83542966692E+03  0.26835730625E+04  0.25502199226E+04 0.  0.
        4    1    3    3  502    0 -0.56916746458E+03  0.98265209425E+03  0.10279954934E+04  0.15317744901E+04  0.12699999809E+01 0. -1.
       -4    1    3    3    0  502  0.56916746458E+03 -0.98265209425E+03 -0.19256582646E+03  0.11517985724E+04  0.12699999809E+01 0.  1.
</event>
<event>
 5   0  0.6918420E-06  0.2602106E+04  0.7818609E-02  0.8367486E-01
        1   -1    0    0  501    0  0.00000000000E+00  0.00000000000E+00  0.16121113719E+04  0.16121113719E+04  0.50400001928E-02 0. -1.
       -1   -1    0    0    0  501  0.00000000000E+00  0.00000000000E+00 -0.10500133719E+04  0.10500133719E+04  0.50400001928E-02 0.  1.
    10030    2    1    2    0    0  0.00000000000E+00  0.00000000000E+00  0.56209800004E+03  0.26621247438E+04  0.26021056838E+04 0.  0.
        4    1    3    3  502    0 -0.28734477785E+03  0.12562060635E+03 -0.10107670020E+04  0.10583001008E+04  0.12699999809E+01 0.  1.
       -4    1    3    3    0  502  0.28734477785E+03 -0.12562060635E+03  0.15728650020E+04  0.16038246430E+04  0.12699999809E+01 0. -1.
</event>
<event>
 5   0  0.6706225E-06  0.2581215E+04  0.7818609E-02  0.8374610E-01
        1   -1    0    0  501    0  0.00000000000E+00  0.00000000000E+00  0.15178838154E+04  0.15178838154E+04  0.50400001928E-02 0. -1.
       -1   -1    0    0    0  501  0.00000000000E+00  0.00000000000E+00 -0.10973615042E+04  0.10973615042E+04  0.50400001928E-02 0.  1.
    10030    2    1    2    0    0  0.00000000000E+00  0.00000000000E+00  0.42052231124E+03  0.26152453196E+04  0.25812146496E+04 0.  0.
        5    1    3    3  502    0  0.44104815418E+03 -0.18901124992E+03  0.14241369355E+04  0.15028096446E+04  0.46999998093E+01 0. -1.
       -5    1    3    3    0  502 -0.44104815418E+03  0.18901124992E+03 -0.10036146243E+04  0.11124356750E+04  0.46999998093E+01 0.  1.
</event>
<event>
 5   0  0.1681731E-05  0.2294420E+04  0.7818609E-02  0.8480125E-01
       -2   -1    0    0    0  501  0.00000000000E+00  0.00000000000E+00  0.15025399409E+04  0.15025399409E+04  0.25500000920E-02 0.  1.
        2   -1    0    0  501    0  0.00000000000E+00  0.00000000000E+00 -0.87591047199E+03  0.87591047200E+03  0.25500000920E-02 0. -1.
    10030    2    1    2    0    0  0.00000000000E+00  0.00000000000E+00  0.62662946889E+03  0.23784504129E+04  0.22944197252E+04 0.  0.
        2    1    3    3  502    0 -0.73057773096E+03  0.63111219425E+03  0.95572393478E+03  0.13584751239E+04  0.25500000920E-02 0.  1.
       -2    1    3    3    0  502  0.73057773096E+03 -0.63111219425E+03 -0.32909446588E+03  0.10199752890E+04  0.25500000920E-02 0. -1.
</event>
<event>
 5   0  0.1677971E-05  0.2600768E+04  0.7818609E-02  0.8367940E-01
        2   -1    0    0  501    0  0.00000000000E+00  0.00000000000E+00  0.68881996562E+03  0.68881996562E+03  0.25500000920E-02 0. -1.
       -2   -1    0    0    0  501  0.00000000000E+00  0.00000000000E+00 -0.24549204481E+04  0.24549204481E+04  0.25500000920E-02 0.  1.
    10030    2    1    2    0    0  0.00000000000E+00  0.00000000000E+00 -0.17661004825E+04  0.31437404137E+04  0.26007677472E+04 0.  0.
        4    1    3    3  502    0 -0.92997735335E+03  0.87483894927E+03 -0.58500583824E+03  0.14044338748E+04  0.12699999809E+01 0. -1.
       -4    1    3    3    0  502  0.92997735335E+03 -0.87483894927E+03 -0.11810946442E+04  0.17393065390E+04  0.12699999809E+01 0.  1.
</event>
<event>
 5   0  0.1720129E-05  0.2598623E+04  0.7818609E-02  0.8368669E-01
        2   -1    0    0  501    0  0.00000000000E+00  0.00000000000E+00  0.16389025387E+04  0.16389025387E+04  0.25500000920E-02 0.  1.
       -2   -1    0    0    0  501  0.00000000000E+00  0.00000000000E+00 -0.10300857898E+04  0.10300857898E+04  0.25500000920E-02 0. -1.
    10030    2    1    2    0    0  0.00000000000E+00  0.00000000000E+00  0.60881674884E+03  0.26689883285E+04  0.25986228784E+04 0.  0.
        3    1    3    3  502    0  0.11532150475E+04 -0.11509786188E+03  0.90773057308E+03  0.14721165943E+04  0.10100000352E+00 0.  1.
       -3    1    3    3    0  502 -0.11532150475E+04  0.11509786188E+03 -0.29891382423E+03  0.11968717342E+04  0.10100000352E+00 0. -1.
</event>
<event>
 5   0  0.1869956E-05  0.2619212E+04  0.7818609E-02  0.8361705E-01
        2   -1    0    0  501    0  0.00000000000E+00  0.00000000000E+00  0.17773543121E+04  0.17773543121E+04  0.25500000920E-02 0.  1.
       -2   -1    0    0    0  501  0.00000000000E+00  0.00000000000E+00 -0.96495534930E+03  0.96495534930E+03  0.25500000920E-02 0. -1.
    10030    2    1    2    0    0  0.00000000000E+00  0.00000000000E+00  0.81239896278E+03  0.27423096614E+04  0.26192117524E+04 0.  0.
        5    1    3    3  502    0  0.80763798204E+03  0.48692492348E+03  0.13575690578E+04  0.16529945033E+04  0.46999998093E+01 0.  1.
       -5    1    3    3    0  502 -0.80763798204E+03 -0.48692492348E+03 -0.54517009504E+03  0.10893151581E+04  0.46999998093E+01 0. -1.
</event>
<event>
 5   0  0.6918420E-06  0.2605028E+04  0.7818609E-02  0.8366495E-01
        1   -1    0    0  501    0  0.00000000000E+00  0.00000000000E+00  0.15095967007E+04  0.15095967007E+04  0.50400001928E-02 0.  1.
       -1   -1    0    0    0  501  0.00000000000E+00  0.00000000000E+00 -0.11238386763E+04  0.11238386763E+04  0.50400001928E-02 0. -1.
    10030    2    1    2    0    0  0.00000000000E+00  0.00000000000E+00  0.38575802439E+03  0.26334353770E+04  0.26050283360E+04 0.  0.
        4    1    3    3  502    0 -0.92288407693E+03  0.80139467081E+03  0.64789069366E+03  0.13833699439E+04  0.12699999809E+01 0.  1.
       -4    1    3    3    0  502  0.92288407693E+03 -0.80139467081E+03 -0.26213266927E+03  0.12500654331E+04  0.12699999809E+01 0. -1.
</event>
<event>
 5   0  0.6993678E-06  0.2648847E+04  0.7818609E-02  0.8351796E-01
        1   -1    0    0  501    0  0.00000000000E+00  0.00000000000E+00  0.15293621249E+04  0.15293621249E+04  0.50400001928E-02 0. -1.
       -1   -1    0    0    0  501  0.00000000000E+00  0.00000000000E+00 -0.11469473122E+04  0.11469473122E+04  0.50400001928E-02 0.  1.
    10030    2    1    2    0    0  0.00000000000E+00  0.00000000000E+00  0.38241481270E+03  0.26763094371E+04  0.26488471292E+04 0.  0.
        1    1    3    3  502    0 -0.20363640830E+03  0.60677656277E+03 -0.98031908267E+03  0.11707566305E+04  0.50400001928E-02 0.  1.
       -1    1    3    3    0  502  0.20363640830E+03 -0.60677656277E+03  0.13627338954E+04  0.15055528066E+04  0.50400001928E-02 0. -1.
</event>
<event>
 5   0  0.1720129E-05  0.2550129E+04  0.7818609E-02  0.8385341E-01
        2   -1    0    0  501    0  0.00000000000E+00  0.00000000000E+00  0.17888390924E+04  0.17888390924E+04  0.25500000920E-02 0.  1.
       -2   -1    0    0    0  501  0.00000000000E+00  0.00000000000E+00 -0.90885174461E+03  0.90885174462E+03  0.25500000920E-02 0. -1.
    10030    2    1    2    0    0  0.00000000000E+00  0.00000000000E+00  0.87998734779E+03  0.26976908370E+04  0.25501290398E+04 0.  0.
        3    1    3    3  502    0  0.31456759636E+03  0.90972109234E+03  0.13245886765E+04  0.16374005040E+04  0.10100000352E+00 0.  1.
       -3    1    3    3    0  502 -0.31456759636E+03 -0.90972109234E+03 -0.44460132871E+03  0.10602903330E+04  0.10100000352E+00 0. -1.
</event>
<event>
 5   0  0.1702345E-05  0.2615529E+04  0.7818609E-02  0.8362945E-01
       -2   -1    0    0    0  501  0.00000000000E+00  0.00000000000E+00  0.12042743487E+04  0.12042743487E+04  0.25500000920E-02 0.  1.
        2   -1    0    0  501    0  0.00000000000E+00  0.00000000000E+00 -0.14201486404E+04  0.14201486404E+04  0.25500000920E-02 0. -1.
    10030    2    1    2    0    0  0.00000000000E+00  0.00000000000E+00 -0.21587429173E+03  0.26244229890E+04  0.26155294522E+04 0.  0.
        1    1    3    3  502    0 -0.10176486267E+04 -0.78129611753E+03 -0.36220801956E+03  0.13331267757E+04  0.50400001928E-02 0. -1.
       -1    1    3    3    0  502  0.10176486267E+04  0.78129611753E+03  0.14633372783E+03  0.12912962133E+04  0.50400001928E-02 0.  1.
</event>
<event>
 5   0  0.1720129E-05  0.2508265E+04  0.7818609E-02  0.8400047E-01
       -2   -1    0    0    0  501  0.00000000000E+00  0.00000000000E+00  0.13252214929E+04  0.13252214929E+04  0.25500000920E-02 0. -1.
        2   -1    0    0  501    0  0.00000000000E+00  0.00000000000E+00 -0.11868565293E+04  0.11868565293E+04  0.25500000920E-02 0.  1.
    10030    2    1    2    0    0  0.00000000000E+00  0.00000000000E+00  0.13836496368E+03  0.25120780222E+04  0.25082645647E+04 0.  0.
        3    1    3    3  502    0  0.10848179983E+03 -0.97329030785E+02 -0.11783463188E+04  0.11873252707E+04  0.10100000352E+00 0.  1.
       -3    1    3    3    0  502 -0.10848179983E+03  0.97329030785E+02  0.13167112825E+04  0.13247527515E+04  0.10100000352E+00 0. -1.
</event>
<event>
 5   0  0.6984287E-06  0.2607118E+04  0.7818609E-02  0.8365787E-01
        1   -1    0    0  501    0  0.00000000000E+00  0.00000000000E+00  0.11430063423E+04  0.11430063423E+04  0.50400001928E-02 0. -1.
       -1   -1    0    0    0  501  0.00000000000E+00  0.00000000000E+00 -0.14866642551E+04  0.14866642551E+04  0.50400001928E-02 0.  1.
    10030    2    1    2    0    0  0.00000000000E+00  0.00000000000E+00 -0.34365791278E+03  0.26296705975E+04  0.26071184649E+04 0.  0.
        3    1    3    3  502    0  0.44874378661E+03 -0.12216524528E+04 -0.24636650687E+03  0.13245762218E+04  0.10100000352E+00 0.  1.
       -3    1    3    3    0  502 -0.44874378661E+03  0.12216524528E+04 -0.97291405904E+02  0.13050943756E+04  0.10100000352E+00 0. -1.
</event>
<event>
 5   0  0.1681731E-05  0.2631548E+04  0.7818609E-02  0.8357564E-01
       -2   -1    0    0    0  501  0.00000000000E+00  0.00000000000E+00  0.11125525448E+04  0.11125525448E+04  0.25500000920E-02 0. -1.
        2   -1    0    0  501    0  0.00000000000E+00  0.00000000000E+00 -0.15561158251E+04  0.15561158251E+04  0.25500000920E-02 0.  1.
    10030    2    1    2    0    0  0.00000000000E+00  0.00000000000E+00 -0.44356328035E+03  0.26686683699E+04  0.26315475456E+04 0.  0.
        2    1    3    3  502    0 -0.34812283059E+03 -0.31542671862E+03  0.10246108845E+04  0.11271694570E+04  0.25500000920E-02 0. -1.
       -2    1    3    3    0  502  0.34812283059E+03  0.31542671862E+03 -0.14681741649E+04  0.15414989129E+04  0.25500000920E-02 0.  1.
</event>
<event>
 5   0  0.6993678E-06  0.2611164E+04  0.7818609E-02  0.8364419E-01
        1   -1    0    0  501    0  0.00000000000E+00  0.00000000000E+00  0.12917038305E+04  0.12917038305E+04  0.50400001928E-02 0.  1.
       -1   -1    0    0    0  501  0.00000000000E+00  0.00000000000E+00 -0.13196095762E+04  0.13196095762E+04  0.50400001928E-02 0. -1.
    10030    2    1    2    0    0  0.00000000000E+00  0.00000000000E+00 -0.27905745641E+02  0.26113134067E+04  0.26111642954E+04 0.  0.
        1    1    3    3  502    0  0.10027864149E+03 -0.10112647805E+04  0.80574781330E+03  0.12968969893E+04  0.50400001928E-02 0.  1.
       -1    1    3    3    0  502 -0.10027864149E+03  0.10112647805E+04 -0.83365355894E+03  0.13144164175E+04  0.50400001928E-02 0. -1.
</event>
<event>
 5   0  0.1720129E-05  0.2622489E+04  0.7818609E-02  0.8360602E-01
       -2   -1    0    0    0  501  0.00000000000E+00  0.00000000000E+00  0.11271414236E+04  0.11271414236E+04  0.25500000920E-02 0. -1.
        2   -1    0    0  501    0  0.00000000000E+00  0.00000000000E+00 -0.15254178976E+04  0.15254178976E+04  0.25500000920E-02 0.  1.
    10030    2    1    2    0    0  0.00000000000E+00  0.00000000000E+00 -0.39827647398E+03  0.26525593212E+04  0.26224886659E+04 0.  0.
        3    1    3    3  502    0 -0.69434798328E+03  0.47745261155E+03 -0.12152878526E+04  0.14788524920E+04  0.10100000352E+00 0.  1.
       -3    1    3    3    0  502  0.69434798328E+03 -0.47745261155E+03  0.81701137860E+03  0.11737068293E+04  0.10100000352E+00 0. -1.
</event>
<event>
 5   0  0.1681731E-05  0.2622584E+04  0.7818609E-02  0.8360570E-01
       -2   -1    0    0    0  501  0.00000000000E+00  0.00000000000E+00  0.98596687985E+03  0.98596687986E+03  0.25500000920E-02 0. -1.
        2   -1    0    0  501    0  0.00000000000E+00  0.00000000000E+00 -0.17439600558E+04  0.17439600558E+04  0.25500000920E-02 0.  1.
    10030    2    1    2    0    0  0.00000000000E+00  0.00000000000E+00 -0.75799317591E+03  0.27299269356E+04  0.26225841110E+04 0.  0.
        2    1    3    3  502    0 -0.92244242017E+03 -0.80492218376E+03 -0.86799796928E+03  0.15007398892E+04  0.25500000920E-02 0.  1.
       -2    1    3    3    0  502  0.92244242017E+03  0.80492218376E+03  0.11000479337E+03  0.12291870464E+04  0.25500000920E-02 0. -1.
</event>
<event>
 5   0  0.6993678E-06  0.2564532E+04  0.7818609E-02  0.8380350E-01
       -1   -1    0    0    0  501  0.00000000000E+00  0.00000000000E+00  0.88201084940E+03  0.88201084941E+03  0.50400001928E-02 0. -1.
        1   -1    0    0  501    0  0.00000000000E+00  0.00000000000E+00 -0.18641556476E+04  0.18641556476E+04  0.50400001928E-02 0.  1.
    10030    2    1    2    0    0  0.00000000000E+00  0.00000000000E+00 -0.98214479818E+03  0.27461664970E+04  0.25645315410E+04 0.  0.
        1    1    3    3  502    0 -0.98812314892E+03  0.76948642906E+03 -0.78571256856E+03  0.14784589823E+04  0.50400001928E-02 0.  1.
       -1    1    3    3    0  502  0.98812314892E+03 -0.76948642906E+03 -0.19643222962E+03  0.12677075147E+04  0.50400001928E-02 0. -1.
</event>
<event>
 5   0  0.1869956E-05  0.2577200E+04  0.7818609E-02  0.8375987E-01
        2   -1    0    0  501    0  0.00000000000E+00  0.00000000000E+00  0.71561568881E+03  0.71561568881E+03  0.25500000920E-02 0. -1.
       -2   -1    0    0    0  501  0.00000000000E+00  0.00000000000E+00 -0.23203654526E+04  0.23203654526E+04  0.25500000920E-02 0.  1.
    10030    2    1    2    0    0  0.00000000000E+00  0.00000000000E+00 -0.16047497638E+04  0.30359811414E+04  0.25771999703E+04 0.  0.
        5    1    3    3  502    0 -0.38712768171E+03  0.29203613944E+03 -0.22087667995E+04  0.22613769728E+04  0.46999998093E+01 0.  1.
       -5    1    3    3    0  502  0.38712768171E+03 -0.29203613944E+03  0.60401703566E+03  0.77460416863E+03  0.46999998093E+01 0. -1.
</event>
<event>
 5   0  0.1681731E-05  0.2602442E+04  0.7818609E-02  0.8367372E-01
        2   -1    0    0  501    0  0.00000000000E+00  0.00000000000E+00  0.16980980493E+04  0.16980980493E+04  0.25500000920E-02 0. -1.
       -2   -1    0    0    0  501  0.00000000000E+00  0.00000000000E+00 -0.99710121662E+03  0.99710121662E+03  0.25500000920E-02 0.  1.
    10030    2    1    2    0    0  0.00000000000E+00  0.00000000000E+00  0.70099683267E+03  0.26951992659E+04  0.26024416465E+04 0.  0.
        2    1    3    3  502    0  0.24268452272E+03 -0.80171677855E+03  0.13817457105E+04  0.16158176813E+04  0.25500000920E-02 0. -1.
       -2    1    3    3    0  502 -0.24268452272E+03  0.80171677855E+03 -0.68074887784E+03  0.10793815846E+04  0.25500000920E-02 0.  1.
</event>
<event>
 5   0  0.1869956E-05  0.2599988E+04  0.7818609E-02  0.8368205E-01
        2   -1    0    0  501    0  0.00000000000E+00  0.00000000000E+00  0.24584435548E+04  0.24584435548E+04  0.25500000920E-02 0.  1.
       -2   -1    0    0    0  501  0.00000000000E+00  0.00000000000E+00 -0.68742033152E+03  0.68742033153E+03  0.25500000920E-02 0. -1.
    10030    2    1    2    0    0  0.00000000000E+00  0.00000000000E+00  0.17710232233E+04  0.31458638864E+04  0.25999877565E+04 0.  0.
        5    1    3    3  502    0 -0.36723343773E+03 -0.97226196359E+03 -0.59343636896E+02  0.10410079159E+04  0.46999998093E+01 0. -1.
       -5    1    3    3    0  502  0.36723343773E+03  0.97226196359E+03  0.18303668602E+04  0.21048559705E+04  0.46999998093E+01 0.  1.
</event>
<event>
 5   0  0.6993678E-06  0.2668102E+04  0.7818609E-02  0.8345430E-01
        1   -1    0    0  501    0  0.00000000000E+00  0.00000000000E+00  0.13181926055E+04  0.13181926055E+04  0.50400001928E-02 0.  1.
       -1   -1    0    0    0  501  0.00000000000E+00  0.00000000000E+00 -0.13501002235E+04  0.13501002235E+04  0.50400001928E-02 0. -1.
    10030    2    1    2    0    0  0.00000000000E+00  0.00000000000E+00 -0.31907617951E+02  0.26682928290E+04  0.26681020455E+04 0.  0.
        1    1    3    3  502    0  0.53668339084E+03  0.50786733028E+03 -0.11267689545E+04  0.13474296138E+04  0.50400001928E-02 0. -1.
       -1    1    3    3    0  502 -0.53668339084E+03 -0.50786733028E+03  0.10948613366E+04  0.13208632153E+04  0.50400001928E-02 0.  1.
</event>
<event>
 5   0  0.1677971E-05  0.2602825E+04  0.7818609E-02  0.8367242E-01
       -2   -1    0    0    0  501  0.00000000000E+00  0.00000000000E+00  0.35141169129E+04  0.35141169129E+04  0.25500000920E-02 0. -1.
        2   -1    0    0  501    0  0.00000000000E+00  0.00000000000E+00 -0.48196308124E+03  0.48196308124E+03  0.25500000920E-02 0.  1.
    10030    2    1    2    0    0  0.00000000000E+00  0.00000000000E+00  0.30321538317E+04  0.39960799942E+04  0.26028250922E+04 0.  0.
        4    1    3    3  502    0  0.70123771438E+03 -0.42832496415E+03  0.30654809150E+04  0.31736999638E+04  0.12699999809E+01 0. -1.
       -4    1    3    3    0  502 -0.70123771438E+03  0.42832496415E+03 -0.33327083311E+02  0.82238003038E+03  0.12699999809E+01 0.  1.
</event>
<event>
 5   0  0.1720129E-05  0.2574415E+04  0.7818609E-02  0.8376944E-01
       -2   -1    0    0    0  501  0.00000000000E+00  0.00000000000E+00  0.75661031190E+03  0.75661031190E+03  0.25500000920E-02 0.  1.
        2   -1    0    0  501    0  0.00000000000E+00  0.00000000000E+00 -0.21899036828E+04  0.21899036828E+04  0.25500000920E-02 0. -1.
    10030    2    1    2    0    0  0.00000000000E+00  0.00000000000E+00 -0.14332933709E+04  0.29465139947E+04  0.25744154354E+04 0.  0.
        3    1    3    3  502    0 -0.41184785849E+02 -0.74645421459E+02  0.75337548290E+03  0.75818385235E+03  0.10100000352E+00 0.  1.
       -3    1    3    3    0  502  0.41184785849E+02  0.74645421459E+02 -0.21866688538E+04  0.21883301423E+04  0.10100000352E+00 0. -1.
</event>
<event>
 5   0  0.1869956E-05  0.2564797E+04  0.7818609E-02  0.8380258E-01
        2   -1    0    0  501    0  0.00000000000E+00  0.00000000000E+00  0.97768174105E+03  0.97768174105E+03  0.25500000920E-02 0. -1.
       -2   -1    0    0    0  501  0.00000000000E+00  0.00000000000E+00 -0.16820872656E+04  0.16820872656E+04  0.25500000920E-02 0.  1.
    10030    2    1    2    0    0  0.00000000000E+00  0.00000000000E+00 -0.70440552452E+03  0.26597690066E+04  0.25647970730E+04 0.  0.
        5    1    3    3  502    0 -0.94716930750E+02 -0.70958033580E+03 -0.14555784310E+04  0.16220993215E+04  0.46999998093E+01 0.  1.
       -5    1    3    3    0  502  0.94716930750E+02  0.70958033580E+03  0.75117290652E+03  0.10376696851E+04  0.46999998093E+01 0. -1.
</event>
<event>
 5   0  0.1720129E-05  0.2539504E+04  0.7818609E-02  0.8389046E-01
       -2   -1    0    0    0  501  0.00000000000E+00  0.00000000000E+00  0.10812076115E+04  0.10812076115E+04  0.25500000920E-02 0.  1.
        2   -1    0    0  501    0  0.00000000000E+00  0.00000000000E+00 -0.14911753675E+04  0.14911753675E+04  0.25500000920E-02 0. -1.
    10030    2    1    2    0    0  0.00000000000E+00  0.00000000000E+00 -0.40996775605E+03  0.25723829790E+04  0.25395040125E+04 0.  0.
        3    1    3    3  502    0 -0.80454761843E+03  0.42765090667E+03  0.69082328167E+03  0.11434242367E+04  0.10100000352E+00 0.  1.
       -3    1    3    3    0  502  0.80454761843E+03 -0.42765090667E+03 -0.11007910377E+04  0.14289587423E+04  0.10100000352E+00 0. -1.
</event>
<event>
 5   0  0.6984287E-06  0.2651574E+04  0.7818609E-02  0.8350891E-01
       -1   -1    0    0    0  501  0.00000000000E+00  0.00000000000E+00  0.11202944988E+04  0.11202944988E+04  0.50400001928E-02 0.  1.
        1   -1    0    0  501    0  0.00000000000E+00  0.00000000000E+00 -0.15689723082E+04  0.15689723082E+04  0.50400001928E-02 0. -1.
    10030    2    1    2    0    0  0.00000000000E+00  0.00000000000E+00 -0.44867780940E+03  0.26892668071E+04  0.26515739067E+04 0.  0.
        3    1    3    3  502    0 -0.79190729197E+02 -0.52488881547E+02 -0.15655153582E+04  0.15683955500E+04  0.10100000352E+00 0. -1.
       -3    1    3    3    0  502  0.79190729197E+02  0.52488881547E+02  0.11168375488E+04  0.11208712571E+04  0.10100000352E+00 0.  1.
</event>
<event>
 5   0  0.6984287E-06  0.2605040E+04  0.7818609E-02  0.8366491E-01
       -1   -1    0    0    0  501  0.00000000000E+00  0.00000000000E+00  0.11552846221E+04  0.11552846221E+04  0.50400001928E-02 0. -1.
        1   -1    0    0  501    0  0.00000000000E+00  0.00000000000E+00 -0.14685196208E+04  0.14685196208E+04  0.50400001928E-02 0.  1.
    10030    2    1    2    0    0  0.00000000000E+00  0.00000000000E+00 -0.31323499873E+03  0.26238042429E+04  0.26050398348E+04 0.  0.
        3    1    3    3  502    0 -0.14730000510E+03 -0.11279001988E+04  0.48254154856E+03  0.12355980359E+04  0.10100000352E+00 0. -1.
       -3    1    3    3    0  502  0.14730000510E+03  0.11279001988E+04 -0.79577654729E+03  0.13882062071E+04  0.10100000352E+00 0.  1.
</event>
<event>
 5   0  0.1677971E-05  0.2622093E+04  0.7818609E-02  0.8360735E-01
       -2   -1    0    0    0  501  0.00000000000E+00  0.00000000000E+00  0.78321741381E+03  0.78321741381E+03  0.25500000920E-02 0.  1.
        2   -1    0    0  501    0  0.00000000000E+00  0.00000000000E+00 -0.21945923136E+04  0.21945923136E+04  0.25500000920E-02 0. -1.
    10030    2    1    2    0    0  0.00000000000E+00  0.00000000000E+00 -0.14113748997E+04  0.29778097274E+04  0.26220929932E+04 0.  0.
        4    1    3    3  502    0  0.23492704415E+03  0.46786314258E+03  0.65935421451E+03  0.84192412327E+03  0.12699999809E+01 0.  1.
       -4    1    3    3    0  502 -0.23492704415E+03 -0.46786314258E+03 -0.20707291143E+04  0.21358856041E+04  0.12699999809E+01 0. -1.
</event>
<event>
 5   0  0.6706225E-06  0.2584465E+04  0.7818609E-02  0.8373497E-01
       -1   -1    0    0    0  501  0.00000000000E+00  0.00000000000E+00  0.14519325717E+04  0.14519325717E+04  0.50400001928E-02 0.  1.
        1   -1    0    0  501    0  0.00000000000E+00  0.00000000000E+00 -0.11500983515E+04  0.11500983515E+04  0.50400001928E-02 0. -1.
    10030    2    1    2    0    0  0.00000000000E+00  0.00000000000E+00  0.30183422023E+03  0.26020309232E+04  0.25844653275E+04 0.  0.
        5    1    3    3  502    0 -0.70266401762E+03 -0.51559609477E+03 -0.80964658764E+03  0.11895905772E+04  0.46999998093E+01 0. -1.
       -5    1    3    3    0  502  0.70266401762E+03  0.51559609477E+03  0.11114808079E+04  0.14124403460E+04  0.46999998093E+01 0.  1.
</event>
<event>
 5   0  0.6984287E-06  0.2606076E+04  0.7818609E-02  0.8366140E-01
        1   -1    0    0  501    0  0.00000000000E+00  0.00000000000E+00  0.98311278947E+03  0.98311278948E+03  0.50400001928E-02 0. -1.
       -1   -1    0    0    0  501  0.00000000000E+00  0.00000000000E+00 -0.17270733624E+04  0.17270733624E+04  0.50400001928E-02 0.  1.
    10030    2    1    2    0    0  0.00000000000E+00  0.00000000000E+00 -0.74396057295E+03  0.27101861519E+04  0.26060759091E+04 0.  0.
        3    1    3    3  502    0  0.16533648387E+03 -0.11276295075E+04  0.28493786996E+03  0.11747655336E+04  0.10100000352E+00 0. -1.
       -3    1    3    3    0  502 -0.16533648387E+03  0.11276295075E+04 -0.10288984429E+04  0.15354206183E+04  0.10100000352E+00 0.  1.
</event>
<event>
 5   0  0.5840500E-06  0.2583140E+04  0.7818609E-02  0.8373951E-01
        3   -1    0    0  501    0  0.00000000000E+00  0.00000000000E+00  0.24038895760E+04  0.24038895781E+04  0.10100000352E+00 0.  1.
       -3   -1    0    0    0  501  0.00000000000E+00  0.00000000000E+00 -0.69393905328E+03  0.69393906063E+03  0.10100000352E+00 0. -1.
    10030    2    1    2    0    0  0.00000000000E+00  0.00000000000E+00  0.17099505227E+04  0.30978286387E+04  0.25831398500E+04 0.  0.
        1    1    3    3  502    0  0.20082544388E+03  0.10178534105E+04  0.17775374432E+04  0.20581534894E+04  0.50400001928E-02 0.  1.
       -1    1    3    3    0  502 -0.20082544388E+03 -0.10178534105E+04 -0.67586920495E+02  0.10396751493E+04  0.50400001928E-02 0. -1.
</event>
<event>
 5   0  0.6984287E-06  0.2618500E+04  0.7818609E-02  0.8361944E-01
       -1   -1    0    0    0  501  0.00000000000E+00  0.00000000000E+00  0.10726104509E+04  0.10726104509E+04  0.50400001928E-02 0.  1.
        1   -1    0    0  501    0  0.00000000000E+00  0.00000000000E+00 -0.15980974256E+04  0.15980974256E+04  0.50400001928E-02 0. -1.
    10030    2    1    2    0    0  0.00000000000E+00  0.00000000000E+00 -0.52548697474E+03  0.26707078765E+04  0.26185003343E+04 0.  0.
        3    1    3    3  502    0 -0.22834879377E+03 -0.53162944664E+03  0.93513573452E+03  0.10996598985E+04  0.10100000352E+00 0.  1.
       -3    1    3    3    0  502  0.22834879377E+03  0.53162944664E+03 -0.14606227093E+04  0.15710479780E+04  0.10100000352E+00 0. -1.
</event>
<event>
 5   0  0.1702345E-05  0.2553472E+04  0.7818609E-02  0.8384180E-01
       -2   -1    0    0    0  501  0.00000000000E+00  0.00000000000E+00  0.79807219255E+03  0.79807219255E+03  0.25500000920E-02 0.  1.
        2   -1    0    0  501    0  0.00000000000E+00  0.00000000000E+00 -0.20424905336E+04  0.20424905336E+04  0.25500000920E-02 0. -1.
    10030    2    1    2    0    0  0.00000000000E+00  0.00000000000E+00 -0.12444183410E+04  0.28405627261E+04  0.25534720663E+04 0.  0.
        1    1    3    3  502    0  0.19306861035E+03 -0.53239030907E+03 -0.18951244083E+04  0.19779311040E+04  0.50400001928E-02 0. -1.
       -1    1    3    3    0  502 -0.19306861035E+03  0.53239030907E+03  0.65070606723E+03  0.86263162210E+03  0.50400001928E-02 0.  1.
</event>
<event>
 5   0  0.7138294E-06  0.2501387E+04  0.7818609E-02  0.8402492E-01
        1   -1    0    0  501    0  0.00000000000E+00  0.00000000000E+00  0.17140803489E+04  0.17140803489E+04  0.50400001928E-02 0.  1.
       -1   -1    0    0    0  501  0.00000000000E+00  0.00000000000E+00 -0.91257917122E+03  0.91257917124E+03  0.50400001928E-02 0. -1.
    10030    2    1    2    0    0  0.00000000000E+00  0.00000000000E+00  0.80150117771E+03  0.26266595202E+04  0.25013868347E+04 0.  0.
        2    1    3    3  502    0  0.17800887458E+03  0.80677703173E+03  0.13867415198E+04  0.16141958930E+04  0.25500000920E-02 0.  1.
       -2    1    3    3    0  502 -0.17800887458E+03 -0.80677703173E+03 -0.58524034206E+03  0.10124636272E+04  0.25500000920E-02 0. -1.
</event>
<event>
 5   0  0.6984287E-06  0.2686786E+04  0.7818609E-02  0.8339305E-01
       -1   -1    0    0    0  501  0.00000000000E+00  0.00000000000E+00  0.84722719267E+03  0.84722719268E+03  0.50400001928E-02 0. -1.
        1   -1    0    0  501    0  0.00000000000E+00  0.00000000000E+00 -0.21301311217E+04  0.21301311217E+04  0.50400001928E-02 0.  1.
    10030    2    1    2    0    0  0.00000000000E+00  0.00000000000E+00 -0.12829039290E+04  0.29773583144E+04  0.26867861919E+04 0.  0.
        3    1    3    3  502    0 -0.11695966188E+04  0.46081121375E+03 -0.11663937443E+04  0.17148695585E+04  0.10100000352E+00 0.  1.
       -3    1    3    3    0  502  0.11695966188E+04 -0.46081121375E+03 -0.11651018472E+03  0.12624887559E+04  0.10100000352E+00 0. -1.
</event>
<event>
 5   0  0.7138294E-06  0.2606200E+04  0.7818609E-02  0.8366098E-01
       -1   -1    0    0    0  501  0.00000000000E+00  0.00000000000E+00  0.74105774879E+03  0.74105774881E+03  0.50400001928E-02 0.  1.
        1   -1    0    0  501    0  0.00000000000E+00  0.00000000000E+00 -0.22914128179E+04  0.22914128179E+04  0.50400001928E-02 0. -1.
    10030    2    1    2    0    0  0.00000000000E+00  0.00000000000E+00 -0.15503550691E+04  0.30324705667E+04  0.26061997041E+04 0.  0.
        2    1    3    3  502    0 -0.18451697856E+03 -0.12502495790E+04 -0.11447772998E+04  0.17051937108E+04  0.25500000920E-02 0.  1.
       -2    1    3    3    0  502  0.18451697856E+03  0.12502495790E+04 -0.40557776934E+03  0.13272768559E+04  0.25500000920E-02 0. -1.
</event>
<event>
 5   0  0.6984287E-06  0.2607338E+04  0.7818609E-02  0.8365713E-01
       -1   -1    0    0    0  501  0.00000000000E+00  0.00000000000E+00  0.10482600148E+04  0.10482600148E+04  0.50400001928E-02 0.  1.
        1   -1    0    0  501    0  0.00000000000E+00  0.00000000000E+00 -0.16213087472E+04  0.16213087472E+04  0.50400001928E-02 0. -1.
    10030    2    1    2    0    0  0.00000000000E+00  0.00000000000E+00 -0.57304873240E+03  0.26695687620E+04  0.26073382069E+04 0.  0.
        3    1    3    3  502    0 -0.19017157889E+03  0.97121553737E+03 -0.11553821052E+04  0.15212930910E+04  0.10100000352E+00 0. -1.
       -3    1    3    3    0  502  0.19017157889E+03 -0.97121553737E+03  0.58233337278E+03  0.11482756710E+04  0.10100000352E+00 0.  1.
</event>
<event>
 5   0  0.1869956E-05  0.2632877E+04  0.7818609E-02  0.8357119E-01
       -2   -1    0    0    0  501  0.00000000000E+00  0.00000000000E+00  0.14903727932E+04  0.14903727932E+04  0.25500000920E-02 0. -1.
        2   -1    0    0  501    0  0.00000000000E+00  0.00000000000E+00 -0.11628030950E+04  0.11628030950E+04  0.25500000920E-02 0.  1.
    10030    2    1    2    0    0  0.00000000000E+00  0.00000000000E+00  0.32756969825E+03  0.26531758882E+04  0.26328768271E+04 0.  0.
        5    1    3    3  502    0 -0.86996160911E+03  0.77746220065E+02  0.11563203840E+04  0.14491295996E+04  0.46999998093E+01 0. -1.
       -5    1    3    3    0  502  0.86996160911E+03 -0.77746220065E+02 -0.82875068572E+03  0.12040462886E+04  0.46999998093E+01 0.  1.
</event>
<event>
 5   0  0.1702345E-05  0.2249718E+04  0.7818609E-02  0.8498015E-01
        2   -1    0    0  501    0  0.00000000000E+00  0.00000000000E+00  0.72418380754E+03  0.72418380754E+03  0.25500000920E-02 0. -1.
       -2   -1    0    0    0  501  0.00000000000E+00  0.00000000000E+00 -0.17472191263E+04  0.17472191264E+04  0.25500000920E-02 0.  1.
    10030    2    1    2    0    0  0.00000000000E+00  0.00000000000E+00 -0.10230353188E+04  0.24714029339E+04  0.22497180264E+04 0.  0.
        1    1    3    3  502    0 -0.20408226144E+02  0.51141482891E+03 -0.16118930518E+04  0.16912010032E+04  0.50400001928E-02 0.  1.
       -1    1    3    3    0  502  0.20408226144E+02 -0.51141482891E+03  0.58885773296E+03  0.78020193067E+03  0.50400001928E-02 0. -1.
</event>
<event>
 5   0  0.6993678E-06  0.2604897E+04  0.7818609E-02  0.8366540E-01
       -1   -1    0    0    0  501  0.00000000000E+00  0.00000000000E+00  0.11333403111E+04  0.11333403111E+04  0.50400001928E-02 0. -1.
        1   -1    0    0  501    0  0.00000000000E+00  0.00000000000E+00 -0.14967895147E+04  0.14967895147E+04  0.50400001928E-02 0.  1.
    10030    2    1    2    0    0  0.00000000000E+00  0.00000000000E+00 -0.36344920357E+03  0.26301298258E+04  0.26048968458E+04 0.  0.
        1    1    3    3  502    0 -0.31619745459E+03 -0.77592158666E+03 -0.11885482391E+04  0.14541946416E+04  0.50400001928E-02 0.  1.
       -1    1    3    3    0  502  0.31619745459E+03  0.77592158666E+03  0.82509903556E+03  0.11759351842E+04  0.50400001928E-02 0. -1.
</event>
<event>
 5   0  0.1681731E-05  0.2486331E+04  0.7818609E-02  0.8407871E-01
       -2   -1    0    0    0  501  0.00000000000E+00  0.00000000000E+00  0.49142858105E+03  0.49142858105E+03  0.25500000920E-02 0. -1.
        2   -1    0    0  501    0  0.00000000000E+00  0.00000000000E+00 -0.31448333207E+04  0.31448333207E+04  0.25500000920E-02 0.  1.
    10030    2    1    2    0    0  0.00000000000E+00  0.00000000000E+00 -0.26534047396E+04  0.36362619017E+04  0.24863314151E+04 0.  0.
        2    1    3    3  502    0 -0.42065968519E+02 -0.44919675794E+03 -0.30208780075E+04  0.30543822959E+04  0.25500000920E-02 0.  1.
       -2    1    3    3    0  502  0.42065968519E+02  0.44919675794E+03  0.36747326791E+03  0.58187960583E+03  0.25500000920E-02 0. -1.
</event>
<event>
 5   0  0.1869956E-05  0.2544592E+04  0.7818609E-02  0.8387270E-01
        2   -1    0    0  501    0  0.00000000000E+00  0.00000000000E+00  0.21321170072E+04  0.21321170072E+04  0.25500000920E-02 0.  1.
       -2   -1    0    0    0  501  0.00000000000E+00  0.00000000000E+00 -0.75921570451E+03  0.75921570452E+03  0.25500000920E-02 0. -1.
    10030    2    1    2    0    0  0.00000000000E+00  0.00000000000E+00  0.13729013027E+04  0.28913327117E+04  0.25445916889E+04 0.  0.
        5    1    3    3  502    0  0.52229610179E+03  0.89158059721E+03  0.15298978716E+04  0.18461632557E+04  0.46999998093E+01 0.  1.
       -5    1    3    3    0  502 -0.52229610179E+03 -0.89158059721E+03 -0.15699656883E+03  0.10451694561E+04  0.46999998093E+01 0. -1.
</event>
<event>
 5   0  0.7138294E-06  0.2318219E+04  0.7818609E-02  0.8470772E-01
       -1   -1    0    0    0  501  0.00000000000E+00  0.00000000000E+00  0.92664896388E+03  0.92664896390E+03  0.50400001928E-02 0. -1.
        1   -1    0    0  501    0  0.00000000000E+00  0.00000000000E+00 -0.14498849925E+04  0.14498849925E+04  0.50400001928E-02 0.  1.
    10030    2    1    2    0    0  0.00000000000E+00  0.00000000000E+00 -0.52323602860E+03  0.23765339564E+04  0.23182186489E+04 0.  0.
        2    1    3    3  502    0  0.77320437196E+02 -0.44798608065E+03 -0.13546779378E+04  0.14289234737E+04  0.25500000920E-02 0.  1.
       -2    1    3    3    0  502 -0.77320437196E+02  0.44798608065E+03  0.83144190923E+03  0.94761048268E+03  0.25500000920E-02 0. -1.
</event>
<event>
 5   0  0.1681731E-05  0.2604902E+04  0.7818609E-02  0.8366538E-01
       -2   -1    0    0    0  501  0.00000000000E+00  0.00000000000E+00  0.13317759064E+04  0.13317759064E+04  0.25500000920E-02 0.  1.
        2   -1    0    0  501    0  0.00000000000E+00  0.00000000000E+00 -0.12737717773E+04  0.12737717773E+04  0.25500000920E-02 0. -1.
    10030    2    1    2    0    0  0.00000000000E+00  0.00000000000E+00  0.58004129153E+02  0.26055476837E+04  0.26049019661E+04 0.  0.
        2    1    3    3  502    0 -0.33319396095E+03 -0.12373417113E+04  0.26218178825E+03  0.13079648375E+04  0.25500000920E-02 0.  1.
       -2    1    3    3    0  502  0.33319396095E+03  0.12373417113E+04 -0.20417765910E+03  0.12975828461E+04  0.25500000920E-02 0. -1.
</event>
<event>
 5   0  0.1720129E-05  0.2632669E+04  0.7818609E-02  0.8357188E-01
        2   -1    0    0  501    0  0.00000000000E+00  0.00000000000E+00  0.14185499861E+04  0.14185499861E+04  0.25500000920E-02 0.  1.
       -2   -1    0    0    0  501  0.00000000000E+00  0.00000000000E+00 -0.12214842800E+04  0.12214842800E+04  0.25500000920E-02 0. -1.
    10030    2    1    2    0    0  0.00000000000E+00  0.00000000000E+00  0.19706570609E+03  0.26400342661E+04  0.26326689943E+04 0.  0.
        3    1    3    3  502    0 -0.50778147683E+03  0.11933673533E+04 -0.12741690625E+03  0.13031510834E+04  0.10100000352E+00 0.  1.
       -3    1    3    3    0  502  0.50778147683E+03 -0.11933673533E+04  0.32448261234E+03  0.13368831826E+04  0.10100000352E+00 0. -1.
</event>
<event>
 5   0  0.5840500E-06  0.2755938E+04  0.7818609E-02  0.8317080E-01
       -3   -1    0    0    0  501  0.00000000000E+00  0.00000000000E+00  0.12302205693E+04  0.12302205734E+04  0.10100000352E+00 0. -1.
        3   -1    0    0  501    0  0.00000000000E+00  0.00000000000E+00 -0.15434623317E+04  0.15434623350E+04  0.10100000352E+00 0.  1.
    10030    2    1    2    0    0  0.00000000000E+00  0.00000000000E+00 -0.31324176246E+03  0.27736829084E+04  0.27559384018E+04 0.  0.
        4    1    3    3  502    0  0.12898177890E+04 -0.20469640720E+03  0.28583106438E+03  0.13368738004E+04  0.12699999809E+01 0. -1.
       -4    1    3    3    0  502 -0.12898177890E+04  0.20469640720E+03 -0.59907282684E+03  0.14368091080E+04  0.12699999809E+01 0.  1.
</event>
<event>
 5   0  0.6706225E-06  0.2599082E+04  0.7818609E-02  0.8368513E-01
        1   -1    0    0  501    0  0.00000000000E+00  0.00000000000E+00  0.15686236415E+04  0.15686236415E+04  0.50400001928E-02 0. -1.
       -1   -1    0    0    0  501  0.00000000000E+00  0.00000000000E+00 -0.10766167898E+04  0.10766167898E+04  0.50400001928E-02 0.  1.
    10030    2    1    2    0    0  0.00000000000E+00  0.00000000000E+00  0.49200685172E+03  0.26452404313E+04  0.25990817989E+04 0.  0.
        5    1    3    3  502    0  0.10133183813E+04  0.23763982951E+03 -0.54595325635E+03  0.11753186285E+04  0.46999998093E+01 0.  1.
       -5    1    3    3    0  502 -0.10133183813E+04 -0.23763982951E+03  0.10379601081E+04  0.14699218028E+04  0.46999998093E+01 0. -1.
</event>
<event>
 5   0  0.1702345E-05  0.2605530E+04  0.7818609E-02  0.8366325E-01
        2   -1    0    0  501    0  0.00000000000E+00  0.00000000000E+00  0.13748582530E+04  0.13748582530E+04  0.25500000920E-02 0.  1.
       -2   -1    0    0    0  501  0.00000000000E+00  0.00000000000E+00 -0.12344520078E+04  0.12344520078E+04  0.25500000920E-02 0. -1.
    10030    2    1    2    0    0  0.00000000000E+00  0.00000000000E+00  0.14040624521E+03  0.26093102608E+04  0.26055299122E+04 0.  0.
        1    1    3    3  502    0 -0.54089625266E+03  0.93178927932E+03  0.80365670126E+03  0.13441220595E+04  0.50400001928E-02 0.  1.
       -1    1    3    3    0  502  0.54089625266E+03 -0.93178927932E+03 -0.66325045606E+03  0.12651882013E+04  0.50400001928E-02 0. -1.
</event>
<event>
 5   0  0.6918420E-06  0.2588879E+04  0.7818609E-02  0.8371989E-01
       -1   -1    0    0    0  501  0.00000000000E+00  0.00000000000E+00  0.11067515700E+04  0.11067515700E+04  0.50400001928E-02 0.  1.
        1   -1    0    0  501    0  0.00000000000E+00  0.00000000000E+00 -0.15139564578E+04  0.15139564578E+04  0.50400001928E-02 0. -1.
    10030    2    1    2    0    0  0.00000000000E+00  0.00000000000E+00 -0.40720488781E+03  0.26207080278E+04  0.25888790521E+04 0.  0.
        4    1    3    3  502    0  0.41019217127E+03  0.13364662162E+03 -0.14390385361E+04  0.15023157319E+04  0.12699999809E+01 0. -1.
       -4    1    3    3    0  502 -0.41019217127E+03 -0.13364662162E+03  0.10318336483E+04  0.11183922959E+04  0.12699999809E+01 0.  1.
</event>
<event>
 5   0  0.7138294E-06  0.2598664E+04  0.7818609E-02  0.8368655E-01
       -1   -1    0    0    0  501  0.00000000000E+00  0.00000000000E+00  0.13798338106E+04  0.13798338106E+04  0.50400001928E-02 0.  1.
        1   -1    0    0  501    0  0.00000000000E+00  0.00000000000E+00 -0.12235272465E+04  0.12235272465E+04  0.50400001928E-02 0. -1.
    10030    2    1    2    0    0  0.00000000000E+00  0.00000000000E+00  0.15630656410E+03  0.26033610570E+04  0.25986644745E+04 0.  0.
        2    1    3    3  502    0  0.32230972086E+03  0.11278547146E+04  0.63802326817E+03  0.13352952873E+04  0.25500000920E-02 0.  1.
       -2    1    3    3    0  502 -0.32230972086E+03 -0.11278547146E+04 -0.48171670407E+03  0.12680657698E+04  0.25500000920E-02 0. -1.
</event>
<event>
 5   0  0.1677971E-05  0.2596085E+04  0.7818609E-02  0.8369532E-01
       -2   -1    0    0    0  501  0.00000000000E+00  0.00000000000E+00  0.14321450354E+04  0.14321450354E+04  0.25500000920E-02 0. -1.
        2   -1    0    0  501    0  0.00000000000E+00  0.00000000000E+00 -0.11764965865E+04  0.11764965865E+04  0.25500000920E-02 0.  1.
    10030    2    1    2    0    0  0.00000000000E+00  0.00000000000E+00  0.25564844897E+03  0.26086416219E+04  0.25960845483E+04 0.  0.
        4    1    3    3  502    0 -0.20648552844E+03 -0.12747334204E+04 -0.44581438624E+01  0.12913570592E+04  0.12699999809E+01 0.  1.
       -4    1    3    3    0  502  0.20648552844E+03  0.12747334204E+04  0.26010659283E+03  0.13172845627E+04  0.12699999809E+01 0. -1.
</event>
<event>
 5   0  0.1681731E-05  0.2597473E+04  0.7818609E-02  0.8369060E-01
       -2   -1    0    0    0  501  0.00000000000E+00  0.00000000000E+00  0.11177975279E+04  0.11177975279E+04  0.25500000920E-02 0. -1.
        2   -1    0    0  501    0  0.00000000000E+00  0.00000000000E+00 -0.15089639877E+04  0.15089639877E+04  0.25500000920E-02 0.  1.
    10030    2    1    2    0    0  0.00000000000E+00  0.00000000000E+00 -0.39116645984E+03  0.26267615156E+04  0.25974727834E+04 0.  0.
        2    1    3    3  502    0 -0.55594530598E+03 -0.10775336329E+04 -0.66619314052E+03  0.13834620391E+04  0.25500000920E-02 0.  1.
       -2    1    3    3    0  502  0.55594530598E+03  0.10775336329E+04  0.27502668068E+03  0.12432994765E+04  0.25500000920E-02 0. -1.
</event>
<event>
 5   0  0.1720129E-05  0.2641484E+04  0.7818609E-02  0.8354245E-01
       -2   -1    0    0    0  501  0.00000000000E+00  0.00000000000E+00  0.11050576969E+04  0.11050576969E+04  0.25500000920E-02 0.  1.
        2   -1    0    0  501    0  0.00000000000E+00  0.00000000000E+00 -0.15785238785E+04  0.15785238785E+04  0.25500000920E-02 0. -1.
    10030    2    1    2    0    0  0.00000000000E+00  0.00000000000E+00 -0.47346618159E+03  0.26835815754E+04  0.26414844021E+04 0.  0.
        3    1    3    3  502    0 -0.37616274280E+03 -0.12655104084E+04 -0.19947508508E+03  0.13352173316E+04  0.10100000352E+00 0.  1.
       -3    1    3    3    0  502  0.37616274280E+03  0.12655104084E+04 -0.27399109651E+03  0.13483642438E+04  0.10100000352E+00 0. -1.
</event>
<event>
 5   0  0.7138294E-06  0.2584324E+04  0.7818609E-02  0.8373545E-01
       -1   -1    0    0    0  501  0.00000000000E+00  0.00000000000E+00  0.13074414202E+04  0.13074414202E+04  0.50400001928E-02 0.  1.
        1   -1    0    0  501    0  0.00000000000E+00  0.00000000000E+00 -0.12770612438E+04  0.12770612439E+04  0.50400001928E-02 0. -1.
    10030    2    1    2    0    0  0.00000000000E+00  0.00000000000E+00  0.30380176358E+02  0.25845026641E+04  0.25843241023E+04 0.  0.
        2    1    3    3  502    0 -0.21254168432E+03 -0.15361584248E+00  0.12898403427E+04  0.13072345240E+04  0.25500000920E-02 0.  1.
       -2    1    3    3    0  502  0.21254168432E+03  0.15361584248E+00 -0.12594601663E+04  0.12772681401E+04  0.25500000920E-02 0. -1.
</event>
<event>
 5   0  0.1677971E-05  0.2593158E+04  0.7818609E-02  0.8370529E-01
        2   -1    0    0  501    0  0.00000000000E+00  0.00000000000E+00  0.19358963821E+04  0.19358963821E+04  0.25500000920E-02 0.  1.
       -2   -1    0    0    0  501  0.00000000000E+00  0.00000000000E+00 -0.86839215034E+03  0.86839215035E+03  0.25500000920E-02 0. -1.
    10030    2    1    2    0    0  0.00000000000E+00  0.00000000000E+00  0.10675042317E+04  0.28042885324E+04  0.25931580917E+04 0.  0.
        4    1    3    3  502    0  0.84533291700E+03  0.37305774129E+03 -0.44989620982E+03  0.10277003607E+04  0.12699999809E+01 0. -1.
       -4    1    3    3    0  502 -0.84533291700E+03 -0.37305774129E+03  0.15174004416E+04  0.17765881717E+04  0.12699999809E+01 0.  1.
</event>
<event>
 5   0  0.1720129E-05  0.2632075E+04  0.7818609E-02  0.8357387E-01
       -2   -1    0    0    0  501  0.00000000000E+00  0.00000000000E+00  0.11385669637E+04  0.11385669637E+04  0.25500000920E-02 0.  1.
        2   -1    0    0  501    0  0.00000000000E+00  0.00000000000E+00 -0.15211711685E+04  0.15211711685E+04  0.25500000920E-02 0. -1.
    10030    2    1    2    0    0  0.00000000000E+00  0.00000000000E+00 -0.38260420480E+03  0.26597381322E+04  0.26320754082E+04 0.  0.
        3    1    3    3  502    0 -0.12134370997E+04  0.48940383806E+03 -0.48360432115E+02  0.13093068598E+04  0.10100000352E+00 0.  1.
       -3    1    3    3    0  502  0.12134370997E+04 -0.48940383806E+03 -0.33424377268E+03  0.13504312724E+04  0.10100000352E+00 0. -1.
</event>
<event>
 5   0  0.6984287E-06  0.2557551E+04  0.7818609E-02  0.8382765E-01
        1   -1    0    0  501    0  0.00000000000E+00  0.00000000000E+00  0.13931604922E+04  0.13931604922E+04  0.50400001928E-02 0.  1.
       -1   -1    0    0    0  501  0.00000000000E+00  0.00000000000E+00 -0.11737816551E+04  0.11737816552E+04  0.50400001928E-02 0. -1.
    10030    2    1    2    0    0  0.00000000000E+00  0.00000000000E+00  0.21937883705E+03  0.25669421474E+04  0.25575505691E+04 0.  0.
        3    1    3    3  502    0  0.83586470256E+03  0.49668035183E+03  0.94334471128E+03  0.13547178405E+04  0.10100000352E+00 0.  1.
       -3    1    3    3    0  502 -0.83586470256E+03 -0.49668035183E+03 -0.72396587422E+03  0.12122243069E+04  0.10100000352E+00 0. -1.
</event>
<event>
 5   0  0.1702345E-05  0.2618325E+04  0.7818609E-02  0.8362003E-01
       -2   -1    0    0    0  501  0.00000000000E+00  0.00000000000E+00  0.78571716379E+03  0.78571716379E+03  0.25500000920E-02 0. -1.
        2   -1    0    0  501    0  0.00000000000E+00  0.00000000000E+00 -0.21813274077E+04  0.21813274077E+04  0.25500000920E-02 0.  1.
    10030    2    1    2    0    0  0.00000000000E+00  0.00000000000E+00 -0.13956102439E+04  0.29670445715E+04  0.26183249485E+04 0.  0.
        1    1    3    3  502    0 -0.12030152186E+04 -0.49924140911E+03 -0.84736304856E+03  0.15538699227E+04  0.50400001928E-02 0.  1.
       -1    1    3    3    0  502  0.12030152186E+04  0.49924140911E+03 -0.54824719533E+03  0.14131746487E+04  0.50400001928E-02 0. -1.
</event>
<event>
 5   0  0.7138294E-06  0.2545109E+04  0.7818609E-02  0.8387089E-01
       -1   -1    0    0    0  501  0.00000000000E+00  0.00000000000E+00  0.10276488626E+04  0.10276488626E+04  0.50400001928E-02 0.  1.
        1   -1    0    0  501    0  0.00000000000E+00  0.00000000000E+00 -0.15758257012E+04  0.15758257012E+04  0.50400001928E-02 0. -1.
    10030    2    1    2    0    0  0.00000000000E+00  0.00000000000E+00 -0.54817683858E+03  0.26034745638E+04  0.25451094196E+04 0.  0.
        2    1    3    3  502    0  0.52545085836E+03 -0.10789619259E+04 -0.70704146457E+03  0.13928980848E+04  0.25500000920E-02 0. -1.
       -2    1    3    3    0  502 -0.52545085836E+03  0.10789619259E+04  0.15886462600E+03  0.12105764790E+04  0.25500000920E-02 0.  1.
</event>
<event>
 5   0  0.6993678E-06  0.2581481E+04  0.7818609E-02  0.8374519E-01
        1   -1    0    0  501    0  0.00000000000E+00  0.00000000000E+00  0.10315816044E+04  0.10315816044E+04  0.50400001928E-02 0. -1.
       -1   -1    0    0    0  501  0.00000000000E+00  0.00000000000E+00 -0.16150069711E+04  0.16150069711E+04  0.50400001928E-02 0.  1.
    10030    2    1    2    0    0  0.00000000000E+00  0.00000000000E+00 -0.58342536671E+03  0.26465885755E+04  0.25814813440E+04 0.  0.
        1    1    3    3  502    0 -0.67823610208E+03 -0.72303987626E+03 -0.11391311463E+04  0.15101028579E+04  0.50400001928E-02 0.  1.
       -1    1    3    3    0  502  0.67823610208E+03  0.72303987626E+03  0.55570577961E+03  0.11364857176E+04  0.50400001928E-02 0. -1.
</event>
<event>
 5   0  0.1677971E-05  0.2608063E+04  0.7818609E-02  0.8365467E-01
        2   -1    0    0  501    0  0.00000000000E+00  0.00000000000E+00  0.16690973995E+04  0.16690973995E+04  0.25500000920E-02 0. -1.
       -2   -1    0    0    0  501  0.00000000000E+00  0.00000000000E+00 -0.10188131825E+04  0.10188131825E+04  0.25500000920E-02 0.  1.
    10030    2    1    2    0    0  0.00000000000E+00  0.00000000000E+00  0.65028421701E+03  0.26879105820E+04  0.26080632151E+04 0.  0.
        4    1    3    3  502    0  0.69667772634E+03 -0.45300105176E+03 -0.71057630566E+03  0.10933847019E+04  0.12699999809E+01 0.  1.
       -4    1    3    3    0  502 -0.69667772634E+03  0.45300105176E+03  0.13608605227E+04  0.15945258801E+04  0.12699999809E+01 0. -1.
</event>
<event>
 5   0  0.1677971E-05  0.2610375E+04  0.7818609E-02  0.8364685E-01
        2   -1    0    0  501    0  0.00000000000E+00  0.00000000000E+00  0.21489279192E+04  0.21489279192E+04  0.25500000920E-02 0. -1.
       -2   -1    0    0    0  501  0.00000000000E+00  0.00000000000E+00 -0.79272783749E+03  0.79272783750E+03  0.25500000920E-02 0.  1.
    10030    2    1    2    0    0  0.00000000000E+00  0.00000000000E+00  0.13562000818E+04  0.29416557567E+04  0.26103754384E+04 0.  0.
        4    1    3    3  502    0 -0.75150119448E+03 -0.84318236994E+03  0.14151733644E+04  0.18106429296E+04  0.12699999809E+01 0. -1.
       -4    1    3    3    0  502  0.75150119448E+03  0.84318236994E+03 -0.58973282604E+02  0.11310128272E+04  0.12699999809E+01 0.  1.
</event>
<event>
 5   0  0.1677971E-05  0.2441041E+04  0.7818609E-02  0.8424296E-01
        2   -1    0    0  501    0  0.00000000000E+00  0.00000000000E+00  0.14853227128E+04  0.14853227128E+04  0.25500000920E-02 0. -1.
       -2   -1    0    0    0  501  0.00000000000E+00  0.00000000000E+00 -0.10029269750E+04  0.10029269750E+04  0.25500000920E-02 0.  1.
    10030    2    1    2    0    0  0.00000000000E+00  0.00000000000E+00  0.48239573777E+03  0.24882496877E+04  0.24410409379E+04 0.  0.
        4    1    3    3  502    0  0.10663025443E+04  0.54539635846E+03  0.48071078758E+03  0.12905590951E+04  0.12699999809E+01 0. -1.
       -4    1    3    3    0  502 -0.10663025443E+04 -0.54539635846E+03  0.16849501901E+01  0.11976905926E+04  0.12699999809E+01 0.  1.
</event>
<event>
 5   0  0.6993678E-06  0.2580838E+04  0.7818609E-02  0.8374739E-01
        1   -1    0    0  501    0  0.00000000000E+00  0.00000000000E+00  0.18036907431E+04  0.18036907431E+04  0.50400001928E-02 0. -1.
       -1   -1    0    0    0  501  0.00000000000E+00  0.00000000000E+00 -0.92320739700E+03  0.92320739702E+03  0.50400001928E-02 0.  1.
    10030    2    1    2    0    0  0.00000000000E+00  0.00000000000E+00  0.88048334607E+03  0.27268981401E+04  0.25808375663E+04 0.  0.
        1    1    3    3  502    0  0.99226452045E+03  0.81661143542E+03  0.56408209616E+03  0.14034356865E+04  0.50400001928E-02 0. -1.
       -1    1    3    3    0  502 -0.99226452045E+03 -0.81661143542E+03  0.31640124990E+03  0.13234624536E+04  0.50400001928E-02 0.  1.
</event>
<event>
 5   0  0.1720129E-05  0.2590615E+04  0.7818609E-02  0.8371396E-01
        2   -1    0    0  501    0  0.00000000000E+00  0.00000000000E+00  0.25693743683E+04  0.25693743683E+04  0.25500000920E-02 0. -1.
       -2   -1    0    0    0  501  0.00000000000E+00  0.00000000000E+00 -0.65300773525E+03  0.65300773526E+03  0.25500000920E-02 0.  1.
    10030    2    1    2    0    0  0.00000000000E+00  0.00000000000E+00  0.19163666331E+04  0.32223821036E+04  0.25906148593E+04 0.  0.
        3    1    3    3  502    0  0.40547490754E+03  0.96010407681E+03  0.19149202084E+04  0.21801672307E+04  0.10100000352E+00 0. -1.
       -3    1    3    3    0  502 -0.40547490754E+03 -0.96010407681E+03  0.14464246556E+01  0.10422148729E+04  0.10100000352E+00 0.  1.
</event>
<event>
 5   0  0.1702345E-05  0.2359193E+04  0.7818609E-02  0.8454941E-01
        2   -1    0    0  501    0  0.00000000000E+00  0.00000000000E+00  0.14867574916E+04  0.14867574916E+04  0.25500000920E-02 0. -1.
       -2   -1    0    0    0  501  0.00000000000E+00  0.00000000000E+00 -0.93589455542E+03  0.93589455542E+03  0.25500000920E-02 0.  1.
    10030    2    1    2    0    0  0.00000000000E+00  0.00000000000E+00  0.55086293614E+03  0.24226520470E+04  0.23591932872E+04 0.  0.
        1    1    3    3  502    0  0.10771778728E+04 -0.10009992686E+03 -0.20744682087E+03  0.11015290956E+04  0.50400001928E-02 0. -1.
       -1    1    3    3    0  502 -0.10771778728E+04  0.10009992686E+03  0.75830975701E+03  0.13211229514E+04  0.50400001928E-02 0.  1.
</event>
<event>
 5   0  0.7138294E-06  0.2609673E+04  0.7818609E-02  0.8364923E-01
       -1   -1    0    0    0  501  0.00000000000E+00  0.00000000000E+00  0.74741336179E+03  0.74741336180E+03  0.50400001928E-02 0. -1.
        1   -1    0    0  501    0  0.00000000000E+00  0.00000000000E+00 -0.22779880145E+04  0.22779880145E+04  0.50400001928E-02 0.  1.
    10030    2    1    2    0    0  0.00000000000E+00  0.00000000000E+00 -0.15305746527E+04  0.30254013763E+04  0.26096732976E+04 0.  0.
        2    1    3    3  502    0  0.84022492092E+03 -0.52798992287E+03  0.21694206460E+03  0.10157830161E+04  0.25500000920E-02 0. -1.
       -2    1    3    3    0  502 -0.84022492092E+03  0.52798992287E+03 -0.17475167173E+04  0.20096183602E+04  0.25500000920E-02 0.  1.
</event>
<event>
 5   0  0.6993678E-06  0.2606150E+04  0.7818609E-02  0.8366115E-01
       -1   -1    0    0    0  501  0.00000000000E+00  0.00000000000E+00  0.12319330001E+04  0.12319330001E+04  0.50400001928E-02 0. -1.
        1   -1    0    0  501    0  0.00000000000E+00  0.00000000000E+00 -0.13783250216E+04  0.13783250216E+04  0.50400001928E-02 0.  1.
    10030    2    1    2    0    0  0.00000000000E+00  0.00000000000E+00 -0.14639202150E+03  0.26102580217E+04  0.26061497110E+04 0.  0.
        1    1    3    3  502    0  0.72772708983E+03  0.51008933887E+03 -0.10277073644E+04  0.13586612078E+04  0.50400001928E-02 0.  1.
       -1    1    3    3    0  502 -0.72772708983E+03 -0.51008933887E+03  0.88131534286E+03  0.12515968139E+04  0.50400001928E-02 0. -1.
</event>
<event>
 5   0  0.7138294E-06  0.2578451E+04  0.7818609E-02  0.8375558E-01
        1   -1    0    0  501    0  0.00000000000E+00  0.00000000000E+00  0.16493397187E+04  0.16493397187E+04  0.50400001928E-02 0. -1.
       -1   -1    0    0    0  501  0.00000000000E+00  0.00000000000E+00 -0.10077378270E+04  0.10077378270E+04  0.50400001928E-02 0.  1.
    10030    2    1    2    0    0  0.00000000000E+00  0.00000000000E+00  0.64160189178E+03  0.26570775457E+04  0.25784507163E+04 0.  0.
        2    1    3    3  502    0 -0.82048354989E+03 -0.35964937413E+03  0.12761977187E+04  0.15592374884E+04  0.25500000920E-02 0. -1.
       -2    1    3    3    0  502  0.82048354989E+03  0.35964937413E+03 -0.63459582691E+03  0.10978400573E+04  0.25500000920E-02 0.  1.
</event>
<event>
 5   0  0.1720129E-05  0.2614535E+04  0.7818609E-02  0.8363281E-01
       -2   -1    0    0    0  501  0.00000000000E+00  0.00000000000E+00  0.20909679850E+04  0.20909679850E+04  0.25500000920E-02 0. -1.
        2   -1    0    0  501    0  0.00000000000E+00  0.00000000000E+00 -0.81729993402E+03  0.81729993402E+03  0.25500000920E-02 0.  1.
    10030    2    1    2    0    0  0.00000000000E+00  0.00000000000E+00  0.12736680510E+04  0.29082679190E+04  0.26145347549E+04 0.  0.
        3    1    3    3  502    0 -0.85509584597E+03 -0.46159393070E+02  0.17355418268E+04  0.19353100626E+04  0.10100000352E+00 0. -1.
       -3    1    3    3    0  502  0.85509584597E+03  0.46159393070E+02 -0.46187377587E+03  0.97295785644E+03  0.10100000352E+00 0.  1.
</event>
<event>
 5   0  0.7138294E-06  0.2626789E+04  0.7818609E-02  0.8359158E-01
       -1   -1    0    0    0  501  0.00000000000E+00  0.00000000000E+00  0.26665432006E+04  0.26665432007E+04  0.50400001928E-02 0. -1.
        1   -1    0    0  501    0  0.00000000000E+00  0.00000000000E+00 -0.64690692386E+03  0.64690692388E+03  0.50400001928E-02 0.  1.
    10030    2    1    2    0    0  0.00000000000E+00  0.00000000000E+00  0.20196362768E+04  0.33134501245E+04  0.26267891117E+04 0.  0.
        2    1    3    3  502    0  0.39162539885E+02  0.49437255583E+03  0.25439023583E+04  0.25917903344E+04  0.25500000920E-02 0. -1.
       -2    1    3    3    0  502 -0.39162539885E+02 -0.49437255583E+03 -0.52426608155E+03  0.72165979018E+03  0.25500000920E-02 0.  1.
</event>
<event>
 5   0  0.1681731E-05  0.2583524E+04  0.7818609E-02  0.8373819E-01
       -2   -1    0    0    0  501  0.00000000000E+00  0.00000000000E+00  0.92446889490E+03  0.92446889491E+03  0.25500000920E-02 0.  1.
        2   -1    0    0  501    0  0.00000000000E+00  0.00000000000E+00 -0.18049808694E+04  0.18049808694E+04  0.25500000920E-02 0. -1.
    10030    2    1    2    0    0  0.00000000000E+00  0.00000000000E+00 -0.88051197452E+03  0.27294497643E+04  0.25835236942E+04 0.  0.
        2    1    3    3  502    0  0.12806676750E+04  0.11396263395E+03 -0.57200540757E+03  0.14072268339E+04  0.25500000920E-02 0.  1.
       -2    1    3    3    0  502 -0.12806676750E+04 -0.11396263395E+03 -0.30850656695E+03  0.13222229304E+04  0.25500000920E-02 0. -1.
</event>
<event>
 5   0  0.6984287E-06  0.2597777E+04  0.7818609E-02  0.8368957E-01
        1   -1    0    0  501    0  0.00000000000E+00  0.00000000000E+00  0.13618444059E+04  0.13618444060E+04  0.50400001928E-02 0. -1.
       -1   -1    0    0    0  501  0.00000000000E+00  0.00000000000E+00 -0.12388433462E+04  0.12388433462E+04  0.50400001928E-02 0.  1.
    10030    2    1    2    0    0  0.00000000000E+00  0.00000000000E+00  0.12300105971E+03  0.26006877522E+04  0.25977774200E+04 0.  0.
        3    1    3    3  502    0  0.86247528295E+03 -0.43024727858E+03 -0.81018472927E+03  0.12591170081E+04  0.10100000352E+00 0.  1.
       -3    1    3    3    0  502 -0.86247528295E+03  0.43024727858E+03  0.93318578897E+03  0.13415707441E+04  0.10100000352E+00 0. -1.
</event>
<event>
 5   0  0.6993678E-06  0.2572693E+04  0.7818609E-02  0.8377536E-01
       -1   -1    0    0    0  501  0.00000000000E+00  0.00000000000E+00  0.95499216815E+03  0.95499216816E+03  0.50400001928E-02 0. -1.
        1   -1    0    0  501    0  0.00000000000E+00  0.00000000000E+00 -0.17326711605E+04  0.17326711605E+04  0.50400001928E-02 0.  1.
    10030    2    1    2    0    0  0.00000000000E+00  0.00000000000E+00 -0.77767899231E+03  0.26876633286E+04  0.25726930546E+04 0.  0.
        1    1    3    3  502    0 -0.12194687946E+04  0.61661780943E+02  0.33944701533E+02  0.12214984891E+04  0.50400001928E-02 0. -1.
       -1    1    3    3    0  502  0.12194687946E+04 -0.61661780943E+02 -0.81162369384E+03  0.14661648395E+04  0.50400001928E-02 0.  1.
</event>
<event>
 5   0  0.1677971E-05  0.2603982E+04  0.7818609E-02  0.8366850E-01
        2   -1    0    0  501    0  0.00000000000E+00  0.00000000000E+00  0.16024646102E+04  0.16024646102E+04  0.25500000920E-02 0. -1.
       -2   -1    0    0    0  501  0.00000000000E+00  0.00000000000E+00 -0.10578587168E+04  0.10578587168E+04  0.25500000920E-02 0.  1.
    10030    2    1    2    0    0  0.00000000000E+00  0.00000000000E+00  0.54460589336E+03  0.26603233270E+04  0.26039824549E+04 0.  0.
        4    1    3    3  502    0  0.36156965415E+02  0.12323666621E+04  0.69986069254E+03  0.14176887944E+04  0.12699999809E+01 0. -1.
       -4    1    3    3    0  502 -0.36156965415E+02 -0.12323666621E+04 -0.15525479918E+03  0.12426345326E+04  0.12699999809E+01 0.  1.
</event>
<event>
 5   0  0.1869956E-05  0.2612862E+04  0.7818609E-02  0.8363846E-01
        2   -1    0    0  501    0  0.00000000000E+00  0.00000000000E+00  0.20941227150E+04  0.20941227150E+04  0.25500000920E-02 0.  1.
       -2   -1    0    0    0  501  0.00000000000E+00  0.00000000000E+00 -0.81502450371E+03  0.81502450372E+03  0.25500000920E-02 0. -1.
    10030    2    1    2    0    0  0.00000000000E+00  0.00000000000E+00  0.12790982113E+04  0.29091472187E+04  0.26128615168E+04 0.  0.
        5    1    3    3  502    0  0.85224729122E+03  0.70386499647E+03 -0.13583115353E+03  0.11136532543E+04  0.46999998093E+01 0. -1.
       -5    1    3    3    0  502 -0.85224729122E+03 -0.70386499647E+03  0.14149293648E+04  0.17954939643E+04  0.46999998093E+01 0.  1.
</event>
<event>
 5   0  0.7138294E-06  0.2613298E+04  0.7818609E-02  0.8363698E-01
       -1   -1    0    0    0  501  0.00000000000E+00  0.00000000000E+00  0.71412869021E+03  0.71412869023E+03  0.50400001928E-02 0. -1.
        1   -1    0    0  501    0  0.00000000000E+00  0.00000000000E+00 -0.23907907185E+04  0.23907907185E+04  0.50400001928E-02 0.  1.
    10030    2    1    2    0    0  0.00000000000E+00  0.00000000000E+00 -0.16766620283E+04  0.31049194087E+04  0.26132984861E+04 0.  0.
        2    1    3    3  502    0 -0.76887678276E+03 -0.10104625870E+04 -0.12047780015E+04  0.17503417323E+04  0.25500000920E-02 0.  1.
       -2    1    3    3    0  502  0.76887678276E+03  0.10104625870E+04 -0.47188402679E+03  0.13545776765E+04  0.25500000920E-02 0. -1.
</event>
<event>
 5   0  0.6918420E-06  0.2527500E+04  0.7818609E-02  0.8393253E-01
        1   -1    0    0  501    0  0.00000000000E+00  0.00000000000E+00  0.18154161147E+04  0.18154161147E+04  0.50400001928E-02 0.  1.
       -1   -1    0    0    0  501  0.00000000000E+00  0.00000000000E+00 -0.87972365452E+03  0.87972365454E+03  0.50400001928E-02 0. -1.
    10030    2    1    2    0    0  0.00000000000E+00  0.00000000000E+00  0.93569246022E+03  0.26951397693E+04  0.25275003454E+04 0.  0.
        4    1    3    3  502    0 -0.60124620511E+03 -0.31921166414E+03 -0.66751316410E+03  0.95339840719E+03  0.12699999809E+01 0. -1.
       -4    1    3    3    0  502  0.60124620511E+03  0.31921166414E+03  0.16032056243E+04  0.17417413621E+04  0.12699999809E+01 0.  1.
</event>
<event>
 5   0  0.6993678E-06  0.2622185E+04  0.7818609E-02  0.8360704E-01
        1   -1    0    0  501    0  0.00000000000E+00  0.00000000000E+00  0.19423106441E+04  0.19423106441E+04  0.50400001928E-02 0.  1.
       -1   -1    0    0    0  501  0.00000000000E+00  0.00000000000E+00 -0.88500967081E+03  0.88500967082E+03  0.50400001928E-02 0. -1.
    10030    2    1    2    0    0  0.00000000000E+00  0.00000000000E+00  0.10573009733E+04  0.28273203149E+04  0.26221851222E+04 0.  0.
        1    1    3    3  502    0 -0.97587299653E+03 -0.86558450603E+03  0.67087503841E+03  0.14668462631E+04  0.50400001928E-02 0. -1.
       -1    1    3    3    0  502  0.97587299653E+03  0.86558450603E+03  0.38642593487E+03  0.13604740518E+04  0.50400001928E-02 0.  1.
</event>
<event>
 5   0  0.6706225E-06  0.2623633E+04  0.7818609E-02  0.8360218E-01
        1   -1    0    0  501    0  0.00000000000E+00  0.00000000000E+00  0.13775462636E+04  0.13775462636E+04  0.50400001928E-02 0.  1.
       -1   -1    0    0    0  501  0.00000000000E+00  0.00000000000E+00 -0.12492227146E+04  0.12492227146E+04  0.50400001928E-02 0. -1.
    10030    2    1    2    0    0  0.00000000000E+00  0.00000000000E+00  0.12832354909E+03  0.26267689782E+04  0.26236326594E+04 0.  0.
        5    1    3    3  502    0  0.33189585799E+03 -0.75123812426E+03 -0.95996199141E+03  0.12633537489E+04  0.46999998093E+01 0. -1.
       -5    1    3    3    0  502 -0.33189585799E+03  0.75123812426E+03  0.10882855405E+04  0.13634152293E+04  0.46999998093E+01 0.  1.
</event>
<event>
 5   0  0.6984287E-06  0.2616639E+04  0.7818609E-02  0.8362571E-01
       -1   -1    0    0    0  501  0.00000000000E+00  0.00000000000E+00  0.99812342107E+03  0.99812342108E+03  0.50400001928E-02 0.  1.
        1   -1    0    0  501    0  0.00000000000E+00  0.00000000000E+00 -0.17149178088E+04  0.17149178088E+04  0.50400001928E-02 0. -1.
    10030    2    1    2    0    0  0.00000000000E+00  0.00000000000E+00 -0.71679438773E+03  0.27130412299E+04  0.26166387830E+04 0.  0.
        3    1    3    3  502    0  0.41402546450E+03 -0.40351923931E+02 -0.16445220778E+04  0.16963190259E+04  0.10100000352E+00 0. -1.
       -3    1    3    3    0  502 -0.41402546450E+03  0.40351923931E+02  0.92772769006E+03  0.10167222040E+04  0.10100000352E+00 0.  1.
</event>
<event>
 5   0  0.1702345E-05  0.2577268E+04  0.7818609E-02  0.8375964E-01
        2   -1    0    0  501    0  0.00000000000E+00  0.00000000000E+00  0.78012298033E+03  0.78012298034E+03  0.25500000920E-02 0. -1.
       -2   -1    0    0    0  501  0.00000000000E+00  0.00000000000E+00 -0.21286099621E+04  0.21286099621E+04  0.25500000920E-02 0.  1.
    10030    2    1    2    0    0  0.00000000000E+00  0.00000000000E+00 -0.13484869817E+04  0.29087329424E+04  0.25772679702E+04 0.  0.
        1    1    3    3  502    0 -0.57440955763E+03 -0.11069408926E+04 -0.30798693646E+03  0.12845701353E+04  0.50400001928E-02 0.  1.
       -1    1    3    3    0  502  0.57440955763E+03  0.11069408926E+04 -0.10405000453E+04  0.16241628070E+04  0.50400001928E-02 0. -1.
</event>
<event>
 5   0  0.6706225E-06  0.2570927E+04  0.7818609E-02  0.8378144E-01
        1   -1    0    0  501    0  0.00000000000E+00  0.00000000000E+00  0.12377666201E+04  0.12377666201E+04  0.50400001928E-02 0.  1.
       -1   -1    0    0    0  501  0.00000000000E+00  0.00000000000E+00 -0.13349978788E+04  0.13349978788E+04  0.50400001928E-02 0. -1.
    10030    2    1    2    0    0  0.00000000000E+00  0.00000000000E+00 -0.97231258655E+02  0.25727644989E+04  0.25709265352E+04 0.  0.
        5    1    3    3  502    0  0.24440684474E+03  0.75700562392E+03 -0.10590906938E+04  0.13245706505E+04  0.46999998093E+01 0. -1.
       -5    1    3    3    0  502 -0.24440684474E+03 -0.75700562392E+03  0.96185943513E+03  0.12481938485E+04  0.46999998093E+01 0.  1.
</event>
<event>
 5   0  0.6993678E-06  0.2595985E+04  0.7818609E-02  0.8369566E-01
       -1   -1    0    0    0  501  0.00000000000E+00  0.00000000000E+00  0.60848201482E+03  0.60848201485E+03  0.50400001928E-02 0.  1.
        1   -1    0    0  501    0  0.00000000000E+00  0.00000000000E+00 -0.27688310839E+04  0.27688310839E+04  0.50400001928E-02 0. -1.
    10030    2    1    2    0    0  0.00000000000E+00  0.00000000000E+00 -0.21603490690E+04  0.33773130987E+04  0.25959845274E+04 0.  0.
        1    1    3    3  502    0  0.10938132083E+04 -0.54872548101E+03 -0.51720074916E+03  0.13285419087E+04  0.50400001928E-02 0.  1.
       -1    1    3    3    0  502 -0.10938132083E+04  0.54872548101E+03 -0.16431483199E+04  0.20487711901E+04  0.50400001928E-02 0. -1.
</event>
<event>
 5   0  0.6984287E-06  0.2595025E+04  0.7818609E-02  0.8369893E-01
       -1   -1    0    0    0  501  0.00000000000E+00  0.00000000000E+00  0.22517188182E+04  0.22517188182E+04  0.50400001928E-02 0.  1.
        1   -1    0    0  501    0  0.00000000000E+00  0.00000000000E+00 -0.74766843190E+03  0.74766843192E+03  0.50400001928E-02 0. -1.
    10030    2    1    2    0    0  0.00000000000E+00  0.00000000000E+00  0.15040503863E+04  0.29993872501E+04  0.25950253008E+04 0.  0.
        3    1    3    3  502    0 -0.45446821975E+03 -0.15006439301E+03 -0.64191640984E+03  0.80069805310E+03  0.10100000352E+00 0. -1.
       -3    1    3    3    0  502  0.45446821975E+03  0.15006439301E+03  0.21459667961E+04  0.21986891970E+04  0.10100000352E+00 0.  1.
</event>
<event>
 5   0  0.6918420E-06  0.2607816E+04  0.7818609E-02  0.8365551E-01
        1   -1    0    0  501    0  0.00000000000E+00  0.00000000000E+00  0.14856253270E+04  0.14856253271E+04  0.50400001928E-02 0. -1.
       -1   -1    0    0    0  501  0.00000000000E+00  0.00000000000E+00 -0.11444182008E+04  0.11444182008E+04  0.50400001928E-02 0.  1.
    10030    2    1    2    0    0  0.00000000000E+00  0.00000000000E+00  0.34120712627E+03  0.26300435278E+04  0.26078164535E+04 0.  0.
        4    1    3    3  502    0 -0.43592012746E+03 -0.23442438556E+03 -0.10459923355E+04  0.11571874216E+04  0.12699999809E+01 0.  1.
       -4    1    3    3    0  502  0.43592012746E+03  0.23442438556E+03  0.13871994617E+04  0.14728561062E+04  0.12699999809E+01 0. -1.
</event>
<event>
 5   0  0.6984287E-06  0.2606938E+04  0.7818609E-02  0.8365848E-01
       -1   -1    0    0    0  501  0.00000000000E+00  0.00000000000E+00  0.87516626644E+03  0.87516626645E+03  0.50400001928E-02 0. -1.
        1   -1    0    0  501    0  0.00000000000E+00  0.00000000000E+00 -0.19413812989E+04  0.19413812989E+04  0.50400001928E-02 0.  1.
    10030    2    1    2    0    0  0.00000000000E+00  0.00000000000E+00 -0.10662150325E+04  0.28165475654E+04  0.26069379917E+04 0.  0.
        3    1    3    3  502    0  0.85999317751E+03 -0.97926118970E+03 -0.55703963230E+03  0.14173333783E+04  0.10100000352E+00 0.  1.
       -3    1    3    3    0  502 -0.85999317751E+03  0.97926118970E+03 -0.50917540018E+03  0.13992141871E+04  0.10100000352E+00 0. -1.
</event>
<event>
 5   0  0.1702345E-05  0.2598775E+04  0.7818609E-02  0.8368617E-01
       -2   -1    0    0    0  501  0.00000000000E+00  0.00000000000E+00  0.76643465888E+03  0.76643465888E+03  0.25500000920E-02 0.  1.
        2   -1    0    0  501    0  0.00000000000E+00  0.00000000000E+00 -0.22029383334E+04  0.22029383334E+04  0.25500000920E-02 0. -1.
    10030    2    1    2    0    0  0.00000000000E+00  0.00000000000E+00 -0.14365036745E+04  0.29693729923E+04  0.25987753193E+04 0.  0.
        1    1    3    3  502    0  0.72404659610E+03 -0.24217415881E+03  0.48312328287E+03  0.90349316710E+03  0.50400001928E-02 0.  1.
       -1    1    3    3    0  502 -0.72404659610E+03  0.24217415881E+03 -0.19196269574E+04  0.20658798252E+04  0.50400001928E-02 0. -1.
</event>
<event>
 5   0  0.1720129E-05  0.2707875E+04  0.7818609E-02  0.8332454E-01
       -2   -1    0    0    0  501  0.00000000000E+00  0.00000000000E+00  0.79867881488E+03  0.79867881489E+03  0.25500000920E-02 0.  1.
        2   -1    0    0  501    0  0.00000000000E+00  0.00000000000E+00 -0.22952238394E+04  0.22952238394E+04  0.25500000920E-02 0. -1.
    10030    2    1    2    0    0  0.00000000000E+00  0.00000000000E+00 -0.14965450246E+04  0.30939026543E+04  0.27078749277E+04 0.  0.
        3    1    3    3  502    0 -0.26410085229E+03 -0.53398136097E+03  0.64089189192E+03  0.87500158935E+03  0.10100000352E+00 0.  1.
       -3    1    3    3    0  502  0.26410085229E+03  0.53398136097E+03 -0.21374369165E+04  0.22189010650E+04  0.10100000352E+00 0. -1.
</event>
<event>
 5   0  0.6984287E-06  0.2643383E+04  0.7818609E-02  0.8353613E-01
        1   -1    0    0  501    0  0.00000000000E+00  0.00000000000E+00  0.26888537391E+04  0.26888537392E+04  0.50400001928E-02 0.  1.
       -1   -1    0    0    0  501  0.00000000000E+00  0.00000000000E+00 -0.64967008052E+03  0.64967008053E+03  0.50400001928E-02 0. -1.
    10030    2    1    2    0    0  0.00000000000E+00  0.00000000000E+00  0.20391836586E+04  0.33385238197E+04  0.26433825491E+04 0.  0.
        3    1    3    3  502    0  0.22640820161E+03  0.12905675428E+04  0.80068318011E+03  0.15355516342E+04  0.10100000352E+00 0. -1.
       -3    1    3    3    0  502 -0.22640820161E+03 -0.12905675428E+04  0.12385004785E+04  0.18029721855E+04  0.10100000352E+00 0.  1.
</event>
<event>
 5   0  0.5840500E-06  0.2708561E+04  0.7818609E-02  0.8332233E-01
        4   -1    0    0  501    0  0.00000000000E+00  0.00000000000E+00  0.15172298650E+04  0.15172303965E+04  0.12699999809E+01 0.  1.
       -4   -1    0    0    0  501  0.00000000000E+00  0.00000000000E+00 -0.12088308943E+04  0.12088315614E+04  0.12699999809E+01 0. -1.
    10030    2    1    2    0    0  0.00000000000E+00  0.00000000000E+00  0.30839897068E+03  0.27260619580E+04  0.27085612184E+04 0.  0.
        4    1    3    3  502    0 -0.10504784353E+04  0.23091589794E+02  0.10141416853E+04  0.14603161080E+04  0.12699999809E+01 0.  1.
       -4    1    3    3    0  502  0.10504784353E+04 -0.23091589794E+02 -0.70574271459E+03  0.12657458500E+04  0.12699999809E+01 0. -1.
</event>
<event>
 5   0  0.6918420E-06  0.2574209E+04  0.7818609E-02  0.8377015E-01
       -1   -1    0    0    0  501  0.00000000000E+00  0.00000000000E+00  0.12861674323E+04  0.12861674323E+04  0.50400001928E-02 0.  1.
        1   -1    0    0  501    0  0.00000000000E+00  0.00000000000E+00 -0.12880423278E+04  0.12880423278E+04  0.50400001928E-02 0. -1.
    10030    2    1    2    0    0  0.00000000000E+00  0.00000000000E+00 -0.18748954683E+01  0.25742097601E+04  0.25742090773E+04 0.  0.
        4    1    3    3  502    0  0.10832661964E+03  0.19059365285E+03 -0.12692342335E+04  0.12880286291E+04  0.12699999809E+01 0. -1.
       -4    1    3    3    0  502 -0.10832661964E+03 -0.19059365285E+03  0.12673593380E+04  0.12861811310E+04  0.12699999809E+01 0.  1.
</event>
<event>
 5   0  0.7138294E-06  0.2598836E+04  0.7818609E-02  0.8368597E-01
       -1   -1    0    0    0  501  0.00000000000E+00  0.00000000000E+00  0.15537707782E+04  0.15537707782E+04  0.50400001928E-02 0.  1.
        1   -1    0    0  501    0  0.00000000000E+00  0.00000000000E+00 -0.10867031994E+04  0.10867031994E+04  0.50400001928E-02 0. -1.
    10030    2    1    2    0    0  0.00000000000E+00  0.00000000000E+00  0.46706757876E+03  0.26404739776E+04  0.25988364133E+04 0.  0.
        2    1    3    3  502    0  0.86346732462E+02  0.95677697758E+03  0.11225438412E+04  0.14774920028E+04  0.25500000920E-02 0.  1.
       -2    1    3    3    0  502 -0.86346732462E+02 -0.95677697758E+03 -0.65547626242E+03  0.11629819748E+04  0.25500000920E-02 0. -1.
</event>
<event>
 5   0  0.6993678E-06  0.2568684E+04  0.7818609E-02  0.8378917E-01
       -1   -1    0    0    0  501  0.00000000000E+00  0.00000000000E+00  0.11069349505E+04  0.11069349505E+04  0.50400001928E-02 0. -1.
        1   -1    0    0  501    0  0.00000000000E+00  0.00000000000E+00 -0.14901817330E+04  0.14901817330E+04  0.50400001928E-02 0.  1.
    10030    2    1    2    0    0  0.00000000000E+00  0.00000000000E+00 -0.38324678250E+03  0.25971166834E+04  0.25686838986E+04 0.  0.
        1    1    3    3  502    0  0.84598362450E+03 -0.52084732381E+03 -0.10146137000E+04  0.14200039394E+04  0.50400001928E-02 0.  1.
       -1    1    3    3    0  502 -0.84598362450E+03  0.52084732381E+03  0.63136691750E+03  0.11771127440E+04  0.50400001928E-02 0. -1.
</event>
<event>
 5   0  0.6706225E-06  0.2669592E+04  0.7818609E-02  0.8344939E-01
        1   -1    0    0  501    0  0.00000000000E+00  0.00000000000E+00  0.20593877647E+04  0.20593877647E+04  0.50400001928E-02 0.  1.
       -1   -1    0    0    0  501  0.00000000000E+00  0.00000000000E+00 -0.86515056396E+03  0.86515056398E+03  0.50400001928E-02 0. -1.
    10030    2    1    2    0    0  0.00000000000E+00  0.00000000000E+00  0.11942372008E+04  0.29245383287E+04  0.26695920933E+04 0.  0.
        5    1    3    3  502    0  0.11550066347E+04  0.65639359612E+03  0.45527136222E+03  0.14043457489E+04  0.46999998093E+01 0. -1.
       -5    1    3    3    0  502 -0.11550066347E+04 -0.65639359612E+03  0.73896583854E+03  0.15201925798E+04  0.46999998093E+01 0.  1.
</event>
<event>
 5   0  0.1869956E-05  0.2627484E+04  0.7818609E-02  0.8358925E-01
        2   -1    0    0  501    0  0.00000000000E+00  0.00000000000E+00  0.14546132627E+04  0.14546132627E+04  0.25500000920E-02 0.  1.
       -2   -1    0    0    0  501  0.00000000000E+00  0.00000000000E+00 -0.11865131138E+04  0.11865131138E+04  0.25500000920E-02 0. -1.
    10030    2    1    2    0    0  0.00000000000E+00  0.00000000000E+00  0.26810014887E+03  0.26411263765E+04  0.26274837481E+04 0.  0.
        5    1    3    3  502    0  0.41176011096E+03 -0.12263099446E+04  0.36439740793E+03  0.13439456946E+04  0.46999998093E+01 0. -1.
       -5    1    3    3    0  502 -0.41176011096E+03  0.12263099446E+04 -0.96297259065E+02  0.12971806818E+04  0.46999998093E+01 0.  1.
</event>
<event>
 5   0  0.1677971E-05  0.2633259E+04  0.7818609E-02  0.8356991E-01
        2   -1    0    0  501    0  0.00000000000E+00  0.00000000000E+00  0.21542268025E+04  0.21542268025E+04  0.25500000920E-02 0.  1.
       -2   -1    0    0    0  501  0.00000000000E+00  0.00000000000E+00 -0.80470343370E+03  0.80470343370E+03  0.25500000920E-02 0. -1.
    10030    2    1    2    0    0  0.00000000000E+00  0.00000000000E+00  0.13495233688E+04  0.29589302362E+04  0.26332593529E+04 0.  0.
        4    1    3    3  502    0 -0.95520244981E+03  0.41796867231E+03 -0.22866439757E+03  0.10674261336E+04  0.12699999809E+01 0. -1.
       -4    1    3    3    0  502  0.95520244981E+03 -0.41796867231E+03  0.15781877663E+04  0.18915041025E+04  0.12699999809E+01 0.  1.
</event>
<event>
 5   0  0.6706225E-06  0.2651558E+04  0.7818609E-02  0.8350896E-01
       -1   -1    0    0    0  501  0.00000000000E+00  0.00000000000E+00  0.13265052707E+04  0.13265052707E+04  0.50400001928E-02 0. -1.
        1   -1    0    0  501    0  0.00000000000E+00  0.00000000000E+00 -0.13250533162E+04  0.13250533162E+04  0.50400001928E-02 0.  1.
    10030    2    1    2    0    0  0.00000000000E+00  0.00000000000E+00  0.14519545430E+01  0.26515585869E+04  0.26515581894E+04 0.  0.
        5    1    3    3  502    0 -0.12369261685E+04 -0.43388910803E+03 -0.19782382822E+03  0.13256705705E+04  0.46999998093E+01 0.  1.
       -5    1    3    3    0  502  0.12369261685E+04  0.43388910803E+03  0.19927578277E+03  0.13258880164E+04  0.46999998093E+01 0. -1.
</event>
<event>
 5   0  0.5840500E-06  0.2590630E+04  0.7818609E-02  0.8371391E-01
       -3   -1    0    0    0  501  0.00000000000E+00  0.00000000000E+00  0.76034114150E+03  0.76034114821E+03  0.10100000352E+00 0. -1.
        3   -1    0    0  501    0  0.00000000000E+00  0.00000000000E+00 -0.22066950977E+04  0.22066951000E+04  0.10100000352E+00 0.  1.
    10030    2    1    2    0    0  0.00000000000E+00  0.00000000000E+00 -0.14463539561E+04  0.29670362482E+04  0.25906301032E+04 0.  0.
        1    1    3    3  502    0 -0.25795271030E+03  0.38261574163E+03  0.66301194317E+03  0.80778663229E+03  0.50400001928E-02 0. -1.
       -1    1    3    3    0  502  0.25795271030E+03 -0.38261574163E+03 -0.21093658993E+04  0.21592496159E+04  0.50400001928E-02 0.  1.
</event>
<event>
 5   0  0.1702345E-05  0.2501127E+04  0.7818609E-02  0.8402584E-01
       -2   -1    0    0    0  501  0.00000000000E+00  0.00000000000E+00  0.62829639388E+03  0.62829639389E+03  0.25500000920E-02 0.  1.
        2   -1    0    0  501    0  0.00000000000E+00  0.00000000000E+00 -0.24891253417E+04  0.24891253417E+04  0.25500000920E-02 0. -1.
    10030    2    1    2    0    0  0.00000000000E+00  0.00000000000E+00 -0.18608289479E+04  0.31174217356E+04  0.25011265271E+04 0.  0.
        1    1    3    3  502    0  0.10338698751E+04  0.11988409773E+03 -0.17945345221E+04  0.20745151883E+04  0.50400001928E-02 0.  1.
       -1    1    3    3    0  502 -0.10338698751E+04 -0.11988409773E+03 -0.66294425798E+02  0.10429065473E+04  0.50400001928E-02 0. -1.
</event>
<event>
 5   0  0.1677971E-05  0.2519104E+04  0.7818609E-02  0.8396211E-01
        2   -1    0    0  501    0  0.00000000000E+00  0.00000000000E+00  0.11965760920E+04  0.11965760920E+04  0.25500000920E-02 0.  1.
       -2   -1    0    0    0  501  0.00000000000E+00  0.00000000000E+00 -0.13258420201E+04  0.13258420201E+04  0.25500000920E-02 0. -1.
    10030    2    1    2    0    0  0.00000000000E+00  0.00000000000E+00 -0.12926592814E+03  0.25224181121E+04  0.25191037002E+04 0.  0.
        4    1    3    3  502    0 -0.14825630657E+03  0.46886066691E+03 -0.12257529773E+04  0.13207127741E+04  0.12699999809E+01 0. -1.
       -4    1    3    3    0  502  0.14825630657E+03 -0.46886066691E+03  0.10964870492E+04  0.12017053380E+04  0.12699999809E+01 0.  1.
</event>
<event>
 5   0  0.1677971E-05  0.2540950E+04  0.7818609E-02  0.8388541E-01
        2   -1    0    0  501    0  0.00000000000E+00  0.00000000000E+00  0.14926915754E+04  0.14926915754E+04  0.25500000920E-02 0. -1.
       -2   -1    0    0    0  501  0.00000000000E+00  0.00000000000E+00 -0.10813394873E+04  0.10813394873E+04  0.25500000920E-02 0.  1.
    10030    2    1    2    0    0  0.00000000000E+00  0.00000000000E+00  0.41135208813E+03  0.25740310627E+04  0.25409496988E+04 0.  0.
        4    1    3    3  502    0  0.18029475830E+03 -0.81143189678E+03  0.11790061538E+04  0.14425619733E+04  0.12699999809E+01 0. -1.
       -4    1    3    3    0  502 -0.18029475830E+03  0.81143189678E+03 -0.76765406571E+03  0.11314690895E+04  0.12699999809E+01 0.  1.
</event>
<event>
 5   0  0.6993678E-06  0.2628500E+04  0.7818609E-02  0.8358584E-01
       -1   -1    0    0    0  501  0.00000000000E+00  0.00000000000E+00  0.14674534910E+04  0.14674534910E+04  0.50400001928E-02 0. -1.
        1   -1    0    0  501    0  0.00000000000E+00  0.00000000000E+00 -0.11770412100E+04  0.11770412100E+04  0.50400001928E-02 0.  1.
    10030    2    1    2    0    0  0.00000000000E+00  0.00000000000E+00  0.29041228098E+03  0.26444947009E+04  0.26285001294E+04 0.  0.
        1    1    3    3  502    0 -0.14751543643E+01  0.85443290812E+03 -0.85946712347E+03  0.12119164604E+04  0.50400001928E-02 0.  1.
       -1    1    3    3    0  502  0.14751543643E+01 -0.85443290812E+03  0.11498794045E+04  0.14325782406E+04  0.50400001928E-02 0. -1.
</event>
<event>
 5   0  0.6984287E-06  0.2587909E+04  0.7818609E-02  0.8372320E-01
        1   -1    0    0  501    0  0.00000000000E+00  0.00000000000E+00  0.20720216840E+04  0.20720216840E+04  0.50400001928E-02 0. -1.
       -1   -1    0    0    0  501  0.00000000000E+00  0.00000000000E+00 -0.80806003599E+03  0.80806003600E+03  0.50400001928E-02 0.  1.
    10030    2    1    2    0    0  0.00000000000E+00  0.00000000000E+00  0.12639616480E+04  0.28800817200E+04  0.25879087438E+04 0.  0.
        3    1    3    3  502    0 -0.51323564604E+03  0.88853123788E+03  0.15092810223E+04  0.18250555618E+04  0.10100000352E+00 0. -1.
       -3    1    3    3    0  502  0.51323564604E+03 -0.88853123788E+03 -0.24531937426E+03  0.10550261583E+04  0.10100000352E+00 0.  1.
</event>
<event>
 5   0  0.6984287E-06  0.2541768E+04  0.7818609E-02  0.8388255E-01
       -1   -1    0    0    0  501  0.00000000000E+00  0.00000000000E+00  0.10302225252E+04  0.10302225252E+04  0.50400001928E-02 0.  1.
        1   -1    0    0  501    0  0.00000000000E+00  0.00000000000E+00 -0.15677637343E+04  0.15677637344E+04  0.50400001928E-02 0. -1.
    10030    2    1    2    0    0  0.00000000000E+00  0.00000000000E+00 -0.53754120919E+03  0.25979862595E+04  0.25417675057E+04 0.  0.
        3    1    3    3  502    0 -0.11505212629E+04  0.45053805427E+03 -0.57277431479E+03  0.13618935864E+04  0.10100000352E+00 0.  1.
       -3    1    3    3    0  502  0.11505212629E+04 -0.45053805427E+03  0.35233105595E+02  0.12360926732E+04  0.10100000352E+00 0. -1.
</event>
<event>
 5   0  0.1677971E-05  0.2646385E+04  0.7818609E-02  0.8352614E-01
       -2   -1    0    0    0  501  0.00000000000E+00  0.00000000000E+00  0.18040301730E+04  0.18040301730E+04  0.25500000920E-02 0. -1.
        2   -1    0    0  501    0  0.00000000000E+00  0.00000000000E+00 -0.97051515899E+03  0.97051515899E+03  0.25500000920E-02 0.  1.
    10030    2    1    2    0    0  0.00000000000E+00  0.00000000000E+00  0.83351501402E+03  0.27745453320E+04  0.26463851800E+04 0.  0.
        4    1    3    3  502    0  0.12459148892E+03 -0.65603228146E+03 -0.78090185250E+03  0.10274778390E+04  0.12699999809E+01 0.  1.
       -4    1    3    3    0  502 -0.12459148892E+03  0.65603228146E+03  0.16144168665E+04  0.17470674930E+04  0.12699999809E+01 0. -1.
</event>
<event>
 5   0  0.6918420E-06  0.2600662E+04  0.7818609E-02  0.8367976E-01
        1   -1    0    0  501    0  0.00000000000E+00  0.00000000000E+00  0.21153599569E+04  0.21153599569E+04  0.50400001928E-02 0.  1.
       -1   -1    0    0    0  501  0.00000000000E+00  0.00000000000E+00 -0.79932551228E+03  0.79932551230E+03  0.50400001928E-02 0. -1.
    10030    2    1    2    0    0  0.00000000000E+00  0.00000000000E+00  0.13160344446E+04  0.29146854692E+04  0.26006623627E+04 0.  0.
        4    1    3    3  502    0 -0.80266327797E+02 -0.54578981068E+03  0.19777087125E+04  0.20532078719E+04  0.12699999809E+01 0.  1.
       -4    1    3    3    0  502  0.80266327797E+02  0.54578981068E+03 -0.66167426794E+03  0.86147759726E+03  0.12699999809E+01 0. -1.
</event>
<event>
 5   0  0.1702345E-05  0.2591865E+04  0.7818609E-02  0.8370970E-01
       -2   -1    0    0    0  501  0.00000000000E+00  0.00000000000E+00  0.75501336329E+03  0.75501336330E+03  0.25500000920E-02 0. -1.
        2   -1    0    0  501    0  0.00000000000E+00  0.00000000000E+00 -0.22243850232E+04  0.22243850232E+04  0.25500000920E-02 0.  1.
    10030    2    1    2    0    0  0.00000000000E+00  0.00000000000E+00 -0.14693716600E+04  0.29793983865E+04  0.25918645163E+04 0.  0.
        1    1    3    3  502    0  0.96316232831E+03  0.46736947858E+03  0.10479746168E+03  0.10756850878E+04  0.50400001928E-02 0. -1.
       -1    1    3    3    0  502 -0.96316232831E+03 -0.46736947858E+03 -0.15741691216E+04  0.19037132987E+04  0.50400001928E-02 0.  1.
</event>
<event>
 5   0  0.6706225E-06  0.2602609E+04  0.7818609E-02  0.8367315E-01
        1   -1    0    0  501    0  0.00000000000E+00  0.00000000000E+00  0.15304512660E+04  0.15304512660E+04  0.50400001928E-02 0. -1.
       -1   -1    0    0    0  501  0.00000000000E+00  0.00000000000E+00 -0.11064671018E+04  0.11064671018E+04  0.50400001928E-02 0.  1.
    10030    2    1    2    0    0  0.00000000000E+00  0.00000000000E+00  0.42398416415E+03  0.26369183678E+04  0.26026094419E+04 0.  0.
        5    1    3    3  502    0  0.15947029798E+03 -0.10390042291E+04 -0.56519969143E+03  0.11934962694E+04  0.46999998093E+01 0.  1.
       -5    1    3    3    0  502 -0.15947029798E+03  0.10390042291E+04  0.98918385559E+03  0.14434220984E+04  0.46999998093E+01 0. -1.
</event>
<event>
 5   0  0.1720129E-05  0.2598842E+04  0.7818609E-02  0.8368595E-01
       -2   -1    0    0    0  501  0.00000000000E+00  0.00000000000E+00  0.67061121036E+03  0.67061121036E+03  0.25500000920E-02 0. -1.
        2   -1    0    0  501    0  0.00000000000E+00  0.00000000000E+00 -0.25178450671E+04  0.25178450671E+04  0.25500000920E-02 0.  1.
    10030    2    1    2    0    0  0.00000000000E+00  0.00000000000E+00 -0.18472338567E+04  0.31884562774E+04  0.25988421483E+04 0.  0.
        3    1    3    3  502    0 -0.31610825078E+03 -0.11747116834E+04 -0.36323797433E+03  0.12695722907E+04  0.10100000352E+00 0. -1.
       -3    1    3    3    0  502  0.31610825078E+03  0.11747116834E+04 -0.14839958824E+04  0.19188839867E+04  0.10100000352E+00 0.  1.
</event>
<event>
 5   0  0.1702345E-05  0.2619089E+04  0.7818609E-02  0.8361746E-01
       -2   -1    0    0    0  501  0.00000000000E+00  0.00000000000E+00  0.10368621709E+04  0.10368621709E+04  0.25500000920E-02 0.  1.
        2   -1    0    0  501    0  0.00000000000E+00  0.00000000000E+00 -0.16539390362E+04  0.16539390362E+04  0.25500000920E-02 0. -1.
    10030    2    1    2    0    0  0.00000000000E+00  0.00000000000E+00 -0.61707686523E+03  0.26908012071E+04  0.26190890169E+04 0.  0.
        1    1    3    3  502    0  0.39372751975E+02 -0.80356764995E+03  0.75301750932E+03  0.11019557845E+04  0.50400001928E-02 0.  1.
       -1    1    3    3    0  502 -0.39372751975E+02  0.80356764995E+03 -0.13700943746E+04  0.15888454226E+04  0.50400001928E-02 0. -1.
</event>
<event>
 5   0  0.6706225E-06  0.2627298E+04  0.7818609E-02  0.8358987E-01
        1   -1    0    0  501    0  0.00000000000E+00  0.00000000000E+00  0.22016941796E+04  0.22016941796E+04  0.50400001928E-02 0. -1.
       -1   -1    0    0    0  501  0.00000000000E+00  0.00000000000E+00 -0.78379384096E+03  0.78379384097E+03  0.50400001928E-02 0.  1.
    10030    2    1    2    0    0  0.00000000000E+00  0.00000000000E+00  0.14179003386E+04  0.29854880206E+04  0.26272984891E+04 0.  0.
        5    1    3    3  502    0  0.65134962182E+03  0.11134125741E+04  0.99122874084E+03  0.16268068099E+04  0.46999998093E+01 0. -1.
       -5    1    3    3    0  502 -0.65134962182E+03 -0.11134125741E+04  0.42667159780E+03  0.13586812107E+04  0.46999998093E+01 0.  1.
</event>
<event>
 5   0  0.7138294E-06  0.2602200E+04  0.7818609E-02  0.8367454E-01
        1   -1    0    0  501    0  0.00000000000E+00  0.00000000000E+00  0.21343054265E+04  0.21343054265E+04  0.50400001928E-02 0.  1.
       -1   -1    0    0    0  501  0.00000000000E+00  0.00000000000E+00 -0.79316738553E+03  0.79316738555E+03  0.50400001928E-02 0. -1.
    10030    2    1    2    0    0  0.00000000000E+00  0.00000000000E+00  0.13411380409E+04  0.29274728120E+04  0.26022001883E+04 0.  0.
        2    1    3    3  502    0  0.89636212006E+03  0.23723929038E+03 -0.35627472673E+03  0.99331727665E+03  0.25500000920E-02 0. -1.
       -2    1    3    3    0  502 -0.89636212006E+03 -0.23723929038E+03  0.16974127677E+04  0.19341555354E+04  0.25500000920E-02 0.  1.
</event>
<event>
 5   0  0.1681731E-05  0.2618630E+04  0.7818609E-02  0.8361900E-01
       -2   -1    0    0    0  501  0.00000000000E+00  0.00000000000E+00  0.93148845569E+03  0.93148845570E+03  0.25500000920E-02 0. -1.
        2   -1    0    0  501    0  0.00000000000E+00  0.00000000000E+00 -0.18403940190E+04  0.18403940190E+04  0.25500000920E-02 0.  1.
    10030    2    1    2    0    0  0.00000000000E+00  0.00000000000E+00 -0.90890556328E+03  0.27718824747E+04  0.26186300102E+04 0.  0.
        2    1    3    3  502    0  0.63774282025E+00 -0.93037049506E+03  0.52072073159E+03  0.10661799778E+04  0.25500000920E-02 0. -1.
       -2    1    3    3    0  502 -0.63774282025E+00  0.93037049506E+03 -0.14296262949E+04  0.17057024968E+04  0.25500000920E-02 0.  1.
</event>
<event>
 5   0  0.1681731E-05  0.2604139E+04  0.7818609E-02  0.8366797E-01
        2   -1    0    0  501    0  0.00000000000E+00  0.00000000000E+00  0.15569220840E+04  0.15569220840E+04  0.25500000920E-02 0. -1.
       -2   -1    0    0    0  501  0.00000000000E+00  0.00000000000E+00 -0.10889333323E+04  0.10889333323E+04  0.25500000920E-02 0.  1.
    10030    2    1    2    0    0  0.00000000000E+00  0.00000000000E+00  0.46798875165E+03  0.26458554163E+04  0.26041385163E+04 0.  0.
        2    1    3    3  502    0  0.34300577677E+03 -0.14088225018E+03 -0.10341524165E+04  0.10986227705E+04  0.25500000920E-02 0.  1.
       -2    1    3    3    0  502 -0.34300577677E+03  0.14088225018E+03  0.15021411681E+04  0.15472326458E+04  0.25500000920E-02 0. -1.
</event>
<event>
 5   0  0.6984287E-06  0.2536243E+04  0.7818609E-02  0.8390186E-01
        1   -1    0    0  501    0  0.00000000000E+00  0.00000000000E+00  0.10737846422E+04  0.10737846422E+04  0.50400001928E-02 0. -1.
       -1   -1    0    0    0  501  0.00000000000E+00  0.00000000000E+00 -0.14976297464E+04  0.14976297464E+04  0.50400001928E-02 0.  1.
    10030    2    1    2    0    0  0.00000000000E+00  0.00000000000E+00 -0.42384510423E+03  0.25714143886E+04  0.25362427497E+04 0.  0.
        3    1    3    3  502    0 -0.72179591721E+03 -0.66704396486E+02 -0.12668774999E+04  0.14595949550E+04  0.10100000352E+00 0.  1.
       -3    1    3    3    0  502  0.72179591721E+03  0.66704396486E+02  0.84303239568E+03  0.11118194336E+04  0.10100000352E+00 0. -1.
</event>
<event>
 5   0  0.7138294E-06  0.2627383E+04  0.7818609E-02  0.8358959E-01
        1   -1    0    0  501    0  0.00000000000E+00  0.00000000000E+00  0.14960347948E+04  0.14960347948E+04  0.50400001928E-02 0. -1.
       -1   -1    0    0    0  501  0.00000000000E+00  0.00000000000E+00 -0.11535727511E+04  0.11535727512E+04  0.50400001928E-02 0.  1.
    10030    2    1    2    0    0  0.00000000000E+00  0.00000000000E+00  0.34246204367E+03  0.26496075460E+04  0.26273827084E+04 0.  0.
        2    1    3    3  502    0 -0.27524060951E+03 -0.69330979732E+03 -0.91928062572E+03  0.11838550321E+04  0.25500000920E-02 0.  1.
       -2    1    3    3    0  502  0.27524060951E+03  0.69330979732E+03  0.12617426694E+04  0.14657525139E+04  0.25500000920E-02 0. -1.
</event>
<event>
 5   0  0.1702345E-05  0.2601441E+04  0.7818609E-02  0.8367712E-01
        2   -1    0    0  501    0  0.00000000000E+00  0.00000000000E+00  0.21779202588E+04  0.21779202588E+04  0.25500000920E-02 0. -1.
       -2   -1    0    0    0  501  0.00000000000E+00  0.00000000000E+00 -0.77682999095E+03  0.77682999096E+03  0.25500000920E-02 0.  1.
    10030    2    1    2    0    0  0.00000000000E+00  0.00000000000E+00  0.14010902679E+04  0.29547502498E+04  0.26014409661E+04 0.  0.
        1    1    3    3  502    0 -0.11000761169E+04  0.86856314629E+01 -0.87704833310E+02  0.11036009429E+04  0.50400001928E-02 0.  1.
       -1    1    3    3    0  502  0.11000761169E+04 -0.86856314629E+01  0.14887951012E+04  0.18511493069E+04  0.50400001928E-02 0. -1.
</event>
<event>
 5   0  0.6918420E-06  0.2586858E+04  0.7818609E-02  0.8372679E-01
       -1   -1    0    0    0  501  0.00000000000E+00  0.00000000000E+00  0.83273902997E+03  0.83273902998E+03  0.50400001928E-02 0. -1.
        1   -1    0    0  501    0  0.00000000000E+00  0.00000000000E+00 -0.20089832337E+04  0.20089832337E+04  0.50400001928E-02 0.  1.
    10030    2    1    2    0    0  0.00000000000E+00  0.00000000000E+00 -0.11762442038E+04  0.28417222637E+04  0.25868581324E+04 0.  0.
        4    1    3    3  502    0 -0.23527695439E+03  0.93602887331E+03  0.35778936735E+03  0.10293299477E+04  0.12699999809E+01 0. -1.
       -4    1    3    3    0  502  0.23527695439E+03 -0.93602887331E+03 -0.15340335711E+04  0.18123923160E+04  0.12699999809E+01 0.  1.
</event>
<event>
 5   0  0.1702345E-05  0.2605056E+04  0.7818609E-02  0.8366486E-01
       -2   -1    0    0    0  501  0.00000000000E+00  0.00000000000E+00  0.13462173347E+04  0.13462173347E+04  0.25500000920E-02 0.  1.
        2   -1    0    0  501    0  0.00000000000E+00  0.00000000000E+00 -0.12602565665E+04  0.12602565665E+04  0.25500000920E-02 0. -1.
    10030    2    1    2    0    0  0.00000000000E+00  0.00000000000E+00  0.85960768125E+02  0.26064739012E+04  0.26050560347E+04 0.  0.
        1    1    3    3  502    0  0.30113065933E+03 -0.73251642949E+03  0.10776221416E+04  0.13373591416E+04  0.50400001928E-02 0.  1.
       -1    1    3    3    0  502 -0.30113065933E+03  0.73251642949E+03 -0.99166137347E+03  0.12691147596E+04  0.50400001928E-02 0. -1.
</event>
<event>
 5   0  0.6993678E-06  0.2602433E+04  0.7818609E-02  0.8367375E-01
        1   -1    0    0  501    0  0.00000000000E+00  0.00000000000E+00  0.14341513499E+04  0.14341513499E+04  0.50400001928E-02 0.  1.
       -1   -1    0    0    0  501  0.00000000000E+00  0.00000000000E+00 -0.11806032724E+04  0.11806032724E+04  0.50400001928E-02 0. -1.
    10030    2    1    2    0    0  0.00000000000E+00  0.00000000000E+00  0.25354807758E+03  0.26147546223E+04  0.26024325365E+04 0.  0.
        1    1    3    3  502    0  0.67574068681E+03 -0.71420865364E+03 -0.72957855923E+03  0.12243383319E+04  0.50400001928E-02 0. -1.
       -1    1    3    3    0  502 -0.67574068681E+03  0.71420865364E+03  0.98312663681E+03  0.13904162905E+04  0.50400001928E-02 0.  1.
</event>
<event>
 5   0  0.1677971E-05  0.2591014E+04  0.7818609E-02  0.8371260E-01
        2   -1    0    0  501    0  0.00000000000E+00  0.00000000000E+00  0.15778326809E+04  0.15778326809E+04  0.25500000920E-02 0.  1.
       -2   -1    0    0    0  501  0.00000000000E+00  0.00000000000E+00 -0.10636983211E+04  0.10636983211E+04  0.25500000920E-02 0. -1.
    10030    2    1    2    0    0  0.00000000000E+00  0.00000000000E+00  0.51413435978E+03  0.26415310021E+04  0.25910136810E+04 0.  0.
        4    1    3    3  502    0 -0.31669898215E+03  0.11837996201E+04  0.68556726150E+03  0.14041666101E+04  0.12699999809E+01 0.  1.
       -4    1    3    3    0  502  0.31669898215E+03 -0.11837996201E+04 -0.17143290173E+03  0.12373643920E+04  0.12699999809E+01 0. -1.
</event>
<event>
 5   0  0.5840500E-06  0.2586427E+04  0.7818609E-02  0.8372826E-01
       -3   -1    0    0    0  501  0.00000000000E+00  0.00000000000E+00  0.85943494069E+03  0.85943494662E+03  0.10100000352E+00 0. -1.
        3   -1    0    0  501    0  0.00000000000E+00  0.00000000000E+00 -0.19459306930E+04  0.19459306956E+04  0.10100000352E+00 0.  1.
    10030    2    1    2    0    0  0.00000000000E+00  0.00000000000E+00 -0.10864957523E+04  0.28053656422E+04  0.25864267565E+04 0.  0.
        4    1    3    3  502    0  0.91962582343E+03 -0.82769788970E+03 -0.13509138448E+03  0.12446070652E+04  0.12699999809E+01 0. -1.
       -4    1    3    3    0  502 -0.91962582343E+03  0.82769788970E+03 -0.95140436783E+03  0.15607585770E+04  0.12699999809E+01 0.  1.
</event>
<event>
 5   0  0.1720129E-05  0.2607231E+04  0.7818609E-02  0.8365749E-01
       -2   -1    0    0    0  501  0.00000000000E+00  0.00000000000E+00  0.14384600462E+04  0.14384600462E+04  0.25500000920E-02 0.  1.
        2   -1    0    0  501    0  0.00000000000E+00  0.00000000000E+00 -0.11814118367E+04  0.11814118367E+04  0.25500000920E-02 0. -1.
    10030    2    1    2    0    0  0.00000000000E+00  0.00000000000E+00  0.25704820951E+03  0.26198718830E+04  0.26072312711E+04 0.  0.
        3    1    3    3  502    0 -0.98442558211E+03  0.55734975697E+03  0.77949305484E+03  0.13738056307E+04  0.10100000352E+00 0.  1.
       -3    1    3    3    0  502  0.98442558211E+03 -0.55734975697E+03 -0.52244484533E+03  0.12460662522E+04  0.10100000352E+00 0. -1.
</event>
<event>
 5   0  0.1681731E-05  0.2633992E+04  0.7818609E-02  0.8356746E-01
       -2   -1    0    0    0  501  0.00000000000E+00  0.00000000000E+00  0.11274609809E+04  0.11274609809E+04  0.25500000920E-02 0.  1.
        2   -1    0    0  501    0  0.00000000000E+00  0.00000000000E+00 -0.15383938785E+04  0.15383938785E+04  0.25500000920E-02 0. -1.
    10030    2    1    2    0    0  0.00000000000E+00  0.00000000000E+00 -0.41093289759E+03  0.26658548594E+04  0.26339924611E+04 0.  0.
        2    1    3    3  502    0 -0.94901217572E+02  0.41049561053E+03  0.10574120329E+04  0.11382587995E+04  0.25500000920E-02 0.  1.
       -2    1    3    3    0  502  0.94901217572E+02 -0.41049561053E+03 -0.14683449305E+04  0.15275960599E+04  0.25500000920E-02 0. -1.
</event>
<event>
 5   0  0.1702345E-05  0.2617301E+04  0.7818609E-02  0.8362348E-01
        2   -1    0    0  501    0  0.00000000000E+00  0.00000000000E+00  0.14774371317E+04  0.14774371317E+04  0.25500000920E-02 0. -1.
       -2   -1    0    0    0  501  0.00000000000E+00  0.00000000000E+00 -0.11591464481E+04  0.11591464481E+04  0.25500000920E-02 0.  1.
    10030    2    1    2    0    0  0.00000000000E+00  0.00000000000E+00  0.31829068361E+03  0.26365835798E+04  0.26173009025E+04 0.  0.
        1    1    3    3  502    0 -0.10848117322E+04  0.55897117293E+03  0.63517385447E+03  0.13757583697E+04  0.50400001928E-02 0. -1.
       -1    1    3    3    0  502  0.10848117322E+04 -0.55897117293E+03 -0.31688317086E+03  0.12608252101E+04  0.50400001928E-02 0.  1.
</event>
<event>
 5   0  0.6918420E-06  0.2676725E+04  0.7818609E-02  0.8342597E-01
        1   -1    0    0  501    0  0.00000000000E+00  0.00000000000E+00  0.13782010383E+04  0.13782010383E+04  0.50400001928E-02 0.  1.
       -1   -1    0    0    0  501  0.00000000000E+00  0.00000000000E+00 -0.12996756583E+04  0.12996756583E+04  0.50400001928E-02 0. -1.
    10030    2    1    2    0    0  0.00000000000E+00  0.00000000000E+00  0.78525380028E+02  0.26778766966E+04  0.26767251198E+04 0.  0.
        4    1    3    3  502    0  0.89213339468E+03  0.24100872999E+03  0.10077832753E+04  0.13673390014E+04  0.12699999809E+01 0.  1.
       -4    1    3    3    0  502 -0.89213339468E+03 -0.24100872999E+03 -0.92925789523E+03  0.13105376952E+04  0.12699999809E+01 0. -1.
</event>
<event>
 5   0  0.1681731E-05  0.2624820E+04  0.7818609E-02  0.8359819E-01
       -2   -1    0    0    0  501  0.00000000000E+00  0.00000000000E+00  0.76190621990E+03  0.76190621991E+03  0.25500000920E-02 0. -1.
        2   -1    0    0  501    0  0.00000000000E+00  0.00000000000E+00 -0.22606711612E+04  0.22606711612E+04  0.25500000920E-02 0.  1.
    10030    2    1    2    0    0  0.00000000000E+00  0.00000000000E+00 -0.14987649413E+04  0.30225773811E+04  0.26248195510E+04 0.  0.
        2    1    3    3  502    0  0.28812508282E+03  0.11697166526E+04 -0.13490297120E+04  0.18086277324E+04  0.25500000920E-02 0.  1.
       -2    1    3    3    0  502 -0.28812508282E+03 -0.11697166526E+04 -0.14973522927E+03  0.12139496487E+04  0.25500000920E-02 0. -1.
</event>
<event>
 5   0  0.6984287E-06  0.2618634E+04  0.7818609E-02  0.8361899E-01
        1   -1    0    0  501    0  0.00000000000E+00  0.00000000000E+00  0.10766228489E+04  0.10766228489E+04  0.50400001928E-02 0. -1.
       -1   -1    0    0    0  501  0.00000000000E+00  0.00000000000E+00 -0.15923045892E+04  0.15923045892E+04  0.50400001928E-02 0.  1.
    10030    2    1    2    0    0  0.00000000000E+00  0.00000000000E+00 -0.51568174029E+03  0.26689274381E+04  0.26186343793E+04 0.  0.
        3    1    3    3  502    0  0.31449086500E+03 -0.90097346839E+03  0.65584393374E+03  0.11579244235E+04  0.10100000352E+00 0. -1.
       -3    1    3    3    0  502 -0.31449086500E+03  0.90097346839E+03 -0.11715256740E+04  0.15110030146E+04  0.10100000352E+00 0.  1.
</event>
<event>
 5   0  0.6918420E-06  0.2573545E+04  0.7818609E-02  0.8377243E-01
       -1   -1    0    0    0  501  0.00000000000E+00  0.00000000000E+00  0.63431518225E+03  0.63431518227E+03  0.50400001928E-02 0. -1.
        1   -1    0    0  501    0  0.00000000000E+00  0.00000000000E+00 -0.26103489964E+04  0.26103489964E+04  0.50400001928E-02 0.  1.
    10030    2    1    2    0    0  0.00000000000E+00  0.00000000000E+00 -0.19760338141E+04  0.32446641786E+04  0.25735454139E+04 0.  0.
        4    1    3    3  502    0 -0.99247128336E+03 -0.30058303835E+03 -0.19485535927E+04  0.22073087975E+04  0.12699999809E+01 0.  1.
       -4    1    3    3    0  502  0.99247128336E+03  0.30058303835E+03 -0.27480221430E+02  0.10373553811E+04  0.12699999809E+01 0. -1.
</event>
<event>
 5   0  0.7138294E-06  0.2628002E+04  0.7818609E-02  0.8358751E-01
        1   -1    0    0  501    0  0.00000000000E+00  0.00000000000E+00  0.12824853534E+04  0.12824853534E+04  0.50400001928E-02 0.  1.
       -1   -1    0    0    0  501  0.00000000000E+00  0.00000000000E+00 -0.13462907500E+04  0.13462907500E+04  0.50400001928E-02 0. -1.
    10030    2    1    2    0    0  0.00000000000E+00  0.00000000000E+00 -0.63805396623E+02  0.26287761033E+04  0.26280016501E+04 0.  0.
        2    1    3    3  502    0  0.29456343797E+03  0.16761001707E+03 -0.13018190366E+04  0.13452113369E+04  0.25500000920E-02 0. -1.
       -2    1    3    3    0  502 -0.29456343797E+03 -0.16761001707E+03  0.12380136400E+04  0.12835647664E+04  0.25500000920E-02 0.  1.
</event>
<event>
 5   0  0.6706225E-06  0.2593156E+04  0.7818609E-02  0.8370530E-01
       -1   -1    0    0    0  501  0.00000000000E+00  0.00000000000E+00  0.10934058393E+04  0.10934058393E+04  0.50400001928E-02 0.  1.
        1   -1    0    0  501    0  0.00000000000E+00  0.00000000000E+00 -0.15375027556E+04  0.15375027556E+04  0.50400001928E-02 0. -1.
    10030    2    1    2    0    0  0.00000000000E+00  0.00000000000E+00 -0.44409691633E+03  0.26309085949E+04  0.25931559852E+04 0.  0.
        5    1    3    3  502    0 -0.12395968107E+04  0.18682057496E+02  0.16314073153E+03  0.12504344288E+04  0.46999998093E+01 0.  1.
       -5    1    3    3    0  502  0.12395968107E+04 -0.18682057496E+02 -0.60723764786E+03  0.13804741661E+04  0.46999998093E+01 0. -1.
</event>
<event>
 5   0  0.1702345E-05  0.2598815E+04  0.7818609E-02  0.8368604E-01
       -2   -1    0    0    0  501  0.00000000000E+00  0.00000000000E+00  0.10455529283E+04  0.10455529283E+04  0.25500000920E-02 0. -1.
        2   -1    0    0  501    0  0.00000000000E+00  0.00000000000E+00 -0.16148967122E+04  0.16148967122E+04  0.25500000920E-02 0.  1.
    10030    2    1    2    0    0  0.00000000000E+00  0.00000000000E+00 -0.56934378389E+03  0.26604496406E+04  0.25988151042E+04 0.  0.
        1    1    3    3  502    0 -0.47642807051E+03  0.57323879854E+03 -0.13742801370E+04  0.15634040813E+04  0.50400001928E-02 0.  1.
       -1    1    3    3    0  502  0.47642807051E+03 -0.57323879854E+03  0.80493635309E+03  0.10970455593E+04  0.50400001928E-02 0. -1.
</event>
<event>
 5   0  0.1677971E-05  0.2582556E+04  0.7818609E-02  0.8374151E-01
       -2   -1    0    0    0  501  0.00000000000E+00  0.00000000000E+00  0.15906763495E+04  0.15906763495E+04  0.25500000920E-02 0. -1.
        2   -1    0    0  501    0  0.00000000000E+00  0.00000000000E+00 -0.10482329593E+04  0.10482329593E+04  0.25500000920E-02 0.  1.
    10030    2    1    2    0    0  0.00000000000E+00  0.00000000000E+00  0.54244339019E+03  0.26389093087E+04  0.25825563901E+04 0.  0.
        4    1    3    3  502    0  0.50428455505E+03  0.89315302087E+03 -0.53035245985E+03  0.11546863538E+04  0.12699999809E+01 0.  1.
       -4    1    3    3    0  502 -0.50428455505E+03 -0.89315302087E+03  0.10727958500E+04  0.14842229549E+04  0.12699999809E+01 0. -1.
</event>
<event>
 5   0  0.1720129E-05  0.2572106E+04  0.7818609E-02  0.8377738E-01
       -2   -1    0    0    0  501  0.00000000000E+00  0.00000000000E+00  0.13597055846E+04  0.13597055846E+04  0.25500000920E-02 0.  1.
        2   -1    0    0  501    0  0.00000000000E+00  0.00000000000E+00 -0.12163901017E+04  0.12163901017E+04  0.25500000920E-02 0. -1.
    10030    2    1    2    0    0  0.00000000000E+00  0.00000000000E+00  0.14331548292E+03  0.25760956864E+04  0.25721060743E+04 0.  0.
        3    1    3    3  502    0 -0.17226003788E+03 -0.83193676735E+03 -0.89531384014E+03  0.12342524815E+04  0.10100000352E+00 0. -1.
       -3    1    3    3    0  502  0.17226003788E+03  0.83193676735E+03  0.10386293231E+04  0.13418432049E+04  0.10100000352E+00 0.  1.
</event>
<event>
 5   0  0.7138294E-06  0.2610579E+04  0.7818609E-02  0.8364617E-01
       -1   -1    0    0    0  501  0.00000000000E+00  0.00000000000E+00  0.94780750785E+03  0.94780750787E+03  0.50400001928E-02 0. -1.
        1   -1    0    0  501    0  0.00000000000E+00  0.00000000000E+00 -0.17976016539E+04  0.17976016539E+04  0.50400001928E-02 0.  1.
    10030    2    1    2    0    0  0.00000000000E+00  0.00000000000E+00 -0.84979414602E+03  0.27454091617E+04  0.26105787433E+04 0.  0.
        2    1    3    3  502    0 -0.69265355243E+03  0.37807970903E+03  0.66854709687E+03  0.10342477608E+04  0.25500000920E-02 0. -1.
       -2    1    3    3    0  502  0.69265355243E+03 -0.37807970903E+03 -0.15183412429E+04  0.17111614009E+04  0.25500000920E-02 0.  1.
</event>
<event>
 5   0  0.7138294E-06  0.2628713E+04  0.7818609E-02  0.8358513E-01
       -1   -1    0    0    0  501  0.00000000000E+00  0.00000000000E+00  0.14425758298E+04  0.14425758298E+04  0.50400001928E-02 0. -1.
        1   -1    0    0  501    0  0.00000000000E+00  0.00000000000E+00 -0.11975339057E+04  0.11975339057E+04  0.50400001928E-02 0.  1.
    10030    2    1    2    0    0  0.00000000000E+00  0.00000000000E+00  0.24504192407E+03  0.26401097356E+04  0.26287133490E+04 0.  0.
        2    1    3    3  502    0 -0.12368366608E+04  0.12764372417E+03 -0.30532545060E+03  0.12803442805E+04  0.25500000920E-02 0.  1.
       -2    1    3    3    0  502  0.12368366608E+04 -0.12764372417E+03  0.55036737468E+03  0.13597654551E+04  0.25500000920E-02 0. -1.
</event>
<event>
 5   0  0.5840500E-06  0.2569013E+04  0.7818609E-02  0.8378804E-01
       -3   -1    0    0    0  501  0.00000000000E+00  0.00000000000E+00  0.18142940273E+04  0.18142940301E+04  0.10100000352E+00 0. -1.
        3   -1    0    0  501    0  0.00000000000E+00  0.00000000000E+00 -0.90942089622E+03  0.90942090182E+03  0.10100000352E+00 0.  1.
    10030    2    1    2    0    0  0.00000000000E+00  0.00000000000E+00  0.90487313107E+03  0.27237149319E+04  0.25690129714E+04 0.  0.
        3    1    3    3  502    0 -0.78246352346E+03 -0.95223829937E+03  0.68775229260E+02  0.12343974185E+04  0.10100000352E+00 0.  1.
       -3    1    3    3    0  502  0.78246352346E+03  0.95223829937E+03  0.83609790181E+03  0.14893175135E+04  0.10100000352E+00 0. -1.
</event>
<event>
 5   0  0.5840500E-06  0.2155510E+04  0.7818609E-02  0.8537177E-01
       -3   -1    0    0    0  501  0.00000000000E+00  0.00000000000E+00  0.23839754105E+04  0.23839754127E+04  0.10100000352E+00 0. -1.
        3   -1    0    0  501    0  0.00000000000E+00  0.00000000000E+00 -0.48723482688E+03  0.48723483735E+03  0.10100000352E+00 0.  1.
    10030    2    1    2    0    0  0.00000000000E+00  0.00000000000E+00  0.18967405836E+04  0.28712102500E+04  0.21555100227E+04 0.  0.
        4    1    3    3  502    0  0.74949710077E+03  0.68188115440E+03  0.45922859029E+03  0.11124748644E+04  0.12699999809E+01 0.  1.
       -4    1    3    3    0  502 -0.74949710077E+03 -0.68188115440E+03  0.14375119933E+04  0.17587353856E+04  0.12699999809E+01 0. -1.
</event>
<event>
 5   0  0.6918420E-06  0.2582704E+04  0.7818609E-02  0.8374100E-01
        1   -1    0    0  501    0  0.00000000000E+00  0.00000000000E+00  0.51583241396E+03  0.51583241399E+03  0.50400001928E-02 0. -1.
       -1   -1    0    0    0  501  0.00000000000E+00  0.00000000000E+00 -0.32328134228E+04  0.32328134228E+04  0.50400001928E-02 0.  1.
    10030    2    1    2    0    0  0.00000000000E+00  0.00000000000E+00 -0.27169810088E+04  0.37486458368E+04  0.25827039721E+04 0.  0.
        4    1    3    3  502    0 -0.45244075404E+03  0.49912437175E+03 -0.29575561475E+04  0.30333097028E+04  0.12699999809E+01 0.  1.
       -4    1    3    3    0  502  0.45244075404E+03 -0.49912437175E+03  0.24057513867E+03  0.71533613402E+03  0.12699999809E+01 0. -1.
</event>
<event>
 5   0  0.6984287E-06  0.2652539E+04  0.7818609E-02  0.8350571E-01
        1   -1    0    0  501    0  0.00000000000E+00  0.00000000000E+00  0.16970979242E+04  0.16970979243E+04  0.50400001928E-02 0.  1.
       -1   -1    0    0    0  501  0.00000000000E+00  0.00000000000E+00 -0.10364698318E+04  0.10364698319E+04  0.50400001928E-02 0. -1.
    10030    2    1    2    0    0  0.00000000000E+00  0.00000000000E+00  0.66062809240E+03  0.27335677561E+04  0.26525390102E+04 0.  0.
        3    1    3    3  502    0  0.22669951055E+03 -0.91649026169E+03  0.12902423072E+04  0.15987721192E+04  0.10100000352E+00 0.  1.
       -3    1    3    3    0  502 -0.22669951055E+03  0.91649026169E+03 -0.62961421476E+03  0.11347956369E+04  0.10100000352E+00 0. -1.
</event>
<event>
 5   0  0.1677971E-05  0.2603561E+04  0.7818609E-02  0.8366993E-01
        2   -1    0    0  501    0  0.00000000000E+00  0.00000000000E+00  0.14987588675E+04  0.14987588675E+04  0.25500000920E-02 0. -1.
       -2   -1    0    0    0  501  0.00000000000E+00  0.00000000000E+00 -0.11306901594E+04  0.11306901594E+04  0.25500000920E-02 0.  1.
    10030    2    1    2    0    0  0.00000000000E+00  0.00000000000E+00  0.36806870804E+03  0.26294490269E+04  0.26035605642E+04 0.  0.
        4    1    3    3  502    0 -0.13648253600E+03  0.95617503739E+03  0.10654854087E+04  0.14381095069E+04  0.12699999809E+01 0. -1.
       -4    1    3    3    0  502  0.13648253600E+03 -0.95617503739E+03 -0.69741670064E+03  0.11913395200E+04  0.12699999809E+01 0.  1.
</event>
<event>
 5   0  0.1869956E-05  0.2593775E+04  0.7818609E-02  0.8370319E-01
       -2   -1    0    0    0  501  0.00000000000E+00  0.00000000000E+00  0.60081462265E+03  0.60081462266E+03  0.25500000920E-02 0.  1.
        2   -1    0    0  501    0  0.00000000000E+00  0.00000000000E+00 -0.27993946926E+04  0.27993946926E+04  0.25500000920E-02 0. -1.
    10030    2    1    2    0    0  0.00000000000E+00  0.00000000000E+00 -0.21985800700E+04  0.34002093153E+04  0.25937750603E+04 0.  0.
        5    1    3    3  502    0 -0.43527983313E+03 -0.12216464950E+04 -0.11026280918E+04  0.17022630498E+04  0.46999998093E+01 0. -1.
       -5    1    3    3    0  502  0.43527983313E+03  0.12216464950E+04 -0.10959519782E+04  0.16979462655E+04  0.46999998093E+01 0.  1.
</event>
<event>
 5   0  0.6706225E-06  0.2588091E+04  0.7818609E-02  0.8372258E-01
       -1   -1    0    0    0  501  0.00000000000E+00  0.00000000000E+00  0.67530852566E+03  0.67530852568E+03  0.50400001928E-02 0.  1.
        1   -1    0    0  501    0  0.00000000000E+00  0.00000000000E+00 -0.24796861870E+04  0.24796861870E+04  0.50400001928E-02 0. -1.
    10030    2    1    2    0    0  0.00000000000E+00  0.00000000000E+00 -0.18043776614E+04  0.31549947127E+04  0.25880905881E+04 0.  0.
        5    1    3    3  502    0  0.39222898256E+03 -0.82596831869E+03 -0.20184385057E+04  0.22158933480E+04  0.46999998093E+01 0. -1.
       -5    1    3    3    0  502 -0.39222898256E+03  0.82596831869E+03  0.21406084432E+03  0.93910136477E+03  0.46999998093E+01 0.  1.
</event>
<event>
 5   0  0.1702345E-05  0.2704407E+04  0.7818609E-02  0.8333576E-01
       -2   -1    0    0    0  501  0.00000000000E+00  0.00000000000E+00  0.13131598578E+04  0.13131598578E+04  0.25500000920E-02 0. -1.
        2   -1    0    0  501    0  0.00000000000E+00  0.00000000000E+00 -0.13924080446E+04  0.13924080446E+04  0.25500000920E-02 0.  1.
    10030    2    1    2    0    0  0.00000000000E+00  0.00000000000E+00 -0.79248186793E+02  0.27055679025E+04  0.27044070329E+04 0.  0.
        1    1    3    3  502    0 -0.34922043652E+03 -0.14961397439E+03 -0.13379157486E+04  0.13908119229E+04  0.50400001928E-02 0.  1.
       -1    1    3    3    0  502  0.34922043652E+03  0.14961397439E+03  0.12586675618E+04  0.13147559795E+04  0.50400001928E-02 0. -1.
</event>
<event>
 5   0  0.1681731E-05  0.2646175E+04  0.7818609E-02  0.8352683E-01
        2   -1    0    0  501    0  0.00000000000E+00  0.00000000000E+00  0.20842118496E+04  0.20842118496E+04  0.25500000920E-02 0.  1.
       -2   -1    0    0    0  501  0.00000000000E+00  0.00000000000E+00 -0.83991513369E+03  0.83991513370E+03  0.25500000920E-02 0. -1.
    10030    2    1    2    0    0  0.00000000000E+00  0.00000000000E+00  0.12442967159E+04  0.29241269833E+04  0.26461754094E+04 0.  0.
        2    1    3    3  502    0 -0.57374906230E+03  0.11605919999E+04  0.92356138382E+03  0.15903230510E+04  0.25500000920E-02 0. -1.
       -2    1    3    3    0  502  0.57374906230E+03 -0.11605919999E+04  0.32073533212E+03  0.13338039324E+04  0.25500000920E-02 0.  1.
</event>
<event>
 5   0  0.1681731E-05  0.2585995E+04  0.7818609E-02  0.8372974E-01
        2   -1    0    0  501    0  0.00000000000E+00  0.00000000000E+00  0.17021112813E+04  0.17021112813E+04  0.25500000920E-02 0.  1.
       -2   -1    0    0    0  501  0.00000000000E+00  0.00000000000E+00 -0.98221693371E+03  0.98221693372E+03  0.25500000920E-02 0. -1.
    10030    2    1    2    0    0  0.00000000000E+00  0.00000000000E+00  0.71989434763E+03  0.26843282151E+04  0.25859949912E+04 0.  0.
        2    1    3    3  502    0  0.40968436580E+03 -0.57053280696E+03  0.14868112753E+04  0.16443712269E+04  0.25500000920E-02 0.  1.
       -2    1    3    3    0  502 -0.40968436580E+03  0.57053280696E+03 -0.76691692765E+03  0.10399569882E+04  0.25500000920E-02 0. -1.
</event>
<event>
 5   0  0.6918420E-06  0.2618973E+04  0.7818609E-02  0.8361785E-01
       -1   -1    0    0    0  501  0.00000000000E+00  0.00000000000E+00  0.10542898673E+04  0.10542898673E+04  0.50400001928E-02 0. -1.
        1   -1    0    0  501    0  0.00000000000E+00  0.00000000000E+00 -0.16264549613E+04  0.16264549613E+04  0.50400001928E-02 0.  1.
    10030    2    1    2    0    0  0.00000000000E+00  0.00000000000E+00 -0.57216509404E+03  0.26807448286E+04  0.26189730700E+04 0.  0.
        4    1    3    3  502    0 -0.12054386517E+04 -0.23108355631E+02  0.23698608566E+03  0.12287311979E+04  0.12699999809E+01 0. -1.
       -4    1    3    3    0  502  0.12054386517E+04  0.23108355631E+02 -0.80915117970E+03  0.14520136307E+04  0.12699999809E+01 0.  1.
</event>
<event>
 5   0  0.6993678E-06  0.2358381E+04  0.7818609E-02  0.8455252E-01
        1   -1    0    0  501    0  0.00000000000E+00  0.00000000000E+00  0.17079805590E+04  0.17079805590E+04  0.50400001928E-02 0. -1.
       -1   -1    0    0    0  501  0.00000000000E+00  0.00000000000E+00 -0.81411340776E+03  0.81411340778E+03  0.50400001928E-02 0.  1.
    10030    2    1    2    0    0  0.00000000000E+00  0.00000000000E+00  0.89386715122E+03  0.25220939668E+04  0.23583806930E+04 0.  0.
        1    1    3    3  502    0  0.62314033858E+03 -0.97490333613E+03  0.69021017393E+03  0.13472677835E+04  0.50400001928E-02 0. -1.
       -1    1    3    3    0  502 -0.62314033858E+03  0.97490333613E+03  0.20365697729E+03  0.11748261832E+04  0.50400001928E-02 0.  1.
</event>
<event>
 5   0  0.1869956E-05  0.2584241E+04  0.7818609E-02  0.8373574E-01
        2   -1    0    0  501    0  0.00000000000E+00  0.00000000000E+00  0.23206268092E+04  0.23206268092E+04  0.25500000920E-02 0.  1.
       -2   -1    0    0    0  501  0.00000000000E+00  0.00000000000E+00 -0.71944998496E+03  0.71944998497E+03  0.25500000920E-02 0. -1.
    10030    2    1    2    0    0  0.00000000000E+00  0.00000000000E+00  0.16011768243E+04  0.30400767942E+04  0.25842406413E+04 0.  0.
        5    1    3    3  502    0  0.19698181816E+03 -0.12422836820E+04  0.45264263198E+03  0.13367789741E+04  0.46999998093E+01 0. -1.
       -5    1    3    3    0  502 -0.19698181816E+03  0.12422836820E+04  0.11485341923E+04  0.17032978201E+04  0.46999998093E+01 0.  1.
</event>
<event>
 5   0  0.6706225E-06  0.2606921E+04  0.7818609E-02  0.8365854E-01
        1   -1    0    0  501    0  0.00000000000E+00  0.00000000000E+00  0.17109795999E+04  0.17109795999E+04  0.50400001928E-02 0. -1.
       -1   -1    0    0    0  501  0.00000000000E+00  0.00000000000E+00 -0.99300410741E+03  0.99300410743E+03  0.50400001928E-02 0.  1.
    10030    2    1    2    0    0  0.00000000000E+00  0.00000000000E+00  0.71797549249E+03  0.27039837073E+04  0.26069213800E+04 0.  0.
        5    1    3    3  502    0  0.99726019230E+03  0.81320879089E+03  0.14352468017E+03  0.12947810056E+04  0.46999998093E+01 0.  1.
       -5    1    3    3    0  502 -0.99726019230E+03 -0.81320879089E+03  0.57445081233E+03  0.14092027017E+04  0.46999998093E+01 0. -1.
</event>
<event>
 5   0  0.1681731E-05  0.2595083E+04  0.7818609E-02  0.8369873E-01
       -2   -1    0    0    0  501  0.00000000000E+00  0.00000000000E+00  0.12379358565E+04  0.12379358565E+04  0.25500000920E-02 0. -1.
        2   -1    0    0  501    0  0.00000000000E+00  0.00000000000E+00 -0.13600166139E+04  0.13600166139E+04  0.25500000920E-02 0.  1.
    10030    2    1    2    0    0  0.00000000000E+00  0.00000000000E+00 -0.12208075745E+03  0.25979524704E+04  0.25950825280E+04 0.  0.
        2    1    3    3  502    0 -0.46576568007E+03  0.29426779299E+03 -0.12371085425E+04  0.13542410231E+04  0.25500000920E-02 0.  1.
       -2    1    3    3    0  502  0.46576568007E+03 -0.29426779299E+03  0.11150277851E+04  0.12437114473E+04  0.25500000920E-02 0. -1.
</event>
<event>
 5   0  0.1677971E-05  0.2623181E+04  0.7818609E-02  0.8360370E-01
        2   -1    0    0  501    0  0.00000000000E+00  0.00000000000E+00  0.16255959183E+04  0.16255959183E+04  0.25500000920E-02 0. -1.
       -2   -1    0    0    0  501  0.00000000000E+00  0.00000000000E+00 -0.10582393147E+04  0.10582393147E+04  0.25500000920E-02 0.  1.
    10030    2    1    2    0    0  0.00000000000E+00  0.00000000000E+00  0.56735660366E+03  0.26838352330E+04  0.26231809015E+04 0.  0.
        4    1    3    3  502    0  0.10196940637E+02  0.60042843090E+02 -0.10567912314E+04  0.10585454361E+04  0.12699999809E+01 0.  1.
       -4    1    3    3    0  502 -0.10196940637E+02 -0.60042843090E+02  0.16241478351E+04  0.16252897969E+04  0.12699999809E+01 0. -1.
</event>
<event>
 5   0  0.6918420E-06  0.2614502E+04  0.7818609E-02  0.8363292E-01
        1   -1    0    0  501    0  0.00000000000E+00  0.00000000000E+00  0.88634510153E+03  0.88634510154E+03  0.50400001928E-02 0.  1.
       -1   -1    0    0    0  501  0.00000000000E+00  0.00000000000E+00 -0.19280356541E+04  0.19280356541E+04  0.50400001928E-02 0. -1.
    10030    2    1    2    0    0  0.00000000000E+00  0.00000000000E+00 -0.10416905525E+04  0.28143807556E+04  0.26145018321E+04 0.  0.
        4    1    3    3  502    0  0.30923007771E+03 -0.11328600129E+04  0.97442299407E+02  0.11783427618E+04  0.12699999809E+01 0. -1.
       -4    1    3    3    0  502 -0.30923007771E+03  0.11328600129E+04 -0.11391328519E+04  0.16360379938E+04  0.12699999809E+01 0.  1.
</event>
<event>
 5   0  0.1869956E-05  0.2419808E+04  0.7818609E-02  0.8432125E-01
        2   -1    0    0  501    0  0.00000000000E+00  0.00000000000E+00  0.23902567474E+04  0.23902567474E+04  0.25500000920E-02 0. -1.
       -2   -1    0    0    0  501  0.00000000000E+00  0.00000000000E+00 -0.61243136343E+03  0.61243136344E+03  0.25500000920E-02 0.  1.
    10030    2    1    2    0    0  0.00000000000E+00  0.00000000000E+00  0.17778253840E+04  0.30026881108E+04  0.24198084211E+04 0.  0.
        5    1    3    3  502    0 -0.83315596821E+03  0.57101689695E+03  0.62412243657E+02  0.10119913745E+04  0.46999998093E+01 0.  1.
       -5    1    3    3    0  502  0.83315596821E+03 -0.57101689695E+03  0.17154131403E+04  0.19906967363E+04  0.46999998093E+01 0. -1.
</event>
<event>
 5   0  0.1720129E-05  0.2579746E+04  0.7818609E-02  0.8375114E-01
       -2   -1    0    0    0  501  0.00000000000E+00  0.00000000000E+00  0.15040237856E+04  0.15040237856E+04  0.25500000920E-02 0.  1.
        2   -1    0    0  501    0  0.00000000000E+00  0.00000000000E+00 -0.11062143615E+04  0.11062143615E+04  0.25500000920E-02 0. -1.
    10030    2    1    2    0    0  0.00000000000E+00  0.00000000000E+00  0.39780942409E+03  0.26102381471E+04  0.25797462756E+04 0.  0.
        3    1    3    3  502    0 -0.91969388738E+03  0.87704487864E+03  0.42225835319E+03  0.13391589497E+04  0.10100000352E+00 0.  1.
       -3    1    3    3    0  502  0.91969388738E+03 -0.87704487864E+03 -0.24448929104E+02  0.12710791974E+04  0.10100000352E+00 0. -1.
</event>
<event>
 5   0  0.1677971E-05  0.2597583E+04  0.7818609E-02  0.8369023E-01
        2   -1    0    0  501    0  0.00000000000E+00  0.00000000000E+00  0.13498642377E+04  0.13498642377E+04  0.25500000920E-02 0. -1.
       -2   -1    0    0    0  501  0.00000000000E+00  0.00000000000E+00 -0.12496512343E+04  0.12496512343E+04  0.25500000920E-02 0.  1.
    10030    2    1    2    0    0  0.00000000000E+00  0.00000000000E+00  0.10021300345E+03  0.25995154720E+04  0.25975831157E+04 0.  0.
        4    1    3    3  502    0 -0.88112898983E+03 -0.91463957542E+03 -0.22194872135E+03  0.12892698311E+04  0.12699999809E+01 0.  1.
       -4    1    3    3    0  502  0.88112898983E+03  0.91463957542E+03  0.32216172480E+03  0.13102456409E+04  0.12699999809E+01 0. -1.
</event>
<event>
 5   0  0.7138294E-06  0.2526211E+04  0.7818609E-02  0.8393707E-01
        1   -1    0    0  501    0  0.00000000000E+00  0.00000000000E+00  0.80929535013E+03  0.80929535015E+03  0.50400001928E-02 0.  1.
       -1   -1    0    0    0  501  0.00000000000E+00  0.00000000000E+00 -0.19713889807E+04  0.19713889807E+04  0.50400001928E-02 0. -1.
    10030    2    1    2    0    0  0.00000000000E+00  0.00000000000E+00 -0.11620936305E+04  0.27806843308E+04  0.25262113414E+04 0.  0.
        2    1    3    3  502    0  0.69353580388E+03 -0.39636149439E+03  0.49595261181E+03  0.94024642443E+03  0.25500000920E-02 0.  1.
       -2    1    3    3    0  502 -0.69353580388E+03  0.39636149439E+03 -0.16580462423E+04  0.18404379064E+04  0.25500000920E-02 0. -1.
</event>
<event>
 5   0  0.1720129E-05  0.2663695E+04  0.7818609E-02  0.8346882E-01
        2   -1    0    0  501    0  0.00000000000E+00  0.00000000000E+00  0.19789283645E+04  0.19789283645E+04  0.25500000920E-02 0. -1.
       -2   -1    0    0    0  501  0.00000000000E+00  0.00000000000E+00 -0.89635300668E+03  0.89635300668E+03  0.25500000920E-02 0.  1.
    10030    2    1    2    0    0  0.00000000000E+00  0.00000000000E+00  0.10825753579E+04  0.28752813712E+04  0.26636954703E+04 0.  0.
        3    1    3    3  502    0 -0.39026456332E+03 -0.10072431029E+04 -0.29968244128E+03  0.11210060988E+04  0.10100000352E+00 0.  1.
       -3    1    3    3    0  502  0.39026456332E+03  0.10072431029E+04  0.13822577991E+04  0.17542752724E+04  0.10100000352E+00 0. -1.
</event>
<event>
 5   0  0.6706225E-06  0.2499163E+04  0.7818609E-02  0.8403284E-01
        1   -1    0    0  501    0  0.00000000000E+00  0.00000000000E+00  0.20259710213E+04  0.20259710213E+04  0.50400001928E-02 0. -1.
       -1   -1    0    0    0  501  0.00000000000E+00  0.00000000000E+00 -0.77071899930E+03  0.77071899932E+03  0.50400001928E-02 0.  1.
    10030    2    1    2    0    0  0.00000000000E+00  0.00000000000E+00  0.12552520220E+04  0.27966900206E+04  0.24991633465E+04 0.  0.
        5    1    3    3  502    0 -0.91308641487E+03  0.11275520245E+03  0.15738636074E+04  0.18230494457E+04  0.46999998093E+01 0. -1.
       -5    1    3    3    0  502  0.91308641487E+03 -0.11275520245E+03 -0.31861158545E+03  0.97364057490E+03  0.46999998093E+01 0.  1.
</event>
<event>
 5   0  0.1677971E-05  0.2610470E+04  0.7818609E-02  0.8364653E-01
       -2   -1    0    0    0  501  0.00000000000E+00  0.00000000000E+00  0.81185233277E+03  0.81185233278E+03  0.25500000920E-02 0.  1.
        2   -1    0    0  501    0  0.00000000000E+00  0.00000000000E+00 -0.20984588514E+04  0.20984588514E+04  0.25500000920E-02 0. -1.
    10030    2    1    2    0    0  0.00000000000E+00  0.00000000000E+00 -0.12866065186E+04  0.29103111842E+04  0.26104702364E+04 0.  0.
        4    1    3    3  502    0  0.95240468145E+03  0.65112196545E+03 -0.13238275453E+04  0.17560055449E+04  0.12699999809E+01 0. -1.
       -4    1    3    3    0  502 -0.95240468145E+03 -0.65112196545E+03  0.37221026680E+02  0.11543056393E+04  0.12699999809E+01 0.  1.
</event>
<event>
 5   0  0.6993678E-06  0.2594622E+04  0.7818609E-02  0.8370030E-01
       -1   -1    0    0    0  501  0.00000000000E+00  0.00000000000E+00  0.10246658831E+04  0.10246658831E+04  0.50400001928E-02 0. -1.
        1   -1    0    0  501    0  0.00000000000E+00  0.00000000000E+00 -0.16425016237E+04  0.16425016237E+04  0.50400001928E-02 0.  1.
    10030    2    1    2    0    0  0.00000000000E+00  0.00000000000E+00 -0.61783574058E+03  0.26671675068E+04  0.25946216501E+04 0.  0.
        1    1    3    3  502    0  0.93399036652E+03  0.29368620221E+03 -0.11838476618E+04  0.15362567742E+04  0.50400001928E-02 0.  1.
       -1    1    3    3    0  502 -0.93399036652E+03 -0.29368620221E+03  0.56601192118E+03  0.11309107326E+04  0.50400001928E-02 0. -1.
</event>
<event>
 5   0  0.1869956E-05  0.2609280E+04  0.7818609E-02  0.8365056E-01
       -2   -1    0    0    0  501  0.00000000000E+00  0.00000000000E+00  0.13942976940E+04  0.13942976940E+04  0.25500000920E-02 0. -1.
        2   -1    0    0  501    0  0.00000000000E+00  0.00000000000E+00 -0.12207477836E+04  0.12207477836E+04  0.25500000920E-02 0.  1.
    10030    2    1    2    0    0  0.00000000000E+00  0.00000000000E+00  0.17354991044E+03  0.26150454775E+04  0.26092802223E+04 0.  0.
        5    1    3    3  502    0 -0.13427297180E+03 -0.34193243350E+03 -0.11678363430E+04  0.12242593002E+04  0.46999998093E+01 0.  1.
       -5    1    3    3    0  502  0.13427297180E+03  0.34193243350E+03  0.13413862535E+04  0.13907861773E+04  0.46999998093E+01 0. -1.
</event>
<event>
 5   0  0.6706225E-06  0.2604480E+04  0.7818609E-02  0.8366681E-01
        1   -1    0    0  501    0  0.00000000000E+00  0.00000000000E+00  0.16387097754E+04  0.16387097754E+04  0.50400001928E-02 0.  1.
       -1   -1    0    0    0  501  0.00000000000E+00  0.00000000000E+00 -0.10348565046E+04  0.10348565046E+04  0.50400001928E-02 0. -1.
    10030    2    1    2    0    0  0.00000000000E+00  0.00000000000E+00  0.60385327081E+03  0.26735662801E+04  0.26044803477E+04 0.  0.
        5    1    3    3  502    0  0.12119870352E+04  0.44130680670E+03  0.11788596264E+03  0.12952156042E+04  0.46999998093E+01 0. -1.
       -5    1    3    3    0  502 -0.12119870352E+04 -0.44130680670E+03  0.48596730817E+03  0.13783506759E+04  0.46999998093E+01 0.  1.
</event>
<event>
 5   0  0.6706225E-06  0.2575531E+04  0.7818609E-02  0.8376560E-01
        1   -1    0    0  501    0  0.00000000000E+00  0.00000000000E+00  0.16860567039E+04  0.16860567040E+04  0.50400001928E-02 0. -1.
       -1   -1    0    0    0  501  0.00000000000E+00  0.00000000000E+00 -0.98356138474E+03  0.98356138475E+03  0.50400001928E-02 0.  1.
    10030    2    1    2    0    0  0.00000000000E+00  0.00000000000E+00  0.70249531920E+03  0.26696180887E+04  0.25755312202E+04 0.  0.
        5    1    3    3  502    0  0.22864164002E+03 -0.98549032820E+02  0.16608624023E+04  0.16794269620E+04  0.46999998093E+01 0. -1.
       -5    1    3    3    0  502 -0.22864164002E+03  0.98549032820E+02 -0.95836708309E+03  0.99019112668E+03  0.46999998093E+01 0.  1.
</event>
<event>
 5   0  0.1869956E-05  0.2617100E+04  0.7818609E-02  0.8362416E-01
        2   -1    0    0  501    0  0.00000000000E+00  0.00000000000E+00  0.12500256824E+04  0.12500256824E+04  0.25500000920E-02 0. -1.
       -2   -1    0    0    0  501  0.00000000000E+00  0.00000000000E+00 -0.13698142820E+04  0.13698142820E+04  0.25500000920E-02 0.  1.
    10030    2    1    2    0    0  0.00000000000E+00  0.00000000000E+00 -0.11978859960E+03  0.26198399645E+04  0.26170999466E+04 0.  0.
        5    1    3    3  502    0 -0.12081511611E+04  0.48920777214E+03  0.55671230158E+02  0.13046359064E+04  0.46999998093E+01 0.  1.
       -5    1    3    3    0  502  0.12081511611E+04 -0.48920777214E+03 -0.17545982975E+03  0.13152040580E+04  0.46999998093E+01 0. -1.
</event>
<event>
 5   0  0.6918420E-06  0.2599510E+04  0.7818609E-02  0.8368368E-01
       -1   -1    0    0    0  501  0.00000000000E+00  0.00000000000E+00  0.11714055254E+04  0.11714055254E+04  0.50400001928E-02 0.  1.
        1   -1    0    0  501    0  0.00000000000E+00  0.00000000000E+00 -0.14421673512E+04  0.14421673512E+04  0.50400001928E-02 0. -1.
    10030    2    1    2    0    0  0.00000000000E+00  0.00000000000E+00 -0.27076182587E+03  0.26135728766E+04  0.25995098028E+04 0.  0.
        4    1    3    3  502    0 -0.92295577618E+03  0.14318182195E+03 -0.10441584486E+04  0.14009342874E+04  0.12699999809E+01 0. -1.
       -4    1    3    3    0  502  0.92295577618E+03 -0.14318182195E+03  0.77339662277E+03  0.12126385892E+04  0.12699999809E+01 0.  1.
</event>
<event>
 5   0  0.6918420E-06  0.2592927E+04  0.7818609E-02  0.8370608E-01
       -1   -1    0    0    0  501  0.00000000000E+00  0.00000000000E+00  0.17901436095E+04  0.17901436095E+04  0.50400001928E-02 0.  1.
        1   -1    0    0  501    0  0.00000000000E+00  0.00000000000E+00 -0.93892887785E+03  0.93892887786E+03  0.50400001928E-02 0. -1.
    10030    2    1    2    0    0  0.00000000000E+00  0.00000000000E+00  0.85121473160E+03  0.27290724873E+04  0.25929269411E+04 0.  0.
        4    1    3    3  502    0 -0.79720587862E+03  0.56430517596E+03  0.13229198598E+04  0.16444136076E+04  0.12699999809E+01 0.  1.
       -4    1    3    3    0  502  0.79720587862E+03 -0.56430517596E+03 -0.47170512818E+03  0.10846588797E+04  0.12699999809E+01 0. -1.
</event>
<event>
 5   0  0.6706225E-06  0.2553781E+04  0.7818609E-02  0.8384073E-01
       -1   -1    0    0    0  501  0.00000000000E+00  0.00000000000E+00  0.15396701385E+04  0.15396701385E+04  0.50400001928E-02 0.  1.
        1   -1    0    0  501    0  0.00000000000E+00  0.00000000000E+00 -0.10589599210E+04  0.10589599210E+04  0.50400001928E-02 0. -1.
    10030    2    1    2    0    0  0.00000000000E+00  0.00000000000E+00  0.48071021749E+03  0.25986300594E+04  0.25537807017E+04 0.  0.
        5    1    3    3  502    0 -0.23768634436E+03  0.57796330915E+02 -0.10348865780E+04  0.10634131527E+04  0.46999998093E+01 0. -1.
       -5    1    3    3    0  502  0.23768634436E+03 -0.57796330915E+02  0.15155967955E+04  0.15352169067E+04  0.46999998093E+01 0.  1.
</event>
<event>
 5   0  0.6918420E-06  0.2594161E+04  0.7818609E-02  0.8370187E-01
        1   -1    0    0  501    0  0.00000000000E+00  0.00000000000E+00  0.18745631153E+04  0.18745631153E+04  0.50400001928E-02 0.  1.
       -1   -1    0    0    0  501  0.00000000000E+00  0.00000000000E+00 -0.89749863104E+03  0.89749863105E+03  0.50400001928E-02 0. -1.
    10030    2    1    2    0    0  0.00000000000E+00  0.00000000000E+00  0.97706448430E+03  0.27720617464E+04  0.25941610049E+04 0.  0.
        4    1    3    3  502    0  0.26331658322E+03  0.12644706214E+04  0.36122058000E+03  0.13411575208E+04  0.12699999809E+01 0. -1.
       -4    1    3    3    0  502 -0.26331658322E+03 -0.12644706214E+04  0.61584390430E+03  0.14309042256E+04  0.12699999809E+01 0.  1.
</event>
<event>
 5   0  0.6918420E-06  0.2596907E+04  0.7818609E-02  0.8369253E-01
        1   -1    0    0  501    0  0.00000000000E+00  0.00000000000E+00  0.10283449324E+04  0.10283449324E+04  0.50400001928E-02 0. -1.
       -1   -1    0    0    0  501  0.00000000000E+00  0.00000000000E+00 -0.16395096609E+04  0.16395096609E+04  0.50400001928E-02 0.  1.
    10030    2    1    2    0    0  0.00000000000E+00  0.00000000000E+00 -0.61116472844E+03  0.26678545933E+04  0.25969069690E+04 0.  0.
        4    1    3    3  502    0  0.88584810822E+03  0.94693619197E+03 -0.23617310615E+03  0.13180266960E+04  0.12699999809E+01 0. -1.
       -4    1    3    3    0  502 -0.88584810822E+03 -0.94693619197E+03 -0.37499162229E+03  0.13498278972E+04  0.12699999809E+01 0.  1.
</event>
<event>
 5   0  0.6918420E-06  0.2541368E+04  0.7818609E-02  0.8388394E-01
       -1   -1    0    0    0  501  0.00000000000E+00  0.00000000000E+00  0.71438499767E+03  0.71438499769E+03  0.50400001928E-02 0.  1.
        1   -1    0    0  501    0  0.00000000000E+00  0.00000000000E+00 -0.22601788818E+04  0.22601788818E+04  0.50400001928E-02 0. -1.
    10030    2    1    2    0    0  0.00000000000E+00  0.00000000000E+00 -0.15457938841E+04  0.29745638795E+04  0.25413680452E+04 0.  0.
        4    1    3    3  502    0  0.93002591092E+03  0.15913983936E+03 -0.17690675902E+04  0.20049627016E+04  0.12699999809E+01 0. -1.
       -4    1    3    3    0  502 -0.93002591092E+03 -0.15913983936E+03  0.22327370602E+03  0.96960117788E+03  0.12699999809E+01 0.  1.
</event>
<event>
 5   0  0.6993678E-06  0.2574850E+04  0.7818609E-02  0.8376794E-01
       -1   -1    0    0    0  501  0.00000000000E+00  0.00000000000E+00  0.11499433729E+04  0.11499433729E+04  0.50400001928E-02 0.  1.
        1   -1    0    0  501    0  0.00000000000E+00  0.00000000000E+00 -0.14413437498E+04  0.14413437498E+04  0.50400001928E-02 0. -1.
    10030    2    1    2    0    0  0.00000000000E+00  0.00000000000E+00 -0.29140037686E+03  0.25912871227E+04  0.25748504369E+04 0.  0.
        1    1    3    3  502    0 -0.83818255215E+03  0.93461790110E+03  0.14143336885E+03  0.12633542693E+04  0.50400001928E-02 0.  1.
       -1    1    3    3    0  502  0.83818255215E+03 -0.93461790110E+03 -0.43283374571E+03  0.13279328534E+04  0.50400001928E-02 0. -1.
</event>
<event>
 5   0  0.1681731E-05  0.2592323E+04  0.7818609E-02  0.8370813E-01
       -2   -1    0    0    0  501  0.00000000000E+00  0.00000000000E+00  0.77088804651E+03  0.77088804652E+03  0.25500000920E-02 0. -1.
        2   -1    0    0  501    0  0.00000000000E+00  0.00000000000E+00 -0.21793501808E+04  0.21793501808E+04  0.25500000920E-02 0.  1.
    10030    2    1    2    0    0  0.00000000000E+00  0.00000000000E+00 -0.14084621343E+04  0.29502382273E+04  0.25923232850E+04 0.  0.
        2    1    3    3  502    0  0.36290306854E+03 -0.12055687585E+04 -0.35356535341E+03  0.13077091144E+04  0.25500000920E-02 0.  1.
       -2    1    3    3    0  502 -0.36290306854E+03  0.12055687585E+04 -0.10548967809E+04  0.16425291130E+04  0.25500000920E-02 0. -1.
</event>
<event>
 5   0  0.6993678E-06  0.2914160E+04  0.7818609E-02  0.8268677E-01
        1   -1    0    0  501    0  0.00000000000E+00  0.00000000000E+00  0.16100524217E+04  0.16100524217E+04  0.50400001928E-02 0. -1.
       -1   -1    0    0    0  501  0.00000000000E+00  0.00000000000E+00 -0.13186416196E+04  0.13186416196E+04  0.50400001928E-02 0.  1.
    10030    2    1    2    0    0  0.00000000000E+00  0.00000000000E+00  0.29141080206E+03  0.29286940413E+04  0.29141600046E+04 0.  0.
        1    1    3    3  502    0  0.11187841507E+04  0.50512072194E+03 -0.64323031604E+03  0.13858463692E+04  0.50400001928E-02 0.  1.
       -1    1    3    3    0  502 -0.11187841507E+04 -0.50512072194E+03  0.93464111810E+03  0.15428476721E+04  0.50400001928E-02 0. -1.
</event>
<event>
 5   0  0.6993678E-06  0.2601518E+04  0.7818609E-02  0.8367686E-01
       -1   -1    0    0    0  501  0.00000000000E+00  0.00000000000E+00  0.21117747956E+04  0.21117747956E+04  0.50400001928E-02 0. -1.
        1   -1    0    0  501    0  0.00000000000E+00  0.00000000000E+00 -0.80120948131E+03  0.80120948132E+03  0.50400001928E-02 0.  1.
    10030    2    1    2    0    0  0.00000000000E+00  0.00000000000E+00  0.13105653143E+04  0.29129842770E+04  0.26015180097E+04 0.  0.
        1    1    3    3  502    0  0.11594210924E+04 -0.39556469568E+03  0.16560907051E+03  0.12361856909E+04  0.50400001928E-02 0.  1.
       -1    1    3    3    0  502 -0.11594210924E+04  0.39556469568E+03  0.11449562438E+04  0.16767985861E+04  0.50400001928E-02 0. -1.
</event>
<event>
 5   0  0.1869956E-05  0.2615765E+04  0.7818609E-02  0.8362866E-01
       -2   -1    0    0    0  501  0.00000000000E+00  0.00000000000E+00  0.10345229690E+04  0.10345229690E+04  0.25500000920E-02 0. -1.
        2   -1    0    0  501    0  0.00000000000E+00  0.00000000000E+00 -0.16534742151E+04  0.16534742151E+04  0.25500000920E-02 0.  1.
    10030    2    1    2    0    0  0.00000000000E+00  0.00000000000E+00 -0.61895124610E+03  0.26879971841E+04  0.26157653214E+04 0.  0.
        5    1    3    3  502    0 -0.12844413580E+04  0.10383280039E+03 -0.79776616689E+02  0.12911069867E+04  0.46999998093E+01 0. -1.
       -5    1    3    3    0  502  0.12844413580E+04 -0.10383280039E+03 -0.53917462942E+03  0.13968901974E+04  0.46999998093E+01 0.  1.
</event>
<event>
 5   0  0.5840500E-06  0.2553496E+04  0.7818609E-02  0.8384171E-01
       -4   -1    0    0    0  501  0.00000000000E+00  0.00000000000E+00  0.11930057064E+04  0.11930063824E+04  0.12699999809E+01 0. -1.
        4   -1    0    0  501    0  0.00000000000E+00  0.00000000000E+00 -0.13663669458E+04  0.13663675360E+04  0.12699999809E+01 0.  1.
    10030    2    1    2    0    0  0.00000000000E+00  0.00000000000E+00 -0.17336123934E+03  0.25593739184E+04  0.25534957871E+04 0.  0.
        3    1    3    3  502    0  0.28941758308E+02 -0.10995198038E+04  0.56312015716E+03  0.12356721839E+04  0.10100000352E+00 0. -1.
       -3    1    3    3    0  502 -0.28941758308E+02  0.10995198038E+04 -0.73648139650E+03  0.13237017345E+04  0.10100000352E+00 0.  1.
</event>
<event>
 5   0  0.6984287E-06  0.2601508E+04  0.7818609E-02  0.8367689E-01
       -1   -1    0    0    0  501  0.00000000000E+00  0.00000000000E+00  0.12172787043E+04  0.12172787043E+04  0.50400001928E-02 0. -1.
        1   -1    0    0  501    0  0.00000000000E+00  0.00000000000E+00 -0.13899533405E+04  0.13899533405E+04  0.50400001928E-02 0.  1.
    10030    2    1    2    0    0  0.00000000000E+00  0.00000000000E+00 -0.17267463615E+03  0.26072320448E+04  0.26015077178E+04 0.  0.
        3    1    3    3  502    0 -0.15251110413E+03 -0.21613715969E+02 -0.13807805972E+04  0.13893458379E+04  0.10100000352E+00 0.  1.
       -3    1    3    3    0  502  0.15251110413E+03  0.21613715969E+02  0.12081059611E+04  0.12178862069E+04  0.10100000352E+00 0. -1.
</event>
<event>
 5   0  0.6918420E-06  0.2487475E+04  0.7818609E-02  0.8407461E-01
       -1   -1    0    0    0  501  0.00000000000E+00  0.00000000000E+00  0.89608039736E+03  0.89608039737E+03  0.50400001928E-02 0. -1.
        1   -1    0    0  501    0  0.00000000000E+00  0.00000000000E+00 -0.17262776226E+04  0.17262776226E+04  0.50400001928E-02 0.  1.
    10030    2    1    2    0    0  0.00000000000E+00  0.00000000000E+00 -0.83019722526E+03  0.26223580200E+04  0.24874754576E+04 0.  0.
        4    1    3    3  502    0  0.77397019037E+03 -0.30323648934E+03 -0.13904129684E+04  0.16199481658E+04  0.12699999809E+01 0.  1.
       -4    1    3    3    0  502 -0.77397019037E+03  0.30323648934E+03  0.56021574319E+03  0.10024098542E+04  0.12699999809E+01 0. -1.
</event>
<event>
 5   0  0.6918420E-06  0.2596676E+04  0.7818609E-02  0.8369331E-01
        1   -1    0    0  501    0  0.00000000000E+00  0.00000000000E+00  0.24986292062E+04  0.24986292062E+04  0.50400001928E-02 0. -1.
       -1   -1    0    0    0  501  0.00000000000E+00  0.00000000000E+00 -0.67464277021E+03  0.67464277023E+03  0.50400001928E-02 0.  1.
    10030    2    1    2    0    0  0.00000000000E+00  0.00000000000E+00  0.18239864360E+04  0.31732719765E+04  0.25966764369E+04 0.  0.
        4    1    3    3  502    0  0.71920162175E+03 -0.49828578299E+03 -0.26024697679E+03  0.91283612773E+03  0.12699999809E+01 0.  1.
       -4    1    3    3    0  502 -0.71920162175E+03  0.49828578299E+03  0.20842334128E+04  0.22604358487E+04  0.12699999809E+01 0. -1.
</event>
<event>
 5   0  0.1677971E-05  0.2557586E+04  0.7818609E-02  0.8382753E-01
        2   -1    0    0  501    0  0.00000000000E+00  0.00000000000E+00  0.19583939218E+04  0.19583939218E+04  0.25500000920E-02 0.  1.
       -2   -1    0    0    0  501  0.00000000000E+00  0.00000000000E+00 -0.83502654658E+03  0.83502654659E+03  0.25500000920E-02 0. -1.
    10030    2    1    2    0    0  0.00000000000E+00  0.00000000000E+00  0.11233673753E+04  0.27934204684E+04  0.25575855125E+04 0.  0.
        4    1    3    3  502    0  0.50356420817E+03 -0.95220776226E+03 -0.19109606826E+03  0.10939816518E+04  0.12699999809E+01 0. -1.
       -4    1    3    3    0  502 -0.50356420817E+03  0.95220776226E+03  0.13144634435E+04  0.16994388166E+04  0.12699999809E+01 0.  1.
</event>
<event>
 5   0  0.5840500E-06  0.2657897E+04  0.7818609E-02  0.8348797E-01
       -3   -1    0    0    0  501  0.00000000000E+00  0.00000000000E+00  0.13453391900E+04  0.13453391938E+04  0.10100000352E+00 0. -1.
        3   -1    0    0  501    0  0.00000000000E+00  0.00000000000E+00 -0.13127576460E+04  0.13127576499E+04  0.10100000352E+00 0.  1.
    10030    2    1    2    0    0  0.00000000000E+00  0.00000000000E+00  0.32581543992E+02  0.26580968437E+04  0.26578971525E+04 0.  0.
        3    1    3    3  502    0 -0.11093469712E+04  0.48634203694E+03 -0.53049067221E+03  0.13223462644E+04  0.10100000352E+00 0.  1.
       -3    1    3    3    0  502  0.11093469712E+04 -0.48634203694E+03  0.56307221620E+03  0.13357505793E+04  0.10100000352E+00 0. -1.
</event>
<event>
 5   0  0.6984287E-06  0.2579741E+04  0.7818609E-02  0.8375115E-01
       -1   -1    0    0    0  501  0.00000000000E+00  0.00000000000E+00  0.12034845505E+04  0.12034845505E+04  0.50400001928E-02 0. -1.
        1   -1    0    0  501    0  0.00000000000E+00  0.00000000000E+00 -0.13824573266E+04  0.13824573266E+04  0.50400001928E-02 0.  1.
    10030    2    1    2    0    0  0.00000000000E+00  0.00000000000E+00 -0.17897277607E+03  0.25859418771E+04  0.25797410989E+04 0.  0.
        3    1    3    3  502    0  0.83028281247E+03  0.96342144542E+03  0.12600846713E+03  0.12780565614E+04  0.10100000352E+00 0. -1.
       -3    1    3    3    0  502 -0.83028281247E+03 -0.96342144542E+03 -0.30498124321E+03  0.13078853157E+04  0.10100000352E+00 0.  1.
</event>
<event>
 5   0  0.1681731E-05  0.2582434E+04  0.7818609E-02  0.8374193E-01
        2   -1    0    0  501    0  0.00000000000E+00  0.00000000000E+00  0.17259288756E+04  0.17259288756E+04  0.25500000920E-02 0. -1.
       -2   -1    0    0    0  501  0.00000000000E+00  0.00000000000E+00 -0.96599644980E+03  0.96599644981E+03  0.25500000920E-02 0.  1.
    10030    2    1    2    0    0  0.00000000000E+00  0.00000000000E+00  0.75993242575E+03  0.26919253254E+04  0.25824338647E+04 0.  0.
        2    1    3    3  502    0 -0.69764276535E+03 -0.98826691013E+03  0.85062301520E+03  0.14788294113E+04  0.25500000920E-02 0. -1.
       -2    1    3    3    0  502  0.69764276535E+03  0.98826691013E+03 -0.90690589452E+02  0.12130959141E+04  0.25500000920E-02 0.  1.
</event>
<event>
 5   0  0.1869956E-05  0.2585646E+04  0.7818609E-02  0.8373093E-01
        2   -1    0    0  501    0  0.00000000000E+00  0.00000000000E+00  0.16864128467E+04  0.16864128467E+04  0.25500000920E-02 0.  1.
       -2   -1    0    0    0  501  0.00000000000E+00  0.00000000000E+00 -0.99109295582E+03  0.99109295583E+03  0.25500000920E-02 0. -1.
    10030    2    1    2    0    0  0.00000000000E+00  0.00000000000E+00  0.69531989091E+03  0.26775058026E+04  0.25856464515E+04 0.  0.
        5    1    3    3  502    0  0.90335871410E+03 -0.46093765622E+03 -0.48260341263E+03  0.11231423032E+04  0.46999998093E+01 0. -1.
       -5    1    3    3    0  502 -0.90335871410E+03  0.46093765622E+03  0.11779233035E+04  0.15543634994E+04  0.46999998093E+01 0.  1.
</event>
<event>
 5   0  0.1720129E-05  0.2657779E+04  0.7818609E-02  0.8348836E-01
        2   -1    0    0  501    0  0.00000000000E+00  0.00000000000E+00  0.12553655010E+04  0.12553655010E+04  0.25500000920E-02 0.  1.
       -2   -1    0    0    0  501  0.00000000000E+00  0.00000000000E+00 -0.14067197775E+04  0.14067197775E+04  0.25500000920E-02 0. -1.
    10030    2    1    2    0    0  0.00000000000E+00  0.00000000000E+00 -0.15135427646E+03  0.26620852786E+04  0.26577791318E+04 0.  0.
        3    1    3    3  502    0  0.12476140546E+04 -0.40370540319E+03 -0.29149918516E+03  0.13433133167E+04  0.10100000352E+00 0.  1.
       -3    1    3    3    0  502 -0.12476140546E+04  0.40370540319E+03  0.14014490869E+03  0.13187719618E+04  0.10100000352E+00 0. -1.
</event>
<event>
 5   0  0.7138294E-06  0.2598595E+04  0.7818609E-02  0.8368678E-01
       -1   -1    0    0    0  501  0.00000000000E+00  0.00000000000E+00  0.75464915565E+03  0.75464915567E+03  0.50400001928E-02 0.  1.
        1   -1    0    0  501    0  0.00000000000E+00  0.00000000000E+00 -0.22370322598E+04  0.22370322598E+04  0.50400001928E-02 0. -1.
    10030    2    1    2    0    0  0.00000000000E+00  0.00000000000E+00 -0.14823831041E+04  0.29916814155E+04  0.25985953945E+04 0.  0.
        2    1    3    3  502    0 -0.26675155384E+03  0.51145721195E+02 -0.22039834746E+04  0.22206565319E+04  0.25500000920E-02 0. -1.
       -2    1    3    3    0  502  0.26675155384E+03 -0.51145721195E+02  0.72160037052E+03  0.77102488353E+03  0.25500000920E-02 0.  1.
</event>
<event>
 5   0  0.1720129E-05  0.2604051E+04  0.7818609E-02  0.8366826E-01
       -2   -1    0    0    0  501  0.00000000000E+00  0.00000000000E+00  0.78218177176E+03  0.78218177176E+03  0.25500000920E-02 0.  1.
        2   -1    0    0  501    0  0.00000000000E+00  0.00000000000E+00 -0.21673619274E+04  0.21673619274E+04  0.25500000920E-02 0. -1.
    10030    2    1    2    0    0  0.00000000000E+00  0.00000000000E+00 -0.13851801557E+04  0.29495436992E+04  0.26040514530E+04 0.  0.
        3    1    3    3  502    0  0.93936960522E+03  0.53598375200E+03 -0.15137419915E+04  0.18604055108E+04  0.10100000352E+00 0.  1.
       -3    1    3    3    0  502 -0.93936960522E+03 -0.53598375200E+03  0.12856183580E+03  0.10891381884E+04  0.10100000352E+00 0. -1.
</event>
<event>
 5   0  0.6706225E-06  0.2356253E+04  0.7818609E-02  0.8456066E-01
        1   -1    0    0  501    0  0.00000000000E+00  0.00000000000E+00  0.41295388437E+03  0.41295388440E+03  0.50400001928E-02 0. -1.
       -1   -1    0    0    0  501  0.00000000000E+00  0.00000000000E+00 -0.33611073631E+04  0.33611073631E+04  0.50400001928E-02 0.  1.
    10030    2    1    2    0    0  0.00000000000E+00  0.00000000000E+00 -0.29481534787E+04  0.37740612475E+04  0.23562532474E+04 0.  0.
        5    1    3    3  502    0  0.13685958095E+03  0.80464013360E+03 -0.28348651179E+04  0.29500268840E+04  0.46999998093E+01 0.  1.
       -5    1    3    3    0  502 -0.13685958095E+03 -0.80464013360E+03 -0.11328836077E+03  0.82403436347E+03  0.46999998093E+01 0. -1.
</event>
<event>
 5   0  0.6984287E-06  0.2369694E+04  0.7818609E-02  0.8450938E-01
        1   -1    0    0  501    0  0.00000000000E+00  0.00000000000E+00  0.89893601507E+03  0.89893601509E+03  0.50400001928E-02 0. -1.
       -1   -1    0    0    0  501  0.00000000000E+00  0.00000000000E+00 -0.15616929948E+04  0.15616929949E+04  0.50400001928E-02 0.  1.
    10030    2    1    2    0    0  0.00000000000E+00  0.00000000000E+00 -0.66275697977E+03  0.24606290099E+04  0.23696937166E+04 0.  0.
        3    1    3    3  502    0  0.26910420701E+03  0.79233308420E+03 -0.12024088246E+04  0.14649217666E+04  0.10100000352E+00 0.  1.
       -3    1    3    3    0  502 -0.26910420701E+03 -0.79233308420E+03  0.53965184486E+03  0.99570724332E+03  0.10100000352E+00 0. -1.
</event>
<event>
 5   0  0.6993678E-06  0.2570119E+04  0.7818609E-02  0.8378423E-01
       -1   -1    0    0    0  501  0.00000000000E+00  0.00000000000E+00  0.82142173661E+03  0.82142173663E+03  0.50400001928E-02 0. -1.
        1   -1    0    0  501    0  0.00000000000E+00  0.00000000000E+00 -0.20103897379E+04  0.20103897379E+04  0.50400001928E-02 0.  1.
    10030    2    1    2    0    0  0.00000000000E+00  0.00000000000E+00 -0.11889680013E+04  0.28318114745E+04  0.25701189309E+04 0.  0.
        1    1    3    3  502    0  0.62610879387E+03 -0.63103079324E+03  0.42799521825E+03  0.98660629972E+03  0.50400001928E-02 0. -1.
       -1    1    3    3    0  502 -0.62610879387E+03  0.63103079324E+03 -0.16169632195E+04  0.18452051748E+04  0.50400001928E-02 0.  1.
</event>
<event>
 5   0  0.1677971E-05  0.2649960E+04  0.7818609E-02  0.8351426E-01
        2   -1    0    0  501    0  0.00000000000E+00  0.00000000000E+00  0.20594547094E+04  0.20594547094E+04  0.25500000920E-02 0. -1.
       -2   -1    0    0    0  501  0.00000000000E+00  0.00000000000E+00 -0.85244511500E+03  0.85244511501E+03  0.25500000920E-02 0.  1.
    10030    2    1    2    0    0  0.00000000000E+00  0.00000000000E+00  0.12070095944E+04  0.29118998244E+04  0.26499600802E+04 0.  0.
        4    1    3    3  502    0  0.48223587911E+03  0.50040385700E+03 -0.63610677745E+03  0.94211937058E+03  0.12699999809E+01 0.  1.
       -4    1    3    3    0  502 -0.48223587911E+03 -0.50040385700E+03  0.18431163719E+04  0.19697804539E+04  0.12699999809E+01 0. -1.
</event>
<event>
 5   0  0.6918420E-06  0.2615897E+04  0.7818609E-02  0.8362821E-01
        1   -1    0    0  501    0  0.00000000000E+00  0.00000000000E+00  0.99420616674E+03  0.99420616676E+03  0.50400001928E-02 0. -1.
       -1   -1    0    0    0  501  0.00000000000E+00  0.00000000000E+00 -0.17206983383E+04  0.17206983383E+04  0.50400001928E-02 0.  1.
    10030    2    1    2    0    0  0.00000000000E+00  0.00000000000E+00 -0.72649217159E+03  0.27149045051E+04  0.26158967098E+04 0.  0.
        4    1    3    3  502    0 -0.88389416341E+03  0.63094857866E+03 -0.11197816166E+04  0.15598966257E+04  0.12699999809E+01 0.  1.
       -4    1    3    3    0  502  0.88389416341E+03 -0.63094857866E+03  0.39328944503E+03  0.11550078794E+04  0.12699999809E+01 0. -1.
</event>
<event>
 5   0  0.1869956E-05  0.2602598E+04  0.7818609E-02  0.8367319E-01
       -2   -1    0    0    0  501  0.00000000000E+00  0.00000000000E+00  0.72136021452E+03  0.72136021452E+03  0.25500000920E-02 0. -1.
        2   -1    0    0  501    0  0.00000000000E+00  0.00000000000E+00 -0.23474802126E+04  0.23474802126E+04  0.25500000920E-02 0.  1.
    10030    2    1    2    0    0  0.00000000000E+00  0.00000000000E+00 -0.16261199981E+04  0.30688404271E+04  0.26025978020E+04 0.  0.
        5    1    3    3  502    0  0.17095959834E+02  0.12360992375E+04 -0.12922096999E+04  0.17883124993E+04  0.46999998093E+01 0. -1.
       -5    1    3    3    0  502 -0.17095959834E+02 -0.12360992375E+04 -0.33391029819E+03  0.12805279278E+04  0.46999998093E+01 0.  1.
</event>
<event>
 5   0  0.6984287E-06  0.2633694E+04  0.7818609E-02  0.8356845E-01
        1   -1    0    0  501    0  0.00000000000E+00  0.00000000000E+00  0.21696502087E+04  0.21696502087E+04  0.50400001928E-02 0.  1.
       -1   -1    0    0    0  501  0.00000000000E+00  0.00000000000E+00 -0.79924662337E+03  0.79924662338E+03  0.50400001928E-02 0. -1.
    10030    2    1    2    0    0  0.00000000000E+00  0.00000000000E+00  0.13704035853E+04  0.29688968321E+04  0.26336936824E+04 0.  0.
        3    1    3    3  502    0  0.78281738501E+03 -0.78533650834E+03  0.14859075587E+04  0.18540436275E+04  0.10100000352E+00 0.  1.
       -3    1    3    3    0  502 -0.78281738501E+03  0.78533650834E+03 -0.11550397338E+03  0.11148532045E+04  0.10100000352E+00 0. -1.
</event>
<event>
 5   0  0.1681731E-05  0.2563313E+04  0.7818609E-02  0.8380771E-01
        2   -1    0    0  501    0  0.00000000000E+00  0.00000000000E+00  0.12414543339E+04  0.12414543339E+04  0.25500000920E-02 0.  1.
       -2   -1    0    0    0  501  0.00000000000E+00  0.00000000000E+00 -0.13231600219E+04  0.13231600219E+04  0.25500000920E-02 0. -1.
    10030    2    1    2    0    0  0.00000000000E+00  0.00000000000E+00 -0.81705688013E+02  0.25646143557E+04  0.25633125003E+04 0.  0.
        2    1    3    3  502    0 -0.10292275072E+04 -0.18055999767E+03  0.70163696899E+03  0.12586522993E+04  0.25500000920E-02 0.  1.
       -2    1    3    3    0  502  0.10292275072E+04  0.18055999767E+03 -0.78334265700E+03  0.13059620564E+04  0.25500000920E-02 0. -1.
</event>
<event>
 5   0  0.1677971E-05  0.2591361E+04  0.7818609E-02  0.8371142E-01
       -2   -1    0    0    0  501  0.00000000000E+00  0.00000000000E+00  0.99414018317E+03  0.99414018318E+03  0.25500000920E-02 0. -1.
        2   -1    0    0  501    0  0.00000000000E+00  0.00000000000E+00 -0.16886829675E+04  0.16886829675E+04  0.25500000920E-02 0.  1.
    10030    2    1    2    0    0  0.00000000000E+00  0.00000000000E+00 -0.69454278437E+03  0.26828231507E+04  0.25913607195E+04 0.  0.
        4    1    3    3  502    0 -0.12775619690E+04  0.14825240178E+03 -0.18475108439E+03  0.12993374986E+04  0.12699999809E+01 0. -1.
       -4    1    3    3    0  502  0.12775619690E+04 -0.14825240178E+03 -0.50979169998E+03  0.13834856521E+04  0.12699999809E+01 0.  1.
</event>
<event>
 5   0  0.1681731E-05  0.2600627E+04  0.7818609E-02  0.8367988E-01
        2   -1    0    0  501    0  0.00000000000E+00  0.00000000000E+00  0.75834969509E+03  0.75834969510E+03  0.25500000920E-02 0.  1.
       -2   -1    0    0    0  501  0.00000000000E+00  0.00000000000E+00 -0.22295981829E+04  0.22295981829E+04  0.25500000920E-02 0. -1.
    10030    2    1    2    0    0  0.00000000000E+00  0.00000000000E+00 -0.14712484878E+04  0.29879478780E+04  0.26006269261E+04 0.  0.
        2    1    3    3  502    0 -0.23601589326E+03  0.99119085655E+03  0.19256363856E+03  0.10369395213E+04  0.25500000920E-02 0.  1.
       -2    1    3    3    0  502  0.23601589326E+03 -0.99119085655E+03 -0.16638121264E+04  0.19510083567E+04  0.25500000920E-02 0. -1.
</event>
<event>
 5   0  0.6918420E-06  0.2613386E+04  0.7818609E-02  0.8363668E-01
        1   -1    0    0  501    0  0.00000000000E+00  0.00000000000E+00  0.10785360781E+04  0.10785360781E+04  0.50400001928E-02 0.  1.
       -1   -1    0    0    0  501  0.00000000000E+00  0.00000000000E+00 -0.15831154258E+04  0.15831154258E+04  0.50400001928E-02 0. -1.
    10030    2    1    2    0    0  0.00000000000E+00  0.00000000000E+00 -0.50457934770E+03  0.26616515039E+04  0.26133863874E+04 0.  0.
        4    1    3    3  502    0  0.12416321973E+03 -0.10824681240E+03  0.10679186949E+04  0.10805488556E+04  0.12699999809E+01 0.  1.
       -4    1    3    3    0  502 -0.12416321973E+03  0.10824681240E+03 -0.15724980426E+04  0.15811026483E+04  0.12699999809E+01 0. -1.
</event>
<event>
 5   0  0.1869956E-05  0.2521463E+04  0.7818609E-02  0.8395379E-01
       -2   -1    0    0    0  501  0.00000000000E+00  0.00000000000E+00  0.16939490730E+04  0.16939490730E+04  0.25500000920E-02 0.  1.
        2   -1    0    0  501    0  0.00000000000E+00  0.00000000000E+00 -0.93830653451E+03  0.93830653452E+03  0.25500000920E-02 0. -1.
    10030    2    1    2    0    0  0.00000000000E+00  0.00000000000E+00  0.75564253847E+03  0.26322556075E+04  0.25214626583E+04 0.  0.
        5    1    3    3  502    0 -0.29354441719E+03  0.12260675830E+04  0.38133847741E+03  0.13171374899E+04  0.46999998093E+01 0. -1.
       -5    1    3    3    0  502  0.29354441719E+03 -0.12260675830E+04  0.37430406106E+03  0.13151181176E+04  0.46999998093E+01 0.  1.
</event>
<event>
 5   0  0.7138294E-06  0.2596123E+04  0.7818609E-02  0.8369519E-01
       -1   -1    0    0    0  501  0.00000000000E+00  0.00000000000E+00  0.72952817719E+03  0.72952817720E+03  0.50400001928E-02 0. -1.
        1   -1    0    0  501    0  0.00000000000E+00  0.00000000000E+00 -0.23096618508E+04  0.23096618508E+04  0.50400001928E-02 0.  1.
    10030    2    1    2    0    0  0.00000000000E+00  0.00000000000E+00 -0.15801336736E+04  0.30391900280E+04  0.25961228014E+04 0.  0.
        2    1    3    3  502    0  0.20072880019E+03 -0.69734634558E+02  0.70902825183E+03  0.74018648487E+03  0.25500000920E-02 0. -1.
       -2    1    3    3    0  502 -0.20072880019E+03  0.69734634558E+02 -0.22891619254E+04  0.22990035431E+04  0.25500000920E-02 0.  1.
</event>
<event>
 5   0  0.6993678E-06  0.2562092E+04  0.7818609E-02  0.8381193E-01
        1   -1    0    0  501    0  0.00000000000E+00  0.00000000000E+00  0.30361908413E+04  0.30361908413E+04  0.50400001928E-02 0. -1.
       -1   -1    0    0    0  501  0.00000000000E+00  0.00000000000E+00 -0.54050571653E+03  0.54050571656E+03  0.50400001928E-02 0.  1.
    10030    2    1    2    0    0  0.00000000000E+00  0.00000000000E+00  0.24956851247E+04  0.35766965578E+04  0.25620917284E+04 0.  0.
        1    1    3    3  502    0 -0.77561404197E+03 -0.97886068314E+03  0.16459691281E+04  0.20661461104E+04  0.50400001928E-02 0. -1.
       -1    1    3    3    0  502  0.77561404197E+03  0.97886068314E+03  0.84971599665E+03  0.15105504474E+04  0.50400001928E-02 0.  1.
</event>
<event>
 5   0  0.6706225E-06  0.2625376E+04  0.7818609E-02  0.8359632E-01
        1   -1    0    0  501    0  0.00000000000E+00  0.00000000000E+00  0.16968662856E+04  0.16968662856E+04  0.50400001928E-02 0. -1.
       -1   -1    0    0    0  501  0.00000000000E+00  0.00000000000E+00 -0.10154896358E+04  0.10154896358E+04  0.50400001928E-02 0.  1.
    10030    2    1    2    0    0  0.00000000000E+00  0.00000000000E+00  0.68137664979E+03  0.27123559214E+04  0.26253762598E+04 0.  0.
        5    1    3    3  502    0 -0.40376561853E+03  0.39392471632E+02 -0.94909107904E+03  0.10321697573E+04  0.46999998093E+01 0.  1.
       -5    1    3    3    0  502  0.40376561853E+03 -0.39392471632E+02  0.16304677288E+04  0.16801861642E+04  0.46999998093E+01 0. -1.
</event>
<event>
 5   0  0.6918420E-06  0.2600908E+04  0.7818609E-02  0.8367893E-01
        1   -1    0    0  501    0  0.00000000000E+00  0.00000000000E+00  0.13571488436E+04  0.13571488436E+04  0.50400001928E-02 0. -1.
       -1   -1    0    0    0  501  0.00000000000E+00  0.00000000000E+00 -0.12461276048E+04  0.12461276048E+04  0.50400001928E-02 0.  1.
    10030    2    1    2    0    0  0.00000000000E+00  0.00000000000E+00  0.11102123880E+03  0.26032764484E+04  0.26009080244E+04 0.  0.
        4    1    3    3  502    0 -0.76467248917E+03  0.40914936943E+01 -0.99732092617E+03  0.12567383971E+04  0.12699999809E+01 0.  1.
       -4    1    3    3    0  502  0.76467248917E+03 -0.40914936943E+01  0.11083421650E+04  0.13465380513E+04  0.12699999809E+01 0. -1.
</event>
<event>
 5   0  0.1702345E-05  0.2524555E+04  0.7818609E-02  0.8394290E-01
        2   -1    0    0  501    0  0.00000000000E+00  0.00000000000E+00  0.12133906968E+04  0.12133906968E+04  0.25500000920E-02 0.  1.
       -2   -1    0    0    0  501  0.00000000000E+00  0.00000000000E+00 -0.13131336036E+04  0.13131336036E+04  0.25500000920E-02 0. -1.
    10030    2    1    2    0    0  0.00000000000E+00  0.00000000000E+00 -0.99742906803E+02  0.25265243004E+04  0.25245546920E+04 0.  0.
        1    1    3    3  502    0 -0.54014197736E+03 -0.29659276892E+03  0.10526338307E+04  0.12197371060E+04  0.50400001928E-02 0.  1.
       -1    1    3    3    0  502  0.54014197736E+03  0.29659276892E+03 -0.11523767375E+04  0.13067871944E+04  0.50400001928E-02 0. -1.
</event>
<event>
 5   0  0.6993678E-06  0.2592225E+04  0.7818609E-02  0.8370847E-01
        1   -1    0    0  501    0  0.00000000000E+00  0.00000000000E+00  0.15930590846E+04  0.15930590846E+04  0.50400001928E-02 0.  1.
       -1   -1    0    0    0  501  0.00000000000E+00  0.00000000000E+00 -0.10545170261E+04  0.10545170261E+04  0.50400001928E-02 0. -1.
    10030    2    1    2    0    0  0.00000000000E+00  0.00000000000E+00  0.53854205849E+03  0.26475761107E+04  0.25922252436E+04 0.  0.
        1    1    3    3  502    0  0.91537476914E+03 -0.26003802735E+03  0.11680481173E+04  0.15066078282E+04  0.50400001928E-02 0.  1.
       -1    1    3    3    0  502 -0.91537476914E+03  0.26003802735E+03 -0.62950605880E+03  0.11409682825E+04  0.50400001928E-02 0. -1.
</event>
<event>
 5   0  0.1720129E-05  0.2588703E+04  0.7818609E-02  0.8372049E-01
        2   -1    0    0  501    0  0.00000000000E+00  0.00000000000E+00  0.23492711395E+04  0.23492711395E+04  0.25500000920E-02 0. -1.
       -2   -1    0    0    0  501  0.00000000000E+00  0.00000000000E+00 -0.71313428155E+03  0.71313428155E+03  0.25500000920E-02 0.  1.
    10030    2    1    2    0    0  0.00000000000E+00  0.00000000000E+00  0.16361368579E+04  0.30624054210E+04  0.25887029851E+04 0.  0.
        3    1    3    3  502    0 -0.77570448362E+02  0.10716724450E+04  0.16718277317E+04  0.19873366546E+04  0.10100000352E+00 0. -1.
       -3    1    3    3    0  502  0.77570448362E+02 -0.10716724450E+04 -0.35690873778E+02  0.10750687665E+04  0.10100000352E+00 0.  1.
</event>
<event>
 5   0  0.1702345E-05  0.2577504E+04  0.7818609E-02  0.8375883E-01
       -2   -1    0    0    0  501  0.00000000000E+00  0.00000000000E+00  0.97557038187E+03  0.97557038187E+03  0.25500000920E-02 0.  1.
        2   -1    0    0  501    0  0.00000000000E+00  0.00000000000E+00 -0.17024729883E+04  0.17024729883E+04  0.25500000920E-02 0. -1.
    10030    2    1    2    0    0  0.00000000000E+00  0.00000000000E+00 -0.72690260644E+03  0.26780433702E+04  0.25775043925E+04 0.  0.
        1    1    3    3  502    0 -0.85156210006E+03  0.43589026525E+03 -0.12606883971E+04  0.15825591832E+04  0.50400001928E-02 0. -1.
       -1    1    3    3    0  502  0.85156210006E+03 -0.43589026525E+03  0.53378579069E+03  0.10954841870E+04  0.50400001928E-02 0.  1.
</event>
<event>
 5   0  0.1702345E-05  0.2589273E+04  0.7818609E-02  0.8371854E-01
        2   -1    0    0  501    0  0.00000000000E+00  0.00000000000E+00  0.22244312250E+04  0.22244312250E+04  0.25500000920E-02 0.  1.
       -2   -1    0    0    0  501  0.00000000000E+00  0.00000000000E+00 -0.75348876427E+03  0.75348876427E+03  0.25500000920E-02 0. -1.
    10030    2    1    2    0    0  0.00000000000E+00  0.00000000000E+00  0.14709424608E+04  0.29779199893E+04  0.25892732069E+04 0.  0.
        1    1    3    3  502    0 -0.13772941660E+03 -0.10748714149E+04  0.15501487935E+04  0.18913696711E+04  0.50400001928E-02 0.  1.
       -1    1    3    3    0  502  0.13772941660E+03  0.10748714149E+04 -0.79206332753E+02  0.10865503182E+04  0.50400001928E-02 0. -1.
</event>
<event>
 5   0  0.1869956E-05  0.2613371E+04  0.7818609E-02  0.8363674E-01
       -2   -1    0    0    0  501  0.00000000000E+00  0.00000000000E+00  0.14131035000E+04  0.14131035000E+04  0.25500000920E-02 0. -1.
        2   -1    0    0  501    0  0.00000000000E+00  0.00000000000E+00 -0.12082811781E+04  0.12082811781E+04  0.25500000920E-02 0.  1.
    10030    2    1    2    0    0  0.00000000000E+00  0.00000000000E+00  0.20482232190E+03  0.26213846781E+04  0.26133705147E+04 0.  0.
        5    1    3    3  502    0 -0.28137740809E+03  0.68809569338E+03  0.11803019480E+04  0.13949135125E+04  0.46999998093E+01 0. -1.
       -5    1    3    3    0  502  0.28137740809E+03 -0.68809569338E+03 -0.97547962607E+03  0.12264711655E+04  0.46999998093E+01 0.  1.
</event>
<event>
 5   0  0.6706225E-06  0.2721139E+04  0.7818609E-02  0.8328178E-01
        1   -1    0    0  501    0  0.00000000000E+00  0.00000000000E+00  0.28253016612E+04  0.28253016612E+04  0.50400001928E-02 0.  1.
       -1   -1    0    0    0  501  0.00000000000E+00  0.00000000000E+00 -0.65520429179E+03  0.65520429181E+03  0.50400001928E-02 0. -1.
    10030    2    1    2    0    0  0.00000000000E+00  0.00000000000E+00  0.21700973694E+04  0.34805059530E+04  0.27211393011E+04 0.  0.
        5    1    3    3  502    0  0.85300674052E+03  0.76773442999E+03  0.15029056138E+03  0.11574307743E+04  0.46999998093E+01 0. -1.
       -5    1    3    3    0  502 -0.85300674052E+03 -0.76773442999E+03  0.20198068080E+04  0.23230751787E+04  0.46999998093E+01 0.  1.
</event>
<event>
 5   0  0.1720129E-05  0.2607602E+04  0.7818609E-02  0.8365624E-01
        2   -1    0    0  501    0  0.00000000000E+00  0.00000000000E+00  0.30286483984E+04  0.30286483984E+04  0.25500000920E-02 0. -1.
       -2   -1    0    0    0  501  0.00000000000E+00  0.00000000000E+00 -0.56127243615E+03  0.56127243616E+03  0.25500000920E-02 0.  1.
    10030    2    1    2    0    0  0.00000000000E+00  0.00000000000E+00  0.24673759623E+04  0.35899208346E+04  0.26076018598E+04 0.  0.
        3    1    3    3  502    0 -0.11143634919E+04 -0.64004288082E+03  0.15366774996E+04  0.20032070860E+04  0.10100000352E+00 0. -1.
       -3    1    3    3    0  502  0.11143634919E+04  0.64004288082E+03  0.93069846266E+03  0.15867137486E+04  0.10100000352E+00 0.  1.
</event>
<event>
 5   0  0.7138294E-06  0.2572156E+04  0.7818609E-02  0.8377721E-01
        1   -1    0    0  501    0  0.00000000000E+00  0.00000000000E+00  0.12049241222E+04  0.12049241222E+04  0.50400001928E-02 0.  1.
       -1   -1    0    0    0  501  0.00000000000E+00  0.00000000000E+00 -0.13726981341E+04  0.13726981341E+04  0.50400001928E-02 0. -1.
    10030    2    1    2    0    0  0.00000000000E+00  0.00000000000E+00 -0.16777401193E+03  0.25776222563E+04  0.25721563672E+04 0.  0.
        2    1    3    3  502    0 -0.20677026472E+03  0.90220740441E+03 -0.97868137503E+03  0.13470521062E+04  0.25500000920E-02 0. -1.
       -2    1    3    3    0  502  0.20677026472E+03 -0.90220740441E+03  0.81090736309E+03  0.12305701502E+04  0.25500000920E-02 0.  1.
</event>
<event>
 5   0  0.6993678E-06  0.2598776E+04  0.7818609E-02  0.8368617E-01
        1   -1    0    0  501    0  0.00000000000E+00  0.00000000000E+00  0.16616647033E+04  0.16616647033E+04  0.50400001928E-02 0.  1.
       -1   -1    0    0    0  501  0.00000000000E+00  0.00000000000E+00 -0.10160953695E+04  0.10160953695E+04  0.50400001928E-02 0. -1.
    10030    2    1    2    0    0  0.00000000000E+00  0.00000000000E+00  0.64556933378E+03  0.26777600728E+04  0.25987764896E+04 0.  0.
        1    1    3    3  502    0 -0.23945864935E+03  0.30965033699E+03  0.15994681447E+04  0.16466700101E+04  0.50400001928E-02 0.  1.
       -1    1    3    3    0  502  0.23945864935E+03 -0.30965033699E+03 -0.95389881097E+03  0.10310900628E+04  0.50400001928E-02 0. -1.
</event>
<event>
 5   0  0.6984287E-06  0.2587580E+04  0.7818609E-02  0.8372432E-01
        1   -1    0    0  501    0  0.00000000000E+00  0.00000000000E+00  0.18076563705E+04  0.18076563705E+04  0.50400001928E-02 0. -1.
       -1   -1    0    0    0  501  0.00000000000E+00  0.00000000000E+00 -0.92600152506E+03  0.92600152507E+03  0.50400001928E-02 0.  1.
    10030    2    1    2    0    0  0.00000000000E+00  0.00000000000E+00  0.88165484540E+03  0.27336578955E+04  0.25875799936E+04 0.  0.
        3    1    3    3  502    0 -0.10707090547E+04 -0.69072535289E+02  0.12046247701E+04  0.16131676112E+04  0.10100000352E+00 0. -1.
       -3    1    3    3    0  502  0.10707090547E+04  0.69072535289E+02 -0.32296992469E+03  0.11204902844E+04  0.10100000352E+00 0.  1.
</event>
<event>
 5   0  0.6984287E-06  0.2601485E+04  0.7818609E-02  0.8367697E-01
        1   -1    0    0  501    0  0.00000000000E+00  0.00000000000E+00  0.15843530085E+04  0.15843530085E+04  0.50400001928E-02 0. -1.
       -1   -1    0    0    0  501  0.00000000000E+00  0.00000000000E+00 -0.10679004960E+04  0.10679004960E+04  0.50400001928E-02 0.  1.
    10030    2    1    2    0    0  0.00000000000E+00  0.00000000000E+00  0.51645251250E+03  0.26522535045E+04  0.26014852401E+04 0.  0.
        3    1    3    3  502    0  0.35667798744E+03  0.19042572596E+03 -0.10022054334E+04  0.10806927800E+04  0.10100000352E+00 0.  1.
       -3    1    3    3    0  502 -0.35667798744E+03 -0.19042572596E+03  0.15186579459E+04  0.15715607245E+04  0.10100000352E+00 0. -1.
</event>
<event>
 5   0  0.1681731E-05  0.2586459E+04  0.7818609E-02  0.8372815E-01
       -2   -1    0    0    0  501  0.00000000000E+00  0.00000000000E+00  0.57979377360E+03  0.57979377360E+03  0.25500000920E-02 0.  1.
        2   -1    0    0  501    0  0.00000000000E+00  0.00000000000E+00 -0.28845474097E+04  0.28845474097E+04  0.25500000920E-02 0. -1.
    10030    2    1    2    0    0  0.00000000000E+00  0.00000000000E+00 -0.23047536361E+04  0.34643411833E+04  0.25864590682E+04 0.  0.
        2    1    3    3  502    0 -0.80809994232E+02  0.93364237559E+03 -0.23460532756E+04  0.25262985399E+04  0.25500000920E-02 0. -1.
       -2    1    3    3    0  502  0.80809994232E+02 -0.93364237559E+03  0.41299639478E+02  0.93804264343E+03  0.25500000920E-02 0.  1.
</event>
<event>
 5   0  0.6706225E-06  0.2493605E+04  0.7818609E-02  0.8405267E-01
       -1   -1    0    0    0  501  0.00000000000E+00  0.00000000000E+00  0.69869074708E+03  0.69869074710E+03  0.50400001928E-02 0.  1.
        1   -1    0    0  501    0  0.00000000000E+00  0.00000000000E+00 -0.22248997111E+04  0.22248997111E+04  0.50400001928E-02 0. -1.
    10030    2    1    2    0    0  0.00000000000E+00  0.00000000000E+00 -0.15262089640E+04  0.29235904582E+04  0.24936052946E+04 0.  0.
        5    1    3    3  502    0  0.42219728039E+03  0.34246921617E+03  0.55240694649E+03  0.77505563163E+03  0.46999998093E+01 0.  1.
       -5    1    3    3    0  502 -0.42219728039E+03 -0.34246921617E+03 -0.20786159105E+04  0.21485348266E+04  0.46999998093E+01 0. -1.
</event>
<event>
 5   0  0.1869956E-05  0.2627332E+04  0.7818609E-02  0.8358976E-01
        2   -1    0    0  501    0  0.00000000000E+00  0.00000000000E+00  0.23132989644E+04  0.23132989644E+04  0.25500000920E-02 0. -1.
       -2   -1    0    0    0  501  0.00000000000E+00  0.00000000000E+00 -0.74599886415E+03  0.74599886416E+03  0.25500000920E-02 0.  1.
    10030    2    1    2    0    0  0.00000000000E+00  0.00000000000E+00  0.15673001003E+04  0.30592978286E+04  0.26273320307E+04 0.  0.
        5    1    3    3  502    0  0.35381238459E+03  0.12285843686E+04  0.43221050743E+03  0.13496039297E+04  0.46999998093E+01 0. -1.
       -5    1    3    3    0  502 -0.35381238459E+03 -0.12285843686E+04  0.11350895928E+04  0.17096938989E+04  0.46999998093E+01 0.  1.
</event>
<event>
 5   0  0.7138294E-06  0.2605144E+04  0.7818609E-02  0.8366456E-01
       -1   -1    0    0    0  501  0.00000000000E+00  0.00000000000E+00  0.63442159114E+03  0.63442159116E+03  0.50400001928E-02 0.  1.
        1   -1    0    0  501    0  0.00000000000E+00  0.00000000000E+00 -0.26743956448E+04  0.26743956448E+04  0.50400001928E-02 0. -1.
    10030    2    1    2    0    0  0.00000000000E+00  0.00000000000E+00 -0.20399740537E+04  0.33088172360E+04  0.26051444032E+04 0.  0.
        2    1    3    3  502    0 -0.11311210531E+04  0.31840909348E+01 -0.18404119035E+04  0.21602224306E+04  0.25500000920E-02 0. -1.
       -2    1    3    3    0  502  0.11311210531E+04 -0.31840909348E+01 -0.19956215019E+03  0.11485948054E+04  0.25500000920E-02 0.  1.
</event>
<event>
 5   0  0.7138294E-06  0.2805168E+04  0.7818609E-02  0.8301666E-01
       -1   -1    0    0    0  501  0.00000000000E+00  0.00000000000E+00  0.83011708316E+03  0.83011708318E+03  0.50400001928E-02 0.  1.
        1   -1    0    0  501    0  0.00000000000E+00  0.00000000000E+00 -0.23698368781E+04  0.23698368781E+04  0.50400001928E-02 0. -1.
    10030    2    1    2    0    0  0.00000000000E+00  0.00000000000E+00 -0.15397197950E+04  0.31999539613E+04  0.28051681425E+04 0.  0.
        2    1    3    3  502    0 -0.47907242095E+03 -0.76647656087E+03 -0.19932925846E+04  0.21886553019E+04  0.25500000920E-02 0. -1.
       -2    1    3    3    0  502  0.47907242095E+03  0.76647656087E+03  0.45357278965E+03  0.10112986594E+04  0.25500000920E-02 0.  1.
</event>
<event>
 5   0  0.6993678E-06  0.2599749E+04  0.7818609E-02  0.8368286E-01
       -1   -1    0    0    0  501  0.00000000000E+00  0.00000000000E+00  0.13539998697E+04  0.13539998697E+04  0.50400001928E-02 0.  1.
        1   -1    0    0  501    0  0.00000000000E+00  0.00000000000E+00 -0.12479130018E+04  0.12479130018E+04  0.50400001928E-02 0. -1.
    10030    2    1    2    0    0  0.00000000000E+00  0.00000000000E+00  0.10608686789E+03  0.26019128715E+04  0.25997492508E+04 0.  0.
        1    1    3    3  502    0 -0.29436070254E+03  0.91732997013E+03 -0.82034057613E+03  0.12653462602E+04  0.50400001928E-02 0. -1.
       -1    1    3    3    0  502  0.29436070254E+03 -0.91732997013E+03  0.92642744401E+03  0.13365666113E+04  0.50400001928E-02 0.  1.
</event>
<event>
 5   0  0.7138294E-06  0.2659995E+04  0.7818609E-02  0.8348103E-01
        1   -1    0    0  501    0  0.00000000000E+00  0.00000000000E+00  0.12125584798E+04  0.12125584798E+04  0.50400001928E-02 0. -1.
       -1   -1    0    0    0  501  0.00000000000E+00  0.00000000000E+00 -0.14588111931E+04  0.14588111931E+04  0.50400001928E-02 0.  1.
    10030    2    1    2    0    0  0.00000000000E+00  0.00000000000E+00 -0.24625271328E+03  0.26713696728E+04  0.26599954004E+04 0.  0.
        2    1    3    3  502    0  0.49372937811E+03  0.45318386196E+03 -0.12768422365E+04  0.14420368957E+04  0.25500000920E-02 0.  1.
       -2    1    3    3    0  502 -0.49372937811E+03 -0.45318386196E+03  0.10305895232E+04  0.12293327771E+04  0.25500000920E-02 0. -1.
</event>
<event>
 5   0  0.1702345E-05  0.2642952E+04  0.7818609E-02  0.8353756E-01
       -2   -1    0    0    0  501  0.00000000000E+00  0.00000000000E+00  0.10636504639E+04  0.10636504639E+04  0.25500000920E-02 0.  1.
        2   -1    0    0  501    0  0.00000000000E+00  0.00000000000E+00 -0.16417976982E+04  0.16417976983E+04  0.25500000920E-02 0. -1.
    10030    2    1    2    0    0  0.00000000000E+00  0.00000000000E+00 -0.57814723433E+03  0.27054481622E+04  0.26429520491E+04 0.  0.
        1    1    3    3  502    0 -0.13104409594E+04 -0.14024713025E+03 -0.38818308354E+03  0.13739035162E+04  0.50400001928E-02 0. -1.
       -1    1    3    3    0  502  0.13104409594E+04  0.14024713025E+03 -0.18996415080E+03  0.13315446459E+04  0.50400001928E-02 0.  1.
</event>
<event>
 5   0  0.1702345E-05  0.2606805E+04  0.7818609E-02  0.8365893E-01
        2   -1    0    0  501    0  0.00000000000E+00  0.00000000000E+00  0.15090063373E+04  0.15090063373E+04  0.25500000920E-02 0. -1.
       -2   -1    0    0    0  501  0.00000000000E+00  0.00000000000E+00 -0.11258121216E+04  0.11258121216E+04  0.25500000920E-02 0.  1.
    10030    2    1    2    0    0  0.00000000000E+00  0.00000000000E+00  0.38319421571E+03  0.26348184590E+04  0.26068046541E+04 0.  0.
        1    1    3    3  502    0 -0.36441218389E+03 -0.11528012235E+04  0.68377013535E+03  0.13889883004E+04  0.50400001928E-02 0. -1.
       -1    1    3    3    0  502  0.36441218389E+03  0.11528012235E+04 -0.30057591965E+03  0.12458301586E+04  0.50400001928E-02 0.  1.
</event>
<event>
 5   0  0.5840500E-06  0.2578449E+04  0.7818609E-02  0.8375559E-01
        3   -1    0    0  501    0  0.00000000000E+00  0.00000000000E+00  0.16149578162E+04  0.16149578194E+04  0.10100000352E+00 0.  1.
       -3   -1    0    0    0  501  0.00000000000E+00  0.00000000000E+00 -0.10291906317E+04  0.10291906366E+04  0.10100000352E+00 0. -1.
    10030    2    1    2    0    0  0.00000000000E+00  0.00000000000E+00  0.58576718452E+03  0.26441484560E+04  0.25784487319E+04 0.  0.
        3    1    3    3  502    0  0.69144504485E+03  0.48232845348E+03  0.12931146640E+04  0.15436588132E+04  0.10100000352E+00 0.  1.
       -3    1    3    3    0  502 -0.69144504485E+03 -0.48232845348E+03 -0.70734747945E+03  0.11004896428E+04  0.10100000352E+00 0. -1.
</event>
<event>
 5   0  0.6918420E-06  0.2626534E+04  0.7818609E-02  0.8359244E-01
       -1   -1    0    0    0  501  0.00000000000E+00  0.00000000000E+00  0.20520192852E+04  0.20520192852E+04  0.50400001928E-02 0. -1.
        1   -1    0    0  501    0  0.00000000000E+00  0.00000000000E+00 -0.84047444704E+03  0.84047444706E+03  0.50400001928E-02 0.  1.
    10030    2    1    2    0    0  0.00000000000E+00  0.00000000000E+00  0.12115448382E+04  0.28924937323E+04  0.26265336656E+04 0.  0.
        4    1    3    3  502    0 -0.98270021270E+03  0.45700675489E+03  0.14225720241E+04  0.17883701123E+04  0.12699999809E+01 0. -1.
       -4    1    3    3    0  502  0.98270021270E+03 -0.45700675489E+03 -0.21102718591E+03  0.11041236200E+04  0.12699999809E+01 0.  1.
</event>
<event>
 5   0  0.1869956E-05  0.2597178E+04  0.7818609E-02  0.8369160E-01
       -2   -1    0    0    0  501  0.00000000000E+00  0.00000000000E+00  0.13692081566E+04  0.13692081566E+04  0.25500000920E-02 0. -1.
        2   -1    0    0  501    0  0.00000000000E+00  0.00000000000E+00 -0.12316121583E+04  0.12316121583E+04  0.25500000920E-02 0.  1.
    10030    2    1    2    0    0  0.00000000000E+00  0.00000000000E+00  0.13759599830E+03  0.26008203149E+04  0.25971780169E+04 0.  0.
        5    1    3    3  502    0  0.57856091450E+03  0.83091655074E+03  0.88305348496E+03  0.13434882186E+04  0.46999998093E+01 0. -1.
       -5    1    3    3    0  502 -0.57856091450E+03 -0.83091655074E+03 -0.74545748666E+03  0.12573320963E+04  0.46999998093E+01 0.  1.
</event>
<event>
 5   0  0.6706225E-06  0.2232708E+04  0.7818609E-02  0.8504936E-01
       -1   -1    0    0    0  501  0.00000000000E+00  0.00000000000E+00  0.10498704556E+04  0.10498704556E+04  0.50400001928E-02 0. -1.
        1   -1    0    0  501    0  0.00000000000E+00  0.00000000000E+00 -0.11870479280E+04  0.11870479280E+04  0.50400001928E-02 0.  1.
    10030    2    1    2    0    0  0.00000000000E+00  0.00000000000E+00 -0.13717747233E+03  0.22369183836E+04  0.22327082649E+04 0.  0.
        5    1    3    3  502    0 -0.63113006621E+03 -0.73302005760E+03 -0.62693745802E+03  0.11526995409E+04  0.46999998093E+01 0. -1.
       -5    1    3    3    0  502  0.63113006621E+03  0.73302005760E+03  0.48975998570E+03  0.10842188427E+04  0.46999998093E+01 0.  1.
</event>
<event>
 5   0  0.7138294E-06  0.2603590E+04  0.7818609E-02  0.8366983E-01
        1   -1    0    0  501    0  0.00000000000E+00  0.00000000000E+00  0.14408589298E+04  0.14408589298E+04  0.50400001928E-02 0. -1.
       -1   -1    0    0    0  501  0.00000000000E+00  0.00000000000E+00 -0.11761524884E+04  0.11761524884E+04  0.50400001928E-02 0.  1.
    10030    2    1    2    0    0  0.00000000000E+00  0.00000000000E+00  0.26470644138E+03  0.26170114182E+04  0.26035896879E+04 0.  0.
        2    1    3    3  502    0 -0.51360192442E+03  0.10028365830E+04  0.78778961680E+03  0.13748020327E+04  0.25500000920E-02 0. -1.
       -2    1    3    3    0  502  0.51360192442E+03 -0.10028365830E+04 -0.52308317541E+03  0.12422093855E+04  0.25500000920E-02 0.  1.
</event>
<event>
 5   0  0.1869956E-05  0.2612121E+04  0.7818609E-02  0.8364096E-01
       -2   -1    0    0    0  501  0.00000000000E+00  0.00000000000E+00  0.95647344279E+03  0.95647344280E+03  0.25500000920E-02 0.  1.
        2   -1    0    0  501    0  0.00000000000E+00  0.00000000000E+00 -0.17834197082E+04  0.17834197082E+04  0.25500000920E-02 0. -1.
    10030    2    1    2    0    0  0.00000000000E+00  0.00000000000E+00 -0.82694626538E+03  0.27398931510E+04  0.26121206620E+04 0.  0.
        5    1    3    3  502    0 -0.64837463693E+03  0.69967595752E+03  0.52226001486E+03  0.10875264266E+04  0.46999998093E+01 0.  1.
       -5    1    3    3    0  502  0.64837463693E+03 -0.69967595752E+03 -0.13492062802E+04  0.16523667244E+04  0.46999998093E+01 0. -1.
</event>
<event>
 5   0  0.1702345E-05  0.2603357E+04  0.7818609E-02  0.8367062E-01
       -2   -1    0    0    0  501  0.00000000000E+00  0.00000000000E+00  0.10202398327E+04  0.10202398327E+04  0.25500000920E-02 0. -1.
        2   -1    0    0  501    0  0.00000000000E+00  0.00000000000E+00 -0.16607541299E+04  0.16607541299E+04  0.25500000920E-02 0.  1.
    10030    2    1    2    0    0  0.00000000000E+00  0.00000000000E+00 -0.64051429727E+03  0.26809939626E+04  0.26033574596E+04 0.  0.
        1    1    3    3  502    0  0.96396960765E+03 -0.80369653098E+03  0.35295401666E+02  0.12555521828E+04  0.50400001928E-02 0. -1.
       -1    1    3    3    0  502 -0.96396960765E+03  0.80369653098E+03 -0.67580969894E+03  0.14254417798E+04  0.50400001928E-02 0.  1.
</event>
<event>
 5   0  0.7138294E-06  0.2547892E+04  0.7818609E-02  0.8386120E-01
       -1   -1    0    0    0  501  0.00000000000E+00  0.00000000000E+00  0.84162257458E+03  0.84162257459E+03  0.50400001928E-02 0.  1.
        1   -1    0    0  501    0  0.00000000000E+00  0.00000000000E+00 -0.19283453743E+04  0.19283453743E+04  0.50400001928E-02 0. -1.
    10030    2    1    2    0    0  0.00000000000E+00  0.00000000000E+00 -0.10867227997E+04  0.27699679489E+04  0.25478924613E+04 0.  0.
        2    1    3    3  502    0  0.63947636485E+03 -0.26235919565E+03  0.62004082067E+03  0.92855424616E+03  0.25500000920E-02 0.  1.
       -2    1    3    3    0  502 -0.63947636485E+03  0.26235919565E+03 -0.17067636204E+04  0.18414137028E+04  0.25500000920E-02 0. -1.
</event>
<event>
 5   0  0.6706225E-06  0.2605867E+04  0.7818609E-02  0.8366211E-01
       -1   -1    0    0    0  501  0.00000000000E+00  0.00000000000E+00  0.64244605620E+03  0.64244605622E+03  0.50400001928E-02 0.  1.
        1   -1    0    0  501    0  0.00000000000E+00  0.00000000000E+00 -0.26424569168E+04  0.26424569168E+04  0.50400001928E-02 0. -1.
    10030    2    1    2    0    0  0.00000000000E+00  0.00000000000E+00 -0.20000108606E+04  0.32849029731E+04  0.26058672452E+04 0.  0.
        5    1    3    3  502    0  0.11529551810E+03  0.12080371310E+04 -0.15979071885E+04  0.20064835507E+04  0.46999998093E+01 0. -1.
       -5    1    3    3    0  502 -0.11529551810E+03 -0.12080371310E+04 -0.40210367214E+03  0.12784194223E+04  0.46999998093E+01 0.  1.
</event>
<event>
 5   0  0.6984287E-06  0.2608246E+04  0.7818609E-02  0.8365406E-01
        1   -1    0    0  501    0  0.00000000000E+00  0.00000000000E+00  0.13635623743E+04  0.13635623743E+04  0.50400001928E-02 0.  1.
       -1   -1    0    0    0  501  0.00000000000E+00  0.00000000000E+00 -0.12472746317E+04  0.12472746317E+04  0.50400001928E-02 0. -1.
    10030    2    1    2    0    0  0.00000000000E+00  0.00000000000E+00  0.11628774263E+03  0.26108370060E+04  0.26082459686E+04 0.  0.
        3    1    3    3  502    0  0.42608843976E+03  0.59627278089E+03 -0.10216511287E+04  0.12573239943E+04  0.10100000352E+00 0. -1.
       -3    1    3    3    0  502 -0.42608843976E+03 -0.59627278089E+03  0.11379388713E+04  0.13535130117E+04  0.10100000352E+00 0.  1.
</event>
<event>
 5   0  0.6984287E-06  0.2591186E+04  0.7818609E-02  0.8371201E-01
        1   -1    0    0  501    0  0.00000000000E+00  0.00000000000E+00  0.14855349134E+04  0.14855349134E+04  0.50400001928E-02 0. -1.
       -1   -1    0    0    0  501  0.00000000000E+00  0.00000000000E+00 -0.11299374626E+04  0.11299374627E+04  0.50400001928E-02 0.  1.
    10030    2    1    2    0    0  0.00000000000E+00  0.00000000000E+00  0.35559745076E+03  0.26154723761E+04  0.25911862540E+04 0.  0.
        3    1    3    3  502    0 -0.76483550827E+02  0.33673049300E+02 -0.11272142235E+04  0.11303077120E+04  0.10100000352E+00 0.  1.
       -3    1    3    3    0  502  0.76483550827E+02 -0.33673049300E+02  0.14828116743E+04  0.14851646641E+04  0.10100000352E+00 0. -1.
</event>
<event>
 5   0  0.6706225E-06  0.2629746E+04  0.7818609E-02  0.8358167E-01
       -1   -1    0    0    0  501  0.00000000000E+00  0.00000000000E+00  0.13963930168E+04  0.13963930168E+04  0.50400001928E-02 0. -1.
        1   -1    0    0  501    0  0.00000000000E+00  0.00000000000E+00 -0.12381122713E+04  0.12381122713E+04  0.50400001928E-02 0.  1.
    10030    2    1    2    0    0  0.00000000000E+00  0.00000000000E+00  0.15828074555E+03  0.26345052881E+04  0.26297462461E+04 0.  0.
        5    1    3    3  502    0  0.50338190035E+02 -0.76710893161E+01  0.13953964977E+04  0.13963331461E+04  0.46999998093E+01 0. -1.
       -5    1    3    3    0  502 -0.50338190035E+02  0.76710893161E+01 -0.12371157522E+04  0.12381721420E+04  0.46999998093E+01 0.  1.
</event>
<event>
 5   0  0.6918420E-06  0.2609462E+04  0.7818609E-02  0.8364994E-01
       -1   -1    0    0    0  501  0.00000000000E+00  0.00000000000E+00  0.11705213943E+04  0.11705213943E+04  0.50400001928E-02 0.  1.
        1   -1    0    0  501    0  0.00000000000E+00  0.00000000000E+00 -0.14543290319E+04  0.14543290319E+04  0.50400001928E-02 0. -1.
    10030    2    1    2    0    0  0.00000000000E+00  0.00000000000E+00 -0.28380763765E+03  0.26248504262E+04  0.26094622022E+04 0.  0.
        4    1    3    3  502    0  0.63411744424E+03  0.10981100323E+04  0.16710648463E+03  0.12790139820E+04  0.12699999809E+01 0.  1.
       -4    1    3    3    0  502 -0.63411744424E+03 -0.10981100323E+04 -0.45091412228E+03  0.13458364442E+04  0.12699999809E+01 0. -1.
</event>
<event>
 5   0  0.6706225E-06  0.2586157E+04  0.7818609E-02  0.8372918E-01
        1   -1    0    0  501    0  0.00000000000E+00  0.00000000000E+00  0.23601959128E+04  0.23601959128E+04  0.50400001928E-02 0.  1.
       -1   -1    0    0    0  501  0.00000000000E+00  0.00000000000E+00 -0.70843802674E+03  0.70843802676E+03  0.50400001928E-02 0. -1.
    10030    2    1    2    0    0  0.00000000000E+00  0.00000000000E+00  0.16517578860E+04  0.30686339395E+04  0.25861574084E+04 0.  0.
        5    1    3    3  502    0 -0.42272612945E+03  0.11213594804E+04  0.14021690894E+04  0.18445174736E+04  0.46999998093E+01 0. -1.
       -5    1    3    3    0  502  0.42272612945E+03 -0.11213594804E+04  0.24958879659E+03  0.12241164660E+04  0.46999998093E+01 0.  1.
</event>
<event>
 5   0  0.1677971E-05  0.2587348E+04  0.7818609E-02  0.8372512E-01
        2   -1    0    0  501    0  0.00000000000E+00  0.00000000000E+00  0.21385438488E+04  0.21385438488E+04  0.25500000920E-02 0.  1.
       -2   -1    0    0    0  501  0.00000000000E+00  0.00000000000E+00 -0.78258492830E+03  0.78258492830E+03  0.25500000920E-02 0. -1.
    10030    2    1    2    0    0  0.00000000000E+00  0.00000000000E+00  0.13559589205E+04  0.29211287771E+04  0.25873478193E+04 0.  0.
        4    1    3    3  502    0 -0.88393404055E+03 -0.25661060980E+03  0.17043203097E+04  0.19369816013E+04  0.12699999809E+01 0.  1.
       -4    1    3    3    0  502  0.88393404055E+03  0.25661060980E+03 -0.34836138920E+03  0.98414717573E+03  0.12699999809E+01 0. -1.
</event>
<event>
 5   0  0.6706225E-06  0.2596812E+04  0.7818609E-02  0.8369285E-01
        1   -1    0    0  501    0  0.00000000000E+00  0.00000000000E+00  0.24064744891E+04  0.24064744891E+04  0.50400001928E-02 0.  1.
       -1   -1    0    0    0  501  0.00000000000E+00  0.00000000000E+00 -0.70055098964E+03  0.70055098966E+03  0.50400001928E-02 0. -1.
    10030    2    1    2    0    0  0.00000000000E+00  0.00000000000E+00  0.17059234995E+04  0.31070254788E+04  0.25968119569E+04 0.  0.
        5    1    3    3  502    0  0.83967527895E+03 -0.90361619492E+03  0.36804280094E+03  0.12872662487E+04  0.46999998093E+01 0. -1.
       -5    1    3    3    0  502 -0.83967527895E+03  0.90361619492E+03  0.13378806985E+04  0.18197592300E+04  0.46999998093E+01 0.  1.
</event>
<event>
 5   0  0.1720129E-05  0.2657806E+04  0.7818609E-02  0.8348827E-01
       -2   -1    0    0    0  501  0.00000000000E+00  0.00000000000E+00  0.11390969927E+04  0.11390969927E+04  0.25500000920E-02 0.  1.
        2   -1    0    0  501    0  0.00000000000E+00  0.00000000000E+00 -0.15503364035E+04  0.15503364035E+04  0.25500000920E-02 0. -1.
    10030    2    1    2    0    0  0.00000000000E+00  0.00000000000E+00 -0.41123941084E+03  0.26894333962E+04  0.26578062644E+04 0.  0.
        3    1    3    3  502    0  0.74754218163E+03 -0.14794809398E+03  0.89603917546E+03  0.11762627963E+04  0.10100000352E+00 0.  1.
       -3    1    3    3    0  502 -0.74754218163E+03  0.14794809398E+03 -0.13072785863E+04  0.15131705998E+04  0.10100000352E+00 0. -1.
</event>
<event>
 5   0  0.1720129E-05  0.2690618E+04  0.7818609E-02  0.8338056E-01
        2   -1    0    0  501    0  0.00000000000E+00  0.00000000000E+00  0.17128889209E+04  0.17128889209E+04  0.25500000920E-02 0.  1.
       -2   -1    0    0    0  501  0.00000000000E+00  0.00000000000E+00 -0.10566102308E+04  0.10566102308E+04  0.25500000920E-02 0. -1.
    10030    2    1    2    0    0  0.00000000000E+00  0.00000000000E+00  0.65627869014E+03  0.27694991517E+04  0.26906177417E+04 0.  0.
        3    1    3    3  502    0  0.16251573764E+03 -0.10351830221E+04 -0.54030229867E+03  0.11789579460E+04  0.10100000352E+00 0. -1.
       -3    1    3    3    0  502 -0.16251573764E+03  0.10351830221E+04  0.11965809888E+04  0.15905412057E+04  0.10100000352E+00 0.  1.
</event>
<event>
 5   0  0.7138294E-06  0.2626246E+04  0.7818609E-02  0.8359340E-01
        1   -1    0    0  501    0  0.00000000000E+00  0.00000000000E+00  0.16326250831E+04  0.16326250831E+04  0.50400001928E-02 0. -1.
       -1   -1    0    0    0  501  0.00000000000E+00  0.00000000000E+00 -0.10561473414E+04  0.10561473414E+04  0.50400001928E-02 0.  1.
    10030    2    1    2    0    0  0.00000000000E+00  0.00000000000E+00  0.57647774169E+03  0.26887724246E+04  0.26262464782E+04 0.  0.
        2    1    3    3  502    0  0.12199248487E+03  0.88960682089E+03  0.12691785695E+04  0.15547014837E+04  0.25500000920E-02 0. -1.
       -2    1    3    3    0  502 -0.12199248487E+03 -0.88960682089E+03 -0.69270082779E+03  0.11340709409E+04  0.25500000920E-02 0.  1.
</event>
<event>
 5   0  0.1869956E-05  0.2617525E+04  0.7818609E-02  0.8362273E-01
       -2   -1    0    0    0  501  0.00000000000E+00  0.00000000000E+00  0.93900630217E+03  0.93900630217E+03  0.25500000920E-02 0.  1.
        2   -1    0    0  501    0  0.00000000000E+00  0.00000000000E+00 -0.18241194748E+04  0.18241194748E+04  0.25500000920E-02 0. -1.
    10030    2    1    2    0    0  0.00000000000E+00  0.00000000000E+00 -0.88511317259E+03  0.27631257769E+04  0.26175253066E+04 0.  0.
        5    1    3    3  502    0 -0.12169107945E+04  0.29548322493E+02  0.64904554920E+02  0.12190076605E+04  0.46999998093E+01 0. -1.
       -5    1    3    3    0  502  0.12169107945E+04 -0.29548322493E+02 -0.95001772751E+03  0.15441181165E+04  0.46999998093E+01 0.  1.
</event>
<event>
 5   0  0.6706225E-06  0.2603906E+04  0.7818609E-02  0.8366875E-01
        1   -1    0    0  501    0  0.00000000000E+00  0.00000000000E+00  0.11832116396E+04  0.11832116396E+04  0.50400001928E-02 0. -1.
       -1   -1    0    0    0  501  0.00000000000E+00  0.00000000000E+00 -0.14326111114E+04  0.14326111114E+04  0.50400001928E-02 0.  1.
    10030    2    1    2    0    0  0.00000000000E+00  0.00000000000E+00 -0.24939947180E+03  0.26158227511E+04  0.26039064055E+04 0.  0.
        5    1    3    3  502    0  0.12938283313E+04 -0.49494499599E+02 -0.26177415222E+03  0.13209804136E+04  0.46999998093E+01 0.  1.
       -5    1    3    3    0  502 -0.12938283313E+04  0.49494499599E+02  0.12374680429E+02  0.12948423375E+04  0.46999998093E+01 0. -1.
</event>
<event>
 5   0  0.7138294E-06  0.2595039E+04  0.7818609E-02  0.8369888E-01
        1   -1    0    0  501    0  0.00000000000E+00  0.00000000000E+00  0.82165534174E+03  0.82165534176E+03  0.50400001928E-02 0. -1.
       -1   -1    0    0    0  501  0.00000000000E+00  0.00000000000E+00 -0.20489821199E+04  0.20489821199E+04  0.50400001928E-02 0.  1.
    10030    2    1    2    0    0  0.00000000000E+00  0.00000000000E+00 -0.12273267782E+04  0.28706374617E+04  0.25950391935E+04 0.  0.
        2    1    3    3  502    0 -0.43991040585E+03  0.31504766670E+03 -0.19182225729E+04  0.19930765255E+04  0.25500000920E-02 0.  1.
       -2    1    3    3    0  502  0.43991040585E+03 -0.31504766670E+03  0.69089579472E+03  0.87756093614E+03  0.25500000920E-02 0. -1.
</event>
<event>
 5   0  0.1869956E-05  0.2617669E+04  0.7818609E-02  0.8362224E-01
        2   -1    0    0  501    0  0.00000000000E+00  0.00000000000E+00  0.10237614909E+04  0.10237614909E+04  0.25500000920E-02 0. -1.
       -2   -1    0    0    0  501  0.00000000000E+00  0.00000000000E+00 -0.16732876616E+04  0.16732876616E+04  0.25500000920E-02 0.  1.
    10030    2    1    2    0    0  0.00000000000E+00  0.00000000000E+00 -0.64952617075E+03  0.26970491525E+04  0.26176687882E+04 0.  0.
        5    1    3    3  502    0  0.53106127004E+03 -0.33104933196E+03 -0.15091463061E+04  0.16337577532E+04  0.46999998093E+01 0.  1.
       -5    1    3    3    0  502 -0.53106127004E+03  0.33104933196E+03  0.85962013539E+03  0.10632913993E+04  0.46999998093E+01 0. -1.
</event>
<event>
 5   0  0.1702345E-05  0.2627736E+04  0.7818609E-02  0.8358840E-01
       -2   -1    0    0    0  501  0.00000000000E+00  0.00000000000E+00  0.84259753495E+03  0.84259753495E+03  0.25500000920E-02 0.  1.
        2   -1    0    0  501    0  0.00000000000E+00  0.00000000000E+00 -0.20487236226E+04  0.20487236226E+04  0.25500000920E-02 0. -1.
    10030    2    1    2    0    0  0.00000000000E+00  0.00000000000E+00 -0.12061260876E+04  0.28913211575E+04  0.26277362685E+04 0.  0.
        1    1    3    3  502    0 -0.23854226815E+02  0.72307773847E+03  0.60368975715E+03  0.94225886195E+03  0.50400001928E-02 0.  1.
       -1    1    3    3    0  502  0.23854226815E+02 -0.72307773847E+03 -0.18098158448E+04  0.19490622956E+04  0.50400001928E-02 0. -1.
</event>
<event>
 5   0  0.7138294E-06  0.2615900E+04  0.7818609E-02  0.8362820E-01
        1   -1    0    0  501    0  0.00000000000E+00  0.00000000000E+00  0.13146628352E+04  0.13146628352E+04  0.50400001928E-02 0. -1.
       -1   -1    0    0    0  501  0.00000000000E+00  0.00000000000E+00 -0.13012715730E+04  0.13012715730E+04  0.50400001928E-02 0.  1.
    10030    2    1    2    0    0  0.00000000000E+00  0.00000000000E+00  0.13391262223E+02  0.26159344082E+04  0.26159001323E+04 0.  0.
        2    1    3    3  502    0 -0.44217047333E+03 -0.97746347777E+03  0.75489244171E+03  0.13117973077E+04  0.25500000920E-02 0. -1.
       -2    1    3    3    0  502  0.44217047333E+03  0.97746347777E+03 -0.74150117949E+03  0.13041371006E+04  0.25500000920E-02 0.  1.
</event>
<event>
 5   0  0.1702345E-05  0.2568391E+04  0.7818609E-02  0.8379018E-01
        2   -1    0    0  501    0  0.00000000000E+00  0.00000000000E+00  0.17235260053E+04  0.17235260053E+04  0.25500000920E-02 0.  1.
       -2   -1    0    0    0  501  0.00000000000E+00  0.00000000000E+00 -0.95685097375E+03  0.95685097376E+03  0.25500000920E-02 0. -1.
    10030    2    1    2    0    0  0.00000000000E+00  0.00000000000E+00  0.76667503152E+03  0.26803769790E+04  0.25683905750E+04 0.  0.
        1    1    3    3  502    0  0.27486852705E+02 -0.99469677367E+03  0.12305084362E+04  0.15825069385E+04  0.50400001928E-02 0.  1.
       -1    1    3    3    0  502 -0.27486852705E+02  0.99469677367E+03 -0.46383340472E+03  0.10978700406E+04  0.50400001928E-02 0. -1.
</event>
<event>
 5   0  0.6918420E-06  0.2584213E+04  0.7818609E-02  0.8373584E-01
        1   -1    0    0  501    0  0.00000000000E+00  0.00000000000E+00  0.17915212511E+04  0.17915212511E+04  0.50400001928E-02 0.  1.
       -1   -1    0    0    0  501  0.00000000000E+00  0.00000000000E+00 -0.93191120490E+03  0.93191120491E+03  0.50400001928E-02 0. -1.
    10030    2    1    2    0    0  0.00000000000E+00  0.00000000000E+00  0.85961004622E+03  0.27234324560E+04  0.25842126288E+04 0.  0.
        4    1    3    3  502    0 -0.72881225924E+03 -0.88584105586E+03  0.10565322024E+04  0.15595331331E+04  0.12699999809E+01 0.  1.
       -4    1    3    3    0  502  0.72881225924E+03  0.88584105586E+03 -0.19692215622E+03  0.11638993230E+04  0.12699999809E+01 0. -1.
</event>
<event>
 5   0  0.1720129E-05  0.2592681E+04  0.7818609E-02  0.8370692E-01
        2   -1    0    0  501    0  0.00000000000E+00  0.00000000000E+00  0.10424292575E+04  0.10424292575E+04  0.25500000920E-02 0. -1.
       -2   -1    0    0    0  501  0.00000000000E+00  0.00000000000E+00 -0.16120983509E+04  0.16120983509E+04  0.25500000920E-02 0.  1.
    10030    2    1    2    0    0  0.00000000000E+00  0.00000000000E+00 -0.56966909341E+03  0.26545276084E+04  0.25926808419E+04 0.  0.
        3    1    3    3  502    0  0.51758450189E+03 -0.56922734878E+02  0.93065117525E+03  0.10664171485E+04  0.10100000352E+00 0. -1.
       -3    1    3    3    0  502 -0.51758450189E+03  0.56922734878E+02 -0.15003202687E+04  0.15881104600E+04  0.10100000352E+00 0.  1.
</event>
<event>
 5   0  0.6918420E-06  0.2573293E+04  0.7818609E-02  0.8377330E-01
        1   -1    0    0  501    0  0.00000000000E+00  0.00000000000E+00  0.13044036707E+04  0.13044036707E+04  0.50400001928E-02 0. -1.
       -1   -1    0    0    0  501  0.00000000000E+00  0.00000000000E+00 -0.12691306681E+04  0.12691306681E+04  0.50400001928E-02 0.  1.
    10030    2    1    2    0    0  0.00000000000E+00  0.00000000000E+00  0.35273002664E+02  0.25735343388E+04  0.25732926006E+04 0.  0.
        4    1    3    3  502    0  0.69445167980E+03 -0.32545669783E+02  0.11003899205E+04  0.13016074471E+04  0.12699999809E+01 0. -1.
       -4    1    3    3    0  502 -0.69445167980E+03  0.32545669783E+02 -0.10651169179E+04  0.12719268917E+04  0.12699999809E+01 0.  1.
</event>
<event>
 5   0  0.1720129E-05  0.2585221E+04  0.7818609E-02  0.8373239E-01
        2   -1    0    0  501    0  0.00000000000E+00  0.00000000000E+00  0.66569239702E+03  0.66569239702E+03  0.25500000920E-02 0.  1.
       -2   -1    0    0    0  501  0.00000000000E+00  0.00000000000E+00 -0.25099304803E+04  0.25099304803E+04  0.25500000920E-02 0. -1.
    10030    2    1    2    0    0  0.00000000000E+00  0.00000000000E+00 -0.18442380833E+04  0.31756228773E+04  0.25852207935E+04 0.  0.
        3    1    3    3  502    0 -0.45320177544E+03  0.36357517878E+03  0.49624977151E+03  0.76409594019E+03  0.10100000352E+00 0.  1.
       -3    1    3    3    0  502  0.45320177544E+03 -0.36357517878E+03 -0.23404878548E+04  0.24115269372E+04  0.10100000352E+00 0. -1.
</event>
<event>
 5   0  0.1677971E-05  0.2570589E+04  0.7818609E-02  0.8378261E-01
       -2   -1    0    0    0  501  0.00000000000E+00  0.00000000000E+00  0.73878556193E+03  0.73878556193E+03  0.25500000920E-02 0. -1.
        2   -1    0    0  501    0  0.00000000000E+00  0.00000000000E+00 -0.22360776429E+04  0.22360776429E+04  0.25500000920E-02 0.  1.
    10030    2    1    2    0    0  0.00000000000E+00  0.00000000000E+00 -0.14972920810E+04  0.29748632048E+04  0.25705889426E+04 0.  0.
        4    1    3    3  502    0 -0.33471533255E+03  0.45672569362E+03  0.58665776593E+03  0.81535370256E+03  0.12699999809E+01 0. -1.
       -4    1    3    3    0  502  0.33471533255E+03 -0.45672569362E+03 -0.20839498469E+04  0.21595095022E+04  0.12699999809E+01 0.  1.
</event>
<event>
 5   0  0.1681731E-05  0.2603288E+04  0.7818609E-02  0.8367085E-01
        2   -1    0    0  501    0  0.00000000000E+00  0.00000000000E+00  0.20393878049E+04  0.20393878049E+04  0.25500000920E-02 0.  1.
       -2   -1    0    0    0  501  0.00000000000E+00  0.00000000000E+00 -0.83077713888E+03  0.83077713889E+03  0.25500000920E-02 0. -1.
    10030    2    1    2    0    0  0.00000000000E+00  0.00000000000E+00  0.12086106660E+04  0.28701649438E+04  0.26032877410E+04 0.  0.
        2    1    3    3  502    0  0.10755823786E+03  0.30396181590E+03 -0.78605154004E+03  0.84961084248E+03  0.25500000920E-02 0. -1.
       -2    1    3    3    0  502 -0.10755823786E+03 -0.30396181590E+03  0.19946622061E+04  0.20205541013E+04  0.25500000920E-02 0.  1.
</event>
<event>
 5   0  0.1681731E-05  0.2689234E+04  0.7818609E-02  0.8338507E-01
        2   -1    0    0  501    0  0.00000000000E+00  0.00000000000E+00  0.18186360271E+04  0.18186360271E+04  0.25500000920E-02 0.  1.
       -2   -1    0    0    0  501  0.00000000000E+00  0.00000000000E+00 -0.99414858495E+03  0.99414858496E+03  0.25500000920E-02 0. -1.
    10030    2    1    2    0    0  0.00000000000E+00  0.00000000000E+00  0.82448744217E+03  0.28127846121E+04  0.26892336700E+04 0.  0.
        2    1    3    3  502    0 -0.44870711850E+03 -0.61353395359E+03  0.15723600115E+04  0.17464472497E+04  0.25500000920E-02 0.  1.
       -2    1    3    3    0  502  0.44870711850E+03  0.61353395359E+03 -0.74787256932E+03  0.10663373623E+04  0.25500000920E-02 0. -1.
</event>
<event>
 5   0  0.6918420E-06  0.2591816E+04  0.7818609E-02  0.8370986E-01
        1   -1    0    0  501    0  0.00000000000E+00  0.00000000000E+00  0.16897578931E+04  0.16897578931E+04  0.50400001928E-02 0. -1.
       -1   -1    0    0    0  501  0.00000000000E+00  0.00000000000E+00 -0.99385717993E+03  0.99385717994E+03  0.50400001928E-02 0.  1.
    10030    2    1    2    0    0  0.00000000000E+00  0.00000000000E+00  0.69590071322E+03  0.26836150731E+04  0.25918163627E+04 0.  0.
        4    1    3    3  502    0 -0.37580028592E+03 -0.48640332072E+03  0.15292184807E+04  0.16481276710E+04  0.12699999809E+01 0. -1.
       -4    1    3    3    0  502  0.37580028592E+03  0.48640332072E+03 -0.83331776751E+03  0.10354874021E+04  0.12699999809E+01 0.  1.
</event>
<event>
 5   0  0.1681731E-05  0.2580009E+04  0.7818609E-02  0.8375024E-01
       -2   -1    0    0    0  501  0.00000000000E+00  0.00000000000E+00  0.17657505124E+04  0.17657505124E+04  0.25500000920E-02 0. -1.
        2   -1    0    0  501    0  0.00000000000E+00  0.00000000000E+00 -0.94243870988E+03  0.94243870988E+03  0.25500000920E-02 0.  1.
    10030    2    1    2    0    0  0.00000000000E+00  0.00000000000E+00  0.82331180255E+03  0.27081892223E+04  0.25800090193E+04 0.  0.
        2    1    3    3  502    0 -0.64530149943E+03 -0.57841795006E+03 -0.59139773026E+03  0.10491580555E+04  0.25500000920E-02 0.  1.
       -2    1    3    3    0  502  0.64530149943E+03  0.57841795006E+03  0.14147095328E+04  0.16590311668E+04  0.25500000920E-02 0. -1.
</event>
<event>
 5   0  0.1869956E-05  0.2610780E+04  0.7818609E-02  0.8364549E-01
        2   -1    0    0  501    0  0.00000000000E+00  0.00000000000E+00  0.11254852320E+04  0.11254852320E+04  0.25500000920E-02 0. -1.
       -2   -1    0    0    0  501  0.00000000000E+00  0.00000000000E+00 -0.15140517445E+04  0.15140517445E+04  0.25500000920E-02 0.  1.
    10030    2    1    2    0    0  0.00000000000E+00  0.00000000000E+00 -0.38856651255E+03  0.26395369765E+04  0.26107798673E+04 0.  0.
        5    1    3    3  502    0 -0.23308792363E+03  0.62710298855E+03 -0.13275368426E+04  0.14865948664E+04  0.46999998093E+01 0.  1.
       -5    1    3    3    0  502  0.23308792363E+03 -0.62710298855E+03  0.93897033007E+03  0.11529421101E+04  0.46999998093E+01 0. -1.
</event>
<event>
 5   0  0.1869956E-05  0.2602170E+04  0.7818609E-02  0.8367464E-01
       -2   -1    0    0    0  501  0.00000000000E+00  0.00000000000E+00  0.12560178129E+04  0.12560178129E+04  0.25500000920E-02 0. -1.
        2   -1    0    0  501    0  0.00000000000E+00  0.00000000000E+00 -0.13477691866E+04  0.13477691866E+04  0.25500000920E-02 0.  1.
    10030    2    1    2    0    0  0.00000000000E+00  0.00000000000E+00 -0.91751373739E+02  0.26037869995E+04  0.26021699453E+04 0.  0.
        5    1    3    3  502    0  0.76979555613E+03 -0.10482438483E+04 -0.84405109357E+01  0.13005743716E+04  0.46999998093E+01 0. -1.
       -5    1    3    3    0  502 -0.76979555613E+03  0.10482438483E+04 -0.83310862803E+02  0.13032126279E+04  0.46999998093E+01 0.  1.
</event>
<event>
 5   0  0.1720129E-05  0.2554638E+04  0.7818609E-02  0.8383775E-01
        2   -1    0    0  501    0  0.00000000000E+00  0.00000000000E+00  0.98352649414E+03  0.98352649415E+03  0.25500000920E-02 0.  1.
       -2   -1    0    0    0  501  0.00000000000E+00  0.00000000000E+00 -0.16588708763E+04  0.16588708763E+04  0.25500000920E-02 0. -1.
    10030    2    1    2    0    0  0.00000000000E+00  0.00000000000E+00 -0.67534438212E+03  0.26423973704E+04  0.25546377099E+04 0.  0.
        3    1    3    3  502    0  0.51706194264E+03 -0.33436477618E+03  0.81987500660E+03  0.10253525700E+04  0.10100000352E+00 0.  1.
       -3    1    3    3    0  502 -0.51706194264E+03  0.33436477618E+03 -0.14952193887E+04  0.16170448005E+04  0.10100000352E+00 0. -1.
</event>
<event>
 5   0  0.6706225E-06  0.2589744E+04  0.7818609E-02  0.8371693E-01
       -1   -1    0    0    0  501  0.00000000000E+00  0.00000000000E+00  0.11868270242E+04  0.11868270242E+04  0.50400001928E-02 0. -1.
        1   -1    0    0  501    0  0.00000000000E+00  0.00000000000E+00 -0.14127529900E+04  0.14127529900E+04  0.50400001928E-02 0.  1.
    10030    2    1    2    0    0  0.00000000000E+00  0.00000000000E+00 -0.22592596587E+03  0.25995800142E+04  0.25897439465E+04 0.  0.
        5    1    3    3  502    0 -0.79188120461E+03  0.29624213219E+03 -0.10974203154E+04  0.13853478559E+04  0.46999998093E+01 0.  1.
       -5    1    3    3    0  502  0.79188120461E+03 -0.29624213219E+03  0.87149434953E+03  0.12142321583E+04  0.46999998093E+01 0. -1.
</event>
<event>
 5   0  0.6993678E-06  0.2605071E+04  0.7818609E-02  0.8366481E-01
        1   -1    0    0  501    0  0.00000000000E+00  0.00000000000E+00  0.75708790718E+03  0.75708790720E+03  0.50400001928E-02 0. -1.
       -1   -1    0    0    0  501  0.00000000000E+00  0.00000000000E+00 -0.22409534375E+04  0.22409534375E+04  0.50400001928E-02 0.  1.
    10030    2    1    2    0    0  0.00000000000E+00  0.00000000000E+00 -0.14838655303E+04  0.29980413447E+04  0.26050710148E+04 0.  0.
        1    1    3    3  502    0 -0.28039017620E+01 -0.11637799696E+04 -0.14151613367E+04  0.18322317780E+04  0.50400001928E-02 0. -1.
       -1    1    3    3    0  502  0.28039017620E+01  0.11637799696E+04 -0.68704193567E+02  0.11658095666E+04  0.50400001928E-02 0.  1.
</event>
<event>
 5   0  0.1720129E-05  0.2593008E+04  0.7818609E-02  0.8370580E-01
        2   -1    0    0  501    0  0.00000000000E+00  0.00000000000E+00  0.73266325066E+03  0.73266325066E+03  0.25500000920E-02 0. -1.
       -2   -1    0    0    0  501  0.00000000000E+00  0.00000000000E+00 -0.22942631635E+04  0.22942631635E+04  0.25500000920E-02 0.  1.
    10030    2    1    2    0    0  0.00000000000E+00  0.00000000000E+00 -0.15615999129E+04  0.30269264142E+04  0.25930077572E+04 0.  0.
        3    1    3    3  502    0 -0.12110467463E+04  0.41058681909E+03 -0.10303669905E+04  0.16422155470E+04  0.10100000352E+00 0.  1.
       -3    1    3    3    0  502  0.12110467463E+04 -0.41058681909E+03 -0.53123292242E+03  0.13847108672E+04  0.10100000352E+00 0. -1.
</event>
<event>
 5   0  0.7138294E-06  0.2653512E+04  0.7818609E-02  0.8350248E-01
       -1   -1    0    0    0  501  0.00000000000E+00  0.00000000000E+00  0.13102469622E+04  0.13102469622E+04  0.50400001928E-02 0.  1.
        1   -1    0    0  501    0  0.00000000000E+00  0.00000000000E+00 -0.13434731620E+04  0.13434731620E+04  0.50400001928E-02 0. -1.
    10030    2    1    2    0    0  0.00000000000E+00  0.00000000000E+00 -0.33226199822E+02  0.26537201242E+04  0.26535121099E+04 0.  0.
        2    1    3    3  502    0 -0.68391391200E+03  0.11359037859E+04 -0.64219138042E+02  0.13274561189E+04  0.25500000920E-02 0. -1.
       -2    1    3    3    0  502  0.68391391200E+03 -0.11359037859E+04  0.30992938220E+02  0.13262640054E+04  0.25500000920E-02 0.  1.
</event>
<event>
 5   0  0.1677971E-05  0.2594789E+04  0.7818609E-02  0.8369973E-01
       -2   -1    0    0    0  501  0.00000000000E+00  0.00000000000E+00  0.11284973134E+04  0.11284973134E+04  0.25500000920E-02 0.  1.
        2   -1    0    0  501    0  0.00000000000E+00  0.00000000000E+00 -0.14915696644E+04  0.14915696644E+04  0.25500000920E-02 0. -1.
    10030    2    1    2    0    0  0.00000000000E+00  0.00000000000E+00 -0.36307235102E+03  0.26200669779E+04  0.25947889002E+04 0.  0.
        4    1    3    3  502    0  0.83253469082E+02 -0.55981406518E+03  0.99727326031E+03  0.11466815148E+04  0.12699999809E+01 0.  1.
       -4    1    3    3    0  502 -0.83253469082E+02  0.55981406518E+03 -0.13603456113E+04  0.14733854631E+04  0.12699999809E+01 0. -1.
</event>
<event>
 5   0  0.6918420E-06  0.2578094E+04  0.7818609E-02  0.8375681E-01
        1   -1    0    0  501    0  0.00000000000E+00  0.00000000000E+00  0.14073525341E+04  0.14073525341E+04  0.50400001928E-02 0.  1.
       -1   -1    0    0    0  501  0.00000000000E+00  0.00000000000E+00 -0.11806863091E+04  0.11806863091E+04  0.50400001928E-02 0. -1.
    10030    2    1    2    0    0  0.00000000000E+00  0.00000000000E+00  0.22666622501E+03  0.25880388433E+04  0.25780937680E+04 0.  0.
        4    1    3    3  502    0  0.54824477895E+03 -0.11358334528E+04  0.38072557238E+03  0.13174382508E+04  0.12699999809E+01 0. -1.
       -4    1    3    3    0  502 -0.54824477895E+03  0.11358334528E+04 -0.15405934737E+03  0.12706005925E+04  0.12699999809E+01 0.  1.
</event>
<event>
 5   0  0.1677971E-05  0.2607403E+04  0.7818609E-02  0.8365691E-01
       -2   -1    0    0    0  501  0.00000000000E+00  0.00000000000E+00  0.10267750470E+04  0.10267750470E+04  0.25500000920E-02 0.  1.
        2   -1    0    0  501    0  0.00000000000E+00  0.00000000000E+00 -0.16553164301E+04  0.16553164301E+04  0.25500000920E-02 0. -1.
    10030    2    1    2    0    0  0.00000000000E+00  0.00000000000E+00 -0.62854138301E+03  0.26820914771E+04  0.26074030033E+04 0.  0.
        4    1    3    3  502    0  0.11143582147E+04  0.54182428898E+03  0.10263917778E+03  0.12433439606E+04  0.12699999809E+01 0. -1.
       -4    1    3    3    0  502 -0.11143582147E+04 -0.54182428898E+03 -0.73118056080E+03  0.14387475165E+04  0.12699999809E+01 0.  1.
</event>
<event>
 5   0  0.1702345E-05  0.2587919E+04  0.7818609E-02  0.8372316E-01
        2   -1    0    0  501    0  0.00000000000E+00  0.00000000000E+00  0.13238317378E+04  0.13238317378E+04  0.25500000920E-02 0.  1.
       -2   -1    0    0    0  501  0.00000000000E+00  0.00000000000E+00 -0.12647616685E+04  0.12647616685E+04  0.25500000920E-02 0. -1.
    10030    2    1    2    0    0  0.00000000000E+00  0.00000000000E+00  0.59070069261E+02  0.25885934063E+04  0.25879193477E+04 0.  0.
        1    1    3    3  502    0  0.80323957819E+03  0.10092130271E+04  0.13264866162E+03  0.12966496911E+04  0.50400001928E-02 0. -1.
       -1    1    3    3    0  502 -0.80323957819E+03 -0.10092130271E+04 -0.73578592358E+02  0.12919437152E+04  0.50400001928E-02 0.  1.
</event>
<event>
 5   0  0.1681731E-05  0.2620899E+04  0.7818609E-02  0.8361137E-01
        2   -1    0    0  501    0  0.00000000000E+00  0.00000000000E+00  0.14536439770E+04  0.14536439770E+04  0.25500000920E-02 0.  1.
       -2   -1    0    0    0  501  0.00000000000E+00  0.00000000000E+00 -0.11813606519E+04  0.11813606519E+04  0.25500000920E-02 0. -1.
    10030    2    1    2    0    0  0.00000000000E+00  0.00000000000E+00  0.27228332506E+03  0.26350046289E+04  0.26208989270E+04 0.  0.
        2    1    3    3  502    0 -0.74110699508E+03  0.10262069143E+04 -0.20470743424E+03  0.12822813041E+04  0.25500000920E-02 0. -1.
       -2    1    3    3    0  502  0.74110699508E+03 -0.10262069143E+04  0.47699075930E+03  0.13527233249E+04  0.25500000920E-02 0.  1.
</event>
<event>
 5   0  0.6984287E-06  0.2592933E+04  0.7818609E-02  0.8370606E-01
       -1   -1    0    0    0  501  0.00000000000E+00  0.00000000000E+00  0.31106575828E+04  0.31106575828E+04  0.50400001928E-02 0.  1.
        1   -1    0    0  501    0  0.00000000000E+00  0.00000000000E+00 -0.54034420546E+03  0.54034420548E+03  0.50400001928E-02 0. -1.
    10030    2    1    2    0    0  0.00000000000E+00  0.00000000000E+00  0.25703133773E+04  0.36510017883E+04  0.25929333197E+04 0.  0.
        3    1    3    3  502    0  0.38067997385E+03 -0.45695179087E+03  0.29072398357E+04  0.29674510365E+04  0.10100000352E+00 0.  1.
       -3    1    3    3    0  502 -0.38067997385E+03  0.45695179087E+03 -0.33692645837E+03  0.68355075175E+03  0.10100000352E+00 0. -1.
</event>
<event>
 5   0  0.6993678E-06  0.2542173E+04  0.7818609E-02  0.8388113E-01
       -1   -1    0    0    0  501  0.00000000000E+00  0.00000000000E+00  0.86096399681E+03  0.86096399682E+03  0.50400001928E-02 0.  1.
        1   -1    0    0  501    0  0.00000000000E+00  0.00000000000E+00 -0.18765721461E+04  0.18765721461E+04  0.50400001928E-02 0. -1.
    10030    2    1    2    0    0  0.00000000000E+00  0.00000000000E+00 -0.10156081493E+04  0.27375361429E+04  0.25421731296E+04 0.  0.
        1    1    3    3  502    0 -0.40608756747E+03  0.40717457999E+03 -0.17284789786E+04  0.18216305417E+04  0.50400001928E-02 0. -1.
       -1    1    3    3    0  502  0.40608756747E+03 -0.40717457999E+03  0.71287082930E+03  0.91590560121E+03  0.50400001928E-02 0.  1.
</event>
<event>
 5   0  0.7138294E-06  0.2639138E+04  0.7818609E-02  0.8355027E-01
       -1   -1    0    0    0  501  0.00000000000E+00  0.00000000000E+00  0.11455017355E+04  0.11455017355E+04  0.50400001928E-02 0. -1.
        1   -1    0    0  501    0  0.00000000000E+00  0.00000000000E+00 -0.15200872172E+04  0.15200872172E+04  0.50400001928E-02 0.  1.
    10030    2    1    2    0    0  0.00000000000E+00  0.00000000000E+00 -0.37458548175E+03  0.26655889527E+04  0.26391381513E+04 0.  0.
        2    1    3    3  502    0 -0.12422774805E+04  0.44056483815E+03 -0.25046422141E+03  0.13416717338E+04  0.25500000920E-02 0.  1.
       -2    1    3    3    0  502  0.12422774805E+04 -0.44056483815E+03 -0.12412126034E+03  0.13239172189E+04  0.25500000920E-02 0. -1.
</event>
<event>
 5   0  0.1681731E-05  0.2916144E+04  0.7818609E-02  0.8268090E-01
       -2   -1    0    0    0  501  0.00000000000E+00  0.00000000000E+00  0.11843175330E+04  0.11843175330E+04  0.25500000920E-02 0. -1.
        2   -1    0    0  501    0  0.00000000000E+00  0.00000000000E+00 -0.17951052301E+04  0.17951052301E+04  0.25500000920E-02 0.  1.
    10030    2    1    2    0    0  0.00000000000E+00  0.00000000000E+00 -0.61078769714E+03  0.29794227630E+04  0.29161444392E+04 0.  0.
        2    1    3    3  502    0 -0.50077126839E+02  0.63411166473E+03  0.10350854883E+04  0.12149104042E+04  0.25500000920E-02 0. -1.
       -2    1    3    3    0  502  0.50077126839E+02 -0.63411166473E+03 -0.16458731855E+04  0.17645123589E+04  0.25500000920E-02 0.  1.
</event>
<event>
 5   0  0.1869956E-05  0.2603455E+04  0.7818609E-02  0.8367028E-01
        2   -1    0    0  501    0  0.00000000000E+00  0.00000000000E+00  0.14560521983E+04  0.14560521983E+04  0.25500000920E-02 0. -1.
       -2   -1    0    0    0  501  0.00000000000E+00  0.00000000000E+00 -0.11637597693E+04  0.11637597693E+04  0.25500000920E-02 0.  1.
    10030    2    1    2    0    0  0.00000000000E+00  0.00000000000E+00  0.29229242908E+03  0.26198119676E+04  0.26034553734E+04 0.  0.
        5    1    3    3  502    0 -0.83171630573E+03  0.51533204699E+03 -0.71782450284E+03  0.12135127683E+04  0.46999998093E+01 0.  1.
       -5    1    3    3    0  502  0.83171630573E+03 -0.51533204699E+03  0.10101169319E+04  0.14062991993E+04  0.46999998093E+01 0. -1.
</event>
<event>
 5   0  0.6993678E-06  0.2584521E+04  0.7818609E-02  0.8373478E-01
        1   -1    0    0  501    0  0.00000000000E+00  0.00000000000E+00  0.13249197573E+04  0.13249197574E+04  0.50400001928E-02 0.  1.
       -1   -1    0    0    0  501  0.00000000000E+00  0.00000000000E+00 -0.12604067792E+04  0.12604067792E+04  0.50400001928E-02 0. -1.
    10030    2    1    2    0    0  0.00000000000E+00  0.00000000000E+00  0.64512978162E+02  0.25853265366E+04  0.25845214985E+04 0.  0.
        1    1    3    3  502    0  0.56240625733E+03  0.88608277404E+03  0.78647699574E+03  0.13114837192E+04  0.50400001928E-02 0.  1.
       -1    1    3    3    0  502 -0.56240625733E+03 -0.88608277404E+03 -0.72196401758E+03  0.12738428174E+04  0.50400001928E-02 0. -1.
</event>
<event>
 5   0  0.1702345E-05  0.2624319E+04  0.7818609E-02  0.8359987E-01
        2   -1    0    0  501    0  0.00000000000E+00  0.00000000000E+00  0.92643504653E+03  0.92643504653E+03  0.25500000920E-02 0. -1.
       -2   -1    0    0    0  501  0.00000000000E+00  0.00000000000E+00 -0.18584822666E+04  0.18584822666E+04  0.25500000920E-02 0.  1.
    10030    2    1    2    0    0  0.00000000000E+00  0.00000000000E+00 -0.93204722011E+03  0.27849173132E+04  0.26243194205E+04 0.  0.
        1    1    3    3  502    0 -0.74381744261E+03 -0.27101015001E+02 -0.16127853608E+04  0.17762532119E+04  0.50400001928E-02 0.  1.
       -1    1    3    3    0  502  0.74381744261E+03  0.27101015001E+02  0.68073814067E+03  0.10086641012E+04  0.50400001928E-02 0. -1.
</event>
<event>
 5   0  0.6993678E-06  0.2511088E+04  0.7818609E-02  0.8399046E-01
       -1   -1    0    0    0  501  0.00000000000E+00  0.00000000000E+00  0.97709528544E+03  0.97709528545E+03  0.50400001928E-02 0. -1.
        1   -1    0    0  501    0  0.00000000000E+00  0.00000000000E+00 -0.16133436147E+04  0.16133436147E+04  0.50400001928E-02 0.  1.
    10030    2    1    2    0    0  0.00000000000E+00  0.00000000000E+00 -0.63624832924E+03  0.25904389001E+04  0.25110877641E+04 0.  0.
        1    1    3    3  502    0 -0.61135298311E+03 -0.88782448949E+03 -0.98221011613E+03  0.14583283260E+04  0.50400001928E-02 0.  1.
       -1    1    3    3    0  502  0.61135298311E+03  0.88782448949E+03  0.34596178689E+03  0.11321105742E+04  0.50400001928E-02 0. -1.
</event>
<event>
 5   0  0.1869956E-05  0.2514495E+04  0.7818609E-02  0.8397840E-01
        2   -1    0    0  501    0  0.00000000000E+00  0.00000000000E+00  0.15739143213E+04  0.15739143213E+04  0.25500000920E-02 0. -1.
       -2   -1    0    0    0  501  0.00000000000E+00  0.00000000000E+00 -0.10042929888E+04  0.10042929888E+04  0.25500000920E-02 0.  1.
    10030    2    1    2    0    0  0.00000000000E+00  0.00000000000E+00  0.56962133254E+03  0.25782073101E+04  0.25144948740E+04 0.  0.
        5    1    3    3  502    0 -0.47310054940E+03 -0.10775182207E+04 -0.16887029813E+03  0.11888687537E+04  0.46999998093E+01 0.  1.
       -5    1    3    3    0  502  0.47310054940E+03  0.10775182207E+04  0.73849163067E+03  0.13893385564E+04  0.46999998093E+01 0. -1.
</event>
<event>
 5   0  0.1677971E-05  0.2602548E+04  0.7818609E-02  0.8367336E-01
       -2   -1    0    0    0  501  0.00000000000E+00  0.00000000000E+00  0.95013880281E+03  0.95013880281E+03  0.25500000920E-02 0.  1.
        2   -1    0    0  501    0  0.00000000000E+00  0.00000000000E+00 -0.17821758826E+04  0.17821758826E+04  0.25500000920E-02 0. -1.
    10030    2    1    2    0    0  0.00000000000E+00  0.00000000000E+00 -0.83203707975E+03  0.27323146854E+04  0.26025483353E+04 0.  0.
        4    1    3    3  502    0 -0.10185962084E+04 -0.76273217895E+03 -0.13039793369E+03  0.12791809280E+04  0.12699999809E+01 0. -1.
       -4    1    3    3    0  502  0.10185962084E+04  0.76273217895E+03 -0.70163914606E+03  0.14531337574E+04  0.12699999809E+01 0.  1.
</event>
<event>
 5   0  0.1869956E-05  0.2579649E+04  0.7818609E-02  0.8375147E-01
       -2   -1    0    0    0  501  0.00000000000E+00  0.00000000000E+00  0.88769783835E+03  0.88769783835E+03  0.25500000920E-02 0. -1.
        2   -1    0    0  501    0  0.00000000000E+00  0.00000000000E+00 -0.18741145809E+04  0.18741145809E+04  0.25500000920E-02 0.  1.
    10030    2    1    2    0    0  0.00000000000E+00  0.00000000000E+00 -0.98641674257E+03  0.27618124193E+04  0.25796491717E+04 0.  0.
        5    1    3    3  502    0 -0.12297657550E+03 -0.55312249845E+03  0.74730086191E+03  0.93784241993E+03  0.46999998093E+01 0. -1.
       -5    1    3    3    0  502  0.12297657550E+03  0.55312249845E+03 -0.17337176045E+04  0.18239699993E+04  0.46999998093E+01 0.  1.
</event>
<event>
 5   0  0.1869956E-05  0.2617192E+04  0.7818609E-02  0.8362385E-01
        2   -1    0    0  501    0  0.00000000000E+00  0.00000000000E+00  0.15655258994E+04  0.15655258994E+04  0.25500000920E-02 0. -1.
       -2   -1    0    0    0  501  0.00000000000E+00  0.00000000000E+00 -0.10938331006E+04  0.10938331007E+04  0.25500000920E-02 0.  1.
    10030    2    1    2    0    0  0.00000000000E+00  0.00000000000E+00  0.47169279880E+03  0.26593590001E+04  0.26171924260E+04 0.  0.
        5    1    3    3  502    0 -0.85737456864E+03 -0.57796725485E+03 -0.57911335144E+03  0.11851293864E+04  0.46999998093E+01 0.  1.
       -5    1    3    3    0  502  0.85737456864E+03  0.57796725485E+03  0.10508061502E+04  0.14742296137E+04  0.46999998093E+01 0. -1.
</event>
<event>
 5   0  0.7138294E-06  0.2596188E+04  0.7818609E-02  0.8369497E-01
       -1   -1    0    0    0  501  0.00000000000E+00  0.00000000000E+00  0.11012091485E+04  0.11012091485E+04  0.50400001928E-02 0. -1.
        1   -1    0    0  501    0  0.00000000000E+00  0.00000000000E+00 -0.15301803568E+04  0.15301803568E+04  0.50400001928E-02 0.  1.
    10030    2    1    2    0    0  0.00000000000E+00  0.00000000000E+00 -0.42897120828E+03  0.26313895053E+04  0.25961884429E+04 0.  0.
        2    1    3    3  502    0  0.39828473941E+02 -0.53952083540E+03 -0.14104761509E+04  0.15106660820E+04  0.25500000920E-02 0.  1.
       -2    1    3    3    0  502 -0.39828473941E+02  0.53952083540E+03  0.98150494259E+03  0.11207234233E+04  0.25500000920E-02 0. -1.
</event>
<event>
 5   0  0.1702345E-05  0.2695958E+04  0.7818609E-02  0.8336318E-01
       -2   -1    0    0    0  501  0.00000000000E+00  0.00000000000E+00  0.82467082861E+03  0.82467082862E+03  0.25500000920E-02 0. -1.
        2   -1    0    0  501    0  0.00000000000E+00  0.00000000000E+00 -0.22033612688E+04  0.22033612688E+04  0.25500000920E-02 0.  1.
    10030    2    1    2    0    0  0.00000000000E+00  0.00000000000E+00 -0.13786904402E+04  0.30280320974E+04  0.26959582810E+04 0.  0.
        1    1    3    3  502    0  0.48418326114E+03  0.12315862960E+04 -0.40121308578E+03  0.13828268782E+04  0.50400001928E-02 0.  1.
       -1    1    3    3    0  502 -0.48418326114E+03 -0.12315862960E+04 -0.97747735440E+03  0.16452052192E+04  0.50400001928E-02 0. -1.
</event>
<event>
 5   0  0.7138294E-06  0.2595412E+04  0.7818609E-02  0.8369761E-01
       -1   -1    0    0    0  501  0.00000000000E+00  0.00000000000E+00  0.10530680058E+04  0.10530680058E+04  0.50400001928E-02 0.  1.
        1   -1    0    0  501    0  0.00000000000E+00  0.00000000000E+00 -0.15991755893E+04  0.15991755894E+04  0.50400001928E-02 0. -1.
    10030    2    1    2    0    0  0.00000000000E+00  0.00000000000E+00 -0.54610758352E+03  0.26522435952E+04  0.25954118354E+04 0.  0.
        2    1    3    3  502    0 -0.32541491399E+03  0.10833948316E+04  0.37679672011E+03  0.11923149733E+04  0.25500000920E-02 0.  1.
       -2    1    3    3    0  502  0.32541491399E+03 -0.10833948316E+04 -0.92290430363E+03  0.14599286219E+04  0.25500000920E-02 0. -1.
</event>
<event>
 5   0  0.1677971E-05  0.2607591E+04  0.7818609E-02  0.8365627E-01
        2   -1    0    0  501    0  0.00000000000E+00  0.00000000000E+00  0.13156847900E+04  0.13156847900E+04  0.25500000920E-02 0. -1.
       -2   -1    0    0    0  501  0.00000000000E+00  0.00000000000E+00 -0.12920134532E+04  0.12920134532E+04  0.25500000920E-02 0.  1.
    10030    2    1    2    0    0  0.00000000000E+00  0.00000000000E+00  0.23671336770E+02  0.26076982433E+04  0.26075908030E+04 0.  0.
        4    1    3    3  502    0  0.44219267789E+03 -0.91548774157E+03 -0.80442628032E+03  0.12964395176E+04  0.12699999809E+01 0.  1.
       -4    1    3    3    0  502 -0.44219267789E+03  0.91548774157E+03  0.82809761709E+03  0.13112587257E+04  0.12699999809E+01 0. -1.
</event>
<event>
 5   0  0.6984287E-06  0.2610249E+04  0.7818609E-02  0.8364728E-01
        1   -1    0    0  501    0  0.00000000000E+00  0.00000000000E+00  0.16156530647E+04  0.16156530647E+04  0.50400001928E-02 0. -1.
       -1   -1    0    0    0  501  0.00000000000E+00  0.00000000000E+00 -0.10542793254E+04  0.10542793254E+04  0.50400001928E-02 0.  1.
    10030    2    1    2    0    0  0.00000000000E+00  0.00000000000E+00  0.56137373928E+03  0.26699323901E+04  0.26102487415E+04 0.  0.
        3    1    3    3  502    0 -0.12503387224E+04 -0.42216598447E+02  0.66096777725E+03  0.14149231692E+04  0.10100000352E+00 0. -1.
       -3    1    3    3    0  502  0.12503387224E+04  0.42216598447E+02 -0.99594037975E+02  0.12550092209E+04  0.10100000352E+00 0.  1.
</event>
<event>
 5   0  0.1720129E-05  0.2609658E+04  0.7818609E-02  0.8364928E-01
       -2   -1    0    0    0  501  0.00000000000E+00  0.00000000000E+00  0.13006261954E+04  0.13006261954E+04  0.25500000920E-02 0. -1.
        2   -1    0    0  501    0  0.00000000000E+00  0.00000000000E+00 -0.13090456899E+04  0.13090456899E+04  0.25500000920E-02 0.  1.
    10030    2    1    2    0    0  0.00000000000E+00  0.00000000000E+00 -0.84194945237E+01  0.26096718854E+04  0.26096583036E+04 0.  0.
        3    1    3    3  502    0  0.12938265763E+04  0.15354711354E+03 -0.75028048696E+02  0.13050644213E+04  0.10100000352E+00 0.  1.
       -3    1    3    3    0  502 -0.12938265763E+04 -0.15354711354E+03  0.66608554172E+02  0.13046074640E+04  0.10100000352E+00 0. -1.
</event>
<event>
 5   0  0.6918420E-06  0.2583313E+04  0.7818609E-02  0.8373892E-01
       -1   -1    0    0    0  501  0.00000000000E+00  0.00000000000E+00  0.74785341214E+03  0.74785341215E+03  0.50400001928E-02 0.  1.
        1   -1    0    0  501    0  0.00000000000E+00  0.00000000000E+00 -0.22308869617E+04  0.22308869617E+04  0.50400001928E-02 0. -1.
    10030    2    1    2    0    0  0.00000000000E+00  0.00000000000E+00 -0.14830335495E+04  0.29787403738E+04  0.25833129322E+04 0.  0.
        4    1    3    3  502    0 -0.11899449284E+04 -0.48169070754E+03 -0.57690643280E+03  0.14074151895E+04  0.12699999809E+01 0.  1.
       -4    1    3    3    0  502  0.11899449284E+04  0.48169070754E+03 -0.90612711672E+03  0.15713251844E+04  0.12699999809E+01 0. -1.
</event>
<event>
 5   0  0.1702345E-05  0.2403540E+04  0.7818609E-02  0.8438180E-01
        2   -1    0    0  501    0  0.00000000000E+00  0.00000000000E+00  0.17289937719E+04  0.17289937719E+04  0.25500000920E-02 0.  1.
       -2   -1    0    0    0  501  0.00000000000E+00  0.00000000000E+00 -0.83531283023E+03  0.83531283024E+03  0.25500000920E-02 0. -1.
    10030    2    1    2    0    0  0.00000000000E+00  0.00000000000E+00  0.89368094171E+03  0.25643066022E+04  0.24035396241E+04 0.  0.
        1    1    3    3  502    0  0.29193423823E+03 -0.11657689629E+04  0.44982141827E+03  0.12831921846E+04  0.50400001928E-02 0. -1.
       -1    1    3    3    0  502 -0.29193423823E+03  0.11657689629E+04  0.44385952344E+03  0.12811144176E+04  0.50400001928E-02 0.  1.
</event>
<event>
 5   0  0.6706225E-06  0.2602861E+04  0.7818609E-02  0.8367230E-01
       -1   -1    0    0    0  501  0.00000000000E+00  0.00000000000E+00  0.13937367326E+04  0.13937367327E+04  0.50400001928E-02 0. -1.
        1   -1    0    0  501    0  0.00000000000E+00  0.00000000000E+00 -0.12152373664E+04  0.12152373664E+04  0.50400001928E-02 0.  1.
    10030    2    1    2    0    0  0.00000000000E+00  0.00000000000E+00  0.17849936621E+03  0.26089740991E+04  0.26028607005E+04 0.  0.
        5    1    3    3  502    0 -0.17327261345E+03 -0.11026372110E+04  0.76004991327E+03  0.13503814936E+04  0.46999998093E+01 0. -1.
       -5    1    3    3    0  502  0.17327261345E+03  0.11026372110E+04 -0.58155054706E+03  0.12585926054E+04  0.46999998093E+01 0.  1.
</event>
<event>
 5   0  0.6918420E-06  0.2634893E+04  0.7818609E-02  0.8356444E-01
       -1   -1    0    0    0  501  0.00000000000E+00  0.00000000000E+00  0.68509679796E+03  0.68509679798E+03  0.50400001928E-02 0.  1.
        1   -1    0    0  501    0  0.00000000000E+00  0.00000000000E+00 -0.25334606237E+04  0.25334606237E+04  0.50400001928E-02 0. -1.
    10030    2    1    2    0    0  0.00000000000E+00  0.00000000000E+00 -0.18483638257E+04  0.32185574217E+04  0.26348933649E+04 0.  0.
        4    1    3    3  502    0  0.22131652496E+03  0.27221462881E+03 -0.24753510940E+04  0.25000892903E+04  0.12699999809E+01 0. -1.
       -4    1    3    3    0  502 -0.22131652496E+03 -0.27221462881E+03  0.62698726822E+03  0.71846813135E+03  0.12699999809E+01 0.  1.
</event>
<event>
 5   0  0.1720129E-05  0.2424045E+04  0.7818609E-02  0.8430556E-01
       -2   -1    0    0    0  501  0.00000000000E+00  0.00000000000E+00  0.12075247154E+04  0.12075247154E+04  0.25500000920E-02 0. -1.
        2   -1    0    0  501    0  0.00000000000E+00  0.00000000000E+00 -0.12165372770E+04  0.12165372770E+04  0.25500000920E-02 0.  1.
    10030    2    1    2    0    0  0.00000000000E+00  0.00000000000E+00 -0.90125616091E+01  0.24240619924E+04  0.24240452382E+04 0.  0.
        3    1    3    3  502    0  0.30710489475E+03 -0.55196466322E+03 -0.10389313407E+04  0.12158769455E+04  0.10100000352E+00 0.  1.
       -3    1    3    3    0  502 -0.30710489475E+03  0.55196466322E+03  0.10299187791E+04  0.12081850469E+04  0.10100000352E+00 0. -1.
</event>
<event>
 5   0  0.6706225E-06  0.2615216E+04  0.7818609E-02  0.8363051E-01
       -1   -1    0    0    0  501  0.00000000000E+00  0.00000000000E+00  0.10470853753E+04  0.10470853753E+04  0.50400001928E-02 0. -1.
        1   -1    0    0  501    0  0.00000000000E+00  0.00000000000E+00 -0.16329502559E+04  0.16329502559E+04  0.50400001928E-02 0.  1.
    10030    2    1    2    0    0  0.00000000000E+00  0.00000000000E+00 -0.58586488060E+03  0.26800356312E+04  0.26152157323E+04 0.  0.
        5    1    3    3  502    0  0.43198966778E+03 -0.11581940507E+04  0.14400102250E+03  0.12445026784E+04  0.46999998093E+01 0. -1.
       -5    1    3    3    0  502 -0.43198966778E+03  0.11581940507E+04 -0.72986590310E+03  0.14355329528E+04  0.46999998093E+01 0.  1.
</event>
<event>
 5   0  0.6984287E-06  0.2396408E+04  0.7818609E-02  0.8440850E-01
       -1   -1    0    0    0  501  0.00000000000E+00  0.00000000000E+00  0.10415460092E+04  0.10415460092E+04  0.50400001928E-02 0. -1.
        1   -1    0    0  501    0  0.00000000000E+00  0.00000000000E+00 -0.13784244008E+04  0.13784244008E+04  0.50400001928E-02 0.  1.
    10030    2    1    2    0    0  0.00000000000E+00  0.00000000000E+00 -0.33687839164E+03  0.24199704100E+04  0.23964076728E+04 0.  0.
        3    1    3    3  502    0 -0.89090262914E+03 -0.70460130502E+03 -0.55366340907E+03  0.12636113621E+04  0.10100000352E+00 0.  1.
       -3    1    3    3    0  502  0.89090262914E+03  0.70460130502E+03  0.21678501743E+03  0.11563590479E+04  0.10100000352E+00 0. -1.
</event>
<event>
 5   0  0.7138294E-06  0.2499381E+04  0.7818609E-02  0.8403206E-01
        1   -1    0    0  501    0  0.00000000000E+00  0.00000000000E+00  0.14710364704E+04  0.14710364704E+04  0.50400001928E-02 0. -1.
       -1   -1    0    0    0  501  0.00000000000E+00  0.00000000000E+00 -0.10616500137E+04  0.10616500137E+04  0.50400001928E-02 0.  1.
    10030    2    1    2    0    0  0.00000000000E+00  0.00000000000E+00  0.40938645670E+03  0.25326864840E+04  0.24993806344E+04 0.  0.
        2    1    3    3  502    0  0.84668985027E+03 -0.66014844021E+03 -0.44339663046E+03  0.11615852261E+04  0.25500000920E-02 0.  1.
       -2    1    3    3    0  502 -0.84668985027E+03  0.66014844021E+03  0.85278308716E+03  0.13711012579E+04  0.25500000920E-02 0. -1.
</event>
<event>
 5   0  0.1681731E-05  0.2612664E+04  0.7818609E-02  0.8363912E-01
        2   -1    0    0  501    0  0.00000000000E+00  0.00000000000E+00  0.92459684753E+03  0.92459684753E+03  0.25500000920E-02 0.  1.
       -2   -1    0    0    0  501  0.00000000000E+00  0.00000000000E+00 -0.18456734000E+04  0.18456734000E+04  0.25500000920E-02 0. -1.
    10030    2    1    2    0    0  0.00000000000E+00  0.00000000000E+00 -0.92107655248E+03  0.27702702475E+04  0.26126643927E+04 0.  0.
        2    1    3    3  502    0 -0.72795132568E+03 -0.47590861453E+03 -0.14940693797E+04  0.17287699249E+04  0.25500000920E-02 0. -1.
       -2    1    3    3    0  502  0.72795132568E+03  0.47590861453E+03  0.57299282723E+03  0.10415003226E+04  0.25500000920E-02 0.  1.
</event>
<event>
 5   0  0.6918420E-06  0.2599428E+04  0.7818609E-02  0.8368396E-01
       -1   -1    0    0    0  501  0.00000000000E+00  0.00000000000E+00  0.89781956504E+03  0.89781956505E+03  0.50400001928E-02 0.  1.
        1   -1    0    0  501    0  0.00000000000E+00  0.00000000000E+00 -0.18815098696E+04  0.18815098696E+04  0.50400001928E-02 0. -1.
    10030    2    1    2    0    0  0.00000000000E+00  0.00000000000E+00 -0.98369030451E+03  0.27793294346E+04  0.25994279161E+04 0.  0.
        4    1    3    3  502    0 -0.88025763985E+03 -0.89578216012E+03 -0.84963160061E+03  0.15162963630E+04  0.12699999809E+01 0.  1.
       -4    1    3    3    0  502  0.88025763985E+03  0.89578216012E+03 -0.13405870390E+03  0.12630330716E+04  0.12699999809E+01 0. -1.
</event>
<event>
 5   0  0.7138294E-06  0.2620516E+04  0.7818609E-02  0.8361266E-01
        1   -1    0    0  501    0  0.00000000000E+00  0.00000000000E+00  0.10489813107E+04  0.10489813108E+04  0.50400001928E-02 0.  1.
       -1   -1    0    0    0  501  0.00000000000E+00  0.00000000000E+00 -0.16366120081E+04  0.16366120081E+04  0.50400001928E-02 0. -1.
    10030    2    1    2    0    0  0.00000000000E+00  0.00000000000E+00 -0.58763069737E+03  0.26855933189E+04  0.26205155290E+04 0.  0.
        2    1    3    3  502    0 -0.67328588672E+03  0.72728345125E+03  0.58450999303E+03  0.11506115920E+04  0.25500000920E-02 0.  1.
       -2    1    3    3    0  502  0.67328588672E+03 -0.72728345125E+03 -0.11721406904E+04  0.15349817269E+04  0.25500000920E-02 0. -1.
</event>
<event>
 5   0  0.6984287E-06  0.2585140E+04  0.7818609E-02  0.8373266E-01
        1   -1    0    0  501    0  0.00000000000E+00  0.00000000000E+00  0.13619939644E+04  0.13619939644E+04  0.50400001928E-02 0. -1.
       -1   -1    0    0    0  501  0.00000000000E+00  0.00000000000E+00 -0.12266850281E+04  0.12266850281E+04  0.50400001928E-02 0.  1.
    10030    2    1    2    0    0  0.00000000000E+00  0.00000000000E+00  0.13530893634E+03  0.25886789925E+04  0.25851403091E+04 0.  0.
        3    1    3    3  502    0  0.83383282722E+03 -0.10819789240E+03 -0.91539889315E+03  0.12429557963E+04  0.10100000352E+00 0.  1.
       -3    1    3    3    0  502 -0.83383282722E+03  0.10819789240E+03  0.10507078295E+04  0.13457231962E+04  0.10100000352E+00 0. -1.
</event>
<event>
 5   0  0.1702345E-05  0.2610183E+04  0.7818609E-02  0.8364751E-01
        2   -1    0    0  501    0  0.00000000000E+00  0.00000000000E+00  0.15056419864E+04  0.15056419864E+04  0.25500000920E-02 0. -1.
       -2   -1    0    0    0  501  0.00000000000E+00  0.00000000000E+00 -0.11312540053E+04  0.11312540053E+04  0.25500000920E-02 0.  1.
    10030    2    1    2    0    0  0.00000000000E+00  0.00000000000E+00  0.37438798112E+03  0.26368959917E+04  0.26101827734E+04 0.  0.
        1    1    3    3  502    0 -0.64006362753E+03 -0.84631264377E+03 -0.58040920232E+03  0.12094632613E+04  0.50400001928E-02 0.  1.
       -1    1    3    3    0  502  0.64006362753E+03  0.84631264377E+03  0.95479718344E+03  0.14274327304E+04  0.50400001928E-02 0. -1.
</event>
<event>
 5   0  0.1677971E-05  0.2620542E+04  0.7818609E-02  0.8361257E-01
        2   -1    0    0  501    0  0.00000000000E+00  0.00000000000E+00  0.14683573727E+04  0.14683573727E+04  0.25500000920E-02 0.  1.
       -2   -1    0    0    0  501  0.00000000000E+00  0.00000000000E+00 -0.11692044710E+04  0.11692044710E+04  0.25500000920E-02 0. -1.
    10030    2    1    2    0    0  0.00000000000E+00  0.00000000000E+00  0.29915290170E+03  0.26375618436E+04  0.26205419326E+04 0.  0.
        4    1    3    3  502    0  0.11892466525E+04 -0.16869376643E+03  0.67646778635E+03  0.13785410644E+04  0.12699999809E+01 0.  1.
       -4    1    3    3    0  502 -0.11892466525E+04  0.16869376643E+03 -0.37731488465E+03  0.12590207792E+04  0.12699999809E+01 0. -1.
</event>
<event>
 5   0  0.6993678E-06  0.2553199E+04  0.7818609E-02  0.8384274E-01
        1   -1    0    0  501    0  0.00000000000E+00  0.00000000000E+00  0.12543167550E+04  0.12543167550E+04  0.50400001928E-02 0.  1.
       -1   -1    0    0    0  501  0.00000000000E+00  0.00000000000E+00 -0.12992784096E+04  0.12992784096E+04  0.50400001928E-02 0. -1.
    10030    2    1    2    0    0  0.00000000000E+00  0.00000000000E+00 -0.44961654655E+02  0.25535951646E+04  0.25531993096E+04 0.  0.
        1    1    3    3  502    0 -0.51859614896E+03 -0.79074016161E+03 -0.88022367549E+03  0.12919000301E+04  0.50400001928E-02 0. -1.
       -1    1    3    3    0  502  0.51859614896E+03  0.79074016161E+03  0.83526202084E+03  0.12616951345E+04  0.50400001928E-02 0.  1.
</event>
<event>
 5   0  0.1702345E-05  0.2608454E+04  0.7818609E-02  0.8365335E-01
        2   -1    0    0  501    0  0.00000000000E+00  0.00000000000E+00  0.22362458988E+04  0.22362458988E+04  0.25500000920E-02 0. -1.
       -2   -1    0    0    0  501  0.00000000000E+00  0.00000000000E+00 -0.76065320271E+03  0.76065320271E+03  0.25500000920E-02 0.  1.
    10030    2    1    2    0    0  0.00000000000E+00  0.00000000000E+00  0.14755926961E+04  0.29968991015E+04  0.26084536454E+04 0.  0.
        1    1    3    3  502    0  0.24735361787E+03 -0.66494901926E+03  0.19951486070E+04  0.21175360622E+04  0.50400001928E-02 0. -1.
       -1    1    3    3    0  502 -0.24735361787E+03  0.66494901926E+03 -0.51955591088E+03  0.87936303939E+03  0.50400001928E-02 0.  1.
</event>
<event>
 5   0  0.1677971E-05  0.2594143E+04  0.7818609E-02  0.8370193E-01
       -2   -1    0    0    0  501  0.00000000000E+00  0.00000000000E+00  0.12871467900E+04  0.12871467901E+04  0.25500000920E-02 0.  1.
        2   -1    0    0  501    0  0.00000000000E+00  0.00000000000E+00 -0.13070730477E+04  0.13070730477E+04  0.25500000920E-02 0. -1.
    10030    2    1    2    0    0  0.00000000000E+00  0.00000000000E+00 -0.19926257685E+02  0.25942198378E+04  0.25941433097E+04 0.  0.
        4    1    3    3  502    0  0.32944206622E+03  0.12462644584E+04 -0.15379396743E+03  0.12982146866E+04  0.12699999809E+01 0. -1.
       -4    1    3    3    0  502 -0.32944206622E+03 -0.12462644584E+04  0.13386770975E+03  0.12960051512E+04  0.12699999809E+01 0.  1.
</event>
<event>
 5   0  0.1869956E-05  0.2610806E+04  0.7818609E-02  0.8364540E-01
       -2   -1    0    0    0  501  0.00000000000E+00  0.00000000000E+00  0.14338569150E+04  0.14338569150E+04  0.25500000920E-02 0.  1.
        2   -1    0    0  501    0  0.00000000000E+00  0.00000000000E+00 -0.11884563561E+04  0.11884563561E+04  0.25500000920E-02 0. -1.
    10030    2    1    2    0    0  0.00000000000E+00  0.00000000000E+00  0.24540055886E+03  0.26223132711E+04  0.26108055189E+04 0.  0.
        5    1    3    3  502    0 -0.57972440506E+03  0.92542959309E+03  0.84108283010E+03  0.13783841027E+04  0.46999998093E+01 0.  1.
       -5    1    3    3    0  502  0.57972440506E+03 -0.92542959309E+03 -0.59568227125E+03  0.12439291683E+04  0.46999998093E+01 0. -1.
</event>
<event>
 5   0  0.1702345E-05  0.2621753E+04  0.7818609E-02  0.8360849E-01
       -2   -1    0    0    0  501  0.00000000000E+00  0.00000000000E+00  0.16694038008E+04  0.16694038008E+04  0.25500000920E-02 0.  1.
        2   -1    0    0  501    0  0.00000000000E+00  0.00000000000E+00 -0.10293479563E+04  0.10293479563E+04  0.25500000920E-02 0. -1.
    10030    2    1    2    0    0  0.00000000000E+00  0.00000000000E+00  0.64005584458E+03  0.26987517571E+04  0.26217531467E+04 0.  0.
        1    1    3    3  502    0  0.83675861758E+03 -0.73654840527E+03  0.10300157226E+04  0.15177618148E+04  0.50400001928E-02 0.  1.
       -1    1    3    3    0  502 -0.83675861758E+03  0.73654840527E+03 -0.38995987806E+03  0.11809899423E+04  0.50400001928E-02 0. -1.
</event>
<event>
 5   0  0.1869956E-05  0.2510798E+04  0.7818609E-02  0.8399149E-01
        2   -1    0    0  501    0  0.00000000000E+00  0.00000000000E+00  0.25367776759E+04  0.25367776759E+04  0.25500000920E-02 0. -1.
       -2   -1    0    0    0  501  0.00000000000E+00  0.00000000000E+00 -0.62127103701E+03  0.62127103701E+03  0.25500000920E-02 0.  1.
    10030    2    1    2    0    0  0.00000000000E+00  0.00000000000E+00  0.19155066389E+04  0.31580487130E+04  0.25107978791E+04 0.  0.
        5    1    3    3  502    0  0.87858682310E+03 -0.47062161039E+03  0.19178039532E+04  0.21613406948E+04  0.46999998093E+01 0. -1.
       -5    1    3    3    0  502 -0.87858682310E+03  0.47062161039E+03 -0.22973142665E+01  0.99670801820E+03  0.46999998093E+01 0.  1.
</event>
<event>
 5   0  0.1702345E-05  0.2589132E+04  0.7818609E-02  0.8371902E-01
        2   -1    0    0  501    0  0.00000000000E+00  0.00000000000E+00  0.18153860729E+04  0.18153860729E+04  0.25500000920E-02 0.  1.
       -2   -1    0    0    0  501  0.00000000000E+00  0.00000000000E+00 -0.92316525599E+03  0.92316525599E+03  0.25500000920E-02 0. -1.
    10030    2    1    2    0    0  0.00000000000E+00  0.00000000000E+00  0.89222081686E+03  0.27385513288E+04  0.25891321702E+04 0.  0.
        1    1    3    3  502    0 -0.79332542515E+03 -0.16440026099E+02 -0.63579100539E+03  0.10167918702E+04  0.50400001928E-02 0. -1.
       -1    1    3    3    0  502  0.79332542515E+03  0.16440026099E+02  0.15280118222E+04  0.17217594587E+04  0.50400001928E-02 0.  1.
</event>
<event>
 5   0  0.6918420E-06  0.2886814E+04  0.7818609E-02  0.8276812E-01
       -1   -1    0    0    0  501  0.00000000000E+00  0.00000000000E+00  0.86981655158E+03  0.86981655159E+03  0.50400001928E-02 0. -1.
        1   -1    0    0  501    0  0.00000000000E+00  0.00000000000E+00 -0.23952446673E+04  0.23952446673E+04  0.50400001928E-02 0.  1.
    10030    2    1    2    0    0  0.00000000000E+00  0.00000000000E+00 -0.15254281157E+04  0.32650612189E+04  0.28868137846E+04 0.  0.
        4    1    3    3  502    0  0.13462973462E+04  0.22013784811E+03 -0.12961515279E+04  0.18817512091E+04  0.12699999809E+01 0.  1.
       -4    1    3    3    0  502 -0.13462973462E+04 -0.22013784811E+03 -0.22927658781E+03  0.13833100098E+04  0.12699999809E+01 0. -1.
</event>
<event>
 5   0  0.6984287E-06  0.2503618E+04  0.7818609E-02  0.8401698E-01
        1   -1    0    0  501    0  0.00000000000E+00  0.00000000000E+00  0.13235157950E+04  0.13235157950E+04  0.50400001928E-02 0.  1.
       -1   -1    0    0    0  501  0.00000000000E+00  0.00000000000E+00 -0.11839868150E+04  0.11839868151E+04  0.50400001928E-02 0. -1.
    10030    2    1    2    0    0  0.00000000000E+00  0.00000000000E+00  0.13952897991E+03  0.25075026100E+04  0.25036175832E+04 0.  0.
        3    1    3    3  502    0  0.26921917952E+03  0.32674903738E+03  0.12496338488E+04  0.13194046636E+04  0.10100000352E+00 0.  1.
       -3    1    3    3    0  502 -0.26921917952E+03 -0.32674903738E+03 -0.11101048689E+04  0.11880979464E+04  0.10100000352E+00 0. -1.
</event>
<event>
 5   0  0.1702345E-05  0.2586582E+04  0.7818609E-02  0.8372773E-01
        2   -1    0    0  501    0  0.00000000000E+00  0.00000000000E+00  0.26006966270E+04  0.26006966270E+04  0.25500000920E-02 0.  1.
       -2   -1    0    0    0  501  0.00000000000E+00  0.00000000000E+00 -0.64313618927E+03  0.64313618927E+03  0.25500000920E-02 0. -1.
    10030    2    1    2    0    0  0.00000000000E+00  0.00000000000E+00  0.19575604378E+04  0.32438328163E+04  0.25865823924E+04 0.  0.
        1    1    3    3  502    0  0.10644880111E+04  0.44688918047E+03  0.24778145569E+03  0.11807795371E+04  0.50400001928E-02 0. -1.
       -1    1    3    3    0  502 -0.10644880111E+04 -0.44688918047E+03  0.17097789821E+04  0.20630532792E+04  0.50400001928E-02 0.  1.
</event>
<event>
 5   0  0.7138294E-06  0.2596927E+04  0.7818609E-02  0.8369246E-01
       -1   -1    0    0    0  501  0.00000000000E+00  0.00000000000E+00  0.75831417163E+03  0.75831417165E+03  0.50400001928E-02 0. -1.
        1   -1    0    0  501    0  0.00000000000E+00  0.00000000000E+00 -0.22233632230E+04  0.22233632230E+04  0.50400001928E-02 0.  1.
    10030    2    1    2    0    0  0.00000000000E+00  0.00000000000E+00 -0.14650490514E+04  0.29816773947E+04  0.25969272926E+04 0.  0.
        2    1    3    3  502    0  0.14679820951E+03 -0.12687907336E+04 -0.10008792900E+04  0.16226949785E+04  0.25500000920E-02 0.  1.
       -2    1    3    3    0  502 -0.14679820951E+03  0.12687907336E+04 -0.46416976142E+03  0.13589824162E+04  0.25500000920E-02 0. -1.
</event>
<event>
 5   0  0.1681731E-05  0.2598703E+04  0.7818609E-02  0.8368642E-01
       -2   -1    0    0    0  501  0.00000000000E+00  0.00000000000E+00  0.65116078746E+03  0.65116078747E+03  0.25500000920E-02 0. -1.
        2   -1    0    0  501    0  0.00000000000E+00  0.00000000000E+00 -0.25927762955E+04  0.25927762955E+04  0.25500000920E-02 0.  1.
    10030    2    1    2    0    0  0.00000000000E+00  0.00000000000E+00 -0.19416155080E+04  0.32439370829E+04  0.25987029490E+04 0.  0.
        2    1    3    3  502    0 -0.12021035759E+03  0.15031447240E+02 -0.25857110410E+04  0.25885474812E+04  0.25500000920E-02 0.  1.
       -2    1    3    3    0  502  0.12021035759E+03 -0.15031447240E+02  0.64409553302E+03  0.65538960179E+03  0.25500000920E-02 0. -1.
</event>
<event>
 5   0  0.6918420E-06  0.2602391E+04  0.7818609E-02  0.8367390E-01
       -1   -1    0    0    0  501  0.00000000000E+00  0.00000000000E+00  0.85982245094E+03  0.85982245096E+03  0.50400001928E-02 0. -1.
        1   -1    0    0  501    0  0.00000000000E+00  0.00000000000E+00 -0.19691386634E+04  0.19691386634E+04  0.50400001928E-02 0.  1.
    10030    2    1    2    0    0  0.00000000000E+00  0.00000000000E+00 -0.11093162124E+04  0.28289611143E+04  0.26023909251E+04 0.  0.
        4    1    3    3  502    0 -0.72622246206E+03  0.75142034590E+03  0.28813172506E+03  0.10839986644E+04  0.12699999809E+01 0. -1.
       -4    1    3    3    0  502  0.72622246206E+03 -0.75142034590E+03 -0.13974479375E+04  0.17449624499E+04  0.12699999809E+01 0.  1.
</event>
<event>
 5   0  0.1869956E-05  0.2601288E+04  0.7818609E-02  0.8367764E-01
       -2   -1    0    0    0  501  0.00000000000E+00  0.00000000000E+00  0.10937381523E+04  0.10937381523E+04  0.25500000920E-02 0. -1.
        2   -1    0    0  501    0  0.00000000000E+00  0.00000000000E+00 -0.15466909844E+04  0.15466909844E+04  0.25500000920E-02 0.  1.
    10030    2    1    2    0    0  0.00000000000E+00  0.00000000000E+00 -0.45295283202E+03  0.26404291367E+04  0.26012880959E+04 0.  0.
        5    1    3    3  502    0  0.89769528090E+03 -0.53810357064E+03  0.55730836804E+03  0.11857600842E+04  0.46999998093E+01 0. -1.
       -5    1    3    3    0  502 -0.89769528090E+03  0.53810357064E+03 -0.10102612001E+04  0.14546690525E+04  0.46999998093E+01 0.  1.
</event>
<event>
 5   0  0.6993678E-06  0.2590713E+04  0.7818609E-02  0.8371363E-01
        1   -1    0    0  501    0  0.00000000000E+00  0.00000000000E+00  0.16272651286E+04  0.16272651286E+04  0.50400001928E-02 0.  1.
       -1   -1    0    0    0  501  0.00000000000E+00  0.00000000000E+00 -0.10311460176E+04  0.10311460176E+04  0.50400001928E-02 0. -1.
    10030    2    1    2    0    0  0.00000000000E+00  0.00000000000E+00  0.59611911094E+03  0.26584111462E+04  0.25907126101E+04 0.  0.
        1    1    3    3  502    0 -0.21330787448E+03 -0.62029626905E+03 -0.84812502016E+03  0.10721864393E+04  0.50400001928E-02 0. -1.
       -1    1    3    3    0  502  0.21330787448E+03  0.62029626905E+03  0.14442441311E+04  0.15862247070E+04  0.50400001928E-02 0.  1.
</event>
<event>
 5   0  0.1702345E-05  0.2615543E+04  0.7818609E-02  0.8362941E-01
        2   -1    0    0  501    0  0.00000000000E+00  0.00000000000E+00  0.31455666266E+04  0.31455666266E+04  0.25500000920E-02 0. -1.
       -2   -1    0    0    0  501  0.00000000000E+00  0.00000000000E+00 -0.54370704765E+03  0.54370704766E+03  0.25500000920E-02 0.  1.
    10030    2    1    2    0    0  0.00000000000E+00  0.00000000000E+00  0.26018595790E+04  0.36892736743E+04  0.26155433422E+04 0.  0.
        1    1    3    3  502    0  0.12347231386E+04  0.33188396635E+03  0.16887033751E+04  0.21181140869E+04  0.50400001928E-02 0.  1.
       -1    1    3    3    0  502 -0.12347231386E+04 -0.33188396635E+03  0.91315620391E+03  0.15711595874E+04  0.50400001928E-02 0. -1.
</event>
<event>
 5   0  0.7138294E-06  0.2605051E+04  0.7818609E-02  0.8366487E-01
        1   -1    0    0  501    0  0.00000000000E+00  0.00000000000E+00  0.12667038198E+04  0.12667038198E+04  0.50400001928E-02 0. -1.
       -1   -1    0    0    0  501  0.00000000000E+00  0.00000000000E+00 -0.13393607070E+04  0.13393607070E+04  0.50400001928E-02 0.  1.
    10030    2    1    2    0    0  0.00000000000E+00  0.00000000000E+00 -0.72656887181E+02  0.26060645268E+04  0.26050514956E+04 0.  0.
        2    1    3    3  502    0  0.51641382148E+03  0.49339949690E+03 -0.11259935097E+04  0.13334120453E+04  0.25500000920E-02 0.  1.
       -2    1    3    3    0  502 -0.51641382148E+03 -0.49339949690E+03  0.10533366225E+04  0.12726524816E+04  0.25500000920E-02 0. -1.
</event>
<event>
 5   0  0.7138294E-06  0.2631328E+04  0.7818609E-02  0.8357637E-01
       -1   -1    0    0    0  501  0.00000000000E+00  0.00000000000E+00  0.59172274732E+03  0.59172274734E+03  0.50400001928E-02 0. -1.
        1   -1    0    0  501    0  0.00000000000E+00  0.00000000000E+00 -0.29253092685E+04  0.29253092685E+04  0.50400001928E-02 0.  1.
    10030    2    1    2    0    0  0.00000000000E+00  0.00000000000E+00 -0.23335865212E+04  0.35170320158E+04  0.26313282100E+04 0.  0.
        2    1    3    3  502    0 -0.48984639963E+03 -0.10895555407E+04 -0.19036115696E+04  0.22474024515E+04  0.25500000920E-02 0.  1.
       -2    1    3    3    0  502  0.48984639963E+03  0.10895555407E+04 -0.42997495159E+03  0.12696295643E+04  0.25500000920E-02 0. -1.
</event>
<event>
 5   0  0.6706225E-06  0.2590277E+04  0.7818609E-02  0.8371511E-01
       -1   -1    0    0    0  501  0.00000000000E+00  0.00000000000E+00  0.13627183679E+04  0.13627183679E+04  0.50400001928E-02 0. -1.
        1   -1    0    0  501    0  0.00000000000E+00  0.00000000000E+00 -0.12309104332E+04  0.12309104332E+04  0.50400001928E-02 0.  1.
    10030    2    1    2    0    0  0.00000000000E+00  0.00000000000E+00  0.13180793467E+03  0.25936288011E+04  0.25902774033E+04 0.  0.
        5    1    3    3  502    0 -0.97378674780E+03  0.45401339531E+03  0.79000861012E+03  0.13336133200E+04  0.46999998093E+01 0. -1.
       -5    1    3    3    0  502  0.97378674780E+03 -0.45401339531E+03 -0.65820067545E+03  0.12600154810E+04  0.46999998093E+01 0.  1.
</event>
<event>
 5   0  0.6706225E-06  0.2593597E+04  0.7818609E-02  0.8370379E-01
        1   -1    0    0  501    0  0.00000000000E+00  0.00000000000E+00  0.11296078568E+04  0.11296078568E+04  0.50400001928E-02 0. -1.
       -1   -1    0    0    0  501  0.00000000000E+00  0.00000000000E+00 -0.14887348809E+04  0.14887348809E+04  0.50400001928E-02 0.  1.
    10030    2    1    2    0    0  0.00000000000E+00  0.00000000000E+00 -0.35912702414E+03  0.26183427377E+04  0.25935972071E+04 0.  0.
        5    1    3    3  502    0 -0.42896167719E+03  0.11816938830E+04  0.14167994682E+03  0.12651102130E+04  0.46999998093E+01 0. -1.
       -5    1    3    3    0  502  0.42896167719E+03 -0.11816938830E+04 -0.50080697097E+03  0.13532325247E+04  0.46999998093E+01 0.  1.
</event>
<event>
 5   0  0.6918420E-06  0.2608876E+04  0.7818609E-02  0.8365192E-01
        1   -1    0    0  501    0  0.00000000000E+00  0.00000000000E+00  0.22153603067E+04  0.22153603067E+04  0.50400001928E-02 0. -1.
       -1   -1    0    0    0  501  0.00000000000E+00  0.00000000000E+00 -0.76807306697E+03  0.76807306699E+03  0.50400001928E-02 0.  1.
    10030    2    1    2    0    0  0.00000000000E+00  0.00000000000E+00  0.14472872397E+04  0.29834333737E+04  0.26088760685E+04 0.  0.
        4    1    3    3  502    0  0.64930492688E+03 -0.11226493242E+04  0.88381933450E+03  0.15694191990E+04  0.12699999809E+01 0.  1.
       -4    1    3    3    0  502 -0.64930492688E+03  0.11226493242E+04  0.56346790522E+03  0.14140141747E+04  0.12699999809E+01 0. -1.
</event>
<event>
 5   0  0.1677971E-05  0.2616508E+04  0.7818609E-02  0.8362615E-01
       -2   -1    0    0    0  501  0.00000000000E+00  0.00000000000E+00  0.11551764109E+04  0.11551764109E+04  0.25500000920E-02 0. -1.
        2   -1    0    0  501    0  0.00000000000E+00  0.00000000000E+00 -0.14816164721E+04  0.14816164721E+04  0.25500000920E-02 0.  1.
    10030    2    1    2    0    0  0.00000000000E+00  0.00000000000E+00 -0.32644006119E+03  0.26367928830E+04  0.26165079007E+04 0.  0.
        4    1    3    3  502    0 -0.11822787211E+04 -0.16242305606E+03 -0.70343804339E+03  0.13852764768E+04  0.12699999809E+01 0.  1.
       -4    1    3    3    0  502  0.11822787211E+04  0.16242305606E+03  0.37699798221E+03  0.12515164062E+04  0.12699999809E+01 0. -1.
</event>
<event>
 5   0  0.1702345E-05  0.2558806E+04  0.7818609E-02  0.8382330E-01
       -2   -1    0    0    0  501  0.00000000000E+00  0.00000000000E+00  0.12966082702E+04  0.12966082702E+04  0.25500000920E-02 0. -1.
        2   -1    0    0  501    0  0.00000000000E+00  0.00000000000E+00 -0.12624263086E+04  0.12624263086E+04  0.25500000920E-02 0.  1.
    10030    2    1    2    0    0  0.00000000000E+00  0.00000000000E+00  0.34181961593E+02  0.25590345787E+04  0.25588062781E+04 0.  0.
        1    1    3    3  502    0  0.12308653302E+04 -0.15107070872E+03  0.33179440025E+03  0.12837208981E+04  0.50400001928E-02 0. -1.
       -1    1    3    3    0  502 -0.12308653302E+04  0.15107070872E+03 -0.29761243866E+03  0.12753136806E+04  0.50400001928E-02 0.  1.
</event>
<event>
 5   0  0.1869956E-05  0.2636588E+04  0.7818609E-02  0.8355878E-01
       -2   -1    0    0    0  501  0.00000000000E+00  0.00000000000E+00  0.70965703125E+03  0.70965703126E+03  0.25500000920E-02 0.  1.
        2   -1    0    0  501    0  0.00000000000E+00  0.00000000000E+00 -0.24489274846E+04  0.24489274846E+04  0.25500000920E-02 0. -1.
    10030    2    1    2    0    0  0.00000000000E+00  0.00000000000E+00 -0.17392704533E+04  0.31585845159E+04  0.26365876496E+04 0.  0.
        5    1    3    3  502    0  0.66281089498E+03 -0.86253890539E+03 -0.17617778692E+04  0.20705494431E+04  0.46999998093E+01 0. -1.
       -5    1    3    3    0  502 -0.66281089498E+03  0.86253890539E+03  0.22507415858E+02  0.10880350728E+04  0.46999998093E+01 0.  1.
</event>
<event>
 5   0  0.1681731E-05  0.2612259E+04  0.7818609E-02  0.8364049E-01
        2   -1    0    0  501    0  0.00000000000E+00  0.00000000000E+00  0.18985972418E+04  0.18985972418E+04  0.25500000920E-02 0. -1.
       -2   -1    0    0    0  501  0.00000000000E+00  0.00000000000E+00 -0.89854444768E+03  0.89854444769E+03  0.25500000920E-02 0.  1.
    10030    2    1    2    0    0  0.00000000000E+00  0.00000000000E+00  0.10000527941E+04  0.27971416895E+04  0.26122588004E+04 0.  0.
        2    1    3    3  502    0 -0.49869882106E+03 -0.11526805991E+04  0.11603603514E+03  0.12612840438E+04  0.25500000920E-02 0.  1.
       -2    1    3    3    0  502  0.49869882106E+03  0.11526805991E+04  0.88401675900E+03  0.15358576457E+04  0.25500000920E-02 0. -1.
</event>
<event>
 5   0  0.7138294E-06  0.2599997E+04  0.7818609E-02  0.8368202E-01
        1   -1    0    0  501    0  0.00000000000E+00  0.00000000000E+00  0.19166313493E+04  0.19166313493E+04  0.50400001928E-02 0. -1.
       -1   -1    0    0    0  501  0.00000000000E+00  0.00000000000E+00 -0.88175328914E+03  0.88175328915E+03  0.50400001928E-02 0.  1.
    10030    2    1    2    0    0  0.00000000000E+00  0.00000000000E+00  0.10348780602E+04  0.27983846385E+04  0.25999969203E+04 0.  0.
        2    1    3    3  502    0 -0.10084686783E+04 -0.33572518633E+03 -0.28819054015E+03  0.11012603068E+04  0.25500000920E-02 0.  1.
       -2    1    3    3    0  502  0.10084686783E+04  0.33572518633E+03  0.13230686004E+04  0.16971243317E+04  0.25500000920E-02 0. -1.
</event>
<event>
 5   0  0.6993678E-06  0.2529053E+04  0.7818609E-02  0.8392708E-01
        1   -1    0    0  501    0  0.00000000000E+00  0.00000000000E+00  0.95929696093E+03  0.95929696094E+03  0.50400001928E-02 0. -1.
       -1   -1    0    0    0  501  0.00000000000E+00  0.00000000000E+00 -0.16668741467E+04  0.16668741467E+04  0.50400001928E-02 0.  1.
    10030    2    1    2    0    0  0.00000000000E+00  0.00000000000E+00 -0.70757718576E+03  0.26261711076E+04  0.25290530269E+04 0.  0.
        1    1    3    3  502    0 -0.36285435183E+03 -0.23610436682E+03 -0.15875290116E+04  0.16454959481E+04  0.50400001928E-02 0.  1.
       -1    1    3    3    0  502  0.36285435183E+03  0.23610436682E+03  0.87995182582E+03  0.98067515950E+03  0.50400001928E-02 0. -1.
</event>
<event>
 5   0  0.1869956E-05  0.2600961E+04  0.7818609E-02  0.8367875E-01
        2   -1    0    0  501    0  0.00000000000E+00  0.00000000000E+00  0.14041742641E+04  0.14041742641E+04  0.25500000920E-02 0. -1.
       -2   -1    0    0    0  501  0.00000000000E+00  0.00000000000E+00 -0.12044439230E+04  0.12044439230E+04  0.25500000920E-02 0.  1.
    10030    2    1    2    0    0  0.00000000000E+00  0.00000000000E+00  0.19973034113E+03  0.26086181870E+04  0.26009607142E+04 0.  0.
        5    1    3    3  502    0 -0.50190621404E+03 -0.11667097968E+04  0.38016152840E+03  0.13257701442E+04  0.46999998093E+01 0. -1.
       -5    1    3    3    0  502  0.50190621404E+03  0.11667097968E+04 -0.18043118728E+03  0.12828480428E+04  0.46999998093E+01 0.  1.
</event>
<event>
 5   0  0.1702345E-05  0.2623824E+04  0.7818609E-02  0.8360153E-01
       -2   -1    0    0    0  501  0.00000000000E+00  0.00000000000E+00  0.85033448178E+03  0.85033448179E+03  0.25500000920E-02 0.  1.
        2   -1    0    0  501    0  0.00000000000E+00  0.00000000000E+00 -0.20240428964E+04  0.20240428964E+04  0.25500000920E-02 0. -1.
    10030    2    1    2    0    0  0.00000000000E+00  0.00000000000E+00 -0.11737084146E+04  0.28743773782E+04  0.26238242833E+04 0.  0.
        1    1    3    3  502    0  0.26341992531E+03 -0.77261556502E+03 -0.17119558340E+04  0.18966068770E+04  0.50400001928E-02 0. -1.
       -1    1    3    3    0  502 -0.26341992531E+03  0.77261556502E+03  0.53824741941E+03  0.97777050114E+03  0.50400001928E-02 0.  1.
</event>
<event>
 5   0  0.6706225E-06  0.2642113E+04  0.7818609E-02  0.8354035E-01
       -1   -1    0    0    0  501  0.00000000000E+00  0.00000000000E+00  0.84024420059E+03  0.84024420060E+03  0.50400001928E-02 0.  1.
        1   -1    0    0  501    0  0.00000000000E+00  0.00000000000E+00 -0.20770044241E+04  0.20770044241E+04  0.50400001928E-02 0. -1.
    10030    2    1    2    0    0  0.00000000000E+00  0.00000000000E+00 -0.12367602235E+04  0.29172486247E+04  0.26421134888E+04 0.  0.
        5    1    3    3  502    0  0.21325442404E+03 -0.55147420029E+03  0.68597971033E+03  0.90564424359E+03  0.46999998093E+01 0.  1.
       -5    1    3    3    0  502 -0.21325442404E+03  0.55147420029E+03 -0.19227399338E+04  0.20116043811E+04  0.46999998093E+01 0. -1.
</event>
<event>
 5   0  0.6984287E-06  0.2582951E+04  0.7818609E-02  0.8374015E-01
       -1   -1    0    0    0  501  0.00000000000E+00  0.00000000000E+00  0.17565521719E+04  0.17565521719E+04  0.50400001928E-02 0. -1.
        1   -1    0    0  501    0  0.00000000000E+00  0.00000000000E+00 -0.94953589305E+03  0.94953589307E+03  0.50400001928E-02 0.  1.
    10030    2    1    2    0    0  0.00000000000E+00  0.00000000000E+00  0.80701627884E+03  0.27060880650E+04  0.25829512851E+04 0.  0.
        3    1    3    3  502    0 -0.33267032310E+03  0.10591349956E+04  0.10948713224E+04  0.15592240717E+04  0.10100000352E+00 0.  1.
       -3    1    3    3    0  502  0.33267032310E+03 -0.10591349956E+04 -0.28785504359E+03  0.11468639933E+04  0.10100000352E+00 0. -1.
</event>
<event>
 5   0  0.1869956E-05  0.2668388E+04  0.7818609E-02  0.8345336E-01
       -2   -1    0    0    0  501  0.00000000000E+00  0.00000000000E+00  0.10523346894E+04  0.10523346894E+04  0.25500000920E-02 0.  1.
        2   -1    0    0  501    0  0.00000000000E+00  0.00000000000E+00 -0.16915466188E+04  0.16915466188E+04  0.25500000920E-02 0. -1.
    10030    2    1    2    0    0  0.00000000000E+00  0.00000000000E+00 -0.63921192942E+03  0.27438813082E+04  0.26683876672E+04 0.  0.
        5    1    3    3  502    0  0.11507334477E+04  0.10022732694E+03 -0.10061924492E+04  0.15318871759E+04  0.46999998093E+01 0. -1.
       -5    1    3    3    0  502 -0.11507334477E+04 -0.10022732694E+03  0.36698051983E+03  0.12119941323E+04  0.46999998093E+01 0.  1.
</event>
<event>
 5   0  0.6984287E-06  0.2571175E+04  0.7818609E-02  0.8378059E-01
        1   -1    0    0  501    0  0.00000000000E+00  0.00000000000E+00  0.17502783138E+04  0.17502783138E+04  0.50400001928E-02 0. -1.
       -1   -1    0    0    0  501  0.00000000000E+00  0.00000000000E+00 -0.94426960945E+03  0.94426960947E+03  0.50400001928E-02 0.  1.
    10030    2    1    2    0    0  0.00000000000E+00  0.00000000000E+00  0.80600870437E+03  0.26945479233E+04  0.25711745330E+04 0.  0.
        3    1    3    3  502    0 -0.21235478032E+03 -0.21852143773E+03 -0.90587954205E+03  0.95575306768E+03  0.10100000352E+00 0.  1.
       -3    1    3    3    0  502  0.21235478032E+03  0.21852143773E+03  0.17118882464E+04  0.17387948556E+04  0.10100000352E+00 0. -1.
</event>
<event>
 5   0  0.1720129E-05  0.2602963E+04  0.7818609E-02  0.8367196E-01
       -2   -1    0    0    0  501  0.00000000000E+00  0.00000000000E+00  0.74996612555E+03  0.74996612555E+03  0.25500000920E-02 0.  1.
        2   -1    0    0  501    0  0.00000000000E+00  0.00000000000E+00 -0.22585734199E+04  0.22585734199E+04  0.25500000920E-02 0. -1.
    10030    2    1    2    0    0  0.00000000000E+00  0.00000000000E+00 -0.15086072943E+04  0.30085395454E+04  0.26029625867E+04 0.  0.
        3    1    3    3  502    0  0.23195869496E+03  0.83277511362E+03  0.37018734654E+03  0.94040305602E+03  0.10100000352E+00 0.  1.
       -3    1    3    3    0  502 -0.23195869496E+03 -0.83277511362E+03 -0.18787946409E+04  0.20681364894E+04  0.10100000352E+00 0. -1.
</event>
<event>
 5   0  0.7138294E-06  0.2605580E+04  0.7818609E-02  0.8366308E-01
       -1   -1    0    0    0  501  0.00000000000E+00  0.00000000000E+00  0.13453731851E+04  0.13453731851E+04  0.50400001928E-02 0. -1.
        1   -1    0    0  501    0  0.00000000000E+00  0.00000000000E+00 -0.12615544957E+04  0.12615544957E+04  0.50400001928E-02 0.  1.
    10030    2    1    2    0    0  0.00000000000E+00  0.00000000000E+00  0.83818689426E+02  0.26069276808E+04  0.26055798511E+04 0.  0.
        2    1    3    3  502    0  0.35883393353E+03 -0.97316814690E+03  0.83063404344E+03  0.13288231440E+04  0.25500000920E-02 0.  1.
       -2    1    3    3    0  502 -0.35883393353E+03  0.97316814690E+03 -0.74681535401E+03  0.12781045368E+04  0.25500000920E-02 0. -1.
</event>
<event>
 5   0  0.1702345E-05  0.2465892E+04  0.7818609E-02  0.8415238E-01
        2   -1    0    0  501    0  0.00000000000E+00  0.00000000000E+00  0.16103816696E+04  0.16103816696E+04  0.25500000920E-02 0.  1.
       -2   -1    0    0    0  501  0.00000000000E+00  0.00000000000E+00 -0.94397226551E+03  0.94397226551E+03  0.25500000920E-02 0. -1.
    10030    2    1    2    0    0  0.00000000000E+00  0.00000000000E+00  0.66640940414E+03  0.25543539352E+04  0.24658918330E+04 0.  0.
        1    1    3    3  502    0 -0.14622760070E+02 -0.74743885222E+03  0.13488248790E+04  0.15421437083E+04  0.50400001928E-02 0.  1.
       -1    1    3    3    0  502  0.14622760070E+02  0.74743885222E+03 -0.68241547487E+03  0.10122102268E+04  0.50400001928E-02 0. -1.
</event>
<event>
 5   0  0.7138294E-06  0.2577788E+04  0.7818609E-02  0.8375785E-01
        1   -1    0    0  501    0  0.00000000000E+00  0.00000000000E+00  0.98394987876E+03  0.98394987877E+03  0.50400001928E-02 0.  1.
       -1   -1    0    0    0  501  0.00000000000E+00  0.00000000000E+00 -0.16883460225E+04  0.16883460225E+04  0.50400001928E-02 0. -1.
    10030    2    1    2    0    0  0.00000000000E+00  0.00000000000E+00 -0.70439614372E+03  0.26722959013E+04  0.25777880938E+04 0.  0.
        2    1    3    3  502    0  0.18478491684E+03 -0.53470037575E+03  0.84836164079E+03  0.10196898700E+04  0.25500000920E-02 0.  1.
       -2    1    3    3    0  502 -0.18478491684E+03  0.53470037575E+03 -0.15527577845E+04  0.16526060313E+04  0.25500000920E-02 0. -1.
</event>
<event>
 5   0  0.1677971E-05  0.2579137E+04  0.7818609E-02  0.8375323E-01
        2   -1    0    0  501    0  0.00000000000E+00  0.00000000000E+00  0.13709832086E+04  0.13709832086E+04  0.25500000920E-02 0.  1.
       -2   -1    0    0    0  501  0.00000000000E+00  0.00000000000E+00 -0.12129886425E+04  0.12129886425E+04  0.25500000920E-02 0. -1.
    10030    2    1    2    0    0  0.00000000000E+00  0.00000000000E+00  0.15799456614E+03  0.25839718512E+04  0.25791371124E+04 0.  0.
        4    1    3    3  502    0 -0.12179517671E+04  0.15304651360E+03  0.47490345891E+03  0.13161932421E+04  0.12699999809E+01 0.  1.
       -4    1    3    3    0  502  0.12179517671E+04 -0.15304651360E+03 -0.31690889278E+03  0.12677786091E+04  0.12699999809E+01 0. -1.
</event>
<event>
 5   0  0.6918420E-06  0.2605372E+04  0.7818609E-02  0.8366379E-01
       -1   -1    0    0    0  501  0.00000000000E+00  0.00000000000E+00  0.98192648197E+03  0.98192648199E+03  0.50400001928E-02 0.  1.
        1   -1    0    0  501    0  0.00000000000E+00  0.00000000000E+00 -0.17282261022E+04  0.17282261022E+04  0.50400001928E-02 0. -1.
    10030    2    1    2    0    0  0.00000000000E+00  0.00000000000E+00 -0.74629962019E+03  0.27101525842E+04  0.26053721243E+04 0.  0.
        4    1    3    3  502    0  0.27102912835E+03  0.54047096390E+03 -0.15734285793E+04  0.16855992282E+04  0.12699999809E+01 0. -1.
       -4    1    3    3    0  502 -0.27102912835E+03 -0.54047096390E+03  0.82712895910E+03  0.10245533559E+04  0.12699999809E+01 0.  1.
</event>
<event>
 5   0  0.7138294E-06  0.2622725E+04  0.7818609E-02  0.8360523E-01
        1   -1    0    0  501    0  0.00000000000E+00  0.00000000000E+00  0.25931600086E+04  0.25931600086E+04  0.50400001928E-02 0. -1.
       -1   -1    0    0    0  501  0.00000000000E+00  0.00000000000E+00 -0.66315661429E+03  0.66315661431E+03  0.50400001928E-02 0.  1.
    10030    2    1    2    0    0  0.00000000000E+00  0.00000000000E+00  0.19300033943E+04  0.32563166230E+04  0.26227246990E+04 0.  0.
        2    1    3    3  502    0 -0.10822388061E+04  0.46583887628E+03  0.25023182617E+03  0.12045176042E+04  0.25500000920E-02 0.  1.
       -2    1    3    3    0  502  0.10822388061E+04 -0.46583887628E+03  0.16797715682E+04  0.20517990187E+04  0.25500000920E-02 0. -1.
</event>
<event>
 5   0  0.6706225E-06  0.2610535E+04  0.7818609E-02  0.8364631E-01
        1   -1    0    0  501    0  0.00000000000E+00  0.00000000000E+00  0.20362028783E+04  0.20362028784E+04  0.50400001928E-02 0.  1.
       -1   -1    0    0    0  501  0.00000000000E+00  0.00000000000E+00 -0.83671614086E+03  0.83671614088E+03  0.50400001928E-02 0. -1.
    10030    2    1    2    0    0  0.00000000000E+00  0.00000000000E+00  0.11994867375E+04  0.28729190192E+04  0.26105354351E+04 0.  0.
        5    1    3    3  502    0  0.37205103767E+03 -0.67752676952E+03  0.17572351774E+04  0.19197296832E+04  0.46999998093E+01 0.  1.
       -5    1    3    3    0  502 -0.37205103767E+03  0.67752676952E+03 -0.55774843990E+03  0.95318933600E+03  0.46999998093E+01 0. -1.
</event>
<event>
 5   0  0.7138294E-06  0.2576666E+04  0.7818609E-02  0.8376171E-01
        1   -1    0    0  501    0  0.00000000000E+00  0.00000000000E+00  0.95482801372E+03  0.95482801373E+03  0.50400001928E-02 0. -1.
       -1   -1    0    0    0  501  0.00000000000E+00  0.00000000000E+00 -0.17383260015E+04  0.17383260015E+04  0.50400001928E-02 0.  1.
    10030    2    1    2    0    0  0.00000000000E+00  0.00000000000E+00 -0.78349798773E+03  0.26931540152E+04  0.25766663449E+04 0.  0.
        2    1    3    3  502    0  0.42745702293E+03 -0.94174194725E+03  0.41123046094E+03  0.11129725485E+04  0.25500000920E-02 0. -1.
       -2    1    3    3    0  502 -0.42745702293E+03  0.94174194725E+03 -0.11947284487E+04  0.15801814667E+04  0.25500000920E-02 0.  1.
</event>
<event>
 5   0  0.6984287E-06  0.2652152E+04  0.7818609E-02  0.8350699E-01
       -1   -1    0    0    0  501  0.00000000000E+00  0.00000000000E+00  0.12275445131E+04  0.12275445131E+04  0.50400001928E-02 0. -1.
        1   -1    0    0  501    0  0.00000000000E+00  0.00000000000E+00 -0.14325163898E+04  0.14325163898E+04  0.50400001928E-02 0.  1.
    10030    2    1    2    0    0  0.00000000000E+00  0.00000000000E+00 -0.20497187664E+03  0.26600609029E+04  0.26521520577E+04 0.  0.
        3    1    3    3  502    0 -0.11804697754E+04  0.51670286191E+03  0.21147609861E+03  0.13058380024E+04  0.10100000352E+00 0. -1.
       -3    1    3    3    0  502  0.11804697754E+04 -0.51670286191E+03 -0.41644797524E+03  0.13542229005E+04  0.10100000352E+00 0.  1.
</event>
<event>
 5   0  0.6706225E-06  0.2577202E+04  0.7818609E-02  0.8375987E-01
       -1   -1    0    0    0  501  0.00000000000E+00  0.00000000000E+00  0.10379252660E+04  0.10379252660E+04  0.50400001928E-02 0. -1.
        1   -1    0    0  501    0  0.00000000000E+00  0.00000000000E+00 -0.15998184906E+04  0.15998184906E+04  0.50400001928E-02 0.  1.
    10030    2    1    2    0    0  0.00000000000E+00  0.00000000000E+00 -0.56189322459E+03  0.26377437566E+04  0.25772016083E+04 0.  0.
        5    1    3    3  502    0 -0.89946834908E+03  0.50147971842E+03 -0.10737031442E+04  0.14877451902E+04  0.46999998093E+01 0.  1.
       -5    1    3    3    0  502  0.89946834908E+03 -0.50147971842E+03  0.51180991966E+03  0.11499985665E+04  0.46999998093E+01 0. -1.
</event>
<event>
 5   0  0.6706225E-06  0.2582985E+04  0.7818609E-02  0.8374004E-01
        1   -1    0    0  501    0  0.00000000000E+00  0.00000000000E+00  0.18006610869E+04  0.18006610869E+04  0.50400001928E-02 0.  1.
       -1   -1    0    0    0  501  0.00000000000E+00  0.00000000000E+00 -0.92629998725E+03  0.92629998727E+03  0.50400001928E-02 0. -1.
    10030    2    1    2    0    0  0.00000000000E+00  0.00000000000E+00  0.87436109968E+03  0.27269610742E+04  0.25829845852E+04 0.  0.
        5    1    3    3  502    0 -0.29694015772E+03 -0.22096798308E+03 -0.86909495559E+03  0.94464196320E+03  0.46999998093E+01 0. -1.
       -5    1    3    3    0  502  0.29694015772E+03  0.22096798308E+03  0.17434560553E+04  0.17823191110E+04  0.46999998093E+01 0.  1.
</event>
<event>
 5   0  0.6706225E-06  0.2597522E+04  0.7818609E-02  0.8369043E-01
        1   -1    0    0  501    0  0.00000000000E+00  0.00000000000E+00  0.14171150757E+04  0.14171150757E+04  0.50400001928E-02 0. -1.
       -1   -1    0    0    0  501  0.00000000000E+00  0.00000000000E+00 -0.11902917321E+04  0.11902917321E+04  0.50400001928E-02 0.  1.
    10030    2    1    2    0    0  0.00000000000E+00  0.00000000000E+00  0.22682334359E+03  0.26074068077E+04  0.25975221716E+04 0.  0.
        5    1    3    3  502    0  0.45270538210E+03 -0.87999623893E+03  0.95769659728E+03  0.13771493768E+04  0.46999998093E+01 0. -1.
       -5    1    3    3    0  502 -0.45270538210E+03  0.87999623893E+03 -0.73087325369E+03  0.12302574310E+04  0.46999998093E+01 0.  1.
</event>
<event>
 5   0  0.1677971E-05  0.2621379E+04  0.7818609E-02  0.8360975E-01
        2   -1    0    0  501    0  0.00000000000E+00  0.00000000000E+00  0.18989175047E+04  0.18989175047E+04  0.25500000920E-02 0.  1.
       -2   -1    0    0    0  501  0.00000000000E+00  0.00000000000E+00 -0.90467714496E+03  0.90467714497E+03  0.25500000920E-02 0. -1.
    10030    2    1    2    0    0  0.00000000000E+00  0.00000000000E+00  0.99424035976E+03  0.28035946497E+04  0.26213792299E+04 0.  0.
        4    1    3    3  502    0 -0.60290447052E+03 -0.10077098327E+04 -0.12552715536E+03  0.11809875474E+04  0.12699999809E+01 0.  1.
       -4    1    3    3    0  502  0.60290447052E+03  0.10077098327E+04  0.11197675151E+04  0.16226071023E+04  0.12699999809E+01 0. -1.
</event>
<event>
 5   0  0.6918420E-06  0.2596084E+04  0.7818609E-02  0.8369533E-01
       -1   -1    0    0    0  501  0.00000000000E+00  0.00000000000E+00  0.90364468148E+03  0.90364468149E+03  0.50400001928E-02 0. -1.
        1   -1    0    0  501    0  0.00000000000E+00  0.00000000000E+00 -0.18645741072E+04  0.18645741072E+04  0.50400001928E-02 0.  1.
    10030    2    1    2    0    0  0.00000000000E+00  0.00000000000E+00 -0.96092942575E+03  0.27682187887E+04  0.25960835697E+04 0.  0.
        4    1    3    3  502    0 -0.85606615889E+02  0.54570044324E+03 -0.17329965521E+04  0.18188997028E+04  0.12699999809E+01 0.  1.
       -4    1    3    3    0  502  0.85606615889E+02 -0.54570044324E+03  0.77206712633E+03  0.94931908592E+03  0.12699999809E+01 0. -1.
</event>
<event>
 5   0  0.1720129E-05  0.2606178E+04  0.7818609E-02  0.8366106E-01
       -2   -1    0    0    0  501  0.00000000000E+00  0.00000000000E+00  0.90303370427E+03  0.90303370427E+03  0.25500000920E-02 0. -1.
        2   -1    0    0  501    0  0.00000000000E+00  0.00000000000E+00 -0.18803733736E+04  0.18803733736E+04  0.25500000920E-02 0.  1.
    10030    2    1    2    0    0  0.00000000000E+00  0.00000000000E+00 -0.97733966931E+03  0.27834070779E+04  0.26061776862E+04 0.  0.
        3    1    3    3  502    0  0.30501177375E+02 -0.11965676002E+04  0.61467274093E+02  0.11985335121E+04  0.10100000352E+00 0. -1.
       -3    1    3    3    0  502 -0.30501177375E+02  0.11965676002E+04 -0.10388069434E+04  0.15848735658E+04  0.10100000352E+00 0.  1.
</event>
<event>
 5   0  0.1702345E-05  0.2645262E+04  0.7818609E-02  0.8352987E-01
        2   -1    0    0  501    0  0.00000000000E+00  0.00000000000E+00  0.15019717425E+04  0.15019717425E+04  0.25500000920E-02 0.  1.
       -2   -1    0    0    0  501  0.00000000000E+00  0.00000000000E+00 -0.11647038281E+04  0.11647038281E+04  0.25500000920E-02 0. -1.
    10030    2    1    2    0    0  0.00000000000E+00  0.00000000000E+00  0.33726791443E+03  0.26666755706E+04  0.26452616038E+04 0.  0.
        1    1    3    3  502    0 -0.43817606662E+02 -0.89479513676E+03  0.11495338725E+04  0.14573971468E+04  0.50400001928E-02 0.  1.
       -1    1    3    3    0  502  0.43817606662E+02  0.89479513676E+03 -0.81226595810E+03  0.12092784237E+04  0.50400001928E-02 0. -1.
</event>
<event>
 5   0  0.6918420E-06  0.2574558E+04  0.7818609E-02  0.8376895E-01
        1   -1    0    0  501    0  0.00000000000E+00  0.00000000000E+00  0.94568320726E+03  0.94568320727E+03  0.50400001928E-02 0. -1.
       -1   -1    0    0    0  501  0.00000000000E+00  0.00000000000E+00 -0.17522647296E+04  0.17522647296E+04  0.50400001928E-02 0.  1.
    10030    2    1    2    0    0  0.00000000000E+00  0.00000000000E+00 -0.80658152235E+03  0.26979479369E+04  0.25745580821E+04 0.  0.
        4    1    3    3  502    0  0.12636769895E+04 -0.16480800928E+03 -0.21279712020E+03  0.12920237772E+04  0.12699999809E+01 0.  1.
       -4    1    3    3    0  502 -0.12636769895E+04  0.16480800928E+03 -0.59378440216E+03  0.14059241597E+04  0.12699999809E+01 0. -1.
</event>
<event>
 5   0  0.1702345E-05  0.2607015E+04  0.7818609E-02  0.8365822E-01
        2   -1    0    0  501    0  0.00000000000E+00  0.00000000000E+00  0.70378454855E+03  0.70378454855E+03  0.25500000920E-02 0.  1.
       -2   -1    0    0    0  501  0.00000000000E+00  0.00000000000E+00 -0.24142780519E+04  0.24142780519E+04  0.25500000920E-02 0. -1.
    10030    2    1    2    0    0  0.00000000000E+00  0.00000000000E+00 -0.17104935034E+04  0.31180626005E+04  0.26070148360E+04 0.  0.
        1    1    3    3  502    0 -0.10885755576E+04  0.71585821521E+03 -0.80619706570E+03  0.15321238324E+04  0.50400001928E-02 0. -1.
       -1    1    3    3    0  502  0.10885755576E+04 -0.71585821521E+03 -0.90429643766E+03  0.15859387681E+04  0.50400001928E-02 0.  1.
</event>
<event>
 5   0  0.1702345E-05  0.2613677E+04  0.7818609E-02  0.8363570E-01
        2   -1    0    0  501    0  0.00000000000E+00  0.00000000000E+00  0.23193438944E+04  0.23193438944E+04  0.25500000920E-02 0. -1.
       -2   -1    0    0    0  501  0.00000000000E+00  0.00000000000E+00 -0.73634038160E+03  0.73634038161E+03  0.25500000920E-02 0.  1.
    10030    2    1    2    0    0  0.00000000000E+00  0.00000000000E+00  0.15830035128E+04  0.30556842760E+04  0.26136767729E+04 0.  0.
        1    1    3    3  502    0  0.26843279522E+03 -0.11555603165E+04  0.14323323733E+04  0.18598257548E+04  0.50400001928E-02 0. -1.
       -1    1    3    3    0  502 -0.26843279522E+03  0.11555603165E+04  0.15067113953E+03  0.11958585213E+04  0.50400001928E-02 0.  1.
</event>
<event>
 5   0  0.7138294E-06  0.2605603E+04  0.7818609E-02  0.8366300E-01
        1   -1    0    0  501    0  0.00000000000E+00  0.00000000000E+00  0.21807158087E+04  0.21807158087E+04  0.50400001928E-02 0.  1.
       -1   -1    0    0    0  501  0.00000000000E+00  0.00000000000E+00 -0.77831870708E+03  0.77831870710E+03  0.50400001928E-02 0. -1.
    10030    2    1    2    0    0  0.00000000000E+00  0.00000000000E+00  0.14023971016E+04  0.29590345158E+04  0.26056031231E+04 0.  0.
        2    1    3    3  502    0 -0.87962476696E+03  0.72744737466E+03  0.14143718483E+04  0.18175167506E+04  0.25500000920E-02 0.  1.
       -2    1    3    3    0  502  0.87962476696E+03 -0.72744737466E+03 -0.11974746726E+02  0.11415177651E+04  0.25500000920E-02 0. -1.
</event>
<event>
 5   0  0.1702345E-05  0.2628261E+04  0.7818609E-02  0.8358664E-01
       -2   -1    0    0    0  501  0.00000000000E+00  0.00000000000E+00  0.25577595246E+04  0.25577595246E+04  0.25500000920E-02 0.  1.
        2   -1    0    0  501    0  0.00000000000E+00  0.00000000000E+00 -0.67517655295E+03  0.67517655296E+03  0.25500000920E-02 0. -1.
    10030    2    1    2    0    0  0.00000000000E+00  0.00000000000E+00  0.18825829717E+04  0.32329360776E+04  0.26282612192E+04 0.  0.
        1    1    3    3  502    0 -0.11223989581E+04  0.13156899817E+03  0.17663071251E+04  0.20968859489E+04  0.50400001928E-02 0.  1.
       -1    1    3    3    0  502  0.11223989581E+04 -0.13156899817E+03  0.11627584656E+03  0.11360501287E+04  0.50400001928E-02 0. -1.
</event>
<event>
 5   0  0.6993678E-06  0.2599863E+04  0.7818609E-02  0.8368248E-01
        1   -1    0    0  501    0  0.00000000000E+00  0.00000000000E+00  0.14014929623E+04  0.14014929623E+04  0.50400001928E-02 0.  1.
       -1   -1    0    0    0  501  0.00000000000E+00  0.00000000000E+00 -0.12057298306E+04  0.12057298306E+04  0.50400001928E-02 0. -1.
    10030    2    1    2    0    0  0.00000000000E+00  0.00000000000E+00  0.19576313169E+03  0.26072227930E+04  0.25998629749E+04 0.  0.
        1    1    3    3  502    0 -0.12725618891E+04 -0.68130098368E+02 -0.15929400954E+03  0.12843013873E+04  0.50400001928E-02 0. -1.
       -1    1    3    3    0  502  0.12725618891E+04  0.68130098368E+02  0.35505714123E+03  0.13229214057E+04  0.50400001928E-02 0.  1.
</event>
<event>
 5   0  0.7138294E-06  0.2537171E+04  0.7818609E-02  0.8389861E-01
       -1   -1    0    0    0  501  0.00000000000E+00  0.00000000000E+00  0.86516276179E+03  0.86516276181E+03  0.50400001928E-02 0.  1.
        1   -1    0    0  501    0  0.00000000000E+00  0.00000000000E+00 -0.18601236104E+04  0.18601236104E+04  0.50400001928E-02 0. -1.
    10030    2    1    2    0    0  0.00000000000E+00  0.00000000000E+00 -0.99496084859E+03  0.27252863722E+04  0.25371714014E+04 0.  0.
        2    1    3    3  502    0 -0.25701309567E+03 -0.34595188132E+03  0.78411792837E+03  0.89475100511E+03  0.25500000920E-02 0.  1.
       -2    1    3    3    0  502  0.25701309567E+03  0.34595188132E+03 -0.17790787770E+04  0.18305353671E+04  0.25500000920E-02 0. -1.
</event>
<event>
 5   0  0.6993678E-06  0.2504534E+04  0.7818609E-02  0.8401372E-01
        1   -1    0    0  501    0  0.00000000000E+00  0.00000000000E+00  0.92884432884E+03  0.92884432885E+03  0.50400001928E-02 0.  1.
       -1   -1    0    0    0  501  0.00000000000E+00  0.00000000000E+00 -0.16883047772E+04  0.16883047772E+04  0.50400001928E-02 0. -1.
    10030    2    1    2    0    0  0.00000000000E+00  0.00000000000E+00 -0.75946044837E+03  0.26171491061E+04  0.25045337432E+04 0.  0.
        1    1    3    3  502    0 -0.22930740597E+03  0.73028732496E+03 -0.14153902362E+04  0.16091087547E+04  0.50400001928E-02 0. -1.
       -1    1    3    3    0  502  0.22930740597E+03 -0.73028732496E+03  0.65592978787E+03  0.10080403514E+04  0.50400001928E-02 0.  1.
</event>
<event>
 5   0  0.1702345E-05  0.2595884E+04  0.7818609E-02  0.8369601E-01
        2   -1    0    0  501    0  0.00000000000E+00  0.00000000000E+00  0.16173824091E+04  0.16173824091E+04  0.25500000920E-02 0. -1.
       -2   -1    0    0    0  501  0.00000000000E+00  0.00000000000E+00 -0.10415925657E+04  0.10415925657E+04  0.25500000920E-02 0.  1.
    10030    2    1    2    0    0  0.00000000000E+00  0.00000000000E+00  0.57578984335E+03  0.26589749748E+04  0.25958840446E+04 0.  0.
        1    1    3    3  502    0  0.26800011880E+03  0.89006884493E+03  0.12157850150E+04  0.15304181831E+04  0.50400001928E-02 0. -1.
       -1    1    3    3    0  502 -0.26800011880E+03 -0.89006884493E+03 -0.63999517167E+03  0.11285567917E+04  0.50400001928E-02 0.  1.
</event>
<event>
 5   0  0.6993678E-06  0.2576840E+04  0.7818609E-02  0.8376111E-01
        1   -1    0    0  501    0  0.00000000000E+00  0.00000000000E+00  0.68861709995E+03  0.68861709997E+03  0.50400001928E-02 0.  1.
       -1   -1    0    0    0  501  0.00000000000E+00  0.00000000000E+00 -0.24106663429E+04  0.24106663429E+04  0.50400001928E-02 0. -1.
    10030    2    1    2    0    0  0.00000000000E+00  0.00000000000E+00 -0.17220492429E+04  0.30992834428E+04  0.25768399764E+04 0.  0.
        1    1    3    3  502    0  0.65174409918E+03  0.57359066839E+03  0.28395490864E+03  0.91345882000E+03  0.50400001928E-02 0.  1.
       -1    1    3    3    0  502 -0.65174409918E+03 -0.57359066839E+03 -0.20060041516E+04  0.21858246228E+04  0.50400001928E-02 0. -1.
</event>
<event>
 5   0  0.6918420E-06  0.2623736E+04  0.7818609E-02  0.8360183E-01
        1   -1    0    0  501    0  0.00000000000E+00  0.00000000000E+00  0.97557374592E+03  0.97557374593E+03  0.50400001928E-02 0. -1.
       -1   -1    0    0    0  501  0.00000000000E+00  0.00000000000E+00 -0.17640881808E+04  0.17640881809E+04  0.50400001928E-02 0.  1.
    10030    2    1    2    0    0  0.00000000000E+00  0.00000000000E+00 -0.78851443493E+03  0.27396619268E+04  0.26237363547E+04 0.  0.
        4    1    3    3  502    0  0.31910489348E+02 -0.13018472272E+04 -0.22859029257E+03  0.13221496198E+04  0.12699999809E+01 0. -1.
       -4    1    3    3    0  502 -0.31910489348E+02  0.13018472272E+04 -0.55992414236E+03  0.14175123070E+04  0.12699999809E+01 0.  1.
</event>
<event>
 5   0  0.1681731E-05  0.2587148E+04  0.7818609E-02  0.8372580E-01
       -2   -1    0    0    0  501  0.00000000000E+00  0.00000000000E+00  0.11955413078E+04  0.11955413078E+04  0.25500000920E-02 0.  1.
        2   -1    0    0  501    0  0.00000000000E+00  0.00000000000E+00 -0.13996450184E+04  0.13996450184E+04  0.25500000920E-02 0. -1.
    10030    2    1    2    0    0  0.00000000000E+00  0.00000000000E+00 -0.20410371055E+03  0.25951863262E+04  0.25871478008E+04 0.  0.
        2    1    3    3  502    0  0.39626406116E+03  0.12161820669E+04  0.91444903650E+02  0.12823752167E+04  0.25500000920E-02 0.  1.
       -2    1    3    3    0  502 -0.39626406116E+03 -0.12161820669E+04 -0.29554861420E+03  0.13128111095E+04  0.25500000920E-02 0. -1.
</event>
<event>
 5   0  0.1681731E-05  0.2582764E+04  0.7818609E-02  0.8374080E-01
        2   -1    0    0  501    0  0.00000000000E+00  0.00000000000E+00  0.14473928754E+04  0.14473928754E+04  0.25500000920E-02 0. -1.
       -2   -1    0    0    0  501  0.00000000000E+00  0.00000000000E+00 -0.11521870481E+04  0.11521870481E+04  0.25500000920E-02 0.  1.
    10030    2    1    2    0    0  0.00000000000E+00  0.00000000000E+00  0.29520582728E+03  0.25995799235E+04  0.25827638875E+04 0.  0.
        2    1    3    3  502    0  0.11309958623E+04 -0.47326101445E+03  0.55587887924E+03  0.13461533927E+04  0.25500000920E-02 0. -1.
       -2    1    3    3    0  502 -0.11309958623E+04  0.47326101445E+03 -0.26067305196E+03  0.12534265309E+04  0.25500000920E-02 0.  1.
</event>
<event>
 5   0  0.5840500E-06  0.2558310E+04  0.7818609E-02  0.8382502E-01
       -4   -1    0    0    0  501  0.00000000000E+00  0.00000000000E+00  0.18438739681E+04  0.18438744055E+04  0.12699999809E+01 0.  1.
        4   -1    0    0  501    0  0.00000000000E+00  0.00000000000E+00 -0.88739046087E+03  0.88739136966E+03  0.12699999809E+01 0. -1.
    10030    2    1    2    0    0  0.00000000000E+00  0.00000000000E+00  0.95648350725E+03  0.27312657752E+04  0.25583103867E+04 0.  0.
        2    1    3    3  502    0  0.62185892249E+03  0.28583454649E+03 -0.67547763018E+03  0.96160279551E+03  0.25500000920E-02 0. -1.
       -2    1    3    3    0  502 -0.62185892249E+03 -0.28583454649E+03  0.16319611374E+04  0.17696629796E+04  0.25500000920E-02 0.  1.
</event>
<event>
 5   0  0.1702345E-05  0.2586044E+04  0.7818609E-02  0.8372957E-01
        2   -1    0    0  501    0  0.00000000000E+00  0.00000000000E+00  0.13672651040E+04  0.13672651040E+04  0.25500000920E-02 0. -1.
       -2   -1    0    0    0  501  0.00000000000E+00  0.00000000000E+00 -0.12228103742E+04  0.12228103742E+04  0.25500000920E-02 0.  1.
    10030    2    1    2    0    0  0.00000000000E+00  0.00000000000E+00  0.14445472971E+03  0.25900754782E+04  0.25860440472E+04 0.  0.
        1    1    3    3  502    0  0.76946277062E+02 -0.66935363021E+03 -0.10331012167E+04  0.12333909096E+04  0.50400001928E-02 0.  1.
       -1    1    3    3    0  502 -0.76946277062E+02  0.66935363021E+03  0.11775559464E+04  0.13566845686E+04  0.50400001928E-02 0. -1.
</event>
<event>
 5   0  0.6984287E-06  0.2579948E+04  0.7818609E-02  0.8375045E-01
        1   -1    0    0  501    0  0.00000000000E+00  0.00000000000E+00  0.12596344958E+04  0.12596344958E+04  0.50400001928E-02 0. -1.
       -1   -1    0    0    0  501  0.00000000000E+00  0.00000000000E+00 -0.13210439287E+04  0.13210439287E+04  0.50400001928E-02 0.  1.
    10030    2    1    2    0    0  0.00000000000E+00  0.00000000000E+00 -0.61409432889E+02  0.25806784245E+04  0.25799476763E+04 0.  0.
        3    1    3    3  502    0 -0.59260338250E+03  0.47544467862E+02  0.11144309879E+04  0.12630897365E+04  0.10100000352E+00 0. -1.
       -3    1    3    3    0  502  0.59260338250E+03 -0.47544467862E+02 -0.11758404208E+04  0.13175886880E+04  0.10100000352E+00 0.  1.
</event>
<event>
 5   0  0.1677971E-05  0.2635771E+04  0.7818609E-02  0.8356151E-01
       -2   -1    0    0    0  501  0.00000000000E+00  0.00000000000E+00  0.84033721044E+03  0.84033721044E+03  0.25500000920E-02 0. -1.
        2   -1    0    0  501    0  0.00000000000E+00  0.00000000000E+00 -0.20668164466E+04  0.20668164466E+04  0.25500000920E-02 0.  1.
    10030    2    1    2    0    0  0.00000000000E+00  0.00000000000E+00 -0.12264792362E+04  0.29071536571E+04  0.26357714372E+04 0.  0.
        4    1    3    3  502    0  0.57598412206E+03  0.10235419638E+04  0.46166361302E+02  0.11753845355E+04  0.12699999809E+01 0. -1.
       -4    1    3    3    0  502 -0.57598412206E+03 -0.10235419638E+04 -0.12726455975E+04  0.17317691215E+04  0.12699999809E+01 0.  1.
</event>
<event>
 5   0  0.1869956E-05  0.2586958E+04  0.7818609E-02  0.8372645E-01
       -2   -1    0    0    0  501  0.00000000000E+00  0.00000000000E+00  0.11462628450E+04  0.11462628450E+04  0.25500000920E-02 0. -1.
        2   -1    0    0  501    0  0.00000000000E+00  0.00000000000E+00 -0.14596018897E+04  0.14596018897E+04  0.25500000920E-02 0.  1.
    10030    2    1    2    0    0  0.00000000000E+00  0.00000000000E+00 -0.31333904469E+03  0.26058647347E+04  0.25869576067E+04 0.  0.
        5    1    3    3  502    0 -0.40180889363E+03  0.10868701737E+04  0.42227287872E+03  0.12333181405E+04  0.46999998093E+01 0.  1.
       -5    1    3    3    0  502  0.40180889363E+03 -0.10868701737E+04 -0.73561192341E+03  0.13725465943E+04  0.46999998093E+01 0. -1.
</event>
<event>
 5   0  0.1702345E-05  0.2602588E+04  0.7818609E-02  0.8367323E-01
       -2   -1    0    0    0  501  0.00000000000E+00  0.00000000000E+00  0.14904352155E+04  0.14904352155E+04  0.25500000920E-02 0.  1.
        2   -1    0    0  501    0  0.00000000000E+00  0.00000000000E+00 -0.11361553346E+04  0.11361553346E+04  0.25500000920E-02 0. -1.
    10030    2    1    2    0    0  0.00000000000E+00  0.00000000000E+00  0.35427988088E+03  0.26265905501E+04  0.26025878820E+04 0.  0.
        1    1    3    3  502    0 -0.10141830425E+04  0.74583145258E+02  0.99656160559E+03  0.14238205375E+04  0.50400001928E-02 0.  1.
       -1    1    3    3    0  502  0.10141830425E+04 -0.74583145258E+02 -0.64228172471E+03  0.12027700126E+04  0.50400001928E-02 0. -1.
</event>
<event>
 5   0  0.6993678E-06  0.2614697E+04  0.7818609E-02  0.8363226E-01
       -1   -1    0    0    0  501  0.00000000000E+00  0.00000000000E+00  0.12030276725E+04  0.12030276725E+04  0.50400001928E-02 0.  1.
        1   -1    0    0  501    0  0.00000000000E+00  0.00000000000E+00 -0.14207153697E+04  0.14207153697E+04  0.50400001928E-02 0. -1.
    10030    2    1    2    0    0  0.00000000000E+00  0.00000000000E+00 -0.21768769719E+03  0.26237430421E+04  0.26146968501E+04 0.  0.
        1    1    3    3  502    0  0.95762871997E+03  0.77255049564E+03  0.33458190392E+03  0.12750812069E+04  0.50400001928E-02 0.  1.
       -1    1    3    3    0  502 -0.95762871997E+03 -0.77255049564E+03 -0.55226960111E+03  0.13486618353E+04  0.50400001928E-02 0. -1.
</event>
<event>
 5   0  0.7138294E-06  0.2589276E+04  0.7818609E-02  0.8371853E-01
        1   -1    0    0  501    0  0.00000000000E+00  0.00000000000E+00  0.77230384077E+03  0.77230384079E+03  0.50400001928E-02 0. -1.
       -1   -1    0    0    0  501  0.00000000000E+00  0.00000000000E+00 -0.21702439033E+04  0.21702439033E+04  0.50400001928E-02 0.  1.
    10030    2    1    2    0    0  0.00000000000E+00  0.00000000000E+00 -0.13979400625E+04  0.29425477441E+04  0.25892761166E+04 0.  0.
        2    1    3    3  502    0 -0.11005301696E+03  0.60493062198E+03  0.59578721571E+03  0.85616302791E+03  0.25500000920E-02 0. -1.
       -2    1    3    3    0  502  0.11005301696E+03 -0.60493062198E+03 -0.19937272782E+04  0.20863847162E+04  0.25500000920E-02 0.  1.
</event>
<event>
 5   0  0.7138294E-06  0.2621399E+04  0.7818609E-02  0.8360969E-01
       -1   -1    0    0    0  501  0.00000000000E+00  0.00000000000E+00  0.89158110504E+03  0.89158110506E+03  0.50400001928E-02 0. -1.
        1   -1    0    0  501    0  0.00000000000E+00  0.00000000000E+00 -0.19268392131E+04  0.19268392131E+04  0.50400001928E-02 0.  1.
    10030    2    1    2    0    0  0.00000000000E+00  0.00000000000E+00 -0.10352581080E+04  0.28184203181E+04  0.26213991950E+04 0.  0.
        2    1    3    3  502    0  0.21176586715E+03 -0.70736608646E+03 -0.16819430334E+04  0.18368842997E+04  0.25500000920E-02 0.  1.
       -2    1    3    3    0  502 -0.21176586715E+03  0.70736608646E+03  0.64668492539E+03  0.98153601844E+03  0.25500000920E-02 0. -1.
</event>
<event>
 5   0  0.1681731E-05  0.2825751E+04  0.7818609E-02  0.8295318E-01
        2   -1    0    0  501    0  0.00000000000E+00  0.00000000000E+00  0.14990610739E+04  0.14990610739E+04  0.25500000920E-02 0.  1.
       -2   -1    0    0    0  501  0.00000000000E+00  0.00000000000E+00 -0.13316449085E+04  0.13316449085E+04  0.25500000920E-02 0. -1.
    10030    2    1    2    0    0  0.00000000000E+00  0.00000000000E+00  0.16741616538E+03  0.28307059824E+04  0.28257509067E+04 0.  0.
        2    1    3    3  502    0  0.65550729326E+03 -0.55111177987E+03 -0.10420075489E+04  0.13487749024E+04  0.25500000920E-02 0. -1.
       -2    1    3    3    0  502 -0.65550729326E+03  0.55111177987E+03  0.12094237142E+04  0.14819310800E+04  0.25500000920E-02 0.  1.
</event>
<event>
 5   0  0.1677971E-05  0.2596327E+04  0.7818609E-02  0.8369450E-01
        2   -1    0    0  501    0  0.00000000000E+00  0.00000000000E+00  0.19592368071E+04  0.19592368071E+04  0.25500000920E-02 0.  1.
       -2   -1    0    0    0  501  0.00000000000E+00  0.00000000000E+00 -0.86014528929E+03  0.86014528929E+03  0.25500000920E-02 0. -1.
    10030    2    1    2    0    0  0.00000000000E+00  0.00000000000E+00  0.10990915178E+04  0.28193820964E+04  0.25963268748E+04 0.  0.
        4    1    3    3  502    0  0.89671146120E+03 -0.52642071133E+03 -0.29440860947E+03  0.10806887860E+04  0.12699999809E+01 0. -1.
       -4    1    3    3    0  502 -0.89671146120E+03  0.52642071133E+03  0.13935001273E+04  0.17386933104E+04  0.12699999809E+01 0.  1.
</event>
<event>
 5   0  0.1869956E-05  0.2638171E+04  0.7818609E-02  0.8355350E-01
       -2   -1    0    0    0  501  0.00000000000E+00  0.00000000000E+00  0.12653622816E+04  0.12653622816E+04  0.25500000920E-02 0.  1.
        2   -1    0    0  501    0  0.00000000000E+00  0.00000000000E+00 -0.13750893884E+04  0.13750893884E+04  0.25500000920E-02 0. -1.
    10030    2    1    2    0    0  0.00000000000E+00  0.00000000000E+00 -0.10972710671E+03  0.26404516700E+04  0.26381707647E+04 0.  0.
        5    1    3    3  502    0 -0.47482443300E+03 -0.44877006808E+02 -0.12857609635E+04  0.13713772395E+04  0.46999998093E+01 0. -1.
       -5    1    3    3    0  502  0.47482443300E+03  0.44877006808E+02  0.11760338567E+04  0.12690744305E+04  0.46999998093E+01 0.  1.
</event>
<event>
 5   0  0.6993678E-06  0.2606016E+04  0.7818609E-02  0.8366160E-01
       -1   -1    0    0    0  501  0.00000000000E+00  0.00000000000E+00  0.11787908943E+04  0.11787908943E+04  0.50400001928E-02 0. -1.
        1   -1    0    0  501    0  0.00000000000E+00  0.00000000000E+00 -0.14403151345E+04  0.14403151345E+04  0.50400001928E-02 0.  1.
    10030    2    1    2    0    0  0.00000000000E+00  0.00000000000E+00 -0.26152424023E+03  0.26191060289E+04  0.26060163972E+04 0.  0.
        1    1    3    3  502    0  0.59977072401E+03  0.11075890847E+04  0.20460824295E+03  0.12760654510E+04  0.50400001928E-02 0.  1.
       -1    1    3    3    0  502 -0.59977072401E+03 -0.11075890847E+04 -0.46613248318E+03  0.13430405779E+04  0.50400001928E-02 0. -1.
</event>
<event>
 5   0  0.6918420E-06  0.2631866E+04  0.7818609E-02  0.8357457E-01
        1   -1    0    0  501    0  0.00000000000E+00  0.00000000000E+00  0.10391154412E+04  0.10391154412E+04  0.50400001928E-02 0.  1.
       -1   -1    0    0    0  501  0.00000000000E+00  0.00000000000E+00 -0.16664946147E+04  0.16664946147E+04  0.50400001928E-02 0. -1.
    10030    2    1    2    0    0  0.00000000000E+00  0.00000000000E+00 -0.62737917351E+03  0.27056100559E+04  0.26318664760E+04 0.  0.
        4    1    3    3  502    0 -0.96961672423E+03  0.81895949161E+03 -0.67103163874E+03  0.14356658086E+04  0.12699999809E+01 0.  1.
       -4    1    3    3    0  502  0.96961672423E+03 -0.81895949161E+03  0.43652465224E+02  0.12699442474E+04  0.12699999809E+01 0. -1.
</event>
<event>
 5   0  0.1681731E-05  0.2594001E+04  0.7818609E-02  0.8370242E-01
        2   -1    0    0  501    0  0.00000000000E+00  0.00000000000E+00  0.17715377391E+04  0.17715377391E+04  0.25500000920E-02 0. -1.
       -2   -1    0    0    0  501  0.00000000000E+00  0.00000000000E+00 -0.94957617599E+03  0.94957617599E+03  0.25500000920E-02 0.  1.
    10030    2    1    2    0    0  0.00000000000E+00  0.00000000000E+00  0.82196156308E+03  0.27211139151E+04  0.25940007956E+04 0.  0.
        2    1    3    3  502    0 -0.80959662938E+02  0.45424941879E+03 -0.86057021710E+03  0.97646203207E+03  0.25500000920E-02 0.  1.
       -2    1    3    3    0  502  0.80959662938E+02 -0.45424941879E+03  0.16825317802E+04  0.17446518830E+04  0.25500000920E-02 0. -1.
</event>
<event>
 5   0  0.1702345E-05  0.2576397E+04  0.7818609E-02  0.8376263E-01
        2   -1    0    0  501    0  0.00000000000E+00  0.00000000000E+00  0.15051888311E+04  0.15051888311E+04  0.25500000920E-02 0. -1.
       -2   -1    0    0    0  501  0.00000000000E+00  0.00000000000E+00 -0.11024902208E+04  0.11024902208E+04  0.25500000920E-02 0.  1.
    10030    2    1    2    0    0  0.00000000000E+00  0.00000000000E+00  0.40269861030E+03  0.26076790520E+04  0.25763974591E+04 0.  0.
        1    1    3    3  502    0 -0.10911076903E+04  0.67566353733E+03  0.88556764217E+02  0.12864212017E+04  0.50400001928E-02 0.  1.
       -1    1    3    3    0  502  0.10911076903E+04 -0.67566353733E+03  0.31414184609E+03  0.13212578503E+04  0.50400001928E-02 0. -1.
</event>
<event>
 5   0  0.1702345E-05  0.2590683E+04  0.7818609E-02  0.8371373E-01
        2   -1    0    0  501    0  0.00000000000E+00  0.00000000000E+00  0.16548047974E+04  0.16548047974E+04  0.25500000920E-02 0.  1.
       -2   -1    0    0    0  501  0.00000000000E+00  0.00000000000E+00 -0.10139626235E+04  0.10139626235E+04  0.25500000920E-02 0. -1.
    10030    2    1    2    0    0  0.00000000000E+00  0.00000000000E+00  0.64084217386E+03  0.26687674209E+04  0.25906834725E+04 0.  0.
        1    1    3    3  502    0 -0.92808824058E+03  0.45619812682E+03 -0.48311851600E+03  0.11414324394E+04  0.50400001928E-02 0. -1.
       -1    1    3    3    0  502  0.92808824058E+03 -0.45619812682E+03  0.11239606899E+04  0.15273349815E+04  0.50400001928E-02 0.  1.
</event>
<event>
 5   0  0.7138294E-06  0.2569237E+04  0.7818609E-02  0.8378726E-01
       -1   -1    0    0    0  501  0.00000000000E+00  0.00000000000E+00  0.10606682554E+04  0.10606682554E+04  0.50400001928E-02 0. -1.
        1   -1    0    0  501    0  0.00000000000E+00  0.00000000000E+00 -0.15558540149E+04  0.15558540149E+04  0.50400001928E-02 0.  1.
    10030    2    1    2    0    0  0.00000000000E+00  0.00000000000E+00 -0.49518575949E+03  0.26165222702E+04  0.25692372125E+04 0.  0.
        2    1    3    3  502    0  0.54503696236E+03 -0.17418704829E+01 -0.14322631170E+04  0.15324640161E+04  0.25500000920E-02 0.  1.
       -2    1    3    3    0  502 -0.54503696236E+03  0.17418704829E+01  0.93707735747E+03  0.10840582541E+04  0.25500000920E-02 0. -1.
</event>
<event>
 5   0  0.1869956E-05  0.2403742E+04  0.7818609E-02  0.8438104E-01
        2   -1    0    0  501    0  0.00000000000E+00  0.00000000000E+00  0.11037603423E+04  0.11037603423E+04  0.25500000920E-02 0.  1.
       -2   -1    0    0    0  501  0.00000000000E+00  0.00000000000E+00 -0.13087028129E+04  0.13087028129E+04  0.25500000920E-02 0. -1.
    10030    2    1    2    0    0  0.00000000000E+00  0.00000000000E+00 -0.20494247054E+03  0.24124631552E+04  0.24037423030E+04 0.  0.
        5    1    3    3  502    0 -0.45330711414E+03  0.65391748015E+03 -0.10065037815E+04  0.12830305385E+04  0.46999998093E+01 0. -1.
       -5    1    3    3    0  502  0.45330711414E+03 -0.65391748015E+03  0.80156131094E+03  0.11294326167E+04  0.46999998093E+01 0.  1.
</event>
<event>
 5   0  0.6918420E-06  0.2588640E+04  0.7818609E-02  0.8372070E-01
       -1   -1    0    0    0  501  0.00000000000E+00  0.00000000000E+00  0.12067093449E+04  0.12067093449E+04  0.50400001928E-02 0.  1.
        1   -1    0    0  501    0  0.00000000000E+00  0.00000000000E+00 -0.13882911965E+04  0.13882911965E+04  0.50400001928E-02 0. -1.
    10030    2    1    2    0    0  0.00000000000E+00  0.00000000000E+00 -0.18158185155E+03  0.25950005414E+04  0.25886397666E+04 0.  0.
        4    1    3    3  502    0 -0.17626737660E+03  0.59984986965E+03  0.10452953107E+04  0.12180040860E+04  0.12699999809E+01 0.  1.
       -4    1    3    3    0  502  0.17626737660E+03 -0.59984986965E+03 -0.12268771622E+04  0.13769964554E+04  0.12699999809E+01 0. -1.
</event>
<event>
 5   0  0.6993678E-06  0.2582485E+04  0.7818609E-02  0.8374175E-01
       -1   -1    0    0    0  501  0.00000000000E+00  0.00000000000E+00  0.94126480518E+03  0.94126480519E+03  0.50400001928E-02 0. -1.
        1   -1    0    0  501    0  0.00000000000E+00  0.00000000000E+00 -0.17713479518E+04  0.17713479518E+04  0.50400001928E-02 0.  1.
    10030    2    1    2    0    0  0.00000000000E+00  0.00000000000E+00 -0.83008314665E+03  0.27126127570E+04  0.25824852254E+04 0.  0.
        1    1    3    3  502    0  0.80594754907E+03  0.63262260225E+03 -0.12404789784E+04  0.16088974190E+04  0.50400001928E-02 0.  1.
       -1    1    3    3    0  502 -0.80594754907E+03 -0.63262260225E+03  0.41039583180E+03  0.11037153381E+04  0.50400001928E-02 0. -1.
</event>
<event>
 5   0  0.6993678E-06  0.2617617E+04  0.7818609E-02  0.8362242E-01
       -1   -1    0    0    0  501  0.00000000000E+00  0.00000000000E+00  0.80946307773E+03  0.80946307775E+03  0.50400001928E-02 0.  1.
        1   -1    0    0  501    0  0.00000000000E+00  0.00000000000E+00 -0.21161925774E+04  0.21161925774E+04  0.50400001928E-02 0. -1.
    10030    2    1    2    0    0  0.00000000000E+00  0.00000000000E+00 -0.13067294996E+04  0.29256556551E+04  0.26176170513E+04 0.  0.
        1    1    3    3  502    0 -0.86654565259E+03 -0.68526844045E+03 -0.14377218743E+04  0.18131570233E+04  0.50400001928E-02 0. -1.
       -1    1    3    3    0  502  0.86654565259E+03  0.68526844045E+03  0.13099237463E+03  0.11124986318E+04  0.50400001928E-02 0.  1.
</event>
<event>
 5   0  0.7138294E-06  0.2555456E+04  0.7818609E-02  0.8383491E-01
       -1   -1    0    0    0  501  0.00000000000E+00  0.00000000000E+00  0.75847274289E+03  0.75847274291E+03  0.50400001928E-02 0. -1.
        1   -1    0    0  501    0  0.00000000000E+00  0.00000000000E+00 -0.21524687249E+04  0.21524687249E+04  0.50400001928E-02 0.  1.
    10030    2    1    2    0    0  0.00000000000E+00  0.00000000000E+00 -0.13939959820E+04  0.29109414678E+04  0.25554560124E+04 0.  0.
        2    1    3    3  502    0 -0.87482384821E+03 -0.31607208378E+03  0.30085743107E+03  0.97761624443E+03  0.25500000920E-02 0. -1.
       -2    1    3    3    0  502  0.87482384821E+03  0.31607208378E+03 -0.16948534131E+04  0.19333252234E+04  0.25500000920E-02 0.  1.
</event>
<event>
 5   0  0.6984287E-06  0.2609066E+04  0.7818609E-02  0.8365128E-01
        1   -1    0    0  501    0  0.00000000000E+00  0.00000000000E+00  0.15400571082E+04  0.15400571082E+04  0.50400001928E-02 0.  1.
       -1   -1    0    0    0  501  0.00000000000E+00  0.00000000000E+00 -0.11050282507E+04  0.11050282507E+04  0.50400001928E-02 0. -1.
    10030    2    1    2    0    0  0.00000000000E+00  0.00000000000E+00  0.43502885746E+03  0.26450853589E+04  0.26090662025E+04 0.  0.
        3    1    3    3  502    0 -0.12218991238E+04  0.30206884661E+03  0.56506422205E+03  0.13797030992E+04  0.10100000352E+00 0.  1.
       -3    1    3    3    0  502  0.12218991238E+04 -0.30206884661E+03 -0.13003536459E+03  0.12653822597E+04  0.10100000352E+00 0. -1.
</event>
<event>
 5   0  0.1702345E-05  0.2617784E+04  0.7818609E-02  0.8362186E-01
        2   -1    0    0  501    0  0.00000000000E+00  0.00000000000E+00  0.89734606905E+03  0.89734606906E+03  0.25500000920E-02 0. -1.
       -2   -1    0    0    0  501  0.00000000000E+00  0.00000000000E+00 -0.19091827650E+04  0.19091827650E+04  0.25500000920E-02 0.  1.
    10030    2    1    2    0    0  0.00000000000E+00  0.00000000000E+00 -0.10118366959E+04  0.28065288340E+04  0.26177835275E+04 0.  0.
        1    1    3    3  502    0 -0.77206431108E+03 -0.13267591310E+02 -0.16389717350E+04  0.18117636925E+04  0.50400001928E-02 0.  1.
       -1    1    3    3    0  502  0.77206431108E+03  0.13267591310E+02  0.62713503910E+03  0.99476514149E+03  0.50400001928E-02 0. -1.
</event>
<event>
 5   0  0.6984287E-06  0.2597344E+04  0.7818609E-02  0.8369104E-01
        1   -1    0    0  501    0  0.00000000000E+00  0.00000000000E+00  0.17114213318E+04  0.17114213318E+04  0.50400001928E-02 0.  1.
       -1   -1    0    0    0  501  0.00000000000E+00  0.00000000000E+00 -0.98546701638E+03  0.98546701639E+03  0.50400001928E-02 0. -1.
    10030    2    1    2    0    0  0.00000000000E+00  0.00000000000E+00  0.72595431545E+03  0.26968883482E+04  0.25973442388E+04 0.  0.
        3    1    3    3  502    0 -0.55574812617E+03 -0.61122537859E+03 -0.67747292774E+03  0.10683735401E+04  0.10100000352E+00 0. -1.
       -3    1    3    3    0  502  0.55574812617E+03  0.61122537859E+03  0.14034272432E+04  0.16285148081E+04  0.10100000352E+00 0.  1.
</event>
<event>
 5   0  0.1677971E-05  0.2592709E+04  0.7818609E-02  0.8370682E-01
        2   -1    0    0  501    0  0.00000000000E+00  0.00000000000E+00  0.17007497924E+04  0.17007497924E+04  0.25500000920E-02 0.  1.
       -2   -1    0    0    0  501  0.00000000000E+00  0.00000000000E+00 -0.98811420196E+03  0.98811420196E+03  0.25500000920E-02 0. -1.
    10030    2    1    2    0    0  0.00000000000E+00  0.00000000000E+00  0.71263559046E+03  0.26888639944E+04  0.25927090264E+04 0.  0.
        4    1    3    3  502    0 -0.88704103950E+03 -0.39042498507E+03 -0.53657705875E+03  0.11077860929E+04  0.12699999809E+01 0. -1.
       -4    1    3    3    0  502  0.88704103950E+03  0.39042498507E+03  0.12492126492E+04  0.15810779015E+04  0.12699999809E+01 0.  1.
</event>
<event>
 5   0  0.1720129E-05  0.2608368E+04  0.7818609E-02  0.8365364E-01
        2   -1    0    0  501    0  0.00000000000E+00  0.00000000000E+00  0.17926558649E+04  0.17926558649E+04  0.25500000920E-02 0.  1.
       -2   -1    0    0    0  501  0.00000000000E+00  0.00000000000E+00 -0.94881367585E+03  0.94881367585E+03  0.25500000920E-02 0. -1.
    10030    2    1    2    0    0  0.00000000000E+00  0.00000000000E+00  0.84384218903E+03  0.27414695407E+04  0.26083683794E+04 0.  0.
        3    1    3    3  502    0 -0.64608947345E+03 -0.91052519780E+03 -0.28657554024E+03  0.11526548894E+04  0.10100000352E+00 0.  1.
       -3    1    3    3    0  502  0.64608947345E+03  0.91052519780E+03  0.11304177293E+04  0.15888146514E+04  0.10100000352E+00 0. -1.
</event>
<event>
 5   0  0.1681731E-05  0.2595785E+04  0.7818609E-02  0.8369634E-01
        2   -1    0    0  501    0  0.00000000000E+00  0.00000000000E+00  0.19339893539E+04  0.19339893539E+04  0.25500000920E-02 0. -1.
       -2   -1    0    0    0  501  0.00000000000E+00  0.00000000000E+00 -0.87101066779E+03  0.87101066779E+03  0.25500000920E-02 0.  1.
    10030    2    1    2    0    0  0.00000000000E+00  0.00000000000E+00  0.10629786861E+04  0.28050000217E+04  0.25957853214E+04 0.  0.
        2    1    3    3  502    0 -0.11292379709E+04 -0.17341895142E+03  0.11969769366E+04  0.16546922113E+04  0.25500000920E-02 0. -1.
       -2    1    3    3    0  502  0.11292379709E+04  0.17341895142E+03 -0.13399825043E+03  0.11503078104E+04  0.25500000920E-02 0.  1.
</event>
<event>
 5   0  0.6706225E-06  0.2600854E+04  0.7818609E-02  0.8367911E-01
        1   -1    0    0  501    0  0.00000000000E+00  0.00000000000E+00  0.14450641556E+04  0.14450641556E+04  0.50400001928E-02 0.  1.
       -1   -1    0    0    0  501  0.00000000000E+00  0.00000000000E+00 -0.11702663282E+04  0.11702663282E+04  0.50400001928E-02 0. -1.
    10030    2    1    2    0    0  0.00000000000E+00  0.00000000000E+00  0.27479782741E+03  0.26153304839E+04  0.26008536471E+04 0.  0.
        5    1    3    3  502    0  0.99103668074E+03 -0.74383306342E+03  0.53411549004E+03  0.13493490192E+04  0.46999998093E+01 0.  1.
       -5    1    3    3    0  502 -0.99103668074E+03  0.74383306342E+03 -0.25931766263E+03  0.12659814647E+04  0.46999998093E+01 0. -1.
</event>
<event>
 5   0  0.6993678E-06  0.2620696E+04  0.7818609E-02  0.8361205E-01
        1   -1    0    0  501    0  0.00000000000E+00  0.00000000000E+00  0.22827187846E+04  0.22827187846E+04  0.50400001928E-02 0.  1.
       -1   -1    0    0    0  501  0.00000000000E+00  0.00000000000E+00 -0.75217826846E+03  0.75217826847E+03  0.50400001928E-02 0. -1.
    10030    2    1    2    0    0  0.00000000000E+00  0.00000000000E+00  0.15305405161E+04  0.30348970531E+04  0.26206956808E+04 0.  0.
        1    1    3    3  502    0  0.73682358880E+03 -0.57526123943E+03 -0.29810545864E+03  0.98117346025E+03  0.50400001928E-02 0. -1.
       -1    1    3    3    0  502 -0.73682358880E+03  0.57526123943E+03  0.18286459748E+04  0.20537235928E+04  0.50400001928E-02 0.  1.
</event>
<event>
 5   0  0.1677971E-05  0.2638763E+04  0.7818609E-02  0.8355152E-01
       -2   -1    0    0    0  501  0.00000000000E+00  0.00000000000E+00  0.79654466023E+03  0.79654466024E+03  0.25500000920E-02 0.  1.
        2   -1    0    0  501    0  0.00000000000E+00  0.00000000000E+00 -0.21853988623E+04  0.21853988623E+04  0.25500000920E-02 0. -1.
    10030    2    1    2    0    0  0.00000000000E+00  0.00000000000E+00 -0.13888542021E+04  0.29819435225E+04  0.26387631908E+04 0.  0.
        4    1    3    3  502    0  0.63382998806E+03  0.88716103531E+02  0.60937999321E+03  0.88371748303E+03  0.12699999809E+01 0.  1.
       -4    1    3    3    0  502 -0.63382998806E+03 -0.88716103531E+02 -0.19982341953E+04  0.20982260395E+04  0.12699999809E+01 0. -1.
</event>
<event>
 5   0  0.1677971E-05  0.2622789E+04  0.7818609E-02  0.8360501E-01
       -2   -1    0    0    0  501  0.00000000000E+00  0.00000000000E+00  0.80382526349E+03  0.80382526350E+03  0.25500000920E-02 0.  1.
        2   -1    0    0  501    0  0.00000000000E+00  0.00000000000E+00 -0.21394636390E+04  0.21394636390E+04  0.25500000920E-02 0. -1.
    10030    2    1    2    0    0  0.00000000000E+00  0.00000000000E+00 -0.13356383755E+04  0.29432889025E+04  0.26227885339E+04 0.  0.
        4    1    3    3  502    0  0.80268885415E+03  0.51531982047E+03 -0.16777287239E+04  0.19299324334E+04  0.12699999809E+01 0. -1.
       -4    1    3    3    0  502 -0.80268885415E+03 -0.51531982047E+03  0.34209034838E+03  0.10133564690E+04  0.12699999809E+01 0.  1.
</event>
<event>
 5   0  0.1869956E-05  0.2625883E+04  0.7818609E-02  0.8359462E-01
        2   -1    0    0  501    0  0.00000000000E+00  0.00000000000E+00  0.12631432574E+04  0.12631432574E+04  0.25500000920E-02 0. -1.
       -2   -1    0    0    0  501  0.00000000000E+00  0.00000000000E+00 -0.13647034561E+04  0.13647034561E+04  0.25500000920E-02 0.  1.
    10030    2    1    2    0    0  0.00000000000E+00  0.00000000000E+00 -0.10156019869E+03  0.26278467136E+04  0.26258834468E+04 0.  0.
        5    1    3    3  502    0  0.21893497944E+02 -0.12427092162E+04  0.37260636994E+03  0.12975604488E+04  0.46999998093E+01 0. -1.
       -5    1    3    3    0  502 -0.21893497944E+02  0.12427092162E+04 -0.47416656863E+03  0.13302862648E+04  0.46999998093E+01 0.  1.
</event>
<event>
 5   0  0.1720129E-05  0.2581631E+04  0.7818609E-02  0.8374468E-01
       -2   -1    0    0    0  501  0.00000000000E+00  0.00000000000E+00  0.10611738559E+04  0.10611738559E+04  0.25500000920E-02 0.  1.
        2   -1    0    0  501    0  0.00000000000E+00  0.00000000000E+00 -0.15701522804E+04  0.15701522804E+04  0.25500000920E-02 0. -1.
    10030    2    1    2    0    0  0.00000000000E+00  0.00000000000E+00 -0.50897842451E+03  0.26313261362E+04  0.25816309183E+04 0.  0.
        3    1    3    3  502    0  0.11157384390E+04  0.48680844012E+03  0.18313554442E+03  0.12310131435E+04  0.10100000352E+00 0.  1.
       -3    1    3    3    0  502 -0.11157384390E+04 -0.48680844012E+03 -0.69211396894E+03  0.14003129928E+04  0.10100000352E+00 0. -1.
</event>
<event>
 5   0  0.1677971E-05  0.2625283E+04  0.7818609E-02  0.8359664E-01
       -2   -1    0    0    0  501  0.00000000000E+00  0.00000000000E+00  0.79134563548E+03  0.79134563548E+03  0.25500000920E-02 0.  1.
        2   -1    0    0  501    0  0.00000000000E+00  0.00000000000E+00 -0.21773387094E+04  0.21773387094E+04  0.25500000920E-02 0. -1.
    10030    2    1    2    0    0  0.00000000000E+00  0.00000000000E+00 -0.13859930740E+04  0.29686843449E+04  0.26252828302E+04 0.  0.
        4    1    3    3  502    0  0.19190269098E+03  0.95625467927E+03  0.30042511137E+03  0.10205422651E+04  0.12699999809E+01 0.  1.
       -4    1    3    3    0  502 -0.19190269098E+03 -0.95625467927E+03 -0.16864181853E+04  0.19481420798E+04  0.12699999809E+01 0. -1.
</event>
<event>
 5   0  0.6706225E-06  0.2622871E+04  0.7818609E-02  0.8360474E-01
       -1   -1    0    0    0  501  0.00000000000E+00  0.00000000000E+00  0.12402572772E+04  0.12402572772E+04  0.50400001928E-02 0. -1.
        1   -1    0    0  501    0  0.00000000000E+00  0.00000000000E+00 -0.13866981328E+04  0.13866981328E+04  0.50400001928E-02 0.  1.
    10030    2    1    2    0    0  0.00000000000E+00  0.00000000000E+00 -0.14644085565E+03  0.26269554100E+04  0.26228705271E+04 0.  0.
        5    1    3    3  502    0 -0.96383260075E+03 -0.25568146459E+03 -0.92630636080E+03  0.13610333786E+04  0.46999998093E+01 0.  1.
       -5    1    3    3    0  502  0.96383260075E+03  0.25568146459E+03  0.77986550514E+03  0.12659220314E+04  0.46999998093E+01 0. -1.
</event>
<event>
 5   0  0.7138294E-06  0.2586646E+04  0.7818609E-02  0.8372751E-01
        1   -1    0    0  501    0  0.00000000000E+00  0.00000000000E+00  0.10685512273E+04  0.10685512274E+04  0.50400001928E-02 0. -1.
       -1   -1    0    0    0  501  0.00000000000E+00  0.00000000000E+00 -0.15653758051E+04  0.15653758051E+04  0.50400001928E-02 0.  1.
    10030    2    1    2    0    0  0.00000000000E+00  0.00000000000E+00 -0.49682457777E+03  0.26339270325E+04  0.25866458883E+04 0.  0.
        2    1    3    3  502    0 -0.35924558523E+02  0.35257364494E+03 -0.15149668930E+04  0.15558674223E+04  0.25500000920E-02 0.  1.
       -2    1    3    3    0  502  0.35924558523E+02 -0.35257364494E+03  0.10181423152E+04  0.10780596101E+04  0.25500000920E-02 0. -1.
</event>
<event>
 5   0  0.1677971E-05  0.2581337E+04  0.7818609E-02  0.8374568E-01
        2   -1    0    0  501    0  0.00000000000E+00  0.00000000000E+00  0.17928059438E+04  0.17928059438E+04  0.25500000920E-02 0. -1.
       -2   -1    0    0    0  501  0.00000000000E+00  0.00000000000E+00 -0.92917223421E+03  0.92917223421E+03  0.25500000920E-02 0.  1.
    10030    2    1    2    0    0  0.00000000000E+00  0.00000000000E+00  0.86363370964E+03  0.27219781781E+04  0.25813372537E+04 0.  0.
        4    1    3    3  502    0  0.39641867135E+02 -0.85369688032E+03 -0.58806794663E+03  0.10373983631E+04  0.12699999809E+01 0.  1.
       -4    1    3    3    0  502 -0.39641867135E+02  0.85369688032E+03  0.14517016563E+04  0.16845798149E+04  0.12699999809E+01 0. -1.
</event>
<event>
 5   0  0.1720129E-05  0.2607370E+04  0.7818609E-02  0.8365702E-01
        2   -1    0    0  501    0  0.00000000000E+00  0.00000000000E+00  0.16542752918E+04  0.16542752918E+04  0.25500000920E-02 0. -1.
       -2   -1    0    0    0  501  0.00000000000E+00  0.00000000000E+00 -0.10273952173E+04  0.10273952173E+04  0.25500000920E-02 0.  1.
    10030    2    1    2    0    0  0.00000000000E+00  0.00000000000E+00  0.62688007456E+03  0.26816705091E+04  0.26073699568E+04 0.  0.
        3    1    3    3  502    0 -0.87643055002E+03  0.76886623711E+03  0.91342351816E+03  0.14810902516E+04  0.10100000352E+00 0. -1.
       -3    1    3    3    0  502  0.87643055002E+03 -0.76886623711E+03 -0.28654344360E+03  0.12005802576E+04  0.10100000352E+00 0.  1.
</event>
<event>
 5   0  0.5840500E-06  0.2592421E+04  0.7818609E-02  0.8370780E-01
        3   -1    0    0  501    0  0.00000000000E+00  0.00000000000E+00  0.13025437275E+04  0.13025437314E+04  0.10100000352E+00 0.  1.
       -3   -1    0    0    0  501  0.00000000000E+00  0.00000000000E+00 -0.12899080209E+04  0.12899080248E+04  0.10100000352E+00 0. -1.
    10030    2    1    2    0    0  0.00000000000E+00  0.00000000000E+00  0.12635706644E+02  0.25924517563E+04  0.25924209626E+04 0.  0.
        1    1    3    3  502    0 -0.11684061968E+04 -0.50965924386E+03  0.24134410402E+03  0.12973714049E+04  0.50400001928E-02 0.  1.
       -1    1    3    3    0  502  0.11684061968E+04  0.50965924386E+03 -0.22870839738E+03  0.12950803514E+04  0.50400001928E-02 0. -1.
</event>
<event>
 5   0  0.1681731E-05  0.2643369E+04  0.7818609E-02  0.8353617E-01
       -2   -1    0    0    0  501  0.00000000000E+00  0.00000000000E+00  0.11759965077E+04  0.11759965077E+04  0.25500000920E-02 0. -1.
        2   -1    0    0  501    0  0.00000000000E+00  0.00000000000E+00 -0.14854215374E+04  0.14854215374E+04  0.25500000920E-02 0.  1.
    10030    2    1    2    0    0  0.00000000000E+00  0.00000000000E+00 -0.30942502967E+03  0.26614180451E+04  0.26433694713E+04 0.  0.
        2    1    3    3  502    0  0.86666501336E+03 -0.38276040101E+03 -0.10825451033E+04  0.14385818262E+04  0.25500000920E-02 0.  1.
       -2    1    3    3    0  502 -0.86666501336E+03  0.38276040101E+03  0.77312007365E+03  0.12228362189E+04  0.25500000920E-02 0. -1.
</event>
<event>
 5   0  0.1677971E-05  0.2589119E+04  0.7818609E-02  0.8371907E-01
        2   -1    0    0  501    0  0.00000000000E+00  0.00000000000E+00  0.17625746384E+04  0.17625746384E+04  0.25500000920E-02 0.  1.
       -2   -1    0    0    0  501  0.00000000000E+00  0.00000000000E+00 -0.95081623699E+03  0.95081623700E+03  0.25500000920E-02 0. -1.
    10030    2    1    2    0    0  0.00000000000E+00  0.00000000000E+00  0.81175840141E+03  0.27133908754E+04  0.25891192210E+04 0.  0.
        4    1    3    3  502    0 -0.74910381099E+03 -0.33843407915E+03 -0.64221739584E+03  0.10431389850E+04  0.12699999809E+01 0. -1.
       -4    1    3    3    0  502  0.74910381099E+03  0.33843407915E+03  0.14539757972E+04  0.16702518904E+04  0.12699999809E+01 0.  1.
</event>
<event>
 5   0  0.6993678E-06  0.2603056E+04  0.7818609E-02  0.8367164E-01
        1   -1    0    0  501    0  0.00000000000E+00  0.00000000000E+00  0.13945975554E+04  0.13945975554E+04  0.50400001928E-02 0.  1.
       -1   -1    0    0    0  501  0.00000000000E+00  0.00000000000E+00 -0.12146697220E+04  0.12146697220E+04  0.50400001928E-02 0. -1.
    10030    2    1    2    0    0  0.00000000000E+00  0.00000000000E+00  0.17992783342E+03  0.26092672774E+04  0.26030562229E+04 0.  0.
        1    1    3    3  502    0 -0.14502796601E+03 -0.54766197655E+03 -0.10845864905E+04  0.12236399008E+04  0.50400001928E-02 0. -1.
       -1    1    3    3    0  502  0.14502796601E+03  0.54766197655E+03  0.12645143239E+04  0.13856273766E+04  0.50400001928E-02 0.  1.
</event>
<event>
 5   0  0.1681731E-05  0.2574056E+04  0.7818609E-02  0.8377068E-01
        2   -1    0    0  501    0  0.00000000000E+00  0.00000000000E+00  0.12467643176E+04  0.12467643176E+04  0.25500000920E-02 0. -1.
       -2   -1    0    0    0  501  0.00000000000E+00  0.00000000000E+00 -0.13285919700E+04  0.13285919700E+04  0.25500000920E-02 0.  1.
    10030    2    1    2    0    0  0.00000000000E+00  0.00000000000E+00 -0.81827652377E+02  0.25753562877E+04  0.25740559908E+04 0.  0.
        2    1    3    3  502    0 -0.89619712408E+02  0.68563422118E+03 -0.11269643990E+04  0.13221855901E+04  0.25500000920E-02 0.  1.
       -2    1    3    3    0  502  0.89619712408E+02 -0.68563422118E+03  0.10451367466E+04  0.12531706976E+04  0.25500000920E-02 0. -1.
</event>
<event>
 5   0  0.6706225E-06  0.2598077E+04  0.7818609E-02  0.8368855E-01
       -1   -1    0    0    0  501  0.00000000000E+00  0.00000000000E+00  0.12395192866E+04  0.12395192866E+04  0.50400001928E-02 0.  1.
        1   -1    0    0  501    0  0.00000000000E+00  0.00000000000E+00 -0.13614160929E+04  0.13614160929E+04  0.50400001928E-02 0. -1.
    10030    2    1    2    0    0  0.00000000000E+00  0.00000000000E+00 -0.12189680634E+03  0.26009353795E+04  0.25980773693E+04 0.  0.
        5    1    3    3  502    0 -0.71076544377E+03 -0.49698203407E+03 -0.10291217552E+04  0.13458426116E+04  0.46999998093E+01 0. -1.
       -5    1    3    3    0  502  0.71076544377E+03  0.49698203407E+03  0.90722494882E+03  0.12550927679E+04  0.46999998093E+01 0.  1.
</event>
<event>
 5   0  0.6984287E-06  0.2608327E+04  0.7818609E-02  0.8365378E-01
       -1   -1    0    0    0  501  0.00000000000E+00  0.00000000000E+00  0.97400721412E+03  0.97400721413E+03  0.50400001928E-02 0. -1.
        1   -1    0    0  501    0  0.00000000000E+00  0.00000000000E+00 -0.17462323461E+04  0.17462323461E+04  0.50400001928E-02 0.  1.
    10030    2    1    2    0    0  0.00000000000E+00  0.00000000000E+00 -0.77222513198E+03  0.27202395602E+04  0.26083273588E+04 0.  0.
        3    1    3    3  502    0 -0.11988157479E+04 -0.26750584790E+03 -0.84323888153E+03  0.14898893910E+04  0.10100000352E+00 0. -1.
       -3    1    3    3    0  502  0.11988157479E+04  0.26750584790E+03  0.71013749547E+02  0.12303501692E+04  0.10100000352E+00 0.  1.
</event>
<event>
 5   0  0.1869956E-05  0.2703131E+04  0.7818609E-02  0.8333990E-01
        2   -1    0    0  501    0  0.00000000000E+00  0.00000000000E+00  0.16383220403E+04  0.16383220403E+04  0.25500000920E-02 0.  1.
       -2   -1    0    0    0  501  0.00000000000E+00  0.00000000000E+00 -0.11150002396E+04  0.11150002396E+04  0.25500000920E-02 0. -1.
    10030    2    1    2    0    0  0.00000000000E+00  0.00000000000E+00  0.52332180077E+03  0.27533222799E+04  0.27031311233E+04 0.  0.
        5    1    3    3  502    0 -0.93738855347E+03  0.17957353125E+03  0.12363847286E+04  0.15619261316E+04  0.46999998093E+01 0.  1.
       -5    1    3    3    0  502  0.93738855347E+03 -0.17957353125E+03 -0.71306292783E+03  0.11913961484E+04  0.46999998093E+01 0. -1.
</event>
<event>
 5   0  0.6706225E-06  0.2600367E+04  0.7818609E-02  0.8368076E-01
        1   -1    0    0  501    0  0.00000000000E+00  0.00000000000E+00  0.15292202652E+04  0.15292202652E+04  0.50400001928E-02 0. -1.
       -1   -1    0    0    0  501  0.00000000000E+00  0.00000000000E+00 -0.11054507324E+04  0.11054507324E+04  0.50400001928E-02 0.  1.
    10030    2    1    2    0    0  0.00000000000E+00  0.00000000000E+00  0.42376953281E+03  0.26346709975E+04  0.26003674064E+04 0.  0.
        5    1    3    3  502    0  0.17900670608E+03  0.32666701872E+03 -0.10502207738E+04  0.11143341086E+04  0.46999998093E+01 0.  1.
       -5    1    3    3    0  502 -0.17900670608E+03 -0.32666701872E+03  0.14739903066E+04  0.15203368889E+04  0.46999998093E+01 0. -1.
</event>
<event>
 5   0  0.1720129E-05  0.2645591E+04  0.7818609E-02  0.8352878E-01
       -2   -1    0    0    0  501  0.00000000000E+00  0.00000000000E+00  0.12165139140E+04  0.12165139140E+04  0.25500000920E-02 0.  1.
        2   -1    0    0  501    0  0.00000000000E+00  0.00000000000E+00 -0.14383624179E+04  0.14383624179E+04  0.25500000920E-02 0. -1.
    10030    2    1    2    0    0  0.00000000000E+00  0.00000000000E+00 -0.22184850393E+03  0.26548763319E+04  0.26455909697E+04 0.  0.
        3    1    3    3  502    0 -0.90085040864E+03 -0.77153193942E+03 -0.69863742162E+03  0.13765490363E+04  0.10100000352E+00 0.  1.
       -3    1    3    3    0  502  0.90085040864E+03  0.77153193942E+03  0.47678891769E+03  0.12783272955E+04  0.10100000352E+00 0. -1.
</event>
<event>
 5   0  0.6993678E-06  0.2634227E+04  0.7818609E-02  0.8356667E-01
        1   -1    0    0  501    0  0.00000000000E+00  0.00000000000E+00  0.23940130169E+04  0.23940130169E+04  0.50400001928E-02 0. -1.
       -1   -1    0    0    0  501  0.00000000000E+00  0.00000000000E+00 -0.72463605736E+03  0.72463605738E+03  0.50400001928E-02 0.  1.
    10030    2    1    2    0    0  0.00000000000E+00  0.00000000000E+00  0.16693769595E+04  0.31186490743E+04  0.26342271382E+04 0.  0.
        1    1    3    3  502    0 -0.56400865809E+02 -0.12409359201E+04  0.31635708986E+03  0.12818677092E+04  0.50400001928E-02 0.  1.
       -1    1    3    3    0  502  0.56400865809E+02  0.12409359201E+04  0.13530198697E+04  0.18367813651E+04  0.50400001928E-02 0. -1.
</event>
<event>
 5   0  0.6706225E-06  0.2618619E+04  0.7818609E-02  0.8361904E-01
        1   -1    0    0  501    0  0.00000000000E+00  0.00000000000E+00  0.20546937463E+04  0.20546937463E+04  0.50400001928E-02 0.  1.
       -1   -1    0    0    0  501  0.00000000000E+00  0.00000000000E+00 -0.83432954560E+03  0.83432954561E+03  0.50400001928E-02 0. -1.
    10030    2    1    2    0    0  0.00000000000E+00  0.00000000000E+00  0.12203642007E+04  0.28890232919E+04  0.26186192543E+04 0.  0.
        5    1    3    3  502    0 -0.25501579689E+03 -0.10287819052E+04 -0.23785573307E+03  0.10862884999E+04  0.46999998093E+01 0. -1.
       -5    1    3    3    0  502  0.25501579689E+03  0.10287819052E+04  0.14582199338E+04  0.18027347921E+04  0.46999998093E+01 0.  1.
</event>
<event>
 5   0  0.1720129E-05  0.2612029E+04  0.7818609E-02  0.8364127E-01
       -2   -1    0    0    0  501  0.00000000000E+00  0.00000000000E+00  0.87694036292E+03  0.87694036292E+03  0.25500000920E-02 0.  1.
        2   -1    0    0  501    0  0.00000000000E+00  0.00000000000E+00 -0.19450290474E+04  0.19450290474E+04  0.25500000920E-02 0. -1.
    10030    2    1    2    0    0  0.00000000000E+00  0.00000000000E+00 -0.10680886844E+04  0.28219694103E+04  0.26120294628E+04 0.  0.
        3    1    3    3  502    0  0.18335488030E+03 -0.11922854454E+04 -0.10747831270E+04  0.16156492118E+04  0.10100000352E+00 0. -1.
       -3    1    3    3    0  502 -0.18335488030E+03  0.11922854454E+04  0.66944425242E+01  0.12063201985E+04  0.10100000352E+00 0.  1.
</event>
<event>
 5   0  0.1869956E-05  0.2601973E+04  0.7818609E-02  0.8367531E-01
       -2   -1    0    0    0  501  0.00000000000E+00  0.00000000000E+00  0.80712846832E+03  0.80712846833E+03  0.25500000920E-02 0. -1.
        2   -1    0    0  501    0  0.00000000000E+00  0.00000000000E+00 -0.20970209860E+04  0.20970209860E+04  0.25500000920E-02 0.  1.
    10030    2    1    2    0    0  0.00000000000E+00  0.00000000000E+00 -0.12898925177E+04  0.29041494544E+04  0.26019725875E+04 0.  0.
        5    1    3    3  502    0 -0.73149816789E+03  0.84333668534E+03 -0.13905343993E+04  0.17832314320E+04  0.46999998093E+01 0.  1.
       -5    1    3    3    0  502  0.73149816789E+03 -0.84333668534E+03  0.10064188162E+03  0.11209180223E+04  0.46999998093E+01 0. -1.
</event>
<event>
 5   0  0.1869956E-05  0.2611267E+04  0.7818609E-02  0.8364384E-01
        2   -1    0    0  501    0  0.00000000000E+00  0.00000000000E+00  0.10263019632E+04  0.10263019632E+04  0.25500000920E-02 0.  1.
       -2   -1    0    0    0  501  0.00000000000E+00  0.00000000000E+00 -0.16609919624E+04  0.16609919624E+04  0.25500000920E-02 0. -1.
    10030    2    1    2    0    0  0.00000000000E+00  0.00000000000E+00 -0.63468999920E+03  0.26872939256E+04  0.26112673642E+04 0.  0.
        5    1    3    3  502    0 -0.26066920018E+03 -0.10846131165E+04  0.38087976886E+03  0.11787389587E+04  0.46999998093E+01 0.  1.
       -5    1    3    3    0  502  0.26066920018E+03  0.10846131165E+04 -0.10155697681E+04  0.15085549669E+04  0.46999998093E+01 0. -1.
</event>
<event>
 5   0  0.6918420E-06  0.2611434E+04  0.7818609E-02  0.8364328E-01
       -1   -1    0    0    0  501  0.00000000000E+00  0.00000000000E+00  0.94441826439E+03  0.94441826440E+03  0.50400001928E-02 0. -1.
        1   -1    0    0  501    0  0.00000000000E+00  0.00000000000E+00 -0.18052346529E+04  0.18052346529E+04  0.50400001928E-02 0.  1.
    10030    2    1    2    0    0  0.00000000000E+00  0.00000000000E+00 -0.86081638851E+03  0.27496529173E+04  0.26114337654E+04 0.  0.
        4    1    3    3  502    0  0.78590524831E+03 -0.70723541090E+03  0.37634801895E+03  0.11222604110E+04  0.12699999809E+01 0. -1.
       -4    1    3    3    0  502 -0.78590524831E+03  0.70723541090E+03 -0.12371644075E+04  0.16273925064E+04  0.12699999809E+01 0.  1.
</event>
<event>
 5   0  0.5840500E-06  0.2510374E+04  0.7818609E-02  0.8399299E-01
        3   -1    0    0  501    0  0.00000000000E+00  0.00000000000E+00  0.12826789755E+04  0.12826789795E+04  0.10100000352E+00 0. -1.
       -3   -1    0    0    0  501  0.00000000000E+00  0.00000000000E+00 -0.12282838699E+04  0.12282838741E+04  0.10100000352E+00 0.  1.
    10030    2    1    2    0    0  0.00000000000E+00  0.00000000000E+00  0.54395105633E+02  0.25109628536E+04  0.25103736026E+04 0.  0.
        2    1    3    3  502    0 -0.60277795603E+03 -0.10387340204E+04 -0.33783231959E+03  0.12475737676E+04  0.25500000920E-02 0.  1.
       -2    1    3    3    0  502  0.60277795603E+03  0.10387340204E+04  0.39222742522E+03  0.12633890860E+04  0.25500000920E-02 0. -1.
</event>
<event>
 5   0  0.6918420E-06  0.2378101E+04  0.7818609E-02  0.8447748E-01
        1   -1    0    0  501    0  0.00000000000E+00  0.00000000000E+00  0.83274274236E+03  0.83274274238E+03  0.50400001928E-02 0.  1.
       -1   -1    0    0    0  501  0.00000000000E+00  0.00000000000E+00 -0.16978122882E+04  0.16978122882E+04  0.50400001928E-02 0. -1.
    10030    2    1    2    0    0  0.00000000000E+00  0.00000000000E+00 -0.86506954580E+03  0.25305550305E+04  0.23781008060E+04 0.  0.
        4    1    3    3  502    0 -0.10977289814E+04  0.39040364272E+03 -0.68528065090E+03  0.13516786246E+04  0.12699999809E+01 0. -1.
       -4    1    3    3    0  502  0.10977289814E+04 -0.39040364272E+03 -0.17978889490E+03  0.11788764059E+04  0.12699999809E+01 0.  1.
</event>
<event>
 5   0  0.6984287E-06  0.2605144E+04  0.7818609E-02  0.8366456E-01
       -1   -1    0    0    0  501  0.00000000000E+00  0.00000000000E+00  0.69082076875E+03  0.69082076877E+03  0.50400001928E-02 0.  1.
        1   -1    0    0  501    0  0.00000000000E+00  0.00000000000E+00 -0.24560552094E+04  0.24560552094E+04  0.50400001928E-02 0. -1.
    10030    2    1    2    0    0  0.00000000000E+00  0.00000000000E+00 -0.17652344406E+04  0.31468759781E+04  0.26051441019E+04 0.  0.
        3    1    3    3  502    0  0.40360323328E+03 -0.75043987636E+03 -0.20726984394E+04  0.22410119162E+04  0.10100000352E+00 0. -1.
       -3    1    3    3    0  502 -0.40360323328E+03  0.75043987636E+03  0.30746399875E+03  0.90586406191E+03  0.10100000352E+00 0.  1.
</event>
<event>
 5   0  0.6993678E-06  0.2376746E+04  0.7818609E-02  0.8448261E-01
       -1   -1    0    0    0  501  0.00000000000E+00  0.00000000000E+00  0.88935633501E+03  0.88935633503E+03  0.50400001928E-02 0. -1.
        1   -1    0    0  501    0  0.00000000000E+00  0.00000000000E+00 -0.15879244620E+04  0.15879244621E+04  0.50400001928E-02 0.  1.
    10030    2    1    2    0    0  0.00000000000E+00  0.00000000000E+00 -0.69856812703E+03  0.24772807971E+04  0.23767462463E+04 0.  0.
        1    1    3    3  502    0  0.63744370721E+03 -0.99352849748E+03 -0.49218676566E+03  0.12789375151E+04  0.50400001928E-02 0.  1.
       -1    1    3    3    0  502 -0.63744370721E+03  0.99352849748E+03 -0.20638136137E+03  0.11983432820E+04  0.50400001928E-02 0. -1.
</event>
<event>
 5   0  0.1720129E-05  0.2591071E+04  0.7818609E-02  0.8371241E-01
       -2   -1    0    0    0  501  0.00000000000E+00  0.00000000000E+00  0.13278298985E+04  0.13278298985E+04  0.25500000920E-02 0.  1.
        2   -1    0    0  501    0  0.00000000000E+00  0.00000000000E+00 -0.12640264612E+04  0.12640264612E+04  0.25500000920E-02 0. -1.
    10030    2    1    2    0    0  0.00000000000E+00  0.00000000000E+00  0.63803437273E+02  0.25918563596E+04  0.25910709196E+04 0.  0.
        3    1    3    3  502    0 -0.93227642059E+02  0.80622855486E+03 -0.97821439113E+03  0.12710622649E+04  0.10100000352E+00 0. -1.
       -3    1    3    3    0  502  0.93227642059E+02 -0.80622855486E+03  0.10420178284E+04  0.13207940948E+04  0.10100000352E+00 0.  1.
</event>
<event>
 5   0  0.1869956E-05  0.2818337E+04  0.7818609E-02  0.8297598E-01
       -2   -1    0    0    0  501  0.00000000000E+00  0.00000000000E+00  0.74739446553E+03  0.74739446553E+03  0.25500000920E-02 0. -1.
        2   -1    0    0  501    0  0.00000000000E+00  0.00000000000E+00 -0.26569039411E+04  0.26569039411E+04  0.25500000920E-02 0.  1.
    10030    2    1    2    0    0  0.00000000000E+00  0.00000000000E+00 -0.19095094756E+04  0.34042984066E+04  0.28183366023E+04 0.  0.
        5    1    3    3  502    0 -0.13125788583E+04 -0.43157755915E+02 -0.33764679332E+03  0.13560063784E+04  0.46999998093E+01 0. -1.
       -5    1    3    3    0  502  0.13125788583E+04  0.43157755915E+02 -0.15718626823E+04  0.20482920283E+04  0.46999998093E+01 0.  1.
</event>
<event>
 5   0  0.1869956E-05  0.2605772E+04  0.7818609E-02  0.8366243E-01
       -2   -1    0    0    0  501  0.00000000000E+00  0.00000000000E+00  0.64942619825E+03  0.64942619825E+03  0.25500000920E-02 0. -1.
        2   -1    0    0  501    0  0.00000000000E+00  0.00000000000E+00 -0.26138635387E+04  0.26138635387E+04  0.25500000920E-02 0.  1.
    10030    2    1    2    0    0  0.00000000000E+00  0.00000000000E+00 -0.19644373405E+04  0.32632897370E+04  0.26057716406E+04 0.  0.
        5    1    3    3  502    0  0.31250017330E+03 -0.81382919593E+03 -0.21947931021E+04  0.23615912367E+04  0.46999998093E+01 0.  1.
       -5    1    3    3    0  502 -0.31250017330E+03  0.81382919593E+03  0.23035576160E+03  0.90169850025E+03  0.46999998093E+01 0. -1.
</event>
<event>
 5   0  0.6993678E-06  0.2426451E+04  0.7818609E-02  0.8429667E-01
       -1   -1    0    0    0  501  0.00000000000E+00  0.00000000000E+00  0.72339846579E+03  0.72339846580E+03  0.50400001928E-02 0.  1.
        1   -1    0    0  501    0  0.00000000000E+00  0.00000000000E+00 -0.20347241665E+04  0.20347241665E+04  0.50400001928E-02 0. -1.
    10030    2    1    2    0    0  0.00000000000E+00  0.00000000000E+00 -0.13113257007E+04  0.27581226323E+04  0.24264511867E+04 0.  0.
        1    1    3    3  502    0 -0.79873368123E+03 -0.69222030992E+03 -0.13327064134E+04  0.17009558593E+04  0.50400001928E-02 0. -1.
       -1    1    3    3    0  502  0.79873368123E+03  0.69222030992E+03  0.21380712691E+02  0.10571667730E+04  0.50400001928E-02 0.  1.
</event>
<event>
 5   0  0.1702345E-05  0.2595968E+04  0.7818609E-02  0.8369572E-01
       -2   -1    0    0    0  501  0.00000000000E+00  0.00000000000E+00  0.58163286908E+03  0.58163286909E+03  0.25500000920E-02 0. -1.
        2   -1    0    0  501    0  0.00000000000E+00  0.00000000000E+00 -0.28966079676E+04  0.28966079676E+04  0.25500000920E-02 0.  1.
    10030    2    1    2    0    0  0.00000000000E+00  0.00000000000E+00 -0.23149750985E+04  0.34782408367E+04  0.25959679527E+04 0.  0.
        1    1    3    3  502    0  0.58876183817E+03 -0.48845791212E+03  0.24747263376E+03  0.80403627933E+03  0.50400001928E-02 0. -1.
       -1    1    3    3    0  502 -0.58876183817E+03  0.48845791212E+03 -0.25624477323E+04  0.26742045574E+04  0.50400001928E-02 0.  1.
</event>
<event>
 5   0  0.1702345E-05  0.2697485E+04  0.7818609E-02  0.8335821E-01
        2   -1    0    0  501    0  0.00000000000E+00  0.00000000000E+00  0.12605527702E+04  0.12605527702E+04  0.25500000920E-02 0. -1.
       -2   -1    0    0    0  501  0.00000000000E+00  0.00000000000E+00 -0.14431023111E+04  0.14431023111E+04  0.25500000920E-02 0.  1.
    10030    2    1    2    0    0  0.00000000000E+00  0.00000000000E+00 -0.18254954086E+03  0.27036550813E+04  0.26974852111E+04 0.  0.
        1    1    3    3  502    0  0.22808644607E+03  0.87331111967E+03  0.91322054800E+03  0.12840044813E+04  0.50400001928E-02 0. -1.
       -1    1    3    3    0  502 -0.22808644607E+03 -0.87331111967E+03 -0.10957700889E+04  0.14196506001E+04  0.50400001928E-02 0.  1.
</event>
<event>
 5   0  0.6984287E-06  0.2583876E+04  0.7818609E-02  0.8373699E-01
        1   -1    0    0  501    0  0.00000000000E+00  0.00000000000E+00  0.12107936806E+04  0.12107936806E+04  0.50400001928E-02 0. -1.
       -1   -1    0    0    0  501  0.00000000000E+00  0.00000000000E+00 -0.13785199413E+04  0.13785199414E+04  0.50400001928E-02 0.  1.
    10030    2    1    2    0    0  0.00000000000E+00  0.00000000000E+00 -0.16772626077E+03  0.25893136219E+04  0.25838755648E+04 0.  0.
        3    1    3    3  502    0 -0.31172889375E+03 -0.13607024684E+02  0.11724672211E+04  0.12132763284E+04  0.10100000352E+00 0. -1.
       -3    1    3    3    0  502  0.31172889375E+03  0.13607024684E+02 -0.13401934818E+04  0.13760372936E+04  0.10100000352E+00 0.  1.
</event>
<event>
 5   0  0.1677971E-05  0.2619895E+04  0.7818609E-02  0.8361474E-01
        2   -1    0    0  501    0  0.00000000000E+00  0.00000000000E+00  0.20427130467E+04  0.20427130467E+04  0.25500000920E-02 0.  1.
       -2   -1    0    0    0  501  0.00000000000E+00  0.00000000000E+00 -0.84004118178E+03  0.84004118178E+03  0.25500000920E-02 0. -1.
    10030    2    1    2    0    0  0.00000000000E+00  0.00000000000E+00  0.12026718649E+04  0.28827542285E+04  0.26198954802E+04 0.  0.
        4    1    3    3  502    0  0.33467688202E+03 -0.18954884322E+03  0.19791798311E+04  0.20162072801E+04  0.12699999809E+01 0.  1.
       -4    1    3    3    0  502 -0.33467688202E+03  0.18954884322E+03 -0.77650796621E+03  0.86654694842E+03  0.12699999809E+01 0. -1.
</event>
<event>
 5   0  0.7138294E-06  0.2626024E+04  0.7818609E-02  0.8359415E-01
        1   -1    0    0  501    0  0.00000000000E+00  0.00000000000E+00  0.17855938009E+04  0.17855938009E+04  0.50400001928E-02 0.  1.
       -1   -1    0    0    0  501  0.00000000000E+00  0.00000000000E+00 -0.96550566182E+03  0.96550566183E+03  0.50400001928E-02 0. -1.
    10030    2    1    2    0    0  0.00000000000E+00  0.00000000000E+00  0.82008813903E+03  0.27510994627E+04  0.26260243140E+04 0.  0.
        2    1    3    3  502    0  0.43123597997E+03  0.67889072706E+03  0.14973315796E+04  0.16996643636E+04  0.25500000920E-02 0.  1.
       -2    1    3    3    0  502 -0.43123597997E+03 -0.67889072706E+03 -0.67724344058E+03  0.10514350991E+04  0.25500000920E-02 0. -1.
</event>
<event>
 5   0  0.1681731E-05  0.2610415E+04  0.7818609E-02  0.8364672E-01
        2   -1    0    0  501    0  0.00000000000E+00  0.00000000000E+00  0.14348287307E+04  0.14348287307E+04  0.25500000920E-02 0.  1.
       -2   -1    0    0    0  501  0.00000000000E+00  0.00000000000E+00 -0.11872965810E+04  0.11872965810E+04  0.25500000920E-02 0. -1.
    10030    2    1    2    0    0  0.00000000000E+00  0.00000000000E+00  0.24753214975E+03  0.26221253117E+04  0.26104154814E+04 0.  0.
        2    1    3    3  502    0  0.10893906161E+04  0.40055739271E+03 -0.47586156547E+03  0.12544570016E+04  0.25500000920E-02 0. -1.
       -2    1    3    3    0  502 -0.10893906161E+04 -0.40055739271E+03  0.72339371522E+03  0.13676683101E+04  0.25500000920E-02 0.  1.
</event>
<event>
 5   0  0.6993678E-06  0.2655561E+04  0.7818609E-02  0.8349570E-01
       -1   -1    0    0    0  501  0.00000000000E+00  0.00000000000E+00  0.14187366888E+04  0.14187366888E+04  0.50400001928E-02 0. -1.
        1   -1    0    0  501    0  0.00000000000E+00  0.00000000000E+00 -0.12426557590E+04  0.12426557591E+04  0.50400001928E-02 0.  1.
    10030    2    1    2    0    0  0.00000000000E+00  0.00000000000E+00  0.17608092979E+03  0.26613924479E+04  0.26555611964E+04 0.  0.
        1    1    3    3  502    0  0.11559942186E+04 -0.36760029509E+03 -0.45309770144E+03  0.12948938711E+04  0.50400001928E-02 0.  1.
       -1    1    3    3    0  502 -0.11559942186E+04  0.36760029509E+03  0.62917863122E+03  0.13664985768E+04  0.50400001928E-02 0. -1.
</event>
<event>
 5   0  0.1681731E-05  0.2618465E+04  0.7818609E-02  0.8361956E-01
        2   -1    0    0  501    0  0.00000000000E+00  0.00000000000E+00  0.14970445544E+04  0.14970445544E+04  0.25500000920E-02 0. -1.
       -2   -1    0    0    0  501  0.00000000000E+00  0.00000000000E+00 -0.11449828222E+04  0.11449828222E+04  0.25500000920E-02 0.  1.
    10030    2    1    2    0    0  0.00000000000E+00  0.00000000000E+00  0.35206173221E+03  0.26420273766E+04  0.26184654276E+04 0.  0.
        2    1    3    3  502    0 -0.47706615183E+02  0.12004092122E+04  0.70112907721E+03  0.13909853273E+04  0.25500000920E-02 0. -1.
       -2    1    3    3    0  502  0.47706615183E+02 -0.12004092122E+04 -0.34906734500E+03  0.12510420493E+04  0.25500000920E-02 0.  1.
</event>
<event>
 5   0  0.1869956E-05  0.2544346E+04  0.7818609E-02  0.8387355E-01
       -2   -1    0    0    0  501  0.00000000000E+00  0.00000000000E+00  0.82122209162E+03  0.82122209162E+03  0.25500000920E-02 0.  1.
        2   -1    0    0  501    0  0.00000000000E+00  0.00000000000E+00 -0.19707506285E+04  0.19707506285E+04  0.25500000920E-02 0. -1.
    10030    2    1    2    0    0  0.00000000000E+00  0.00000000000E+00 -0.11495285369E+04  0.27919727201E+04  0.25443458517E+04 0.  0.
        5    1    3    3  502    0 -0.52742741801E+03  0.93270264089E+03 -0.13272823834E+04  0.17058178428E+04  0.46999998093E+01 0. -1.
       -5    1    3    3    0  502  0.52742741801E+03 -0.93270264089E+03  0.17775384650E+03  0.10861548773E+04  0.46999998093E+01 0.  1.
</event>
<event>
 5   0  0.1869956E-05  0.2658386E+04  0.7818609E-02  0.8348635E-01
       -2   -1    0    0    0  501  0.00000000000E+00  0.00000000000E+00  0.95263608266E+03  0.95263608266E+03  0.25500000920E-02 0. -1.
        2   -1    0    0  501    0  0.00000000000E+00  0.00000000000E+00 -0.18545952312E+04  0.18545952312E+04  0.25500000920E-02 0.  1.
    10030    2    1    2    0    0  0.00000000000E+00  0.00000000000E+00 -0.90195914859E+03  0.28072313139E+04  0.26583862293E+04 0.  0.
        5    1    3    3  502    0  0.10632287704E+04 -0.42080328855E+03  0.26460625618E+03  0.11736990187E+04  0.46999998093E+01 0. -1.
       -5    1    3    3    0  502 -0.10632287704E+04  0.42080328855E+03 -0.11665654048E+04  0.16335322952E+04  0.46999998093E+01 0.  1.
</event>
<event>
 5   0  0.1869956E-05  0.2564589E+04  0.7818609E-02  0.8380330E-01
        2   -1    0    0  501    0  0.00000000000E+00  0.00000000000E+00  0.12764631874E+04  0.12764631874E+04  0.25500000920E-02 0. -1.
       -2   -1    0    0    0  501  0.00000000000E+00  0.00000000000E+00 -0.12881529530E+04  0.12881529530E+04  0.25500000920E-02 0.  1.
    10030    2    1    2    0    0  0.00000000000E+00  0.00000000000E+00 -0.11689765614E+02  0.25646161404E+04  0.25645894987E+04 0.  0.
        5    1    3    3  502    0  0.11650517423E+04  0.22690864418E+03 -0.49105569334E+03  0.12845197075E+04  0.46999998093E+01 0.  1.
       -5    1    3    3    0  502 -0.11650517423E+04 -0.22690864418E+03  0.47936592773E+03  0.12800964329E+04  0.46999998093E+01 0. -1.
</event>
<event>
 5   0  0.6984287E-06  0.2600425E+04  0.7818609E-02  0.8368057E-01
       -1   -1    0    0    0  501  0.00000000000E+00  0.00000000000E+00  0.10911881069E+04  0.10911881069E+04  0.50400001928E-02 0.  1.
        1   -1    0    0  501    0  0.00000000000E+00  0.00000000000E+00 -0.15492763892E+04  0.15492763892E+04  0.50400001928E-02 0. -1.
    10030    2    1    2    0    0  0.00000000000E+00  0.00000000000E+00 -0.45808828229E+03  0.26404644961E+04  0.26004245578E+04 0.  0.
        3    1    3    3  502    0 -0.98608013588E+02  0.58162986612E+03  0.94747473933E+03  0.11161206178E+04  0.10100000352E+00 0.  1.
       -3    1    3    3    0  502  0.98608013588E+02 -0.58162986612E+03 -0.14055630216E+04  0.15243438783E+04  0.10100000352E+00 0. -1.
</event>
<event>
 5   0  0.6984287E-06  0.2398724E+04  0.7818609E-02  0.8439981E-01
       -1   -1    0    0    0  501  0.00000000000E+00  0.00000000000E+00  0.86202243576E+03  0.86202243578E+03  0.50400001928E-02 0.  1.
        1   -1    0    0  501    0  0.00000000000E+00  0.00000000000E+00 -0.16687145657E+04  0.16687145657E+04  0.50400001928E-02 0. -1.
    10030    2    1    2    0    0  0.00000000000E+00  0.00000000000E+00 -0.80669212997E+03  0.25307370015E+04  0.23987241564E+04 0.  0.
        3    1    3    3  502    0 -0.84906893098E+03 -0.28857565304E+03 -0.12435905090E+04  0.15332029616E+04  0.10100000352E+00 0. -1.
       -3    1    3    3    0  502  0.84906893098E+03  0.28857565304E+03  0.43689837902E+03  0.99753403996E+03  0.10100000352E+00 0.  1.
</event>
<event>
 5   0  0.6984287E-06  0.2734656E+04  0.7818609E-02  0.8323847E-01
        1   -1    0    0  501    0  0.00000000000E+00  0.00000000000E+00  0.14760275879E+04  0.14760275879E+04  0.50400001928E-02 0. -1.
       -1   -1    0    0    0  501  0.00000000000E+00  0.00000000000E+00 -0.12666338347E+04  0.12666338347E+04  0.50400001928E-02 0.  1.
    10030    2    1    2    0    0  0.00000000000E+00  0.00000000000E+00  0.20939375322E+03  0.27426614226E+04  0.27346564565E+04 0.  0.
        3    1    3    3  502    0 -0.42942517001E+03 -0.95933443662E+03 -0.77242473318E+03  0.13043651776E+04  0.10100000352E+00 0.  1.
       -3    1    3    3    0  502  0.42942517001E+03  0.95933443662E+03  0.98181848640E+03  0.14382962450E+04  0.10100000352E+00 0. -1.
</event>
<event>
 5   0  0.1702345E-05  0.2607834E+04  0.7818609E-02  0.8365545E-01
        2   -1    0    0  501    0  0.00000000000E+00  0.00000000000E+00  0.17402050496E+04  0.17402050496E+04  0.25500000920E-02 0.  1.
       -2   -1    0    0    0  501  0.00000000000E+00  0.00000000000E+00 -0.97701120167E+03  0.97701120167E+03  0.25500000920E-02 0. -1.
    10030    2    1    2    0    0  0.00000000000E+00  0.00000000000E+00  0.76319384792E+03  0.27172162513E+04  0.26078342176E+04 0.  0.
        1    1    3    3  502    0 -0.37105795358E+03 -0.80843162864E+03  0.13749764529E+04  0.16376220410E+04  0.50400001928E-02 0.  1.
       -1    1    3    3    0  502  0.37105795358E+03  0.80843162864E+03 -0.61178260496E+03  0.10795942103E+04  0.50400001928E-02 0. -1.
</event>
<event>
 5   0  0.6706225E-06  0.2604865E+04  0.7818609E-02  0.8366551E-01
        1   -1    0    0  501    0  0.00000000000E+00  0.00000000000E+00  0.19697130408E+04  0.19697130408E+04  0.50400001928E-02 0. -1.
       -1   -1    0    0    0  501  0.00000000000E+00  0.00000000000E+00 -0.86120664206E+03  0.86120664207E+03  0.50400001928E-02 0.  1.
    10030    2    1    2    0    0  0.00000000000E+00  0.00000000000E+00  0.11085063987E+04  0.28309196829E+04  0.26048646442E+04 0.  0.
        5    1    3    3  502    0  0.16476348914E+03 -0.40130334827E+03 -0.78037356423E+03  0.89285854111E+03  0.46999998093E+01 0.  1.
       -5    1    3    3    0  502 -0.16476348914E+03  0.40130334827E+03  0.18888799630E+04  0.19380611418E+04  0.46999998093E+01 0. -1.
</event>
<event>
 5   0  0.1702345E-05  0.2527416E+04  0.7818609E-02  0.8393283E-01
        2   -1    0    0  501    0  0.00000000000E+00  0.00000000000E+00  0.11233445002E+04  0.11233445002E+04  0.25500000920E-02 0. -1.
       -2   -1    0    0    0  501  0.00000000000E+00  0.00000000000E+00 -0.14216104369E+04  0.14216104369E+04  0.25500000920E-02 0.  1.
    10030    2    1    2    0    0  0.00000000000E+00  0.00000000000E+00 -0.29826593671E+03  0.25449549371E+04  0.25274162821E+04 0.  0.
        1    1    3    3  502    0  0.76346136676E+03 -0.37005102139E+03 -0.10921935025E+04  0.13830031323E+04  0.50400001928E-02 0.  1.
       -1    1    3    3    0  502 -0.76346136676E+03  0.37005102139E+03  0.79392756580E+03  0.11619518048E+04  0.50400001928E-02 0. -1.
</event>
<event>
 5   0  0.1720129E-05  0.2610793E+04  0.7818609E-02  0.8364544E-01
       -2   -1    0    0    0  501  0.00000000000E+00  0.00000000000E+00  0.18971813695E+04  0.18971813695E+04  0.25500000920E-02 0.  1.
        2   -1    0    0  501    0  0.00000000000E+00  0.00000000000E+00 -0.89820612142E+03  0.89820612142E+03  0.25500000920E-02 0. -1.
    10030    2    1    2    0    0  0.00000000000E+00  0.00000000000E+00  0.99897524806E+03  0.27953874909E+04  0.26107929213E+04 0.  0.
        3    1    3    3  502    0  0.92209979604E+03 -0.11396275072E+03 -0.48229890793E+03  0.10468370404E+04  0.10100000352E+00 0. -1.
       -3    1    3    3    0  502 -0.92209979604E+03  0.11396275072E+03  0.14812741560E+04  0.17485504505E+04  0.10100000352E+00 0.  1.
</event>
<event>
 5   0  0.1681731E-05  0.2585101E+04  0.7818609E-02  0.8373280E-01
        2   -1    0    0  501    0  0.00000000000E+00  0.00000000000E+00  0.18939701358E+04  0.18939701358E+04  0.25500000920E-02 0. -1.
       -2   -1    0    0    0  501  0.00000000000E+00  0.00000000000E+00 -0.88210847094E+03  0.88210847094E+03  0.25500000920E-02 0.  1.
    10030    2    1    2    0    0  0.00000000000E+00  0.00000000000E+00  0.10118616648E+04  0.27760786067E+04  0.25851012363E+04 0.  0.
        2    1    3    3  502    0 -0.10457662797E+04 -0.72378714505E+03  0.25825820789E+03  0.12977643257E+04  0.25500000920E-02 0.  1.
       -2    1    3    3    0  502  0.10457662797E+04  0.72378714505E+03  0.75360345693E+03  0.14783142810E+04  0.25500000920E-02 0. -1.
</event>
<event>
 5   0  0.7138294E-06  0.2591106E+04  0.7818609E-02  0.8371229E-01
       -1   -1    0    0    0  501  0.00000000000E+00  0.00000000000E+00  0.52717543263E+03  0.52717543265E+03  0.50400001928E-02 0. -1.
        1   -1    0    0  501    0  0.00000000000E+00  0.00000000000E+00 -0.31838693791E+04  0.31838693791E+04  0.50400001928E-02 0.  1.
    10030    2    1    2    0    0  0.00000000000E+00  0.00000000000E+00 -0.26566939465E+04  0.37110448117E+04  0.25911061093E+04 0.  0.
        2    1    3    3  502    0 -0.95596387997E+03  0.51736300806E+03 -0.31872919457E+03  0.11327487459E+04  0.25500000920E-02 0. -1.
       -2    1    3    3    0  502  0.95596387997E+03 -0.51736300806E+03 -0.23379647519E+04  0.25782960658E+04  0.25500000920E-02 0.  1.
</event>
<event>
 5   0  0.1869956E-05  0.2583805E+04  0.7818609E-02  0.8373723E-01
       -2   -1    0    0    0  501  0.00000000000E+00  0.00000000000E+00  0.13472646117E+04  0.13472646117E+04  0.25500000920E-02 0.  1.
        2   -1    0    0  501    0  0.00000000000E+00  0.00000000000E+00 -0.12388155841E+04  0.12388155841E+04  0.25500000920E-02 0. -1.
    10030    2    1    2    0    0  0.00000000000E+00  0.00000000000E+00  0.10844902760E+03  0.25860801958E+04  0.25838052534E+04 0.  0.
        5    1    3    3  502    0  0.81808895149E+03  0.27168156303E+03  0.10173138541E+04  0.13334279028E+04  0.46999998093E+01 0.  1.
       -5    1    3    3    0  502 -0.81808895149E+03 -0.27168156303E+03 -0.90886482650E+03  0.12526522930E+04  0.46999998093E+01 0. -1.
</event>
<event>
 5   0  0.5840500E-06  0.2576752E+04  0.7818609E-02  0.8376141E-01
       -3   -1    0    0    0  501  0.00000000000E+00  0.00000000000E+00  0.17215034936E+04  0.17215034966E+04  0.10100000352E+00 0.  1.
        3   -1    0    0  501    0  0.00000000000E+00  0.00000000000E+00 -0.96422286428E+03  0.96422286957E+03  0.10100000352E+00 0. -1.
    10030    2    1    2    0    0  0.00000000000E+00  0.00000000000E+00  0.75728062935E+03  0.26857263662E+04  0.25767522509E+04 0.  0.
        5    1    3    3  502    0 -0.10908889925E+04 -0.40307769068E+03  0.95650649434E+03  0.15058011762E+04  0.46999998093E+01 0.  1.
       -5    1    3    3    0  502  0.10908889925E+04  0.40307769068E+03 -0.19922586499E+03  0.11799251899E+04  0.46999998093E+01 0. -1.
</event>
<event>
 5   0  0.1869956E-05  0.2724133E+04  0.7818609E-02  0.8327217E-01
       -2   -1    0    0    0  501  0.00000000000E+00  0.00000000000E+00  0.10565419313E+04  0.10565419313E+04  0.25500000920E-02 0. -1.
        2   -1    0    0  501    0  0.00000000000E+00  0.00000000000E+00 -0.17559413897E+04  0.17559413897E+04  0.25500000920E-02 0.  1.
    10030    2    1    2    0    0  0.00000000000E+00  0.00000000000E+00 -0.69939945839E+03  0.28124833210E+04  0.27241334087E+04 0.  0.
        5    1    3    3  502    0  0.87592795634E+03  0.31641893241E+02  0.72668342095E+03  0.11385701025E+04  0.46999998093E+01 0. -1.
       -5    1    3    3    0  502 -0.87592795634E+03 -0.31641893241E+02 -0.14260828793E+04  0.16739132184E+04  0.46999998093E+01 0.  1.
</event>
<event>
 5   0  0.1702345E-05  0.2660754E+04  0.7818609E-02  0.8347853E-01
        2   -1    0    0  501    0  0.00000000000E+00  0.00000000000E+00  0.10122186036E+04  0.10122186036E+04  0.25500000920E-02 0. -1.
       -2   -1    0    0    0  501  0.00000000000E+00  0.00000000000E+00 -0.17485377152E+04  0.17485377152E+04  0.25500000920E-02 0.  1.
    10030    2    1    2    0    0  0.00000000000E+00  0.00000000000E+00 -0.73631911155E+03  0.27607563188E+04  0.26607535808E+04 0.  0.
        1    1    3    3  502    0 -0.39016379018E+02 -0.11759858650E+04 -0.10123293111E+04  0.15521841600E+04  0.50400001928E-02 0. -1.
       -1    1    3    3    0  502  0.39016379018E+02  0.11759858650E+04  0.27601019952E+03  0.12085721587E+04  0.50400001928E-02 0.  1.
</event>
<event>
 5   0  0.1677971E-05  0.2607780E+04  0.7818609E-02  0.8365563E-01
        2   -1    0    0  501    0  0.00000000000E+00  0.00000000000E+00  0.17824441994E+04  0.17824441994E+04  0.25500000920E-02 0. -1.
       -2   -1    0    0    0  501  0.00000000000E+00  0.00000000000E+00 -0.95381932445E+03  0.95381932445E+03  0.25500000920E-02 0.  1.
    10030    2    1    2    0    0  0.00000000000E+00  0.00000000000E+00  0.82862487497E+03  0.27362635239E+04  0.26077804525E+04 0.  0.
        4    1    3    3  502    0 -0.31229861515E+03  0.73327317868E+03 -0.66847439734E+03  0.10402305573E+04  0.12699999809E+01 0.  1.
       -4    1    3    3    0  502  0.31229861515E+03 -0.73327317868E+03  0.14970992723E+04  0.16960329666E+04  0.12699999809E+01 0. -1.
</event>
<event>
 5   0  0.7138294E-06  0.2592549E+04  0.7818609E-02  0.8370737E-01
       -1   -1    0    0    0  501  0.00000000000E+00  0.00000000000E+00  0.10588224709E+04  0.10588224709E+04  0.50400001928E-02 0. -1.
        1   -1    0    0  501    0  0.00000000000E+00  0.00000000000E+00 -0.15869770977E+04  0.15869770977E+04  0.50400001928E-02 0.  1.
    10030    2    1    2    0    0  0.00000000000E+00  0.00000000000E+00 -0.52815462673E+03  0.26457995686E+04  0.25925485622E+04 0.  0.
        2    1    3    3  502    0  0.97425507771E+03  0.49397060324E+03  0.44821802372E+03  0.11807113577E+04  0.25500000920E-02 0. -1.
       -2    1    3    3    0  502 -0.97425507771E+03 -0.49397060324E+03 -0.97637265044E+03  0.14650882109E+04  0.25500000920E-02 0.  1.
</event>
<event>
 5   0  0.7138294E-06  0.2576451E+04  0.7818609E-02  0.8376245E-01
        1   -1    0    0  501    0  0.00000000000E+00  0.00000000000E+00  0.17276595688E+04  0.17276595688E+04  0.50400001928E-02 0.  1.
       -1   -1    0    0    0  501  0.00000000000E+00  0.00000000000E+00 -0.96056213460E+03  0.96056213461E+03  0.50400001928E-02 0. -1.
    10030    2    1    2    0    0  0.00000000000E+00  0.00000000000E+00  0.76709743423E+03  0.26882217035E+04  0.25764505532E+04 0.  0.
        2    1    3    3  502    0 -0.88077842035E+02 -0.34662333131E+03 -0.90772595568E+03  0.97563920108E+03  0.25500000920E-02 0. -1.
       -2    1    3    3    0  502  0.88077842035E+02  0.34662333131E+03  0.16748233899E+04  0.17125825024E+04  0.25500000920E-02 0.  1.
</event>
<event>
 5   0  0.1869956E-05  0.2575854E+04  0.7818609E-02  0.8376449E-01
        2   -1    0    0  501    0  0.00000000000E+00  0.00000000000E+00  0.11493447086E+04  0.11493447086E+04  0.25500000920E-02 0.  1.
       -2   -1    0    0    0  501  0.00000000000E+00  0.00000000000E+00 -0.14432193292E+04  0.14432193292E+04  0.25500000920E-02 0. -1.
    10030    2    1    2    0    0  0.00000000000E+00  0.00000000000E+00 -0.29387462053E+03  0.25925640378E+04  0.25758544209E+04 0.  0.
        5    1    3    3  502    0  0.87005274764E+03 -0.31039915069E+03 -0.10501970241E+04  0.13986691159E+04  0.46999998093E+01 0. -1.
       -5    1    3    3    0  502 -0.87005274764E+03  0.31039915069E+03  0.75632240356E+03  0.11938949219E+04  0.46999998093E+01 0.  1.
</event>
<event>
 5   0  0.1720129E-05  0.2592320E+04  0.7818609E-02  0.8370815E-01
        2   -1    0    0  501    0  0.00000000000E+00  0.00000000000E+00  0.14549339199E+04  0.14549339199E+04  0.25500000920E-02 0.  1.
       -2   -1    0    0    0  501  0.00000000000E+00  0.00000000000E+00 -0.11547123464E+04  0.11547123464E+04  0.25500000920E-02 0. -1.
    10030    2    1    2    0    0  0.00000000000E+00  0.00000000000E+00  0.30022157345E+03  0.26096462663E+04  0.25923195486E+04 0.  0.
        3    1    3    3  502    0 -0.30614047660E+03  0.86527339416E+03  0.10714383506E+04  0.14108154335E+04  0.10100000352E+00 0.  1.
       -3    1    3    3    0  502  0.30614047660E+03 -0.86527339416E+03 -0.77121677715E+03  0.11988308328E+04  0.10100000352E+00 0. -1.
</event>
<event>
 5   0  0.7138294E-06  0.2630481E+04  0.7818609E-02  0.8357920E-01
        1   -1    0    0  501    0  0.00000000000E+00  0.00000000000E+00  0.11093275236E+04  0.11093275236E+04  0.50400001928E-02 0. -1.
       -1   -1    0    0    0  501  0.00000000000E+00  0.00000000000E+00 -0.15593755111E+04  0.15593755112E+04  0.50400001928E-02 0.  1.
    10030    2    1    2    0    0  0.00000000000E+00  0.00000000000E+00 -0.45004798753E+03  0.26687030348E+04  0.26304814572E+04 0.  0.
        2    1    3    3  502    0  0.50563430258E+03  0.81457534003E+03 -0.11384726622E+04  0.14883947847E+04  0.25500000920E-02 0.  1.
       -2    1    3    3    0  502 -0.50563430258E+03 -0.81457534003E+03  0.68842467466E+03  0.11803082501E+04  0.25500000920E-02 0. -1.
</event>
<event>
 5   0  0.1677971E-05  0.2570879E+04  0.7818609E-02  0.8378161E-01
       -2   -1    0    0    0  501  0.00000000000E+00  0.00000000000E+00  0.14190511719E+04  0.14190511719E+04  0.25500000920E-02 0. -1.
        2   -1    0    0  501    0  0.00000000000E+00  0.00000000000E+00 -0.11644079942E+04  0.11644079942E+04  0.25500000920E-02 0.  1.
    10030    2    1    2    0    0  0.00000000000E+00  0.00000000000E+00  0.25464317765E+03  0.25834591661E+04  0.25708788604E+04 0.  0.
        4    1    3    3  502    0 -0.12068095061E+04  0.32901527621E+03  0.42493409579E+03  0.13210642811E+04  0.12699999809E+01 0. -1.
       -4    1    3    3    0  502  0.12068095061E+04 -0.32901527621E+03 -0.17029091814E+03  0.12623948850E+04  0.12699999809E+01 0.  1.
</event>
<event>
 5   0  0.6918420E-06  0.2190217E+04  0.7818609E-02  0.8522511E-01
       -1   -1    0    0    0  501  0.00000000000E+00  0.00000000000E+00  0.78387688087E+03  0.78387688089E+03  0.50400001928E-02 0. -1.
        1   -1    0    0  501    0  0.00000000000E+00  0.00000000000E+00 -0.15299123227E+04  0.15299123227E+04  0.50400001928E-02 0.  1.
    10030    2    1    2    0    0  0.00000000000E+00  0.00000000000E+00 -0.74603544187E+03  0.23137892036E+04  0.21902172491E+04 0.  0.
        4    1    3    3  502    0 -0.10715490462E+04 -0.22540991226E+03 -0.38918818517E+03  0.11621084473E+04  0.12699999809E+01 0. -1.
       -4    1    3    3    0  502  0.10715490462E+04  0.22540991226E+03 -0.35684725669E+03  0.11516807563E+04  0.12699999809E+01 0.  1.
</event>
<event>
 5   0  0.6984287E-06  0.2646567E+04  0.7818609E-02  0.8352553E-01
        1   -1    0    0  501    0  0.00000000000E+00  0.00000000000E+00  0.82914708936E+03  0.82914708938E+03  0.50400001928E-02 0.  1.
       -1   -1    0    0    0  501  0.00000000000E+00  0.00000000000E+00 -0.21119042077E+04  0.21119042077E+04  0.50400001928E-02 0. -1.
    10030    2    1    2    0    0  0.00000000000E+00  0.00000000000E+00 -0.12827571184E+04  0.29410512971E+04  0.26465670042E+04 0.  0.
        3    1    3    3  502    0  0.10150154935E+04 -0.72188908179E+02  0.29868749212E+03  0.10605102162E+04  0.10100000352E+00 0.  1.
       -3    1    3    3    0  502 -0.10150154935E+04  0.72188908179E+02 -0.15814446105E+04  0.18805410809E+04  0.10100000352E+00 0. -1.
</event>
<event>
 5   0  0.1702345E-05  0.2595425E+04  0.7818609E-02  0.8369757E-01
       -2   -1    0    0    0  501  0.00000000000E+00  0.00000000000E+00  0.89479314590E+03  0.89479314591E+03  0.25500000920E-02 0.  1.
        2   -1    0    0  501    0  0.00000000000E+00  0.00000000000E+00 -0.18820635318E+04  0.18820635318E+04  0.25500000920E-02 0. -1.
    10030    2    1    2    0    0  0.00000000000E+00  0.00000000000E+00 -0.98727038589E+03  0.27768566777E+04  0.25954248580E+04 0.  0.
        1    1    3    3  502    0 -0.12203174331E+03 -0.58908143806E+03  0.73659160459E+03  0.95103936776E+03  0.50400001928E-02 0.  1.
       -1    1    3    3    0  502  0.12203174331E+03  0.58908143806E+03 -0.17238619905E+04  0.18258173099E+04  0.50400001928E-02 0. -1.
</event>
<event>
 5   0  0.7138294E-06  0.2596079E+04  0.7818609E-02  0.8369534E-01
        1   -1    0    0  501    0  0.00000000000E+00  0.00000000000E+00  0.20192287576E+04  0.20192287576E+04  0.50400001928E-02 0.  1.
       -1   -1    0    0    0  501  0.00000000000E+00  0.00000000000E+00 -0.83443066087E+03  0.83443066089E+03  0.50400001928E-02 0. -1.
    10030    2    1    2    0    0  0.00000000000E+00  0.00000000000E+00  0.11847980967E+04  0.28536594185E+04  0.25960788791E+04 0.  0.
        2    1    3    3  502    0  0.37314075547E+03 -0.76499763729E+03  0.16696623292E+04  0.18740938349E+04  0.25500000920E-02 0.  1.
       -2    1    3    3    0  502 -0.37314075547E+03  0.76499763729E+03 -0.48486423254E+03  0.97956558354E+03  0.25500000920E-02 0. -1.
</event>
<event>
 5   0  0.1702345E-05  0.2587475E+04  0.7818609E-02  0.8372468E-01
       -2   -1    0    0    0  501  0.00000000000E+00  0.00000000000E+00  0.10836889103E+04  0.10836889103E+04  0.25500000920E-02 0.  1.
        2   -1    0    0  501    0  0.00000000000E+00  0.00000000000E+00 -0.15444988705E+04  0.15444988705E+04  0.25500000920E-02 0. -1.
    10030    2    1    2    0    0  0.00000000000E+00  0.00000000000E+00 -0.46080996022E+03  0.26281877808E+04  0.25874746746E+04 0.  0.
        1    1    3    3  502    0  0.10590169289E+04  0.12754790913E+02 -0.98511482617E+03  0.14464199809E+04  0.50400001928E-02 0. -1.
       -1    1    3    3    0  502 -0.10590169289E+04 -0.12754790913E+02  0.52430486595E+03  0.11817677999E+04  0.50400001928E-02 0.  1.
</event>
<event>
 5   0  0.1720129E-05  0.2581624E+04  0.7818609E-02  0.8374470E-01
       -2   -1    0    0    0  501  0.00000000000E+00  0.00000000000E+00  0.11716380935E+04  0.11716380935E+04  0.25500000920E-02 0. -1.
        2   -1    0    0  501    0  0.00000000000E+00  0.00000000000E+00 -0.14221078501E+04  0.14221078501E+04  0.25500000920E-02 0.  1.
    10030    2    1    2    0    0  0.00000000000E+00  0.00000000000E+00 -0.25046975659E+03  0.25937459436E+04  0.25816240859E+04 0.  0.
        3    1    3    3  502    0 -0.86012562224E+03 -0.86743202157E+03  0.29378614560E+03  0.12564094506E+04  0.10100000352E+00 0. -1.
       -3    1    3    3    0  502  0.86012562224E+03  0.86743202157E+03 -0.54425590219E+03  0.13373364929E+04  0.10100000352E+00 0.  1.
</event>
<event>
 5   0  0.6993678E-06  0.2625368E+04  0.7818609E-02  0.8359635E-01
       -1   -1    0    0    0  501  0.00000000000E+00  0.00000000000E+00  0.34511531007E+04  0.34511531007E+04  0.50400001928E-02 0. -1.
        1   -1    0    0  501    0  0.00000000000E+00  0.00000000000E+00 -0.49929395288E+03  0.49929395291E+03  0.50400001928E-02 0.  1.
    10030    2    1    2    0    0  0.00000000000E+00  0.00000000000E+00  0.29518591478E+04  0.39504470536E+04  0.26253684493E+04 0.  0.
        1    1    3    3  502    0 -0.33325256704E+03  0.64943787476E+03 -0.16574314309E+03  0.74853030408E+03  0.50400001928E-02 0.  1.
       -1    1    3    3    0  502  0.33325256704E+03 -0.64943787476E+03  0.31176022909E+04  0.32019167495E+04  0.50400001928E-02 0. -1.
</event>
<event>
 5   0  0.6993678E-06  0.2542330E+04  0.7818609E-02  0.8388059E-01
       -1   -1    0    0    0  501  0.00000000000E+00  0.00000000000E+00  0.17469723797E+04  0.17469723797E+04  0.50400001928E-02 0.  1.
        1   -1    0    0  501    0  0.00000000000E+00  0.00000000000E+00 -0.92494912417E+03  0.92494912418E+03  0.50400001928E-02 0. -1.
    10030    2    1    2    0    0  0.00000000000E+00  0.00000000000E+00  0.82202325550E+03  0.26719215038E+04  0.25423300907E+04 0.  0.
        1    1    3    3  502    0  0.10646745283E+04  0.34167065243E+03 -0.22444928769E+03  0.11404596305E+04  0.50400001928E-02 0.  1.
       -1    1    3    3    0  502 -0.10646745283E+04 -0.34167065243E+03  0.10464725432E+04  0.15314618734E+04  0.50400001928E-02 0. -1.
</event>
<event>
 5   0  0.1702345E-05  0.2590659E+04  0.7818609E-02  0.8371381E-01
        2   -1    0    0  501    0  0.00000000000E+00  0.00000000000E+00  0.22190935211E+04  0.22190935211E+04  0.25500000920E-02 0. -1.
       -2   -1    0    0    0  501  0.00000000000E+00  0.00000000000E+00 -0.75611010157E+03  0.75611010157E+03  0.25500000920E-02 0.  1.
    10030    2    1    2    0    0  0.00000000000E+00  0.00000000000E+00  0.14629834195E+04  0.29752036227E+04  0.25906593969E+04 0.  0.
        1    1    3    3  502    0 -0.27609846524E+03  0.84269362476E+03  0.18158454350E+04  0.20208061637E+04  0.50400001928E-02 0. -1.
       -1    1    3    3    0  502  0.27609846524E+03 -0.84269362476E+03 -0.35286201540E+03  0.95439745896E+03  0.50400001928E-02 0.  1.
</event>
<event>
 5   0  0.7138294E-06  0.2582615E+04  0.7818609E-02  0.8374131E-01
       -1   -1    0    0    0  501  0.00000000000E+00  0.00000000000E+00  0.10196401299E+04  0.10196401299E+04  0.50400001928E-02 0. -1.
        1   -1    0    0  501    0  0.00000000000E+00  0.00000000000E+00 -0.16353565070E+04  0.16353565070E+04  0.50400001928E-02 0.  1.
    10030    2    1    2    0    0  0.00000000000E+00  0.00000000000E+00 -0.61571637710E+03  0.26549966369E+04  0.25826150478E+04 0.  0.
        2    1    3    3  502    0  0.58757431402E+03 -0.68480801719E+03 -0.12574728603E+04  0.15477220646E+04  0.25500000920E-02 0.  1.
       -2    1    3    3    0  502 -0.58757431402E+03  0.68480801719E+03  0.64175648315E+03  0.11072745724E+04  0.25500000920E-02 0. -1.
</event>
<event>
 5   0  0.6993678E-06  0.2533422E+04  0.7818609E-02  0.8391175E-01
        1   -1    0    0  501    0  0.00000000000E+00  0.00000000000E+00  0.13230037134E+04  0.13230037134E+04  0.50400001928E-02 0. -1.
       -1   -1    0    0    0  501  0.00000000000E+00  0.00000000000E+00 -0.12128130444E+04  0.12128130444E+04  0.50400001928E-02 0.  1.
    10030    2    1    2    0    0  0.00000000000E+00  0.00000000000E+00  0.11019066899E+03  0.25358167577E+04  0.25334215293E+04 0.  0.
        1    1    3    3  502    0  0.44269388218E+03 -0.11326141804E+04  0.41006198819E+03  0.12833330001E+04  0.50400001928E-02 0. -1.
       -1    1    3    3    0  502 -0.44269388218E+03  0.11326141804E+04 -0.29987131920E+03  0.12524837576E+04  0.50400001928E-02 0.  1.
</event>
<event>
 5   0  0.1720129E-05  0.2593269E+04  0.7818609E-02  0.8370491E-01
        2   -1    0    0  501    0  0.00000000000E+00  0.00000000000E+00  0.23588651588E+04  0.23588651588E+04  0.25500000920E-02 0. -1.
       -2   -1    0    0    0  501  0.00000000000E+00  0.00000000000E+00 -0.71274128001E+03  0.71274128002E+03  0.25500000920E-02 0.  1.
    10030    2    1    2    0    0  0.00000000000E+00  0.00000000000E+00  0.16461238788E+04  0.30716064388E+04  0.25932686499E+04 0.  0.
        3    1    3    3  502    0 -0.25927277811E+03  0.12646966429E+04  0.96608485119E+03  0.16124515254E+04  0.10100000352E+00 0.  1.
       -3    1    3    3    0  502  0.25927277811E+03 -0.12646966429E+04  0.68003902761E+03  0.14591549134E+04  0.10100000352E+00 0. -1.
</event>
<event>
 5   0  0.6918420E-06  0.2610485E+04  0.7818609E-02  0.8364649E-01
        1   -1    0    0  501    0  0.00000000000E+00  0.00000000000E+00  0.15074426756E+04  0.15074426756E+04  0.50400001928E-02 0. -1.
       -1   -1    0    0    0  501  0.00000000000E+00  0.00000000000E+00 -0.11301639823E+04  0.11301639824E+04  0.50400001928E-02 0.  1.
    10030    2    1    2    0    0  0.00000000000E+00  0.00000000000E+00  0.37727869322E+03  0.26376066579E+04  0.26104845661E+04 0.  0.
        4    1    3    3  502    0 -0.11614897337E+04  0.59545141874E+03  0.18266087082E+03  0.13179481781E+04  0.12699999809E+01 0. -1.
       -4    1    3    3    0  502  0.11614897337E+04 -0.59545141874E+03  0.19461782240E+03  0.13196584798E+04  0.12699999809E+01 0.  1.
</event>
<event>
 5   0  0.6993678E-06  0.2578966E+04  0.7818609E-02  0.8375381E-01
        1   -1    0    0  501    0  0.00000000000E+00  0.00000000000E+00  0.66198979085E+03  0.66198979087E+03  0.50400001928E-02 0. -1.
       -1   -1    0    0    0  501  0.00000000000E+00  0.00000000000E+00 -0.25117701388E+04  0.25117701388E+04  0.50400001928E-02 0.  1.
    10030    2    1    2    0    0  0.00000000000E+00  0.00000000000E+00 -0.18497803480E+04  0.31737599297E+04  0.25789658306E+04 0.  0.
        1    1    3    3  502    0  0.49509190958E+02  0.48296358008E+03 -0.23950000162E+04  0.24437123516E+04  0.50400001928E-02 0.  1.
       -1    1    3    3    0  502 -0.49509190958E+02 -0.48296358008E+03  0.54521966822E+03  0.73004757812E+03  0.50400001928E-02 0. -1.
</event>
<event>
 5   0  0.6993678E-06  0.2593742E+04  0.7818609E-02  0.8370330E-01
       -1   -1    0    0    0  501  0.00000000000E+00  0.00000000000E+00  0.15334260106E+04  0.15334260106E+04  0.50400001928E-02 0. -1.
        1   -1    0    0  501    0  0.00000000000E+00  0.00000000000E+00 -0.10968079912E+04  0.10968079913E+04  0.50400001928E-02 0.  1.
    10030    2    1    2    0    0  0.00000000000E+00  0.00000000000E+00  0.43661801932E+03  0.26302340018E+04  0.25937416235E+04 0.  0.
        1    1    3    3  502    0 -0.12351009054E+04 -0.38969897455E+03  0.28659410446E+03  0.13264523052E+04  0.50400001928E-02 0.  1.
       -1    1    3    3    0  502  0.12351009054E+04  0.38969897455E+03  0.15002391486E+03  0.13037816966E+04  0.50400001928E-02 0. -1.
</event>
<event>
 5   0  0.1681731E-05  0.2582241E+04  0.7818609E-02  0.8374259E-01
       -2   -1    0    0    0  501  0.00000000000E+00  0.00000000000E+00  0.15866849553E+04  0.15866849553E+04  0.25500000920E-02 0. -1.
        2   -1    0    0  501    0  0.00000000000E+00  0.00000000000E+00 -0.10506128478E+04  0.10506128478E+04  0.25500000920E-02 0.  1.
    10030    2    1    2    0    0  0.00000000000E+00  0.00000000000E+00  0.53607210745E+03  0.26372978031E+04  0.25822405771E+04 0.  0.
        2    1    3    3  502    0  0.21402468625E+03 -0.30156941011E+02 -0.10320045497E+04  0.10543952760E+04  0.25500000920E-02 0.  1.
       -2    1    3    3    0  502 -0.21402468625E+03  0.30156941011E+02  0.15680766572E+04  0.15829025271E+04  0.25500000920E-02 0. -1.
</event>
<event>
 5   0  0.1677971E-05  0.2601979E+04  0.7818609E-02  0.8367529E-01
        2   -1    0    0  501    0  0.00000000000E+00  0.00000000000E+00  0.13395241090E+04  0.13395241090E+04  0.25500000920E-02 0. -1.
       -2   -1    0    0    0  501  0.00000000000E+00  0.00000000000E+00 -0.12635633587E+04  0.12635633587E+04  0.25500000920E-02 0.  1.
    10030    2    1    2    0    0  0.00000000000E+00  0.00000000000E+00  0.75960750272E+02  0.26030874677E+04  0.26019789255E+04 0.  0.
        4    1    3    3  502    0  0.19551573912E+03  0.41602663950E+03 -0.11796114373E+04  0.12660131615E+04  0.12699999809E+01 0.  1.
       -4    1    3    3    0  502 -0.19551573912E+03 -0.41602663950E+03  0.12555721876E+04  0.13370743062E+04  0.12699999809E+01 0. -1.
</event>
<event>
 5   0  0.1720129E-05  0.2602123E+04  0.7818609E-02  0.8367480E-01
        2   -1    0    0  501    0  0.00000000000E+00  0.00000000000E+00  0.27189400451E+04  0.27189400451E+04  0.25500000920E-02 0.  1.
       -2   -1    0    0    0  501  0.00000000000E+00  0.00000000000E+00 -0.62258142123E+03  0.62258142123E+03  0.25500000920E-02 0. -1.
    10030    2    1    2    0    0  0.00000000000E+00  0.00000000000E+00  0.20963586238E+04  0.33415214663E+04  0.26021234079E+04 0.  0.
        3    1    3    3  502    0 -0.70576247894E+03 -0.47484008903E+03 -0.21603390495E+03  0.87763571322E+03  0.10100000352E+00 0. -1.
       -3    1    3    3    0  502  0.70576247894E+03  0.47484008903E+03  0.23123925288E+04  0.24638857531E+04  0.10100000352E+00 0.  1.
</event>
<event>
 5   0  0.6984287E-06  0.2613679E+04  0.7818609E-02  0.8363570E-01
       -1   -1    0    0    0  501  0.00000000000E+00  0.00000000000E+00  0.13373159471E+04  0.13373159471E+04  0.50400001928E-02 0. -1.
        1   -1    0    0  501    0  0.00000000000E+00  0.00000000000E+00 -0.12770576091E+04  0.12770576091E+04  0.50400001928E-02 0.  1.
    10030    2    1    2    0    0  0.00000000000E+00  0.00000000000E+00  0.60258338044E+02  0.26143735562E+04  0.26136790209E+04 0.  0.
        3    1    3    3  502    0  0.76007089443E+03 -0.27601931212E+03  0.10570153708E+04  0.13308553375E+04  0.10100000352E+00 0.  1.
       -3    1    3    3    0  502 -0.76007089443E+03  0.27601931212E+03 -0.99675703273E+03  0.12835182187E+04  0.10100000352E+00 0. -1.
</event>
<event>
 5   0  0.1720129E-05  0.2590502E+04  0.7818609E-02  0.8371435E-01
       -2   -1    0    0    0  501  0.00000000000E+00  0.00000000000E+00  0.98740438424E+03  0.98740438425E+03  0.25500000920E-02 0. -1.
        2   -1    0    0  501    0  0.00000000000E+00  0.00000000000E+00 -0.16990758008E+04  0.16990758008E+04  0.25500000920E-02 0.  1.
    10030    2    1    2    0    0  0.00000000000E+00  0.00000000000E+00 -0.71167141654E+03  0.26864801850E+04  0.25905018007E+04 0.  0.
        3    1    3    3  502    0  0.36503341541E+03  0.88323701552E+02 -0.16413698273E+04  0.16837889983E+04  0.10100000352E+00 0.  1.
       -3    1    3    3    0  502 -0.36503341541E+03 -0.88323701552E+02  0.92969841080E+03  0.10026911867E+04  0.10100000352E+00 0. -1.
</event>
<event>
 5   0  0.1681731E-05  0.2614392E+04  0.7818609E-02  0.8363329E-01
       -2   -1    0    0    0  501  0.00000000000E+00  0.00000000000E+00  0.11467660716E+04  0.11467660716E+04  0.25500000920E-02 0. -1.
        2   -1    0    0  501    0  0.00000000000E+00  0.00000000000E+00 -0.14900699007E+04  0.14900699007E+04  0.25500000920E-02 0.  1.
    10030    2    1    2    0    0  0.00000000000E+00  0.00000000000E+00 -0.34330382909E+03  0.26368359723E+04  0.26143921714E+04 0.  0.
        2    1    3    3  502    0  0.11377213618E+04  0.20232549337E+03  0.44467183350E+03  0.12381754891E+04  0.25500000920E-02 0. -1.
       -2    1    3    3    0  502 -0.11377213618E+04 -0.20232549337E+03 -0.78797566259E+03  0.13986604832E+04  0.25500000920E-02 0.  1.
</event>
<event>
 5   0  0.6984287E-06  0.2601044E+04  0.7818609E-02  0.8367847E-01
       -1   -1    0    0    0  501  0.00000000000E+00  0.00000000000E+00  0.18531510549E+04  0.18531510549E+04  0.50400001928E-02 0.  1.
        1   -1    0    0  501    0  0.00000000000E+00  0.00000000000E+00 -0.91269290558E+03  0.91269290559E+03  0.50400001928E-02 0. -1.
    10030    2    1    2    0    0  0.00000000000E+00  0.00000000000E+00  0.94045814931E+03  0.27658439605E+04  0.26010442678E+04 0.  0.
        3    1    3    3  502    0  0.73884329683E+03  0.11177103558E+03  0.16020825676E+04  0.17677813058E+04  0.10100000352E+00 0.  1.
       -3    1    3    3    0  502 -0.73884329683E+03 -0.11177103558E+03 -0.66162441824E+03  0.99806265469E+03  0.10100000352E+00 0. -1.
</event>
<event>
 5   0  0.1869956E-05  0.2522919E+04  0.7818609E-02  0.8394866E-01
        2   -1    0    0  501    0  0.00000000000E+00  0.00000000000E+00  0.22324017404E+04  0.22324017404E+04  0.25500000920E-02 0. -1.
       -2   -1    0    0    0  501  0.00000000000E+00  0.00000000000E+00 -0.71281088569E+03  0.71281088569E+03  0.25500000920E-02 0.  1.
    10030    2    1    2    0    0  0.00000000000E+00  0.00000000000E+00  0.15195908547E+04  0.29452126261E+04  0.25229191519E+04 0.  0.
        5    1    3    3  502    0 -0.94391869672E+02  0.92910238311E+03  0.17497451324E+04  0.19833736869E+04  0.46999998093E+01 0. -1.
       -5    1    3    3    0  502  0.94391869672E+02 -0.92910238311E+03 -0.23015427775E+03  0.96183893918E+03  0.46999998093E+01 0.  1.
</event>
<event>
 5   0  0.5840500E-06  0.2597062E+04  0.7818609E-02  0.8369200E-01
       -3   -1    0    0    0  501  0.00000000000E+00  0.00000000000E+00  0.11871152662E+04  0.11871152705E+04  0.10100000352E+00 0.  1.
        3   -1    0    0  501    0  0.00000000000E+00  0.00000000000E+00 -0.14204031281E+04  0.14204031317E+04  0.10100000352E+00 0. -1.
    10030    2    1    2    0    0  0.00000000000E+00  0.00000000000E+00 -0.23328786196E+03  0.26075184022E+04  0.25970616071E+04 0.  0.
        4    1    3    3  502    0 -0.12244913258E+04  0.38234539862E+03  0.85695722932E+02  0.12856564007E+04  0.12699999809E+01 0. -1.
       -4    1    3    3    0  502  0.12244913258E+04 -0.38234539862E+03 -0.31898358489E+03  0.13218620015E+04  0.12699999809E+01 0.  1.
</event>
<event>
 5   0  0.1869956E-05  0.2600500E+04  0.7818609E-02  0.8368031E-01
        2   -1    0    0  501    0  0.00000000000E+00  0.00000000000E+00  0.11999587661E+04  0.11999587661E+04  0.25500000920E-02 0. -1.
       -2   -1    0    0    0  501  0.00000000000E+00  0.00000000000E+00 -0.14089239877E+04  0.14089239877E+04  0.25500000920E-02 0.  1.
    10030    2    1    2    0    0  0.00000000000E+00  0.00000000000E+00 -0.20896522161E+03  0.26088827539E+04  0.26005004825E+04 0.  0.
        5    1    3    3  502    0 -0.70788070200E+03 -0.35852597118E+03 -0.11378477554E+04  0.13872114348E+04  0.46999998093E+01 0. -1.
       -5    1    3    3    0  502  0.70788070200E+03  0.35852597118E+03  0.92888253381E+03  0.12216713191E+04  0.46999998093E+01 0.  1.
</event>
<event>
 5   0  0.1702345E-05  0.2575171E+04  0.7818609E-02  0.8376684E-01
        2   -1    0    0  501    0  0.00000000000E+00  0.00000000000E+00  0.20200237076E+04  0.20200237076E+04  0.25500000920E-02 0. -1.
       -2   -1    0    0    0  501  0.00000000000E+00  0.00000000000E+00 -0.82072151075E+03  0.82072151075E+03  0.25500000920E-02 0.  1.
    10030    2    1    2    0    0  0.00000000000E+00  0.00000000000E+00  0.11993021969E+04  0.28407452184E+04  0.25751713800E+04 0.  0.
        1    1    3    3  502    0 -0.18612779410E+02 -0.82429700580E+03 -0.49131181798E+03  0.95979127514E+03  0.50400001928E-02 0.  1.
       -1    1    3    3    0  502  0.18612779410E+02  0.82429700580E+03  0.16906140148E+04  0.18809539432E+04  0.50400001928E-02 0. -1.
</event>
<event>
 5   0  0.1677971E-05  0.2589850E+04  0.7818609E-02  0.8371657E-01
        2   -1    0    0  501    0  0.00000000000E+00  0.00000000000E+00  0.16114452648E+04  0.16114452648E+04  0.25500000920E-02 0. -1.
       -2   -1    0    0    0  501  0.00000000000E+00  0.00000000000E+00 -0.10405756631E+04  0.10405756631E+04  0.25500000920E-02 0.  1.
    10030    2    1    2    0    0  0.00000000000E+00  0.00000000000E+00  0.57086960171E+03  0.26520209279E+04  0.25898499763E+04 0.  0.
        4    1    3    3  502    0 -0.27949569122E+03  0.11755739933E+04  0.76216089671E+03  0.14286297282E+04  0.12699999809E+01 0. -1.
       -4    1    3    3    0  502  0.27949569122E+03 -0.11755739933E+04 -0.19129129500E+03  0.12233911997E+04  0.12699999809E+01 0.  1.
</event>
<event>
 5   0  0.6984287E-06  0.2540939E+04  0.7818609E-02  0.8388544E-01
        1   -1    0    0  501    0  0.00000000000E+00  0.00000000000E+00  0.20906053121E+04  0.20906053121E+04  0.50400001928E-02 0. -1.
       -1   -1    0    0    0  501  0.00000000000E+00  0.00000000000E+00 -0.77206933018E+03  0.77206933020E+03  0.50400001928E-02 0.  1.
    10030    2    1    2    0    0  0.00000000000E+00  0.00000000000E+00  0.13185359819E+04  0.28626746423E+04  0.25409386006E+04 0.  0.
        3    1    3    3  502    0  0.91871684772E+03 -0.42659983804E+03  0.15232211118E+04  0.18292705196E+04  0.10100000352E+00 0. -1.
       -3    1    3    3    0  502 -0.91871684772E+03  0.42659983804E+03 -0.20468512998E+03  0.10334041227E+04  0.10100000352E+00 0.  1.
</event>
<event>
 5   0  0.6918420E-06  0.2596639E+04  0.7818609E-02  0.8369344E-01
        1   -1    0    0  501    0  0.00000000000E+00  0.00000000000E+00  0.22279047832E+04  0.22279047832E+04  0.50400001928E-02 0.  1.
       -1   -1    0    0    0  501  0.00000000000E+00  0.00000000000E+00 -0.75660020205E+03  0.75660020207E+03  0.50400001928E-02 0. -1.
    10030    2    1    2    0    0  0.00000000000E+00  0.00000000000E+00  0.14713045812E+04  0.29845049853E+04  0.25966387574E+04 0.  0.
        4    1    3    3  502    0 -0.11738509453E+04 -0.30373646442E+03  0.20215313636E+03  0.12292474873E+04  0.12699999809E+01 0. -1.
       -4    1    3    3    0  502  0.11738509453E+04  0.30373646442E+03  0.12691514448E+04  0.17552574980E+04  0.12699999809E+01 0.  1.
</event>
<event>
 5   0  0.1702345E-05  0.2533202E+04  0.7818609E-02  0.8391252E-01
        2   -1    0    0  501    0  0.00000000000E+00  0.00000000000E+00  0.18950378945E+04  0.18950378946E+04  0.25500000920E-02 0.  1.
       -2   -1    0    0    0  501  0.00000000000E+00  0.00000000000E+00 -0.84656802419E+03  0.84656802420E+03  0.25500000920E-02 0. -1.
    10030    2    1    2    0    0  0.00000000000E+00  0.00000000000E+00  0.10484698704E+04  0.27416059187E+04  0.25332023103E+04 0.  0.
        1    1    3    3  502    0  0.28494487664E+03  0.57925583639E+03 -0.65516381432E+03  0.91976656296E+03  0.50400001928E-02 0. -1.
       -1    1    3    3    0  502 -0.28494487664E+03 -0.57925583639E+03  0.17036336847E+04  0.18218393558E+04  0.50400001928E-02 0.  1.
</event>
<event>
 5   0  0.6993678E-06  0.2528843E+04  0.7818609E-02  0.8392782E-01
        1   -1    0    0  501    0  0.00000000000E+00  0.00000000000E+00  0.16648590461E+04  0.16648590461E+04  0.50400001928E-02 0. -1.
       -1   -1    0    0    0  501  0.00000000000E+00  0.00000000000E+00 -0.96029833702E+03  0.96029833703E+03  0.50400001928E-02 0.  1.
    10030    2    1    2    0    0  0.00000000000E+00  0.00000000000E+00  0.70456070904E+03  0.26251573831E+04  0.25288427182E+04 0.  0.
        1    1    3    3  502    0 -0.10174570928E+04 -0.67115685519E+03  0.70137837166E+03  0.14062724061E+04  0.50400001928E-02 0. -1.
       -1    1    3    3    0  502  0.10174570928E+04  0.67115685519E+03  0.31823373726E+01  0.12188849770E+04  0.50400001928E-02 0.  1.
</event>
<event>
 5   0  0.1677971E-05  0.2579042E+04  0.7818609E-02  0.8375355E-01
       -2   -1    0    0    0  501  0.00000000000E+00  0.00000000000E+00  0.96100384195E+03  0.96100384195E+03  0.25500000920E-02 0. -1.
        2   -1    0    0  501    0  0.00000000000E+00  0.00000000000E+00 -0.17303404740E+04  0.17303404740E+04  0.25500000920E-02 0.  1.
    10030    2    1    2    0    0  0.00000000000E+00  0.00000000000E+00 -0.76933663202E+03  0.26913443159E+04  0.25790415610E+04 0.  0.
        4    1    3    3  502    0 -0.10368334318E+04  0.53845134176E+02 -0.11827849220E+04  0.15738184929E+04  0.12699999809E+01 0.  1.
       -4    1    3    3    0  502  0.10368334318E+04 -0.53845134176E+02  0.41344829000E+03  0.11175258231E+04  0.12699999809E+01 0. -1.
</event>
<event>
 5   0  0.1720129E-05  0.2577832E+04  0.7818609E-02  0.8375770E-01
       -2   -1    0    0    0  501  0.00000000000E+00  0.00000000000E+00  0.66716291986E+03  0.66716291986E+03  0.25500000920E-02 0. -1.
        2   -1    0    0  501    0  0.00000000000E+00  0.00000000000E+00 -0.24901036136E+04  0.24901036136E+04  0.25500000920E-02 0.  1.
    10030    2    1    2    0    0  0.00000000000E+00  0.00000000000E+00 -0.18229406937E+04  0.31572665334E+04  0.25778322657E+04 0.  0.
        3    1    3    3  502    0 -0.41070420245E+03 -0.82340811261E+03 -0.20169116940E+04  0.22168923414E+04  0.10100000352E+00 0.  1.
       -3    1    3    3    0  502  0.41070420245E+03  0.82340811261E+03  0.19397100030E+03  0.94037419200E+03  0.10100000352E+00 0. -1.
</event>
<event>
 5   0  0.1869956E-05  0.2555895E+04  0.7818609E-02  0.8383339E-01
       -2   -1    0    0    0  501  0.00000000000E+00  0.00000000000E+00  0.87831285768E+03  0.87831285769E+03  0.25500000920E-02 0. -1.
        2   -1    0    0  501    0  0.00000000000E+00  0.00000000000E+00 -0.18594176020E+04  0.18594176020E+04  0.25500000920E-02 0.  1.
    10030    2    1    2    0    0  0.00000000000E+00  0.00000000000E+00 -0.98110474433E+03  0.27377304597E+04  0.25558954499E+04 0.  0.
        5    1    3    3  502    0 -0.21468708023E+03  0.94389163867E+03  0.40313453311E+03  0.10485997853E+04  0.46999998093E+01 0. -1.
       -5    1    3    3    0  502  0.21468708023E+03 -0.94389163867E+03 -0.13842392774E+04  0.16891306744E+04  0.46999998093E+01 0.  1.
</event>
<event>
 5   0  0.6918420E-06  0.2602263E+04  0.7818609E-02  0.8367433E-01
        1   -1    0    0  501    0  0.00000000000E+00  0.00000000000E+00  0.23449606141E+04  0.23449606141E+04  0.50400001928E-02 0.  1.
       -1   -1    0    0    0  501  0.00000000000E+00  0.00000000000E+00 -0.72194953909E+03  0.72194953911E+03  0.50400001928E-02 0. -1.
    10030    2    1    2    0    0  0.00000000000E+00  0.00000000000E+00  0.16230110750E+04  0.30669101532E+04  0.26022630417E+04 0.  0.
        4    1    3    3  502    0  0.46931127193E+03 -0.92970334878E+03 -0.10772222008E+03  0.10469990813E+04  0.12699999809E+01 0. -1.
       -4    1    3    3    0  502 -0.46931127193E+03  0.92970334878E+03  0.17307332951E+04  0.20199110719E+04  0.12699999809E+01 0.  1.
</event>
<event>
 5   0  0.6918420E-06  0.2618643E+04  0.7818609E-02  0.8361896E-01
       -1   -1    0    0    0  501  0.00000000000E+00  0.00000000000E+00  0.99417810428E+03  0.99417810429E+03  0.50400001928E-02 0. -1.
        1   -1    0    0  501    0  0.00000000000E+00  0.00000000000E+00 -0.17243617615E+04  0.17243617616E+04  0.50400001928E-02 0.  1.
    10030    2    1    2    0    0  0.00000000000E+00  0.00000000000E+00 -0.73018365727E+03  0.27185398658E+04  0.26186429365E+04 0.  0.
        4    1    3    3  502    0  0.31742019090E+03 -0.79298814506E+03 -0.13952862146E+04  0.16359740247E+04  0.12699999809E+01 0.  1.
       -4    1    3    3    0  502 -0.31742019090E+03  0.79298814506E+03  0.66510255735E+03  0.10825658412E+04  0.12699999809E+01 0. -1.
</event>
<event>
 5   0  0.6993678E-06  0.2342623E+04  0.7818609E-02  0.8461303E-01
       -1   -1    0    0    0  501  0.00000000000E+00  0.00000000000E+00  0.66998570216E+03  0.66998570218E+03  0.50400001928E-02 0.  1.
        1   -1    0    0  501    0  0.00000000000E+00  0.00000000000E+00 -0.20477610307E+04  0.20477610307E+04  0.50400001928E-02 0. -1.
    10030    2    1    2    0    0  0.00000000000E+00  0.00000000000E+00 -0.13777753285E+04  0.27177467328E+04  0.23426229846E+04 0.  0.
        1    1    3    3  502    0 -0.47765183119E+03 -0.52021424621E+03  0.39519542533E+03  0.80929201036E+03  0.50400001928E-02 0.  1.
       -1    1    3    3    0  502  0.47765183119E+03  0.52021424621E+03 -0.17729707538E+04  0.19084547225E+04  0.50400001928E-02 0. -1.
</event>
<event>
 5   0  0.1869956E-05  0.2595778E+04  0.7818609E-02  0.8369637E-01
        2   -1    0    0  501    0  0.00000000000E+00  0.00000000000E+00  0.21877427524E+04  0.21877427524E+04  0.25500000920E-02 0. -1.
       -2   -1    0    0    0  501  0.00000000000E+00  0.00000000000E+00 -0.76997886314E+03  0.76997886315E+03  0.25500000920E-02 0.  1.
    10030    2    1    2    0    0  0.00000000000E+00  0.00000000000E+00  0.14177638892E+04  0.29577216155E+04  0.25957778621E+04 0.  0.
        5    1    3    3  502    0 -0.44347881887E+03 -0.11805868245E+04  0.35947281731E+03  0.13113739014E+04  0.46999998093E+01 0.  1.
       -5    1    3    3    0  502  0.44347881887E+03  0.11805868245E+04  0.10582910719E+04  0.16463477141E+04  0.46999998093E+01 0. -1.
</event>
<event>
 5   0  0.1677971E-05  0.2586664E+04  0.7818609E-02  0.8372745E-01
       -2   -1    0    0    0  501  0.00000000000E+00  0.00000000000E+00  0.62551936209E+03  0.62551936210E+03  0.25500000920E-02 0.  1.
        2   -1    0    0  501    0  0.00000000000E+00  0.00000000000E+00 -0.26741106021E+04  0.26741106021E+04  0.25500000920E-02 0. -1.
    10030    2    1    2    0    0  0.00000000000E+00  0.00000000000E+00 -0.20485912400E+04  0.32996299642E+04  0.25866642287E+04 0.  0.
        4    1    3    3  502    0  0.84129152051E+03 -0.95285671739E+03 -0.71974548590E+03  0.14607335567E+04  0.12699999809E+01 0.  1.
       -4    1    3    3    0  502 -0.84129152051E+03  0.95285671739E+03 -0.13288457541E+04  0.18388964075E+04  0.12699999809E+01 0. -1.
</event>
<event>
 5   0  0.1702345E-05  0.2689286E+04  0.7818609E-02  0.8338490E-01
       -2   -1    0    0    0  501  0.00000000000E+00  0.00000000000E+00  0.18610109645E+04  0.18610109645E+04  0.25500000920E-02 0. -1.
        2   -1    0    0  501    0  0.00000000000E+00  0.00000000000E+00 -0.97154990663E+03  0.97154990664E+03  0.25500000920E-02 0.  1.
    10030    2    1    2    0    0  0.00000000000E+00  0.00000000000E+00  0.88946105789E+03  0.28325608712E+04  0.26892861721E+04 0.  0.
        1    1    3    3  502    0 -0.60510498663E+03  0.11403552326E+04  0.48520973652E+02  0.12918654676E+04  0.50400001928E-02 0.  1.
       -1    1    3    3    0  502  0.60510498663E+03 -0.11403552326E+04  0.84094008424E+03  0.15406954036E+04  0.50400001928E-02 0. -1.
</event>
<event>
 5   0  0.1702345E-05  0.2630551E+04  0.7818609E-02  0.8357897E-01
       -2   -1    0    0    0  501  0.00000000000E+00  0.00000000000E+00  0.81423850795E+03  0.81423850796E+03  0.25500000920E-02 0.  1.
        2   -1    0    0  501    0  0.00000000000E+00  0.00000000000E+00 -0.21246230532E+04  0.21246230532E+04  0.25500000920E-02 0. -1.
    10030    2    1    2    0    0  0.00000000000E+00  0.00000000000E+00 -0.13103845453E+04  0.29388615612E+04  0.26305512007E+04 0.  0.
        1    1    3    3  502    0 -0.70185743252E+03 -0.13240247520E+03 -0.18890908597E+04  0.20196035619E+04  0.50400001928E-02 0. -1.
       -1    1    3    3    0  502  0.70185743252E+03  0.13240247520E+03  0.57870631437E+03  0.91925799933E+03  0.50400001928E-02 0.  1.
</event>
<event>
 5   0  0.7138294E-06  0.2604696E+04  0.7818609E-02  0.8366608E-01
        1   -1    0    0  501    0  0.00000000000E+00  0.00000000000E+00  0.17153202939E+04  0.17153202939E+04  0.50400001928E-02 0.  1.
       -1   -1    0    0    0  501  0.00000000000E+00  0.00000000000E+00 -0.98880121207E+03  0.98880121208E+03  0.50400001928E-02 0. -1.
    10030    2    1    2    0    0  0.00000000000E+00  0.00000000000E+00  0.72651908182E+03  0.27041215060E+04  0.26046963629E+04 0.  0.
        2    1    3    3  502    0 -0.93017028169E+03 -0.62023427298E+03  0.10567421505E+04  0.15383794327E+04  0.25500000920E-02 0.  1.
       -2    1    3    3    0  502  0.93017028169E+03  0.62023427298E+03 -0.33022306868E+03  0.11657420733E+04  0.25500000920E-02 0. -1.
</event>
<event>
 5   0  0.6706225E-06  0.2585445E+04  0.7818609E-02  0.8373162E-01
       -1   -1    0    0    0  501  0.00000000000E+00  0.00000000000E+00  0.14355767199E+04  0.14355767199E+04  0.50400001928E-02 0.  1.
        1   -1    0    0  501    0  0.00000000000E+00  0.00000000000E+00 -0.11640838911E+04  0.11640838911E+04  0.50400001928E-02 0. -1.
    10030    2    1    2    0    0  0.00000000000E+00  0.00000000000E+00  0.27149282879E+03  0.25996606109E+04  0.25854452104E+04 0.  0.
        5    1    3    3  502    0 -0.91840827370E+03 -0.18379827939E+03 -0.76013732802E+03  0.12062696266E+04  0.46999998093E+01 0. -1.
       -5    1    3    3    0  502  0.91840827370E+03  0.18379827939E+03  0.10316301568E+04  0.13933909843E+04  0.46999998093E+01 0.  1.
</event>
<event>
 5   0  0.1869956E-05  0.2600848E+04  0.7818609E-02  0.8367913E-01
        2   -1    0    0  501    0  0.00000000000E+00  0.00000000000E+00  0.18387891851E+04  0.18387891851E+04  0.25500000920E-02 0.  1.
       -2   -1    0    0    0  501  0.00000000000E+00  0.00000000000E+00 -0.91968259948E+03  0.91968259948E+03  0.25500000920E-02 0. -1.
    10030    2    1    2    0    0  0.00000000000E+00  0.00000000000E+00  0.91910658561E+03  0.27584717846E+04  0.26008478753E+04 0.  0.
        5    1    3    3  502    0  0.47193508029E+03  0.92979736198E+03 -0.36460863229E+03  0.11046299829E+04  0.46999998093E+01 0. -1.
       -5    1    3    3    0  502 -0.47193508029E+03 -0.92979736198E+03  0.12837152179E+04  0.16538418017E+04  0.46999998093E+01 0.  1.
</event>
<event>
 5   0  0.6918420E-06  0.2624575E+04  0.7818609E-02  0.8359901E-01
        1   -1    0    0  501    0  0.00000000000E+00  0.00000000000E+00  0.13976244785E+04  0.13976244785E+04  0.50400001928E-02 0.  1.
       -1   -1    0    0    0  501  0.00000000000E+00  0.00000000000E+00 -0.12321607608E+04  0.12321607608E+04  0.50400001928E-02 0. -1.
    10030    2    1    2    0    0  0.00000000000E+00  0.00000000000E+00  0.16546371765E+03  0.26297852393E+04  0.26245746633E+04 0.  0.
        4    1    3    3  502    0  0.11654442049E+04  0.28361975191E+03 -0.45067459095E+03  0.12813311665E+04  0.12699999809E+01 0. -1.
       -4    1    3    3    0  502 -0.11654442049E+04 -0.28361975191E+03  0.61613830860E+03  0.13484540728E+04  0.12699999809E+01 0.  1.
</event>
<event>
 5   0  0.1681731E-05  0.2597896E+04  0.7818609E-02  0.8368916E-01
        2   -1    0    0  501    0  0.00000000000E+00  0.00000000000E+00  0.18966472014E+04  0.18966472014E+04  0.25500000920E-02 0. -1.
       -2   -1    0    0    0  501  0.00000000000E+00  0.00000000000E+00 -0.88960464037E+03  0.88960464037E+03  0.25500000920E-02 0.  1.
    10030    2    1    2    0    0  0.00000000000E+00  0.00000000000E+00  0.10070425610E+04  0.27862518417E+04  0.25978961884E+04 0.  0.
        2    1    3    3  502    0 -0.64717504687E+03 -0.67189802929E+03 -0.46588372536E+03  0.10427512400E+04  0.25500000920E-02 0.  1.
       -2    1    3    3    0  502  0.64717504687E+03  0.67189802929E+03  0.14729262864E+04  0.17435006017E+04  0.25500000920E-02 0. -1.
</event>
<event>
 5   0  0.6993678E-06  0.2620921E+04  0.7818609E-02  0.8361129E-01
        1   -1    0    0  501    0  0.00000000000E+00  0.00000000000E+00  0.14737890236E+04  0.14737890236E+04  0.50400001928E-02 0. -1.
       -1   -1    0    0    0  501  0.00000000000E+00  0.00000000000E+00 -0.11652328034E+04  0.11652328034E+04  0.50400001928E-02 0.  1.
    10030    2    1    2    0    0  0.00000000000E+00  0.00000000000E+00  0.30855622020E+03  0.26390218269E+04  0.26209214529E+04 0.  0.
        1    1    3    3  502    0  0.25502864891E+03  0.87116724230E+03  0.11059697054E+04  0.14307833397E+04  0.50400001928E-02 0. -1.
       -1    1    3    3    0  502 -0.25502864891E+03 -0.87116724230E+03 -0.79741348517E+03  0.12082384873E+04  0.50400001928E-02 0.  1.
</event>
<event>
 5   0  0.1720129E-05  0.2573082E+04  0.7818609E-02  0.8377403E-01
        2   -1    0    0  501    0  0.00000000000E+00  0.00000000000E+00  0.15850449086E+04  0.15850449086E+04  0.25500000920E-02 0. -1.
       -2   -1    0    0    0  501  0.00000000000E+00  0.00000000000E+00 -0.10442528065E+04  0.10442528065E+04  0.25500000920E-02 0.  1.
    10030    2    1    2    0    0  0.00000000000E+00  0.00000000000E+00  0.54079210205E+03  0.26292977151E+04  0.25730818831E+04 0.  0.
        3    1    3    3  502    0 -0.31107804902E+03 -0.15864545308E+03 -0.99490128711E+03  0.10544033923E+04  0.10100000352E+00 0.  1.
       -3    1    3    3    0  502  0.31107804902E+03  0.15864545308E+03  0.15356933892E+04  0.15748943228E+04  0.10100000352E+00 0. -1.
</event>
<event>
 5   0  0.1869956E-05  0.2610556E+04  0.7818609E-02  0.8364624E-01
       -2   -1    0    0    0  501  0.00000000000E+00  0.00000000000E+00  0.15490894159E+04  0.15490894159E+04  0.25500000920E-02 0. -1.
        2   -1    0    0  501    0  0.00000000000E+00  0.00000000000E+00 -0.10998402817E+04  0.10998402817E+04  0.25500000920E-02 0.  1.
    10030    2    1    2    0    0  0.00000000000E+00  0.00000000000E+00  0.44924913419E+03  0.26489296976E+04  0.26105562163E+04 0.  0.
        5    1    3    3  502    0  0.15660260025E+03  0.69448650141E+03  0.13347320788E+04  0.15127351675E+04  0.46999998093E+01 0. -1.
       -5    1    3    3    0  502 -0.15660260025E+03 -0.69448650141E+03 -0.88548294458E+03  0.11361945301E+04  0.46999998093E+01 0.  1.
</event>
<event>
 5   0  0.6993678E-06  0.2490927E+04  0.7818609E-02  0.8406225E-01
       -1   -1    0    0    0  501  0.00000000000E+00  0.00000000000E+00  0.94668051998E+03  0.94668051999E+03  0.50400001928E-02 0. -1.
        1   -1    0    0  501    0  0.00000000000E+00  0.00000000000E+00 -0.16385463881E+04  0.16385463881E+04  0.50400001928E-02 0.  1.
    10030    2    1    2    0    0  0.00000000000E+00  0.00000000000E+00 -0.69186586811E+03  0.25852269081E+04  0.24909274953E+04 0.  0.
        1    1    3    3  502    0  0.76665621057E+03 -0.75659267273E+03  0.30302722299E+03  0.11189368684E+04  0.50400001928E-02 0. -1.
       -1    1    3    3    0  502 -0.76665621057E+03  0.75659267273E+03 -0.99489309110E+03  0.14662900397E+04  0.50400001928E-02 0.  1.
</event>
<event>
 5   0  0.6918420E-06  0.2590056E+04  0.7818609E-02  0.8371587E-01
        1   -1    0    0  501    0  0.00000000000E+00  0.00000000000E+00  0.16809424064E+04  0.16809424064E+04  0.50400001928E-02 0. -1.
       -1   -1    0    0    0  501  0.00000000000E+00  0.00000000000E+00 -0.99771271518E+03  0.99771271519E+03  0.50400001928E-02 0.  1.
    10030    2    1    2    0    0  0.00000000000E+00  0.00000000000E+00  0.68322969126E+03  0.26786551216E+04  0.25900560708E+04 0.  0.
        4    1    3    3  502    0  0.78649843902E+03 -0.20355301136E+03 -0.70138849666E+03  0.10732944886E+04  0.12699999809E+01 0.  1.
       -4    1    3    3    0  502 -0.78649843902E+03  0.20355301136E+03  0.13846181879E+04  0.16053606331E+04  0.12699999809E+01 0. -1.
</event>
<event>
 5   0  0.5840500E-06  0.2253864E+04  0.7818609E-02  0.8496337E-01
        3   -1    0    0  501    0  0.00000000000E+00  0.00000000000E+00  0.27032583268E+04  0.27032583287E+04  0.10100000352E+00 0. -1.
       -3   -1    0    0    0  501  0.00000000000E+00  0.00000000000E+00 -0.46979446672E+03  0.46979447758E+03  0.10100000352E+00 0.  1.
    10030    2    1    2    0    0  0.00000000000E+00  0.00000000000E+00  0.22334638601E+04  0.31730528063E+04  0.22538640813E+04 0.  0.
        2    1    3    3  502    0  0.39327060089E+03  0.10522779840E+04  0.12428492950E+04  0.16752985081E+04  0.25500000920E-02 0. -1.
       -2    1    3    3    0  502 -0.39327060089E+03 -0.10522779840E+04  0.99061456504E+03  0.14977542981E+04  0.25500000920E-02 0.  1.
</event>
<event>
 5   0  0.6706225E-06  0.2577171E+04  0.7818609E-02  0.8375997E-01
       -1   -1    0    0    0  501  0.00000000000E+00  0.00000000000E+00  0.72665023052E+03  0.72665023054E+03  0.50400001928E-02 0. -1.
        1   -1    0    0  501    0  0.00000000000E+00  0.00000000000E+00 -0.22850778247E+04  0.22850778247E+04  0.50400001928E-02 0.  1.
    10030    2    1    2    0    0  0.00000000000E+00  0.00000000000E+00 -0.15584275942E+04  0.30117280552E+04  0.25771707961E+04 0.  0.
        5    1    3    3  502    0  0.49953429534E+03 -0.83462654144E+03  0.20845454609E+03  0.99479212084E+03  0.46999998093E+01 0. -1.
       -5    1    3    3    0  502 -0.49953429534E+03  0.83462654144E+03 -0.17668821403E+04  0.20169359344E+04  0.46999998093E+01 0.  1.
</event>
<event>
 5   0  0.1869956E-05  0.2605363E+04  0.7818609E-02  0.8366382E-01
        2   -1    0    0  501    0  0.00000000000E+00  0.00000000000E+00  0.71292374743E+03  0.71292374743E+03  0.25500000920E-02 0. -1.
       -2   -1    0    0    0  501  0.00000000000E+00  0.00000000000E+00 -0.23803095799E+04  0.23803095799E+04  0.25500000920E-02 0.  1.
    10030    2    1    2    0    0  0.00000000000E+00  0.00000000000E+00 -0.16673858325E+04  0.30932333273E+04  0.26053631039E+04 0.  0.
        5    1    3    3  502    0 -0.76864929996E+03 -0.96013793780E+03 -0.13433433105E+04  0.18213401510E+04  0.46999998093E+01 0.  1.
       -5    1    3    3    0  502  0.76864929996E+03  0.96013793780E+03 -0.32404252203E+03  0.12718931763E+04  0.46999998093E+01 0. -1.
</event>
<event>
 5   0  0.1869956E-05  0.2372565E+04  0.7818609E-02  0.8449847E-01
        2   -1    0    0  501    0  0.00000000000E+00  0.00000000000E+00  0.15058647057E+04  0.15058647057E+04  0.25500000920E-02 0. -1.
       -2   -1    0    0    0  501  0.00000000000E+00  0.00000000000E+00 -0.93452393801E+03  0.93452393801E+03  0.25500000920E-02 0.  1.
    10030    2    1    2    0    0  0.00000000000E+00  0.00000000000E+00  0.57134076766E+03  0.24403886437E+04  0.23725653752E+04 0.  0.
        5    1    3    3  502    0 -0.74191927212E+03  0.91618786145E+03  0.42135072971E+03  0.12519596364E+04  0.46999998093E+01 0. -1.
       -5    1    3    3    0  502  0.74191927212E+03 -0.91618786145E+03  0.14999003795E+03  0.11884290073E+04  0.46999998093E+01 0.  1.
</event>
<event>
 5   0  0.1720129E-05  0.2584659E+04  0.7818609E-02  0.8373431E-01
        2   -1    0    0  501    0  0.00000000000E+00  0.00000000000E+00  0.11646189213E+04  0.11646189213E+04  0.25500000920E-02 0. -1.
       -2   -1    0    0    0  501  0.00000000000E+00  0.00000000000E+00 -0.14340451116E+04  0.14340451116E+04  0.25500000920E-02 0.  1.
    10030    2    1    2    0    0  0.00000000000E+00  0.00000000000E+00 -0.26942619028E+03  0.25986640330E+04  0.25846594136E+04 0.  0.
        3    1    3    3  502    0 -0.57469172472E+03 -0.47943047982E+03 -0.11939832025E+04  0.14091557974E+04  0.10100000352E+00 0.  1.
       -3    1    3    3    0  502  0.57469172472E+03  0.47943047982E+03  0.92455701219E+03  0.11895082355E+04  0.10100000352E+00 0. -1.
</event>
<event>
 5   0  0.1869956E-05  0.2600988E+04  0.7818609E-02  0.8367866E-01
        2   -1    0    0  501    0  0.00000000000E+00  0.00000000000E+00  0.16464534141E+04  0.16464534141E+04  0.25500000920E-02 0. -1.
       -2   -1    0    0    0  501  0.00000000000E+00  0.00000000000E+00 -0.10272289453E+04  0.10272289453E+04  0.25500000920E-02 0.  1.
    10030    2    1    2    0    0  0.00000000000E+00  0.00000000000E+00  0.61922446877E+03  0.26736823594E+04  0.26009879693E+04 0.  0.
        5    1    3    3  502    0 -0.63612041852E+03 -0.12931921383E+03  0.14680014251E+04  0.16051239578E+04  0.46999998093E+01 0. -1.
       -5    1    3    3    0  502  0.63612041852E+03  0.12931921383E+03 -0.84877695633E+03  0.10685584016E+04  0.46999998093E+01 0.  1.
</event>
<event>
 5   0  0.7138294E-06  0.2595941E+04  0.7818609E-02  0.8369581E-01
       -1   -1    0    0    0  501  0.00000000000E+00  0.00000000000E+00  0.10072877939E+04  0.10072877940E+04  0.50400001928E-02 0. -1.
        1   -1    0    0  501    0  0.00000000000E+00  0.00000000000E+00 -0.16725389223E+04  0.16725389223E+04  0.50400001928E-02 0.  1.
    10030    2    1    2    0    0  0.00000000000E+00  0.00000000000E+00 -0.66525112834E+03  0.26798267162E+04  0.25959414796E+04 0.  0.
        2    1    3    3  502    0 -0.86162367563E+03  0.55705057250E+03  0.48806558177E+03  0.11361816364E+04  0.25500000920E-02 0. -1.
       -2    1    3    3    0  502  0.86162367563E+03 -0.55705057250E+03 -0.11533167101E+04  0.15436450799E+04  0.25500000920E-02 0.  1.
</event>
<event>
 5   0  0.1720129E-05  0.2611772E+04  0.7818609E-02  0.8364213E-01
       -2   -1    0    0    0  501  0.00000000000E+00  0.00000000000E+00  0.97606473512E+03  0.97606473512E+03  0.25500000920E-02 0.  1.
        2   -1    0    0  501    0  0.00000000000E+00  0.00000000000E+00 -0.17471575143E+04  0.17471575143E+04  0.25500000920E-02 0. -1.
    10030    2    1    2    0    0  0.00000000000E+00  0.00000000000E+00 -0.77109277915E+03  0.27232222494E+04  0.26117724529E+04 0.  0.
        3    1    3    3  502    0  0.34160313997E+03 -0.12376206231E+04 -0.13674002094E+03  0.12911604686E+04  0.10100000352E+00 0.  1.
       -3    1    3    3    0  502 -0.34160313997E+03  0.12376206231E+04 -0.63435275821E+03  0.14320617808E+04  0.10100000352E+00 0. -1.
</event>
<event>
 5   0  0.1681731E-05  0.2531583E+04  0.7818609E-02  0.8391820E-01
        2   -1    0    0  501    0  0.00000000000E+00  0.00000000000E+00  0.17196455359E+04  0.17196455359E+04  0.25500000920E-02 0.  1.
       -2   -1    0    0    0  501  0.00000000000E+00  0.00000000000E+00 -0.93171969646E+03  0.93171969647E+03  0.25500000920E-02 0. -1.
    10030    2    1    2    0    0  0.00000000000E+00  0.00000000000E+00  0.78792583946E+03  0.26513652324E+04  0.25315826013E+04 0.  0.
        2    1    3    3  502    0 -0.35723557702E+03  0.97452228453E+03  0.11527547388E+04  0.15511783999E+04  0.25500000920E-02 0.  1.
       -2    1    3    3    0  502  0.35723557702E+03 -0.97452228453E+03 -0.36482889935E+03  0.11001868325E+04  0.25500000920E-02 0. -1.
</event>
<event>
 5   0  0.1720129E-05  0.2590026E+04  0.7818609E-02  0.8371597E-01
       -2   -1    0    0    0  501  0.00000000000E+00  0.00000000000E+00  0.11685513000E+04  0.11685513000E+04  0.25500000920E-02 0. -1.
        2   -1    0    0  501    0  0.00000000000E+00  0.00000000000E+00 -0.14351607057E+04  0.14351607058E+04  0.25500000920E-02 0.  1.
    10030    2    1    2    0    0  0.00000000000E+00  0.00000000000E+00 -0.26660940579E+03  0.26037120057E+04  0.25900261839E+04 0.  0.
        3    1    3    3  502    0 -0.79869445865E+03 -0.10102733867E+04 -0.27001499525E+03  0.13158545748E+04  0.10100000352E+00 0. -1.
       -3    1    3    3    0  502  0.79869445865E+03  0.10102733867E+04  0.34055894529E+01  0.12878574309E+04  0.10100000352E+00 0.  1.
</event>
<event>
 5   0  0.7138294E-06  0.2588132E+04  0.7818609E-02  0.8372244E-01
       -1   -1    0    0    0  501  0.00000000000E+00  0.00000000000E+00  0.21666382630E+04  0.21666382630E+04  0.50400001928E-02 0.  1.
        1   -1    0    0  501    0  0.00000000000E+00  0.00000000000E+00 -0.77290576506E+03  0.77290576507E+03  0.50400001928E-02 0. -1.
    10030    2    1    2    0    0  0.00000000000E+00  0.00000000000E+00  0.13937324979E+04  0.29395440280E+04  0.25881323028E+04 0.  0.
        2    1    3    3  502    0 -0.73337465279E+03  0.29817516311E+03  0.18595061113E+04  0.20210170180E+04  0.25500000920E-02 0.  1.
       -2    1    3    3    0  502  0.73337465279E+03 -0.29817516311E+03 -0.46577361336E+03  0.91852701003E+03  0.25500000920E-02 0. -1.
</event>
<event>
 5   0  0.1681731E-05  0.2599726E+04  0.7818609E-02  0.8368294E-01
        2   -1    0    0  501    0  0.00000000000E+00  0.00000000000E+00  0.21173814790E+04  0.21173814790E+04  0.25500000920E-02 0. -1.
       -2   -1    0    0    0  501  0.00000000000E+00  0.00000000000E+00 -0.79798745965E+03  0.79798745965E+03  0.25500000920E-02 0.  1.
    10030    2    1    2    0    0  0.00000000000E+00  0.00000000000E+00  0.13193940193E+04  0.29153689386E+04  0.25997260375E+04 0.  0.
        2    1    3    3  502    0 -0.25129330179E+03 -0.83305191399E+03  0.17426136525E+04  0.19477746678E+04  0.25500000920E-02 0. -1.
       -2    1    3    3    0  502  0.25129330179E+03  0.83305191399E+03 -0.42321963316E+03  0.96759427077E+03  0.25500000920E-02 0.  1.
</event>
<event>
 5   0  0.6918420E-06  0.2521274E+04  0.7818609E-02  0.8395446E-01
        1   -1    0    0  501    0  0.00000000000E+00  0.00000000000E+00  0.15119174225E+04  0.15119174225E+04  0.50400001928E-02 0. -1.
       -1   -1    0    0    0  501  0.00000000000E+00  0.00000000000E+00 -0.10511190257E+04  0.10511190258E+04  0.50400001928E-02 0.  1.
    10030    2    1    2    0    0  0.00000000000E+00  0.00000000000E+00  0.46079839670E+03  0.25630364482E+04  0.25212736211E+04 0.  0.
        4    1    3    3  502    0  0.82306381512E+03  0.48632413168E+03  0.10657517123E+04  0.14317030174E+04  0.12699999809E+01 0. -1.
       -4    1    3    3    0  502 -0.82306381512E+03 -0.48632413168E+03 -0.60495331558E+03  0.11313334308E+04  0.12699999809E+01 0.  1.
</event>
<event>
 5   0  0.6918420E-06  0.2604619E+04  0.7818609E-02  0.8366634E-01
       -1   -1    0    0    0  501  0.00000000000E+00  0.00000000000E+00  0.23801152591E+04  0.23801152591E+04  0.50400001928E-02 0.  1.
        1   -1    0    0  501    0  0.00000000000E+00  0.00000000000E+00 -0.71257466367E+03  0.71257466369E+03  0.50400001928E-02 0. -1.
    10030    2    1    2    0    0  0.00000000000E+00  0.00000000000E+00  0.16675405954E+04  0.30926899228E+04  0.26046188438E+04 0.  0.
        4    1    3    3  502    0  0.93618219030E+03 -0.43852189706E+03  0.17741848596E+04  0.20534049958E+04  0.12699999809E+01 0.  1.
       -4    1    3    3    0  502 -0.93618219030E+03  0.43852189706E+03 -0.10664426416E+03  0.10392849271E+04  0.12699999809E+01 0. -1.
</event>
<event>
 5   0  0.1677971E-05  0.2581958E+04  0.7818609E-02  0.8374355E-01
        2   -1    0    0  501    0  0.00000000000E+00  0.00000000000E+00  0.73025916698E+03  0.73025916699E+03  0.25500000920E-02 0. -1.
       -2   -1    0    0    0  501  0.00000000000E+00  0.00000000000E+00 -0.22822407074E+04  0.22822407074E+04  0.25500000920E-02 0.  1.
    10030    2    1    2    0    0  0.00000000000E+00  0.00000000000E+00 -0.15519815405E+04  0.30124998744E+04  0.25819583249E+04 0.  0.
        4    1    3    3  502    0 -0.11887450547E+04 -0.25528566604E+03 -0.12823387742E+04  0.17671106137E+04  0.12699999809E+01 0. -1.
       -4    1    3    3    0  502  0.11887450547E+04  0.25528566604E+03 -0.26964276626E+03  0.12453892607E+04  0.12699999809E+01 0.  1.
</event>
<event>
 5   0  0.6984287E-06  0.2589993E+04  0.7818609E-02  0.8371608E-01
        1   -1    0    0  501    0  0.00000000000E+00  0.00000000000E+00  0.28360929176E+04  0.28360929176E+04  0.50400001928E-02 0. -1.
       -1   -1    0    0    0  501  0.00000000000E+00  0.00000000000E+00 -0.59131186752E+03  0.59131186754E+03  0.50400001928E-02 0.  1.
    10030    2    1    2    0    0  0.00000000000E+00  0.00000000000E+00  0.22447810501E+04  0.34274047852E+04  0.25899925866E+04 0.  0.
        3    1    3    3  502    0  0.49286441015E+03 -0.39905579618E+03 -0.37176977918E+03  0.73510110473E+03  0.10100000352E+00 0.  1.
       -3    1    3    3    0  502 -0.49286441015E+03  0.39905579618E+03  0.26165508293E+04  0.26923036804E+04  0.10100000352E+00 0. -1.
</event>
<event>
 5   0  0.7138294E-06  0.2611201E+04  0.7818609E-02  0.8364406E-01
        1   -1    0    0  501    0  0.00000000000E+00  0.00000000000E+00  0.16680937990E+04  0.16680937990E+04  0.50400001928E-02 0.  1.
       -1   -1    0    0    0  501  0.00000000000E+00  0.00000000000E+00 -0.10218809087E+04  0.10218809087E+04  0.50400001928E-02 0. -1.
    10030    2    1    2    0    0  0.00000000000E+00  0.00000000000E+00  0.64621289026E+03  0.26899747078E+04  0.26112014148E+04 0.  0.
        2    1    3    3  502    0  0.65017991360E+03  0.94052629388E+03  0.97241403367E+03  0.15009705801E+04  0.25500000920E-02 0.  1.
       -2    1    3    3    0  502 -0.65017991360E+03 -0.94052629388E+03 -0.32620114341E+03  0.11890041276E+04  0.25500000920E-02 0. -1.
</event>
<event>
 5   0  0.1702345E-05  0.2617885E+04  0.7818609E-02  0.8362152E-01
        2   -1    0    0  501    0  0.00000000000E+00  0.00000000000E+00  0.16561578428E+04  0.16561578428E+04  0.25500000920E-02 0.  1.
       -2   -1    0    0    0  501  0.00000000000E+00  0.00000000000E+00 -0.10345208516E+04  0.10345208516E+04  0.25500000920E-02 0. -1.
    10030    2    1    2    0    0  0.00000000000E+00  0.00000000000E+00  0.62163699121E+03  0.26906786944E+04  0.26178845062E+04 0.  0.
        1    1    3    3  502    0  0.49794054730E+03  0.68593849018E+03  0.13359870381E+04  0.15821876523E+04  0.50400001928E-02 0.  1.
       -1    1    3    3    0  502 -0.49794054730E+03 -0.68593849018E+03 -0.71435004692E+03  0.11084910421E+04  0.50400001928E-02 0. -1.
</event>
<event>
 5   0  0.1720129E-05  0.2603300E+04  0.7818609E-02  0.8367081E-01
        2   -1    0    0  501    0  0.00000000000E+00  0.00000000000E+00  0.21309979137E+04  0.21309979137E+04  0.25500000920E-02 0. -1.
       -2   -1    0    0    0  501  0.00000000000E+00  0.00000000000E+00 -0.79507023897E+03  0.79507023898E+03  0.25500000920E-02 0.  1.
    10030    2    1    2    0    0  0.00000000000E+00  0.00000000000E+00  0.13359276747E+04  0.29260681526E+04  0.26033002289E+04 0.  0.
        3    1    3    3  502    0  0.10764644618E+04 -0.40356122504E+03  0.13541058510E+04  0.17762995428E+04  0.10100000352E+00 0. -1.
       -3    1    3    3    0  502 -0.10764644618E+04  0.40356122504E+03 -0.18178176301E+02  0.11497686098E+04  0.10100000352E+00 0.  1.
</event>
<event>
 5   0  0.1681731E-05  0.2608134E+04  0.7818609E-02  0.8365444E-01
        2   -1    0    0  501    0  0.00000000000E+00  0.00000000000E+00  0.10217984900E+04  0.10217984900E+04  0.25500000920E-02 0. -1.
       -2   -1    0    0    0  501  0.00000000000E+00  0.00000000000E+00 -0.16643110530E+04  0.16643110530E+04  0.25500000920E-02 0.  1.
    10030    2    1    2    0    0  0.00000000000E+00  0.00000000000E+00 -0.64251256300E+03  0.26861095430E+04  0.26081338316E+04 0.  0.
        2    1    3    3  502    0 -0.14445324842E+03 -0.23959181122E+02 -0.16558176835E+04  0.16622794543E+04  0.25500000920E-02 0.  1.
       -2    1    3    3    0  502  0.14445324842E+03  0.23959181122E+02  0.10133051205E+04  0.10238300887E+04  0.25500000920E-02 0. -1.
</event>
<event>
 5   0  0.6993678E-06  0.2683466E+04  0.7818609E-02  0.8340390E-01
       -1   -1    0    0    0  501  0.00000000000E+00  0.00000000000E+00  0.12158156623E+04  0.12158156623E+04  0.50400001928E-02 0.  1.
        1   -1    0    0  501    0  0.00000000000E+00  0.00000000000E+00 -0.14806906422E+04  0.14806906422E+04  0.50400001928E-02 0. -1.
    10030    2    1    2    0    0  0.00000000000E+00  0.00000000000E+00 -0.26487497989E+03  0.26965063045E+04  0.26834655756E+04 0.  0.
        1    1    3    3  502    0 -0.95665568951E+03  0.92187066583E+02 -0.10732342593E+04  0.14406666300E+04  0.50400001928E-02 0. -1.
       -1    1    3    3    0  502  0.95665568951E+03 -0.92187066583E+02  0.80835927936E+03  0.12558396745E+04  0.50400001928E-02 0.  1.
</event>
<event>
 5   0  0.1677971E-05  0.2593719E+04  0.7818609E-02  0.8370338E-01
       -2   -1    0    0    0  501  0.00000000000E+00  0.00000000000E+00  0.78185732096E+03  0.78185732097E+03  0.25500000920E-02 0.  1.
        2   -1    0    0  501    0  0.00000000000E+00  0.00000000000E+00 -0.21510886910E+04  0.21510886910E+04  0.25500000920E-02 0. -1.
    10030    2    1    2    0    0  0.00000000000E+00  0.00000000000E+00 -0.13692313700E+04  0.29329460120E+04  0.25937189062E+04 0.  0.
        4    1    3    3  502    0  0.11694316584E+04 -0.53957190875E+03 -0.85660915909E+03  0.15467673105E+04  0.12699999809E+01 0. -1.
       -4    1    3    3    0  502 -0.11694316584E+04  0.53957190875E+03 -0.51262221094E+03  0.13861787015E+04  0.12699999809E+01 0.  1.
</event>
<event>
 5   0  0.6984287E-06  0.2576698E+04  0.7818609E-02  0.8376160E-01
       -1   -1    0    0    0  501  0.00000000000E+00  0.00000000000E+00  0.12528190582E+04  0.12528190582E+04  0.50400001928E-02 0. -1.
        1   -1    0    0  501    0  0.00000000000E+00  0.00000000000E+00 -0.13248861137E+04  0.13248861137E+04  0.50400001928E-02 0.  1.
    10030    2    1    2    0    0  0.00000000000E+00  0.00000000000E+00 -0.72067055482E+02  0.25777051719E+04  0.25766975556E+04 0.  0.
        3    1    3    3  502    0 -0.20694069496E+03 -0.95004346308E+03 -0.88160694187E+03  0.13124929878E+04  0.10100000352E+00 0.  1.
       -3    1    3    3    0  502  0.20694069496E+03  0.95004346308E+03  0.80953988639E+03  0.12652121841E+04  0.10100000352E+00 0. -1.
</event>
<event>
 5   0  0.1720129E-05  0.2598957E+04  0.7818609E-02  0.8368555E-01
        2   -1    0    0  501    0  0.00000000000E+00  0.00000000000E+00  0.22291335573E+04  0.22291335573E+04  0.25500000920E-02 0. -1.
       -2   -1    0    0    0  501  0.00000000000E+00  0.00000000000E+00 -0.75753413291E+03  0.75753413291E+03  0.25500000920E-02 0.  1.
    10030    2    1    2    0    0  0.00000000000E+00  0.00000000000E+00  0.14715994244E+04  0.29866676903E+04  0.25989572959E+04 0.  0.
        3    1    3    3  502    0 -0.34641779964E+03  0.10343997978E+04  0.15472996820E+04  0.18931784252E+04  0.10100000352E+00 0. -1.
       -3    1    3    3    0  502  0.34641779964E+03 -0.10343997978E+04 -0.75700257608E+02  0.10934892650E+04  0.10100000352E+00 0.  1.
</event>
<event>
 5   0  0.1720129E-05  0.2615012E+04  0.7818609E-02  0.8363120E-01
       -2   -1    0    0    0  501  0.00000000000E+00  0.00000000000E+00  0.83468494848E+03  0.83468494848E+03  0.25500000920E-02 0. -1.
        2   -1    0    0  501    0  0.00000000000E+00  0.00000000000E+00 -0.20481642340E+04  0.20481642340E+04  0.25500000920E-02 0.  1.
    10030    2    1    2    0    0  0.00000000000E+00  0.00000000000E+00 -0.12134792855E+04  0.28828491825E+04  0.26150119374E+04 0.  0.
        3    1    3    3  502    0  0.47859839466E+03  0.21937347921E+03  0.71266799394E+03  0.88604561200E+03  0.10100000352E+00 0. -1.
       -3    1    3    3    0  502 -0.47859839466E+03 -0.21937347921E+03 -0.19261472794E+04  0.19968035705E+04  0.10100000352E+00 0.  1.
</event>
<event>
 5   0  0.6993678E-06  0.2585467E+04  0.7818609E-02  0.8373154E-01
        1   -1    0    0  501    0  0.00000000000E+00  0.00000000000E+00  0.11736838227E+04  0.11736838227E+04  0.50400001928E-02 0.  1.
       -1   -1    0    0    0  501  0.00000000000E+00  0.00000000000E+00 -0.14238589308E+04  0.14238589308E+04  0.50400001928E-02 0. -1.
    10030    2    1    2    0    0  0.00000000000E+00  0.00000000000E+00 -0.25017510807E+03  0.25975427535E+04  0.25854672250E+04 0.  0.
        1    1    3    3  502    0 -0.74061230747E+03  0.46354198417E+03  0.83213859621E+03  0.12065788016E+04  0.50400001928E-02 0.  1.
       -1    1    3    3    0  502  0.74061230747E+03 -0.46354198417E+03 -0.10823137043E+04  0.13909639519E+04  0.50400001928E-02 0. -1.
</event>
<event>
 5   0  0.6993678E-06  0.2640181E+04  0.7818609E-02  0.8354679E-01
        1   -1    0    0  501    0  0.00000000000E+00  0.00000000000E+00  0.26044343251E+04  0.26044343251E+04  0.50400001928E-02 0. -1.
       -1   -1    0    0    0  501  0.00000000000E+00  0.00000000000E+00 -0.66910476894E+03  0.66910476896E+03  0.50400001928E-02 0.  1.
    10030    2    1    2    0    0  0.00000000000E+00  0.00000000000E+00  0.19353295562E+04  0.32735390941E+04  0.26401813781E+04 0.  0.
        1    1    3    3  502    0  0.11892196191E+04  0.54584196221E+03  0.11840345104E+04  0.17646882082E+04  0.50400001928E-02 0. -1.
       -1    1    3    3    0  502 -0.11892196191E+04 -0.54584196221E+03  0.75129504573E+03  0.15088508859E+04  0.50400001928E-02 0.  1.
</event>
<event>
 5   0  0.1702345E-05  0.2600695E+04  0.7818609E-02  0.8367965E-01
       -2   -1    0    0    0  501  0.00000000000E+00  0.00000000000E+00  0.15028286189E+04  0.15028286189E+04  0.25500000920E-02 0.  1.
        2   -1    0    0  501    0  0.00000000000E+00  0.00000000000E+00 -0.11251475656E+04  0.11251475656E+04  0.25500000920E-02 0. -1.
    10030    2    1    2    0    0  0.00000000000E+00  0.00000000000E+00  0.37768105335E+03  0.26279761845E+04  0.26006952625E+04 0.  0.
        1    1    3    3  502    0  0.11449707505E+03  0.45980409217E+03  0.14124826534E+04  0.14898444984E+04  0.50400001928E-02 0.  1.
       -1    1    3    3    0  502 -0.11449707505E+03 -0.45980409217E+03 -0.10348016001E+04  0.11381316861E+04  0.50400001928E-02 0. -1.
</event>
<event>
 5   0  0.6918420E-06  0.2596372E+04  0.7818609E-02  0.8369435E-01
        1   -1    0    0  501    0  0.00000000000E+00  0.00000000000E+00  0.16223058225E+04  0.16223058225E+04  0.50400001928E-02 0.  1.
       -1   -1    0    0    0  501  0.00000000000E+00  0.00000000000E+00 -0.10388217136E+04  0.10388217136E+04  0.50400001928E-02 0. -1.
    10030    2    1    2    0    0  0.00000000000E+00  0.00000000000E+00  0.58348410898E+03  0.26611275361E+04  0.25963717103E+04 0.  0.
        4    1    3    3  502    0 -0.81365235692E+03  0.97807828970E+03  0.55628325562E+03  0.13885675972E+04  0.12699999809E+01 0. -1.
       -4    1    3    3    0  502  0.81365235692E+03 -0.97807828970E+03  0.27200853361E+02  0.12725599389E+04  0.12699999809E+01 0.  1.
</event>
<event>
 5   0  0.1869956E-05  0.2646101E+04  0.7818609E-02  0.8352708E-01
        2   -1    0    0  501    0  0.00000000000E+00  0.00000000000E+00  0.13764982779E+04  0.13764982779E+04  0.25500000920E-02 0. -1.
       -2   -1    0    0    0  501  0.00000000000E+00  0.00000000000E+00 -0.12716783760E+04  0.12716783760E+04  0.25500000920E-02 0.  1.
    10030    2    1    2    0    0  0.00000000000E+00  0.00000000000E+00  0.10481990189E+03  0.26481766539E+04  0.26461013546E+04 0.  0.
        5    1    3    3  502    0 -0.96669028340E+03 -0.42110373674E+03 -0.74735542801E+03  0.12924320821E+04  0.46999998093E+01 0.  1.
       -5    1    3    3    0  502  0.96669028340E+03  0.42110373674E+03  0.85217532990E+03  0.13557445718E+04  0.46999998093E+01 0. -1.
</event>
<event>
 5   0  0.7138294E-06  0.2629176E+04  0.7818609E-02  0.8358358E-01
        1   -1    0    0  501    0  0.00000000000E+00  0.00000000000E+00  0.18343793152E+04  0.18343793152E+04  0.50400001928E-02 0. -1.
       -1   -1    0    0    0  501  0.00000000000E+00  0.00000000000E+00 -0.94208548056E+03  0.94208548058E+03  0.50400001928E-02 0.  1.
    10030    2    1    2    0    0  0.00000000000E+00  0.00000000000E+00  0.89229383463E+03  0.27764647958E+04  0.26291763872E+04 0.  0.
        2    1    3    3  502    0 -0.49189158160E+02  0.52629047940E+03 -0.82491821400E+03  0.97974042572E+03  0.25500000920E-02 0.  1.
       -2    1    3    3    0  502  0.49189158160E+02 -0.52629047940E+03  0.17172120486E+04  0.17967243701E+04  0.25500000920E-02 0. -1.
</event>
<event>
 5   0  0.6706225E-06  0.2589621E+04  0.7818609E-02  0.8371735E-01
        1   -1    0    0  501    0  0.00000000000E+00  0.00000000000E+00  0.24584199267E+04  0.24584199267E+04  0.50400001928E-02 0. -1.
       -1   -1    0    0    0  501  0.00000000000E+00  0.00000000000E+00 -0.68195621311E+03  0.68195621313E+03  0.50400001928E-02 0.  1.
    10030    2    1    2    0    0  0.00000000000E+00  0.00000000000E+00  0.17764637136E+04  0.31403761398E+04  0.25896213959E+04 0.  0.
        5    1    3    3  502    0  0.64065235147E+03 -0.27610442009E+03  0.22110201047E+04  0.23184695555E+04  0.46999998093E+01 0. -1.
       -5    1    3    3    0  502 -0.64065235147E+03  0.27610442009E+03 -0.43455639117E+03  0.82190658432E+03  0.46999998093E+01 0.  1.
</event>
<event>
 5   0  0.6993678E-06  0.2613492E+04  0.7818609E-02  0.8363633E-01
       -1   -1    0    0    0  501  0.00000000000E+00  0.00000000000E+00  0.10449197113E+04  0.10449197113E+04  0.50400001928E-02 0.  1.
        1   -1    0    0  501    0  0.00000000000E+00  0.00000000000E+00 -0.16341777134E+04  0.16341777135E+04  0.50400001928E-02 0. -1.
    10030    2    1    2    0    0  0.00000000000E+00  0.00000000000E+00 -0.58925800213E+03  0.26790974248E+04  0.26134915379E+04 0.  0.
        1    1    3    3  502    0 -0.12003709417E+04  0.47921294828E+03 -0.49194213220E+03  0.13829470377E+04  0.50400001928E-02 0.  1.
       -1    1    3    3    0  502  0.12003709417E+04 -0.47921294828E+03 -0.97315869924E+02  0.12961503871E+04  0.50400001928E-02 0. -1.
</event>
<event>
 5   0  0.1869956E-05  0.2711607E+04  0.7818609E-02  0.8331249E-01
        2   -1    0    0  501    0  0.00000000000E+00  0.00000000000E+00  0.18568663856E+04  0.18568663856E+04  0.25500000920E-02 0.  1.
       -2   -1    0    0    0  501  0.00000000000E+00  0.00000000000E+00 -0.98994908715E+03  0.98994908715E+03  0.25500000920E-02 0. -1.
    10030    2    1    2    0    0  0.00000000000E+00  0.00000000000E+00  0.86691729846E+03  0.28468154728E+04  0.27116070389E+04 0.  0.
        5    1    3    3  502    0 -0.50560812068E+03  0.17624221340E+03  0.17411513038E+04  0.18216286236E+04  0.46999998093E+01 0.  1.
       -5    1    3    3    0  502  0.50560812068E+03 -0.17624221340E+03 -0.87423400539E+03  0.10251868491E+04  0.46999998093E+01 0. -1.
</event>
<event>
 5   0  0.7138294E-06  0.2602345E+04  0.7818609E-02  0.8367405E-01
        1   -1    0    0  501    0  0.00000000000E+00  0.00000000000E+00  0.16349366508E+04  0.16349366508E+04  0.50400001928E-02 0.  1.
       -1   -1    0    0    0  501  0.00000000000E+00  0.00000000000E+00 -0.10355445112E+04  0.10355445112E+04  0.50400001928E-02 0. -1.
    10030    2    1    2    0    0  0.00000000000E+00  0.00000000000E+00  0.59939213961E+03  0.26704811620E+04  0.26023448464E+04 0.  0.
        2    1    3    3  502    0  0.23169576373E+03 -0.73635250033E+03 -0.77517907745E+03  0.10939837905E+04  0.25500000920E-02 0. -1.
       -2    1    3    3    0  502 -0.23169576373E+03  0.73635250033E+03  0.13745712171E+04  0.15764973715E+04  0.25500000920E-02 0.  1.
</event>
<event>
 5   0  0.6984287E-06  0.2609729E+04  0.7818609E-02  0.8364904E-01
       -1   -1    0    0    0  501  0.00000000000E+00  0.00000000000E+00  0.14794012173E+04  0.14794012173E+04  0.50400001928E-02 0. -1.
        1   -1    0    0  501    0  0.00000000000E+00  0.00000000000E+00 -0.11509189171E+04  0.11509189171E+04  0.50400001928E-02 0.  1.
    10030    2    1    2    0    0  0.00000000000E+00  0.00000000000E+00  0.32848230022E+03  0.26303201344E+04  0.26097286043E+04 0.  0.
        3    1    3    3  502    0 -0.18645113452E+03  0.93068992373E+03 -0.73821364319E+03  0.12024587947E+04  0.10100000352E+00 0.  1.
       -3    1    3    3    0  502  0.18645113452E+03 -0.93068992373E+03  0.10666959434E+04  0.14278613398E+04  0.10100000352E+00 0. -1.
</event>
<event>
 5   0  0.1720129E-05  0.2688923E+04  0.7818609E-02  0.8338608E-01
        2   -1    0    0  501    0  0.00000000000E+00  0.00000000000E+00  0.25634881448E+04  0.25634881448E+04  0.25500000920E-02 0.  1.
       -2   -1    0    0    0  501  0.00000000000E+00  0.00000000000E+00 -0.70512393098E+03  0.70512393098E+03  0.25500000920E-02 0. -1.
    10030    2    1    2    0    0  0.00000000000E+00  0.00000000000E+00  0.18583642138E+04  0.32686120758E+04  0.26889230838E+04 0.  0.
        3    1    3    3  502    0 -0.20596460972E+03  0.13089987283E+04  0.65284656805E+03  0.14771959054E+04  0.10100000352E+00 0.  1.
       -3    1    3    3    0  502  0.20596460972E+03 -0.13089987283E+04  0.12055176458E+04  0.17914161704E+04  0.10100000352E+00 0. -1.
</event>
<event>
 5   0  0.1869956E-05  0.2628858E+04  0.7818609E-02  0.8358464E-01
        2   -1    0    0  501    0  0.00000000000E+00  0.00000000000E+00  0.11669964710E+04  0.11669964710E+04  0.25500000920E-02 0.  1.
       -2   -1    0    0    0  501  0.00000000000E+00  0.00000000000E+00 -0.14804876625E+04  0.14804876626E+04  0.25500000920E-02 0. -1.
    10030    2    1    2    0    0  0.00000000000E+00  0.00000000000E+00 -0.31349119151E+03  0.26474841336E+04  0.26288582142E+04 0.  0.
        5    1    3    3  502    0  0.52157948734E+03 -0.61318474475E+03  0.88968379419E+03  0.11998333370E+04  0.46999998093E+01 0.  1.
       -5    1    3    3    0  502 -0.52157948734E+03  0.61318474475E+03 -0.12031749857E+04  0.14476507966E+04  0.46999998093E+01 0. -1.
</event>
<event>
 5   0  0.1702345E-05  0.2492871E+04  0.7818609E-02  0.8405530E-01
        2   -1    0    0  501    0  0.00000000000E+00  0.00000000000E+00  0.12894100233E+04  0.12894100233E+04  0.25500000920E-02 0.  1.
       -2   -1    0    0    0  501  0.00000000000E+00  0.00000000000E+00 -0.12048930339E+04  0.12048930339E+04  0.25500000920E-02 0. -1.
    10030    2    1    2    0    0  0.00000000000E+00  0.00000000000E+00  0.84516989435E+02  0.24943030572E+04  0.24928707587E+04 0.  0.
        1    1    3    3  502    0 -0.47005954774E+03 -0.98850317473E+03  0.63884485530E+03  0.12673662667E+04  0.50400001928E-02 0.  1.
       -1    1    3    3    0  502  0.47005954774E+03  0.98850317473E+03 -0.55432786587E+03  0.12269367905E+04  0.50400001928E-02 0. -1.
</event>
<event>
 5   0  0.6918420E-06  0.2614864E+04  0.7818609E-02  0.8363170E-01
        1   -1    0    0  501    0  0.00000000000E+00  0.00000000000E+00  0.19370453308E+04  0.19370453308E+04  0.50400001928E-02 0.  1.
       -1   -1    0    0    0  501  0.00000000000E+00  0.00000000000E+00 -0.88246710976E+03  0.88246710977E+03  0.50400001928E-02 0. -1.
    10030    2    1    2    0    0  0.00000000000E+00  0.00000000000E+00  0.10545782211E+04  0.28195124406E+04  0.26148642753E+04 0.  0.
        4    1    3    3  502    0  0.41810737746E+03  0.61321411664E+03  0.16878791856E+04  0.18438500725E+04  0.12699999809E+01 0.  1.
       -4    1    3    3    0  502 -0.41810737746E+03 -0.61321411664E+03 -0.63330096451E+03  0.97566236808E+03  0.12699999809E+01 0. -1.
</event>
<event>
 5   0  0.6706225E-06  0.2518323E+04  0.7818609E-02  0.8396487E-01
        1   -1    0    0  501    0  0.00000000000E+00  0.00000000000E+00  0.11525159619E+04  0.11525159619E+04  0.50400001928E-02 0.  1.
       -1   -1    0    0    0  501  0.00000000000E+00  0.00000000000E+00 -0.13756754065E+04  0.13756754065E+04  0.50400001928E-02 0. -1.
    10030    2    1    2    0    0  0.00000000000E+00  0.00000000000E+00 -0.22315944456E+03  0.25281913684E+04  0.25183231439E+04 0.  0.
        5    1    3    3  502    0 -0.10475876168E+04  0.54106620474E+03  0.33204929405E+03  0.12249372541E+04  0.46999998093E+01 0.  1.
       -5    1    3    3    0  502  0.10475876168E+04 -0.54106620474E+03 -0.55520873861E+03  0.13032541142E+04  0.46999998093E+01 0. -1.
</event>
<event>
 5   0  0.6984287E-06  0.2617292E+04  0.7818609E-02  0.8362351E-01
        1   -1    0    0  501    0  0.00000000000E+00  0.00000000000E+00  0.20018997426E+04  0.20018997426E+04  0.50400001928E-02 0.  1.
       -1   -1    0    0    0  501  0.00000000000E+00  0.00000000000E+00 -0.85546436184E+03  0.85546436185E+03  0.50400001928E-02 0. -1.
    10030    2    1    2    0    0  0.00000000000E+00  0.00000000000E+00  0.11464353808E+04  0.28573641045E+04  0.26172916427E+04 0.  0.
        3    1    3    3  502    0  0.48471877449E+03  0.35050876771E+03  0.18439154813E+04  0.19385130897E+04  0.10100000352E+00 0.  1.
       -3    1    3    3    0  502 -0.48471877449E+03 -0.35050876771E+03 -0.69748010050E+03  0.91885101479E+03  0.10100000352E+00 0. -1.
</event>
<event>
 5   0  0.1681731E-05  0.2607185E+04  0.7818609E-02  0.8365765E-01
        2   -1    0    0  501    0  0.00000000000E+00  0.00000000000E+00  0.11044820115E+04  0.11044820115E+04  0.25500000920E-02 0. -1.
       -2   -1    0    0    0  501  0.00000000000E+00  0.00000000000E+00 -0.15385971876E+04  0.15385971876E+04  0.25500000920E-02 0.  1.
    10030    2    1    2    0    0  0.00000000000E+00  0.00000000000E+00 -0.43411517605E+03  0.26430791991E+04  0.26071846245E+04 0.  0.
        2    1    3    3  502    0  0.91111942775E+03 -0.25536747224E+03 -0.11260638814E+04  0.14708402437E+04  0.25500000920E-02 0.  1.
       -2    1    3    3    0  502 -0.91111942775E+03  0.25536747224E+03  0.69194870539E+03  0.11722389553E+04  0.25500000920E-02 0. -1.
</event>
<event>
 5   0  0.6984287E-06  0.2605726E+04  0.7818609E-02  0.8366259E-01
       -1   -1    0    0    0  501  0.00000000000E+00  0.00000000000E+00  0.90200610231E+03  0.90200610233E+03  0.50400001928E-02 0.  1.
        1   -1    0    0  501    0  0.00000000000E+00  0.00000000000E+00 -0.18818628094E+04  0.18818628094E+04  0.50400001928E-02 0. -1.
    10030    2    1    2    0    0  0.00000000000E+00  0.00000000000E+00 -0.97985670707E+03  0.27838689117E+04  0.26057258012E+04 0.  0.
        3    1    3    3  502    0  0.10067247158E+04 -0.34410388892E+03 -0.12933719856E+04  0.16747278116E+04  0.10100000352E+00 0. -1.
       -3    1    3    3    0  502 -0.10067247158E+04  0.34410388892E+03  0.31351527849E+03  0.11091411001E+04  0.10100000352E+00 0.  1.
</event>
<event>
 5   0  0.7138294E-06  0.2605906E+04  0.7818609E-02  0.8366198E-01
        1   -1    0    0  501    0  0.00000000000E+00  0.00000000000E+00  0.23408686096E+04  0.23408686096E+04  0.50400001928E-02 0. -1.
       -1   -1    0    0    0  501  0.00000000000E+00  0.00000000000E+00 -0.72523807745E+03  0.72523807747E+03  0.50400001928E-02 0.  1.
    10030    2    1    2    0    0  0.00000000000E+00  0.00000000000E+00  0.16156305322E+04  0.30661066871E+04  0.26059064066E+04 0.  0.
        2    1    3    3  502    0  0.52617088591E+03  0.45254747326E+03  0.21052961156E+04  0.22167378625E+04  0.25500000920E-02 0. -1.
       -2    1    3    3    0  502 -0.52617088591E+03 -0.45254747326E+03 -0.48966558337E+03  0.84936882464E+03  0.25500000920E-02 0.  1.
</event>
<event>
 5   0  0.6918420E-06  0.2625432E+04  0.7818609E-02  0.8359613E-01
       -1   -1    0    0    0  501  0.00000000000E+00  0.00000000000E+00  0.16394248600E+04  0.16394248600E+04  0.50400001928E-02 0. -1.
        1   -1    0    0  501    0  0.00000000000E+00  0.00000000000E+00 -0.10511145738E+04  0.10511145738E+04  0.50400001928E-02 0.  1.
    10030    2    1    2    0    0  0.00000000000E+00  0.00000000000E+00  0.58831028626E+03  0.26905394338E+04  0.26254320505E+04 0.  0.
        4    1    3    3  502    0 -0.12950171771E+04  0.20410930429E+03  0.36283694539E+03  0.13602876015E+04  0.12699999809E+01 0. -1.
       -4    1    3    3    0  502  0.12950171771E+04 -0.20410930429E+03  0.22547334087E+03  0.13302518323E+04  0.12699999809E+01 0.  1.
</event>
<event>
 5   0  0.1702345E-05  0.2593659E+04  0.7818609E-02  0.8370358E-01
       -2   -1    0    0    0  501  0.00000000000E+00  0.00000000000E+00  0.10732852987E+04  0.10732852987E+04  0.25500000920E-02 0.  1.
        2   -1    0    0  501    0  0.00000000000E+00  0.00000000000E+00 -0.15669340437E+04  0.15669340437E+04  0.25500000920E-02 0. -1.
    10030    2    1    2    0    0  0.00000000000E+00  0.00000000000E+00 -0.49364874502E+03  0.26402193424E+04  0.25936594018E+04 0.  0.
        1    1    3    3  502    0  0.11873560807E+03  0.10763945433E+03 -0.15568147260E+04  0.15650420083E+04  0.50400001928E-02 0. -1.
       -1    1    3    3    0  502 -0.11873560807E+03 -0.10763945433E+03  0.10631659809E+04  0.10751773341E+04  0.50400001928E-02 0.  1.
</event>
<event>
 5   0  0.1720129E-05  0.2597127E+04  0.7818609E-02  0.8369178E-01
        2   -1    0    0  501    0  0.00000000000E+00  0.00000000000E+00  0.18630317612E+04  0.18630317612E+04  0.25500000920E-02 0.  1.
       -2   -1    0    0    0  501  0.00000000000E+00  0.00000000000E+00 -0.90511992098E+03  0.90511992099E+03  0.25500000920E-02 0. -1.
    10030    2    1    2    0    0  0.00000000000E+00  0.00000000000E+00  0.95791184018E+03  0.27681516822E+04  0.25971269976E+04 0.  0.
        3    1    3    3  502    0 -0.90115868305E+03  0.15549156061E+03  0.14616239161E+04  0.17241255986E+04  0.10100000352E+00 0.  1.
       -3    1    3    3    0  502  0.90115868305E+03 -0.15549156061E+03 -0.50371207594E+03  0.10440260835E+04  0.10100000352E+00 0. -1.
</event>
<event>
 5   0  0.7138294E-06  0.2646698E+04  0.7818609E-02  0.8352510E-01
        1   -1    0    0  501    0  0.00000000000E+00  0.00000000000E+00  0.18701082695E+04  0.18701082695E+04  0.50400001928E-02 0. -1.
       -1   -1    0    0    0  501  0.00000000000E+00  0.00000000000E+00 -0.93644446564E+03  0.93644446566E+03  0.50400001928E-02 0.  1.
    10030    2    1    2    0    0  0.00000000000E+00  0.00000000000E+00  0.93366380381E+03  0.28065527351E+04  0.26466979723E+04 0.  0.
        2    1    3    3  502    0 -0.66923974552E+03 -0.11753022181E+03  0.16710056438E+04  0.18038722381E+04  0.25500000920E-02 0. -1.
       -2    1    3    3    0  502  0.66923974552E+03  0.11753022181E+03 -0.73734183997E+03  0.10026804970E+04  0.25500000920E-02 0.  1.
</event>
<event>
 5   0  0.6706225E-06  0.2588900E+04  0.7818609E-02  0.8371981E-01
        1   -1    0    0  501    0  0.00000000000E+00  0.00000000000E+00  0.11711523899E+04  0.11711523899E+04  0.50400001928E-02 0. -1.
       -1   -1    0    0    0  501  0.00000000000E+00  0.00000000000E+00 -0.14307279577E+04  0.14307279577E+04  0.50400001928E-02 0.  1.
    10030    2    1    2    0    0  0.00000000000E+00  0.00000000000E+00 -0.25957556788E+03  0.26018803476E+04  0.25888997408E+04 0.  0.
        5    1    3    3  502    0 -0.57213053017E+03  0.60640545669E+03 -0.11249634624E+04  0.14002234833E+04  0.46999998093E+01 0.  1.
       -5    1    3    3    0  502  0.57213053017E+03 -0.60640545669E+03  0.86538789455E+03  0.12016568643E+04  0.46999998093E+01 0. -1.
</event>
<event>
 5   0  0.1869956E-05  0.2610066E+04  0.7818609E-02  0.8364790E-01
        2   -1    0    0  501    0  0.00000000000E+00  0.00000000000E+00  0.85418725865E+03  0.85418725865E+03  0.25500000920E-02 0.  1.
       -2   -1    0    0    0  501  0.00000000000E+00  0.00000000000E+00 -0.19938382796E+04  0.19938382796E+04  0.25500000920E-02 0. -1.
    10030    2    1    2    0    0  0.00000000000E+00  0.00000000000E+00 -0.11396510210E+04  0.28480255383E+04  0.26100660944E+04 0.  0.
        5    1    3    3  502    0 -0.28524075531E+03 -0.17759476095E+03  0.80616826851E+03  0.87340228689E+03  0.46999998093E+01 0.  1.
       -5    1    3    3    0  502  0.28524075531E+03  0.17759476095E+03 -0.19458192895E+04  0.19746232514E+04  0.46999998093E+01 0. -1.
</event>
<event>
 5   0  0.1702345E-05  0.2354371E+04  0.7818609E-02  0.8456786E-01
        2   -1    0    0  501    0  0.00000000000E+00  0.00000000000E+00  0.26663569690E+04  0.26663569690E+04  0.25500000920E-02 0.  1.
       -2   -1    0    0    0  501  0.00000000000E+00  0.00000000000E+00 -0.51972267874E+03  0.51972267875E+03  0.25500000920E-02 0. -1.
    10030    2    1    2    0    0  0.00000000000E+00  0.00000000000E+00  0.21466342903E+04  0.31860796478E+04  0.23543714120E+04 0.  0.
        1    1    3    3  502    0  0.19438101546E+03  0.30550684605E+03 -0.44248515917E+03  0.57176177580E+03  0.50400001928E-02 0. -1.
       -1    1    3    3    0  502 -0.19438101546E+03 -0.30550684605E+03  0.25891194495E+04  0.26143178720E+04  0.50400001928E-02 0.  1.
</event>
<event>
 5   0  0.5840500E-06  0.2636777E+04  0.7818609E-02  0.8355815E-01
        3   -1    0    0  501    0  0.00000000000E+00  0.00000000000E+00  0.73995438789E+03  0.73995439478E+03  0.10100000352E+00 0. -1.
       -3   -1    0    0    0  501  0.00000000000E+00  0.00000000000E+00 -0.23489945037E+04  0.23489945059E+04  0.10100000352E+00 0.  1.
    10030    2    1    2    0    0  0.00000000000E+00  0.00000000000E+00 -0.16090401158E+04  0.30889489006E+04  0.26367774302E+04 0.  0.
        2    1    3    3  502    0 -0.14387680658E+03 -0.12358630715E+03  0.72388799089E+03  0.74832341548E+03  0.25500000920E-02 0. -1.
       -2    1    3    3    0  502  0.14387680658E+03  0.12358630715E+03 -0.23329281067E+04  0.23406254852E+04  0.25500000920E-02 0.  1.
</event>
<event>
 5   0  0.6918420E-06  0.2700454E+04  0.7818609E-02  0.8334858E-01
       -1   -1    0    0    0  501  0.00000000000E+00  0.00000000000E+00  0.13234348120E+04  0.13234348120E+04  0.50400001928E-02 0.  1.
        1   -1    0    0  501    0  0.00000000000E+00  0.00000000000E+00 -0.13775619864E+04  0.13775619864E+04  0.50400001928E-02 0. -1.
    10030    2    1    2    0    0  0.00000000000E+00  0.00000000000E+00 -0.54127174438E+02  0.27009967985E+04  0.27004543977E+04 0.  0.
        4    1    3    3  502    0 -0.60528776846E+03  0.12002607896E+04 -0.15402461716E+03  0.13530426606E+04  0.12699999809E+01 0. -1.
       -4    1    3    3    0  502  0.60528776846E+03 -0.12002607896E+04  0.99897442723E+02  0.13479541379E+04  0.12699999809E+01 0.  1.
</event>
<event>
 5   0  0.1677971E-05  0.2629503E+04  0.7818609E-02  0.8358248E-01
        2   -1    0    0  501    0  0.00000000000E+00  0.00000000000E+00  0.18567971256E+04  0.18567971256E+04  0.25500000920E-02 0.  1.
       -2   -1    0    0    0  501  0.00000000000E+00  0.00000000000E+00 -0.93094243532E+03  0.93094243533E+03  0.25500000920E-02 0. -1.
    10030    2    1    2    0    0  0.00000000000E+00  0.00000000000E+00  0.92585469023E+03  0.27877395609E+04  0.26295027956E+04 0.  0.
        4    1    3    3  502    0 -0.79083023503E+03 -0.94376785115E+03 -0.25743629743E+02  0.12315740192E+04  0.12699999809E+01 0. -1.
       -4    1    3    3    0  502  0.79083023503E+03  0.94376785115E+03  0.95159831997E+03  0.15561655416E+04  0.12699999809E+01 0.  1.
</event>
<event>
 5   0  0.1702345E-05  0.2771528E+04  0.7818609E-02  0.8312163E-01
        2   -1    0    0  501    0  0.00000000000E+00  0.00000000000E+00  0.19156800067E+04  0.19156800067E+04  0.25500000920E-02 0.  1.
       -2   -1    0    0    0  501  0.00000000000E+00  0.00000000000E+00 -0.10024334916E+04  0.10024334916E+04  0.25500000920E-02 0. -1.
    10030    2    1    2    0    0  0.00000000000E+00  0.00000000000E+00  0.91324651510E+03  0.29181134982E+04  0.27715279525E+04 0.  0.
        1    1    3    3  502    0 -0.74863710542E+03 -0.10578723438E+03  0.16793784716E+04  0.18417275872E+04  0.50400001928E-02 0.  1.
       -1    1    3    3    0  502  0.74863710542E+03  0.10578723438E+03 -0.76613195653E+03  0.10763859110E+04  0.50400001928E-02 0. -1.
</event>
<event>
 5   0  0.1869956E-05  0.2583965E+04  0.7818609E-02  0.8373668E-01
        2   -1    0    0  501    0  0.00000000000E+00  0.00000000000E+00  0.14851537809E+04  0.14851537809E+04  0.25500000920E-02 0. -1.
       -2   -1    0    0    0  501  0.00000000000E+00  0.00000000000E+00 -0.11239370727E+04  0.11239370727E+04  0.25500000920E-02 0.  1.
    10030    2    1    2    0    0  0.00000000000E+00  0.00000000000E+00  0.36121670812E+03  0.26090908536E+04  0.25839654742E+04 0.  0.
        5    1    3    3  502    0  0.56157525457E+03  0.68633587890E+03  0.11293045599E+04  0.14358880820E+04  0.46999998093E+01 0. -1.
       -5    1    3    3    0  502 -0.56157525457E+03 -0.68633587890E+03 -0.76808785174E+03  0.11732027716E+04  0.46999998093E+01 0.  1.
</event>
<event>
 5   0  0.1869956E-05  0.2610203E+04  0.7818609E-02  0.8364744E-01
       -2   -1    0    0    0  501  0.00000000000E+00  0.00000000000E+00  0.84095467029E+03  0.84095467029E+03  0.25500000920E-02 0. -1.
        2   -1    0    0  501    0  0.00000000000E+00  0.00000000000E+00 -0.20254242620E+04  0.20254242620E+04  0.25500000920E-02 0.  1.
    10030    2    1    2    0    0  0.00000000000E+00  0.00000000000E+00 -0.11844695917E+04  0.28663789323E+04  0.26102030515E+04 0.  0.
        5    1    3    3  502    0 -0.10204060511E+03  0.31114419303E+03 -0.19795714593E+04  0.20064765751E+04  0.46999998093E+01 0.  1.
       -5    1    3    3    0  502  0.10204060511E+03 -0.31114419303E+03  0.79510186763E+03  0.85990235716E+03  0.46999998093E+01 0. -1.
</event>
<event>
 5   0  0.1869956E-05  0.2600457E+04  0.7818609E-02  0.8368046E-01
       -2   -1    0    0    0  501  0.00000000000E+00  0.00000000000E+00  0.11048802861E+04  0.11048802861E+04  0.25500000920E-02 0.  1.
        2   -1    0    0  501    0  0.00000000000E+00  0.00000000000E+00 -0.15301149985E+04  0.15301149985E+04  0.25500000920E-02 0. -1.
    10030    2    1    2    0    0  0.00000000000E+00  0.00000000000E+00 -0.42523471232E+03  0.26349952846E+04  0.26004568040E+04 0.  0.
        5    1    3    3  502    0  0.57112281401E+03 -0.81243861722E+03 -0.10630100784E+04  0.14547337530E+04  0.46999998093E+01 0. -1.
       -5    1    3    3    0  502 -0.57112281401E+03  0.81243861722E+03  0.63777536606E+03  0.11802615316E+04  0.46999998093E+01 0.  1.
</event>
<event>
 5   0  0.6706225E-06  0.2608975E+04  0.7818609E-02  0.8365159E-01
       -1   -1    0    0    0  501  0.00000000000E+00  0.00000000000E+00  0.98290790870E+03  0.98290790872E+03  0.50400001928E-02 0.  1.
        1   -1    0    0  501    0  0.00000000000E+00  0.00000000000E+00 -0.17312783115E+04  0.17312783115E+04  0.50400001928E-02 0. -1.
    10030    2    1    2    0    0  0.00000000000E+00  0.00000000000E+00 -0.74837040284E+03  0.27141862203E+04  0.26089746220E+04 0.  0.
        5    1    3    3  502    0  0.10070207051E+04 -0.21333426624E+03 -0.12077868330E+04  0.15869383522E+04  0.46999998093E+01 0. -1.
       -5    1    3    3    0  502 -0.10070207051E+04  0.21333426624E+03  0.45941643018E+03  0.11272478681E+04  0.46999998093E+01 0.  1.
</event>
<event>
 5   0  0.1702345E-05  0.2593647E+04  0.7818609E-02  0.8370362E-01
        2   -1    0    0  501    0  0.00000000000E+00  0.00000000000E+00  0.15892286950E+04  0.15892286950E+04  0.25500000920E-02 0. -1.
       -2   -1    0    0    0  501  0.00000000000E+00  0.00000000000E+00 -0.10582183660E+04  0.10582183660E+04  0.25500000920E-02 0.  1.
    10030    2    1    2    0    0  0.00000000000E+00  0.00000000000E+00  0.53101032900E+03  0.26474470611E+04  0.25936468479E+04 0.  0.
        1    1    3    3  502    0  0.18217835275E+03  0.14602226349E+03 -0.10365883829E+04  0.10625567887E+04  0.50400001928E-02 0.  1.
       -1    1    3    3    0  502 -0.18217835275E+03 -0.14602226349E+03  0.15675987119E+04  0.15848902723E+04  0.50400001928E-02 0. -1.
</event>
<event>
 5   0  0.7138294E-06  0.2627143E+04  0.7818609E-02  0.8359039E-01
       -1   -1    0    0    0  501  0.00000000000E+00  0.00000000000E+00  0.79948508884E+03  0.79948508886E+03  0.50400001928E-02 0. -1.
        1   -1    0    0  501    0  0.00000000000E+00  0.00000000000E+00 -0.21582271729E+04  0.21582271729E+04  0.50400001928E-02 0.  1.
    10030    2    1    2    0    0  0.00000000000E+00  0.00000000000E+00 -0.13587420840E+04  0.29577122617E+04  0.26271432721E+04 0.  0.
        2    1    3    3  502    0  0.30987398167E+03  0.12301064462E+04 -0.29545419723E+03  0.13024887470E+04  0.25500000920E-02 0. -1.
       -2    1    3    3    0  502 -0.30987398167E+03 -0.12301064462E+04 -0.10632878868E+04  0.16552235147E+04  0.25500000920E-02 0.  1.
</event>
<event>
 5   0  0.6918420E-06  0.2587918E+04  0.7818609E-02  0.8372317E-01
        1   -1    0    0  501    0  0.00000000000E+00  0.00000000000E+00  0.10052401446E+04  0.10052401447E+04  0.50400001928E-02 0. -1.
       -1   -1    0    0    0  501  0.00000000000E+00  0.00000000000E+00 -0.16656015186E+04  0.16656015186E+04  0.50400001928E-02 0.  1.
    10030    2    1    2    0    0  0.00000000000E+00  0.00000000000E+00 -0.66036137400E+03  0.26708416633E+04  0.25879177047E+04 0.  0.
        4    1    3    3  502    0 -0.73721454932E+03 -0.18684316782E+03  0.75023164256E+03  0.10682905932E+04  0.12699999809E+01 0. -1.
       -4    1    3    3    0  502  0.73721454932E+03  0.18684316782E+03 -0.14105930166E+04  0.16025510701E+04  0.12699999809E+01 0.  1.
</event>
<event>
 5   0  0.6984287E-06  0.2577826E+04  0.7818609E-02  0.8375772E-01
        1   -1    0    0  501    0  0.00000000000E+00  0.00000000000E+00  0.18667829203E+04  0.18667829203E+04  0.50400001928E-02 0.  1.
       -1   -1    0    0    0  501  0.00000000000E+00  0.00000000000E+00 -0.88992517456E+03  0.88992517458E+03  0.50400001928E-02 0. -1.
    10030    2    1    2    0    0  0.00000000000E+00  0.00000000000E+00  0.97685774575E+03  0.27567080949E+04  0.25778263062E+04 0.  0.
        3    1    3    3  502    0  0.88144543622E+02  0.18170374374E+03  0.18497581193E+04  0.18607500695E+04  0.10100000352E+00 0.  1.
       -3    1    3    3    0  502 -0.88144543622E+02 -0.18170374374E+03 -0.87290037351E+03  0.89595802543E+03  0.10100000352E+00 0. -1.
</event>
<event>
 5   0  0.1702345E-05  0.2084869E+04  0.7818609E-02  0.8567938E-01
       -2   -1    0    0    0  501  0.00000000000E+00  0.00000000000E+00  0.17834764027E+04  0.17834764027E+04  0.25500000920E-02 0.  1.
        2   -1    0    0  501    0  0.00000000000E+00  0.00000000000E+00 -0.60929851767E+03  0.60929851767E+03  0.25500000920E-02 0. -1.
    10030    2    1    2    0    0  0.00000000000E+00  0.00000000000E+00  0.11741778850E+04  0.23927749204E+04  0.20848688481E+04 0.  0.
        1    1    3    3  502    0  0.82844784023E+03 -0.63240575308E+03  0.56394469466E+03  0.11850301596E+04  0.50400001928E-02 0.  1.
       -1    1    3    3    0  502 -0.82844784023E+03  0.63240575308E+03  0.61023319036E+03  0.12077447608E+04  0.50400001928E-02 0. -1.
</event>
<event>
 5   0  0.6918420E-06  0.2587651E+04  0.7818609E-02  0.8372408E-01
       -1   -1    0    0    0  501  0.00000000000E+00  0.00000000000E+00  0.17569940756E+04  0.17569940756E+04  0.50400001928E-02 0. -1.
        1   -1    0    0  501    0  0.00000000000E+00  0.00000000000E+00 -0.95275484599E+03  0.95275484601E+03  0.50400001928E-02 0.  1.
    10030    2    1    2    0    0  0.00000000000E+00  0.00000000000E+00  0.80423922957E+03  0.27097489216E+04  0.25876511511E+04 0.  0.
        4    1    3    3  502    0 -0.10537538595E+04  0.71530003558E+03  0.64075754175E+03  0.14257009425E+04  0.12699999809E+01 0.  1.
       -4    1    3    3    0  502  0.10537538595E+04 -0.71530003558E+03  0.16348168782E+03  0.12840479790E+04  0.12699999809E+01 0. -1.
</event>
<event>
 5   0  0.6918420E-06  0.2623771E+04  0.7818609E-02  0.8360171E-01
        1   -1    0    0  501    0  0.00000000000E+00  0.00000000000E+00  0.11007649069E+04  0.11007649069E+04  0.50400001928E-02 0. -1.
       -1   -1    0    0    0  501  0.00000000000E+00  0.00000000000E+00 -0.15634978354E+04  0.15634978354E+04  0.50400001928E-02 0.  1.
    10030    2    1    2    0    0  0.00000000000E+00  0.00000000000E+00 -0.46273292849E+03  0.26642627422E+04  0.26237709878E+04 0.  0.
        4    1    3    3  502    0  0.95044409211E+03  0.46542217532E+03 -0.10186249012E+04  0.14688635320E+04  0.12699999809E+01 0.  1.
       -4    1    3    3    0  502 -0.95044409211E+03 -0.46542217532E+03  0.55589197272E+03  0.11953992102E+04  0.12699999809E+01 0. -1.
</event>
<event>
 5   0  0.6706225E-06  0.2601088E+04  0.7818609E-02  0.8367832E-01
        1   -1    0    0  501    0  0.00000000000E+00  0.00000000000E+00  0.13215447562E+04  0.13215447562E+04  0.50400001928E-02 0. -1.
       -1   -1    0    0    0  501  0.00000000000E+00  0.00000000000E+00 -0.12798768189E+04  0.12798768189E+04  0.50400001928E-02 0.  1.
    10030    2    1    2    0    0  0.00000000000E+00  0.00000000000E+00  0.41667937233E+02  0.26014215751E+04  0.26010878483E+04 0.  0.
        5    1    3    3  502    0  0.11251453146E+03  0.12856965051E+04 -0.13955301757E+03  0.12981418095E+04  0.46999998093E+01 0. -1.
       -5    1    3    3    0  502 -0.11251453146E+03 -0.12856965051E+04  0.18122095480E+03  0.13032797656E+04  0.46999998093E+01 0.  1.
</event>
<event>
 5   0  0.1681731E-05  0.2579253E+04  0.7818609E-02  0.8375283E-01
        2   -1    0    0  501    0  0.00000000000E+00  0.00000000000E+00  0.15133937363E+04  0.15133937363E+04  0.25500000920E-02 0.  1.
       -2   -1    0    0    0  501  0.00000000000E+00  0.00000000000E+00 -0.10989449769E+04  0.10989449770E+04  0.25500000920E-02 0. -1.
    10030    2    1    2    0    0  0.00000000000E+00  0.00000000000E+00  0.41444875931E+03  0.26123387132E+04  0.25792529497E+04 0.  0.
        2    1    3    3  502    0 -0.10855309625E+04 -0.56996863335E+03 -0.19777338574E+03  0.12419162716E+04  0.25500000920E-02 0. -1.
       -2    1    3    3    0  502  0.10855309625E+04  0.56996863335E+03  0.61222214505E+03  0.13704224416E+04  0.25500000920E-02 0.  1.
</event>
<event>
 5   0  0.1677971E-05  0.2607091E+04  0.7818609E-02  0.8365796E-01
        2   -1    0    0  501    0  0.00000000000E+00  0.00000000000E+00  0.22183686639E+04  0.22183686639E+04  0.25500000920E-02 0.  1.
       -2   -1    0    0    0  501  0.00000000000E+00  0.00000000000E+00 -0.76598243623E+03  0.76598243623E+03  0.25500000920E-02 0. -1.
    10030    2    1    2    0    0  0.00000000000E+00  0.00000000000E+00  0.14523862277E+04  0.29843511002E+04  0.26070914320E+04 0.  0.
        4    1    3    3  502    0  0.12550597118E+04  0.14941027923E+03  0.36108507394E+03  0.13144893895E+04  0.12699999809E+01 0. -1.
       -4    1    3    3    0  502 -0.12550597118E+04 -0.14941027923E+03  0.10913011538E+04  0.16698617107E+04  0.12699999809E+01 0.  1.
</event>
<event>
 5   0  0.1869956E-05  0.2470829E+04  0.7818609E-02  0.8413452E-01
        2   -1    0    0  501    0  0.00000000000E+00  0.00000000000E+00  0.10165790636E+04  0.10165790636E+04  0.25500000920E-02 0. -1.
       -2   -1    0    0    0  501  0.00000000000E+00  0.00000000000E+00 -0.15013579921E+04  0.15013579921E+04  0.25500000920E-02 0.  1.
    10030    2    1    2    0    0  0.00000000000E+00  0.00000000000E+00 -0.48477892852E+03  0.25179370558E+04  0.24708290931E+04 0.  0.
        5    1    3    3  502    0  0.22633020399E+02 -0.94351602560E+03  0.56998693542E+03  0.11025615360E+04  0.46999998093E+01 0. -1.
       -5    1    3    3    0  502 -0.22633020399E+02  0.94351602560E+03 -0.10547658639E+04  0.14153755197E+04  0.46999998093E+01 0.  1.
</event>
<event>
 5   0  0.1720129E-05  0.2595420E+04  0.7818609E-02  0.8369758E-01
       -2   -1    0    0    0  501  0.00000000000E+00  0.00000000000E+00  0.15029216720E+04  0.15029216720E+04  0.25500000920E-02 0.  1.
        2   -1    0    0  501    0  0.00000000000E+00  0.00000000000E+00 -0.11205186082E+04  0.11205186082E+04  0.25500000920E-02 0. -1.
    10030    2    1    2    0    0  0.00000000000E+00  0.00000000000E+00  0.38240306386E+03  0.26234402802E+04  0.25954203514E+04 0.  0.
        3    1    3    3  502    0 -0.29687164847E+02  0.12028333345E+03 -0.11145270374E+04  0.11213919633E+04  0.10100000352E+00 0. -1.
       -3    1    3    3    0  502  0.29687164847E+02 -0.12028333345E+03  0.14969301012E+04  0.15020483169E+04  0.10100000352E+00 0.  1.
</event>
<event>
 5   0  0.1869956E-05  0.2529072E+04  0.7818609E-02  0.8392701E-01
       -2   -1    0    0    0  501  0.00000000000E+00  0.00000000000E+00  0.10545020569E+04  0.10545020569E+04  0.25500000920E-02 0.  1.
        2   -1    0    0  501    0  0.00000000000E+00  0.00000000000E+00 -0.15164043195E+04  0.15164043195E+04  0.25500000920E-02 0. -1.
    10030    2    1    2    0    0  0.00000000000E+00  0.00000000000E+00 -0.46190226254E+03  0.25709063764E+04  0.25290721414E+04 0.  0.
        5    1    3    3  502    0  0.12166375612E+04  0.34461820749E+03 -0.22302994670E+03  0.12840300275E+04  0.46999998093E+01 0. -1.
       -5    1    3    3    0  502 -0.12166375612E+04 -0.34461820749E+03 -0.23887231584E+03  0.12868763490E+04  0.46999998093E+01 0.  1.
</event>
<event>
 5   0  0.1681731E-05  0.2614974E+04  0.7818609E-02  0.8363133E-01
        2   -1    0    0  501    0  0.00000000000E+00  0.00000000000E+00  0.26819336366E+04  0.26819336366E+04  0.25500000920E-02 0. -1.
       -2   -1    0    0    0  501  0.00000000000E+00  0.00000000000E+00 -0.63742150805E+03  0.63742150805E+03  0.25500000920E-02 0.  1.
    10030    2    1    2    0    0  0.00000000000E+00  0.00000000000E+00  0.20445121285E+04  0.33193551446E+04  0.26149739449E+04 0.  0.
        2    1    3    3  502    0  0.42101503477E+02  0.88657484472E+03 -0.19642291910E+03  0.90904865384E+03  0.25500000920E-02 0.  1.
       -2    1    3    3    0  502 -0.42101503477E+02 -0.88657484472E+03  0.22409350476E+04  0.24103064908E+04  0.25500000920E-02 0. -1.
</event>
<event>
 5   0  0.6993678E-06  0.2608821E+04  0.7818609E-02  0.8365211E-01
        1   -1    0    0  501    0  0.00000000000E+00  0.00000000000E+00  0.20942874047E+04  0.20942874047E+04  0.50400001928E-02 0.  1.
       -1   -1    0    0    0  501  0.00000000000E+00  0.00000000000E+00 -0.81244168433E+03  0.81244168435E+03  0.50400001928E-02 0. -1.
    10030    2    1    2    0    0  0.00000000000E+00  0.00000000000E+00  0.12818457203E+04  0.29067290890E+04  0.26088207194E+04 0.  0.
        1    1    3    3  502    0  0.42403872936E+03 -0.43722163873E+03 -0.64427553226E+03  0.88660169573E+03  0.50400001928E-02 0. -1.
       -1    1    3    3    0  502 -0.42403872936E+03  0.43722163873E+03  0.19261212526E+04  0.20201273933E+04  0.50400001928E-02 0.  1.
</event>
<event>
 5   0  0.6918420E-06  0.2107751E+04  0.7818609E-02  0.8557837E-01
        1   -1    0    0  501    0  0.00000000000E+00  0.00000000000E+00  0.20548004296E+04  0.20548004296E+04  0.50400001928E-02 0. -1.
       -1   -1    0    0    0  501  0.00000000000E+00  0.00000000000E+00 -0.54051658300E+03  0.54051658303E+03  0.50400001928E-02 0.  1.
    10030    2    1    2    0    0  0.00000000000E+00  0.00000000000E+00  0.15142838466E+04  0.25953170126E+04  0.21077511305E+04 0.  0.
        4    1    3    3  502    0  0.10065190633E+04  0.31504121542E+02  0.37448256058E+03  0.10743890988E+04  0.12699999809E+01 0. -1.
       -4    1    3    3    0  502 -0.10065190633E+04 -0.31504121542E+02  0.11398012860E+04  0.15209279138E+04  0.12699999809E+01 0.  1.
</event>
<event>
 5   0  0.1677971E-05  0.2614172E+04  0.7818609E-02  0.8363403E-01
        2   -1    0    0  501    0  0.00000000000E+00  0.00000000000E+00  0.11170853287E+04  0.11170853287E+04  0.25500000920E-02 0.  1.
       -2   -1    0    0    0  501  0.00000000000E+00  0.00000000000E+00 -0.15294031920E+04  0.15294031920E+04  0.25500000920E-02 0. -1.
    10030    2    1    2    0    0  0.00000000000E+00  0.00000000000E+00 -0.41231786333E+03  0.26464885207E+04  0.26141720429E+04 0.  0.
        4    1    3    3  502    0 -0.10199804435E+04  0.27965117912E+03 -0.98370791676E+03  0.14443849090E+04  0.12699999809E+01 0. -1.
       -4    1    3    3    0  502  0.10199804435E+04 -0.27965117912E+03  0.57139005343E+03  0.12021036116E+04  0.12699999809E+01 0.  1.
</event>
<event>
 5   0  0.1677971E-05  0.2581341E+04  0.7818609E-02  0.8374567E-01
        2   -1    0    0  501    0  0.00000000000E+00  0.00000000000E+00  0.15496101939E+04  0.15496101939E+04  0.25500000920E-02 0.  1.
       -2   -1    0    0    0  501  0.00000000000E+00  0.00000000000E+00 -0.10749999893E+04  0.10749999893E+04  0.25500000920E-02 0. -1.
    10030    2    1    2    0    0  0.00000000000E+00  0.00000000000E+00  0.47461020461E+03  0.26246101832E+04  0.25813414667E+04 0.  0.
        4    1    3    3  502    0  0.47324294640E+03 -0.33191344548E+03 -0.93603303953E+03  0.11001294858E+04  0.12699999809E+01 0. -1.
       -4    1    3    3    0  502 -0.47324294640E+03  0.33191344548E+03  0.14106432441E+04  0.15244806974E+04  0.12699999809E+01 0.  1.
</event>
<event>
 5   0  0.7138294E-06  0.2554469E+04  0.7818609E-02  0.8383834E-01
        1   -1    0    0  501    0  0.00000000000E+00  0.00000000000E+00  0.13695820782E+04  0.13695820782E+04  0.50400001928E-02 0.  1.
       -1   -1    0    0    0  501  0.00000000000E+00  0.00000000000E+00 -0.11911134073E+04  0.11911134073E+04  0.50400001928E-02 0. -1.
    10030    2    1    2    0    0  0.00000000000E+00  0.00000000000E+00  0.17846867091E+03  0.25606954854E+04  0.25544686928E+04 0.  0.
        2    1    3    3  502    0 -0.12033057791E+04 -0.42719342604E+03  0.11911562738E+03  0.12824303310E+04  0.25500000920E-02 0.  1.
       -2    1    3    3    0  502  0.12033057791E+04  0.42719342604E+03  0.59353043527E+02  0.12782651544E+04  0.25500000920E-02 0. -1.
</event>
<event>
 5   0  0.7138294E-06  0.2576967E+04  0.7818609E-02  0.8376067E-01
       -1   -1    0    0    0  501  0.00000000000E+00  0.00000000000E+00  0.12875823504E+04  0.12875823504E+04  0.50400001928E-02 0.  1.
        1   -1    0    0  501    0  0.00000000000E+00  0.00000000000E+00 -0.12893848161E+04  0.12893848161E+04  0.50400001928E-02 0. -1.
    10030    2    1    2    0    0  0.00000000000E+00  0.00000000000E+00 -0.18024656954E+01  0.25769671664E+04  0.25769665361E+04 0.  0.
        2    1    3    3  502    0  0.63886572708E+02  0.21492917934E+03 -0.12697250478E+04  0.12893710650E+04  0.25500000920E-02 0. -1.
       -2    1    3    3    0  502 -0.63886572708E+02 -0.21492917934E+03  0.12679225821E+04  0.12875961014E+04  0.25500000920E-02 0.  1.
</event>
<event>
 5   0  0.1681731E-05  0.2592725E+04  0.7818609E-02  0.8370677E-01
       -2   -1    0    0    0  501  0.00000000000E+00  0.00000000000E+00  0.49611970273E+03  0.49611970273E+03  0.25500000920E-02 0.  1.
        2   -1    0    0  501    0  0.00000000000E+00  0.00000000000E+00 -0.33873986937E+04  0.33873986937E+04  0.25500000920E-02 0. -1.
    10030    2    1    2    0    0  0.00000000000E+00  0.00000000000E+00 -0.28912789910E+04  0.38835183964E+04  0.25927246155E+04 0.  0.
        2    1    3    3  502    0 -0.88312341908E+02 -0.10377213948E+04 -0.26018906936E+04  0.28025880797E+04  0.25500000920E-02 0. -1.
       -2    1    3    3    0  502  0.88312341908E+02  0.10377213948E+04 -0.28938829734E+03  0.10809303167E+04  0.25500000920E-02 0.  1.
</event>
<event>
 5   0  0.1720129E-05  0.2625376E+04  0.7818609E-02  0.8359632E-01
       -2   -1    0    0    0  501  0.00000000000E+00  0.00000000000E+00  0.11439731858E+04  0.11439731858E+04  0.25500000920E-02 0.  1.
        2   -1    0    0  501    0  0.00000000000E+00  0.00000000000E+00 -0.15062855639E+04  0.15062855639E+04  0.25500000920E-02 0. -1.
    10030    2    1    2    0    0  0.00000000000E+00  0.00000000000E+00 -0.36231237812E+03  0.26502587498E+04  0.26253763885E+04 0.  0.
        3    1    3    3  502    0 -0.27082080623E+03  0.51954198039E+03  0.10046610410E+04  0.11630183128E+04  0.10100000352E+00 0.  1.
       -3    1    3    3    0  502  0.27082080623E+03 -0.51954198039E+03 -0.13669734191E+04  0.14872404369E+04  0.10100000352E+00 0. -1.
</event>
<event>
 5   0  0.1681731E-05  0.2761272E+04  0.7818609E-02  0.8315394E-01
        2   -1    0    0  501    0  0.00000000000E+00  0.00000000000E+00  0.21644697025E+04  0.21644697025E+04  0.25500000920E-02 0. -1.
       -2   -1    0    0    0  501  0.00000000000E+00  0.00000000000E+00 -0.88065740411E+03  0.88065740411E+03  0.25500000920E-02 0.  1.
    10030    2    1    2    0    0  0.00000000000E+00  0.00000000000E+00  0.12838122984E+04  0.30451271066E+04  0.27612723658E+04 0.  0.
        2    1    3    3  502    0  0.77740207810E+03 -0.89879505170E+03 -0.13317352575E+03  0.11957933450E+04  0.25500000920E-02 0.  1.
       -2    1    3    3    0  502 -0.77740207810E+03  0.89879505170E+03  0.14169858242E+04  0.18493337616E+04  0.25500000920E-02 0. -1.
</event>
<event>
 5   0  0.1702345E-05  0.2510228E+04  0.7818609E-02  0.8399351E-01
       -2   -1    0    0    0  501  0.00000000000E+00  0.00000000000E+00  0.21527836054E+04  0.21527836054E+04  0.25500000920E-02 0.  1.
        2   -1    0    0  501    0  0.00000000000E+00  0.00000000000E+00 -0.73175543004E+03  0.73175543005E+03  0.25500000920E-02 0. -1.
    10030    2    1    2    0    0  0.00000000000E+00  0.00000000000E+00  0.14210281754E+04  0.28845390355E+04  0.25102279522E+04 0.  0.
        1    1    3    3  502    0 -0.81174263960E+03  0.47902860925E+03 -0.24187685381E+03  0.97308732078E+03  0.50400001928E-02 0. -1.
       -1    1    3    3    0  502  0.81174263960E+03 -0.47902860925E+03  0.16629050292E+04  0.19114517147E+04  0.50400001928E-02 0.  1.
</event>
<event>
 5   0  0.6706225E-06  0.2621742E+04  0.7818609E-02  0.8360853E-01
       -1   -1    0    0    0  501  0.00000000000E+00  0.00000000000E+00  0.82531872013E+03  0.82531872015E+03  0.50400001928E-02 0.  1.
        1   -1    0    0  501    0  0.00000000000E+00  0.00000000000E+00 -0.20820835815E+04  0.20820835815E+04  0.50400001928E-02 0. -1.
    10030    2    1    2    0    0  0.00000000000E+00  0.00000000000E+00 -0.12567648613E+04  0.29074023016E+04  0.26217418307E+04 0.  0.
        5    1    3    3  502    0 -0.11911236210E+04  0.37459432418E+03 -0.18582042881E+03  0.12623976038E+04  0.46999998093E+01 0.  1.
       -5    1    3    3    0  502  0.11911236210E+04 -0.37459432418E+03 -0.10709444325E+04  0.16450046978E+04  0.46999998093E+01 0. -1.
</event>
<event>
 5   0  0.1869956E-05  0.2635637E+04  0.7818609E-02  0.8356196E-01
        2   -1    0    0  501    0  0.00000000000E+00  0.00000000000E+00  0.13884113923E+04  0.13884113923E+04  0.25500000920E-02 0. -1.
       -2   -1    0    0    0  501  0.00000000000E+00  0.00000000000E+00 -0.12508145298E+04  0.12508145298E+04  0.25500000920E-02 0.  1.
    10030    2    1    2    0    0  0.00000000000E+00  0.00000000000E+00  0.13759686244E+03  0.26392259221E+04  0.26356366539E+04 0.  0.
        5    1    3    3  502    0 -0.47589660420E+03  0.60566027723E+03  0.11395165191E+04  0.13754351808E+04  0.46999998093E+01 0. -1.
       -5    1    3    3    0  502  0.47589660420E+03 -0.60566027723E+03 -0.10019196567E+04  0.12637907413E+04  0.46999998093E+01 0.  1.
</event>
<event>
 5   0  0.1677971E-05  0.2586980E+04  0.7818609E-02  0.8372637E-01
       -2   -1    0    0    0  501  0.00000000000E+00  0.00000000000E+00  0.10546716410E+04  0.10546716410E+04  0.25500000920E-02 0.  1.
        2   -1    0    0  501    0  0.00000000000E+00  0.00000000000E+00 -0.15863863393E+04  0.15863863393E+04  0.25500000920E-02 0. -1.
    10030    2    1    2    0    0  0.00000000000E+00  0.00000000000E+00 -0.53171469832E+03  0.26410579802E+04  0.25869802347E+04 0.  0.
        4    1    3    3  502    0  0.66689203370E+03 -0.64738273457E+03  0.65253950344E+03  0.11356314570E+04  0.12699999809E+01 0.  1.
       -4    1    3    3    0  502 -0.66689203370E+03  0.64738273457E+03 -0.11842542018E+04  0.15054265233E+04  0.12699999809E+01 0. -1.
</event>
<event>
 5   0  0.1681731E-05  0.2597455E+04  0.7818609E-02  0.8369066E-01
        2   -1    0    0  501    0  0.00000000000E+00  0.00000000000E+00  0.18257188826E+04  0.18257188826E+04  0.25500000920E-02 0. -1.
       -2   -1    0    0    0  501  0.00000000000E+00  0.00000000000E+00 -0.92385159325E+03  0.92385159325E+03  0.25500000920E-02 0.  1.
    10030    2    1    2    0    0  0.00000000000E+00  0.00000000000E+00  0.90186728933E+03  0.27495704758E+04  0.25974551380E+04 0.  0.
        2    1    3    3  502    0  0.19835541295E+03  0.29735665000E+01 -0.90771877915E+03  0.92914320423E+03  0.25500000920E-02 0.  1.
       -2    1    3    3    0  502 -0.19835541295E+03 -0.29735665000E+01  0.18095860685E+04  0.18204272716E+04  0.25500000920E-02 0. -1.
</event>
<event>
 5   0  0.6706225E-06  0.2610415E+04  0.7818609E-02  0.8364672E-01
       -1   -1    0    0    0  501  0.00000000000E+00  0.00000000000E+00  0.12986866686E+04  0.12986866686E+04  0.50400001928E-02 0.  1.
        1   -1    0    0  501    0  0.00000000000E+00  0.00000000000E+00 -0.13117609536E+04  0.13117609536E+04  0.50400001928E-02 0. -1.
    10030    2    1    2    0    0  0.00000000000E+00  0.00000000000E+00 -0.13074285043E+02  0.26104476222E+04  0.26104148811E+04 0.  0.
        5    1    3    3  502    0 -0.90305998804E+03 -0.94234741461E+03 -0.36421127417E+01  0.13052093115E+04  0.46999998093E+01 0. -1.
       -5    1    3    3    0  502  0.90305998804E+03  0.94234741461E+03 -0.94321723016E+01  0.13052383107E+04  0.46999998093E+01 0.  1.
</event>
<event>
 5   0  0.6706225E-06  0.2681474E+04  0.7818609E-02  0.8341041E-01
        1   -1    0    0  501    0  0.00000000000E+00  0.00000000000E+00  0.13188666749E+04  0.13188666749E+04  0.50400001928E-02 0.  1.
       -1   -1    0    0    0  501  0.00000000000E+00  0.00000000000E+00 -0.13629701874E+04  0.13629701874E+04  0.50400001928E-02 0. -1.
    10030    2    1    2    0    0  0.00000000000E+00  0.00000000000E+00 -0.44103512503E+02  0.26818368623E+04  0.26814741908E+04 0.  0.
        5    1    3    3  502    0 -0.60445899384E+03  0.16517194570E+02 -0.12188381767E+04  0.13605998986E+04  0.46999998093E+01 0. -1.
       -5    1    3    3    0  502  0.60445899384E+03 -0.16517194570E+02  0.11747346642E+04  0.13212369637E+04  0.46999998093E+01 0.  1.
</event>
<event>
 5   0  0.1702345E-05  0.2586190E+04  0.7818609E-02  0.8372907E-01
        2   -1    0    0  501    0  0.00000000000E+00  0.00000000000E+00  0.23852275937E+04  0.23852275937E+04  0.25500000920E-02 0. -1.
       -2   -1    0    0    0  501  0.00000000000E+00  0.00000000000E+00 -0.70102104568E+03  0.70102104569E+03  0.25500000920E-02 0.  1.
    10030    2    1    2    0    0  0.00000000000E+00  0.00000000000E+00  0.16842065480E+04  0.30862486394E+04  0.25861900487E+04 0.  0.
        1    1    3    3  502    0 -0.71838828540E+03  0.64954664732E+03 -0.18036237916E+03  0.98515134039E+03  0.50400001928E-02 0.  1.
       -1    1    3    3    0  502  0.71838828540E+03 -0.64954664732E+03  0.18645689272E+04  0.21010972990E+04  0.50400001928E-02 0. -1.
</event>
<event>
 5   0  0.1869956E-05  0.2617067E+04  0.7818609E-02  0.8362427E-01
       -2   -1    0    0    0  501  0.00000000000E+00  0.00000000000E+00  0.15759427000E+04  0.15759427000E+04  0.25500000920E-02 0.  1.
        2   -1    0    0  501    0  0.00000000000E+00  0.00000000000E+00 -0.10864987700E+04  0.10864987701E+04  0.25500000920E-02 0. -1.
    10030    2    1    2    0    0  0.00000000000E+00  0.00000000000E+00  0.48944392999E+03  0.26624414701E+04  0.26170669118E+04 0.  0.
        5    1    3    3  502    0  0.56551253251E+02  0.11612527172E+04 -0.36613148314E+03  0.12189258675E+04  0.46999998093E+01 0. -1.
       -5    1    3    3    0  502 -0.56551253251E+02 -0.11612527172E+04  0.85557541313E+03  0.14435156026E+04  0.46999998093E+01 0.  1.
</event>
<event>
 5   0  0.1869956E-05  0.2566461E+04  0.7818609E-02  0.8379684E-01
        2   -1    0    0  501    0  0.00000000000E+00  0.00000000000E+00  0.54518210269E+03  0.54518210269E+03  0.25500000920E-02 0. -1.
       -2   -1    0    0    0  501  0.00000000000E+00  0.00000000000E+00 -0.30204221761E+04  0.30204221761E+04  0.25500000920E-02 0.  1.
    10030    2    1    2    0    0  0.00000000000E+00  0.00000000000E+00 -0.24752400735E+04  0.35656042788E+04  0.25664606858E+04 0.  0.
        5    1    3    3  502    0 -0.17704391657E+02  0.11574684099E+04 -0.20069146937E+04  0.23168459688E+04  0.46999998093E+01 0.  1.
       -5    1    3    3    0  502  0.17704391657E+02 -0.11574684099E+04 -0.46832537976E+03  0.12487583100E+04  0.46999998093E+01 0. -1.
</event>
<event>
 5   0  0.6918420E-06  0.2598857E+04  0.7818609E-02  0.8368589E-01
       -1   -1    0    0    0  501  0.00000000000E+00  0.00000000000E+00  0.11440831316E+04  0.11440831316E+04  0.50400001928E-02 0. -1.
        1   -1    0    0  501    0  0.00000000000E+00  0.00000000000E+00 -0.14758671759E+04  0.14758671759E+04  0.50400001928E-02 0.  1.
    10030    2    1    2    0    0  0.00000000000E+00  0.00000000000E+00 -0.33178404433E+03  0.26199503075E+04  0.25988572415E+04 0.  0.
        4    1    3    3  502    0  0.22287542627E+01 -0.27098999467E+03  0.11152776594E+04  0.11477309855E+04  0.12699999809E+01 0. -1.
       -4    1    3    3    0  502 -0.22287542627E+01  0.27098999467E+03 -0.14470617038E+04  0.14722193220E+04  0.12699999809E+01 0.  1.
</event>
<event>
 5   0  0.6918420E-06  0.2642936E+04  0.7818609E-02  0.8353762E-01
        1   -1    0    0  501    0  0.00000000000E+00  0.00000000000E+00  0.16098718199E+04  0.16098718199E+04  0.50400001928E-02 0. -1.
       -1   -1    0    0    0  501  0.00000000000E+00  0.00000000000E+00 -0.10847305283E+04  0.10847305283E+04  0.50400001928E-02 0.  1.
    10030    2    1    2    0    0  0.00000000000E+00  0.00000000000E+00  0.52514129156E+03  0.26946023482E+04  0.26429355722E+04 0.  0.
        4    1    3    3  502    0 -0.23239825833E+03 -0.12996142927E+04  0.32086564099E+03  0.13586620746E+04  0.12699999809E+01 0. -1.
       -4    1    3    3    0  502  0.23239825833E+03  0.12996142927E+04  0.20427565057E+03  0.13359402736E+04  0.12699999809E+01 0.  1.
</event>
<event>
 5   0  0.7138294E-06  0.2618221E+04  0.7818609E-02  0.8362038E-01
       -1   -1    0    0    0  501  0.00000000000E+00  0.00000000000E+00  0.79212271104E+03  0.79212271105E+03  0.50400001928E-02 0.  1.
        1   -1    0    0  501    0  0.00000000000E+00  0.00000000000E+00 -0.21635165709E+04  0.21635165709E+04  0.50400001928E-02 0. -1.
    10030    2    1    2    0    0  0.00000000000E+00  0.00000000000E+00 -0.13713938598E+04  0.29556392819E+04  0.26182212370E+04 0.  0.
        2    1    3    3  502    0 -0.71535571302E+03 -0.58010284719E+03  0.36452967504E+03  0.99052258605E+03  0.25500000920E-02 0.  1.
       -2    1    3    3    0  502  0.71535571302E+03  0.58010284719E+03 -0.17359235349E+04  0.19651166959E+04  0.25500000920E-02 0. -1.
</event>
<event>
 5   0  0.1702345E-05  0.2499839E+04  0.7818609E-02  0.8403043E-01
        2   -1    0    0  501    0  0.00000000000E+00  0.00000000000E+00  0.10675488389E+04  0.10675488389E+04  0.25500000920E-02 0. -1.
       -2   -1    0    0    0  501  0.00000000000E+00  0.00000000000E+00 -0.14634446488E+04  0.14634446488E+04  0.25500000920E-02 0.  1.
    10030    2    1    2    0    0  0.00000000000E+00  0.00000000000E+00 -0.39589580992E+03  0.25309934877E+04  0.24998389033E+04 0.  0.
        1    1    3    3  502    0 -0.54899514064E+03 -0.59470232555E+03  0.76640992941E+03  0.11146527264E+04  0.50400001928E-02 0. -1.
       -1    1    3    3    0  502  0.54899514064E+03  0.59470232555E+03 -0.11623057393E+04  0.14163407613E+04  0.50400001928E-02 0.  1.
</event>
<event>
 5   0  0.1869956E-05  0.2586559E+04  0.7818609E-02  0.8372781E-01
        2   -1    0    0  501    0  0.00000000000E+00  0.00000000000E+00  0.19024652536E+04  0.19024652536E+04  0.25500000920E-02 0. -1.
       -2   -1    0    0    0  501  0.00000000000E+00  0.00000000000E+00 -0.87916042526E+03  0.87916042526E+03  0.25500000920E-02 0.  1.
    10030    2    1    2    0    0  0.00000000000E+00  0.00000000000E+00  0.10233048284E+04  0.27816256789E+04  0.25865592291E+04 0.  0.
        5    1    3    3  502    0  0.42447142975E+02  0.77350229477E+03 -0.60203489242E+03  0.98110940350E+03  0.46999998093E+01 0.  1.
       -5    1    3    3    0  502 -0.42447142975E+02 -0.77350229477E+03  0.16253397208E+04  0.18005162754E+04  0.46999998093E+01 0. -1.
</event>
<event>
 5   0  0.1720129E-05  0.2608123E+04  0.7818609E-02  0.8365447E-01
        2   -1    0    0  501    0  0.00000000000E+00  0.00000000000E+00  0.17227132694E+04  0.17227132694E+04  0.25500000920E-02 0.  1.
       -2   -1    0    0    0  501  0.00000000000E+00  0.00000000000E+00 -0.98714993955E+03  0.98714993956E+03  0.25500000920E-02 0. -1.
    10030    2    1    2    0    0  0.00000000000E+00  0.00000000000E+00  0.73556332986E+03  0.27098632090E+04  0.26081229264E+04 0.  0.
        3    1    3    3  502    0 -0.28265807888E+03  0.71976072856E+03  0.14588030609E+04  0.16510776713E+04  0.10100000352E+00 0.  1.
       -3    1    3    3    0  502  0.28265807888E+03 -0.71976072856E+03 -0.72323973108E+03  0.10587855377E+04  0.10100000352E+00 0. -1.
</event>
<event>
 5   0  0.6993678E-06  0.2835513E+04  0.7818609E-02  0.8292327E-01
       -1   -1    0    0    0  501  0.00000000000E+00  0.00000000000E+00  0.95955997928E+03  0.95955997929E+03  0.50400001928E-02 0.  1.
        1   -1    0    0  501    0  0.00000000000E+00  0.00000000000E+00 -0.20947452517E+04  0.20947452517E+04  0.50400001928E-02 0. -1.
    10030    2    1    2    0    0  0.00000000000E+00  0.00000000000E+00 -0.11351852725E+04  0.30543052310E+04  0.28355131531E+04 0.  0.
        1    1    3    3  502    0 -0.11427365445E+04  0.37852982489E+03  0.23913009046E+03  0.12273201859E+04  0.50400001928E-02 0.  1.
       -1    1    3    3    0  502  0.11427365445E+04 -0.37852982489E+03 -0.13743153629E+04  0.18269850452E+04  0.50400001928E-02 0. -1.
</event>
<event>
 5   0  0.1702345E-05  0.2594881E+04  0.7818609E-02  0.8369942E-01
       -2   -1    0    0    0  501  0.00000000000E+00  0.00000000000E+00  0.13103132645E+04  0.13103132645E+04  0.25500000920E-02 0. -1.
        2   -1    0    0  501    0  0.00000000000E+00  0.00000000000E+00 -0.12846946270E+04  0.12846946270E+04  0.25500000920E-02 0.  1.
    10030    2    1    2    0    0  0.00000000000E+00  0.00000000000E+00  0.25618637583E+02  0.25950078915E+04  0.25948814313E+04 0.  0.
        1    1    3    3  502    0  0.87120397808E+03  0.42058020788E+03  0.87741395945E+03  0.13060395626E+04  0.50400001928E-02 0. -1.
       -1    1    3    3    0  502 -0.87120397808E+03 -0.42058020788E+03 -0.85179532187E+03  0.12889683290E+04  0.50400001928E-02 0.  1.
</event>
<event>
 5   0  0.6918420E-06  0.2620617E+04  0.7818609E-02  0.8361232E-01
        1   -1    0    0  501    0  0.00000000000E+00  0.00000000000E+00  0.15181887633E+04  0.15181887633E+04  0.50400001928E-02 0.  1.
       -1   -1    0    0    0  501  0.00000000000E+00  0.00000000000E+00 -0.11308924178E+04  0.11308924178E+04  0.50400001928E-02 0. -1.
    10030    2    1    2    0    0  0.00000000000E+00  0.00000000000E+00  0.38729634555E+03  0.26490811811E+04  0.26206168443E+04 0.  0.
        4    1    3    3  502    0  0.93339977839E+03 -0.70693562791E+03 -0.40088411455E+03  0.12376198182E+04  0.12699999809E+01 0. -1.
       -4    1    3    3    0  502 -0.93339977839E+03  0.70693562791E+03  0.78818046011E+03  0.14114613629E+04  0.12699999809E+01 0.  1.
</event>
<event>
 5   0  0.1720129E-05  0.2434963E+04  0.7818609E-02  0.8426529E-01
       -2   -1    0    0    0  501  0.00000000000E+00  0.00000000000E+00  0.10906525778E+04  0.10906525778E+04  0.25500000920E-02 0.  1.
        2   -1    0    0  501    0  0.00000000000E+00  0.00000000000E+00 -0.13590589455E+04  0.13590589455E+04  0.25500000920E-02 0. -1.
    10030    2    1    2    0    0  0.00000000000E+00  0.00000000000E+00 -0.26840636767E+03  0.24497115233E+04  0.24349629502E+04 0.  0.
        3    1    3    3  502    0  0.16452725312E+03 -0.22542332133E+03  0.10580385620E+04  0.10942259820E+04  0.10100000352E+00 0.  1.
       -3    1    3    3    0  502 -0.16452725312E+03  0.22542332133E+03 -0.13264449297E+04  0.13554855412E+04  0.10100000352E+00 0. -1.
</event>
<event>
 5   0  0.1677971E-05  0.2532617E+04  0.7818609E-02  0.8391457E-01
        2   -1    0    0  501    0  0.00000000000E+00  0.00000000000E+00  0.15992693497E+04  0.15992693497E+04  0.25500000920E-02 0.  1.
       -2   -1    0    0    0  501  0.00000000000E+00  0.00000000000E+00 -0.10026685339E+04  0.10026685339E+04  0.25500000920E-02 0. -1.
    10030    2    1    2    0    0  0.00000000000E+00  0.00000000000E+00  0.59660081576E+03  0.26019378836E+04  0.25326168712E+04 0.  0.
        4    1    3    3  502    0 -0.90494005368E+03 -0.52057506440E+03  0.10345899321E+04  0.14697934681E+04  0.12699999809E+01 0.  1.
       -4    1    3    3    0  502  0.90494005368E+03  0.52057506440E+03 -0.43798911636E+03  0.11321444154E+04  0.12699999809E+01 0. -1.
</event>
<event>
 5   0  0.6993678E-06  0.2600499E+04  0.7818609E-02  0.8368032E-01
        1   -1    0    0  501    0  0.00000000000E+00  0.00000000000E+00  0.13036914678E+04  0.13036914678E+04  0.50400001928E-02 0.  1.
       -1   -1    0    0    0  501  0.00000000000E+00  0.00000000000E+00 -0.12968168049E+04  0.12968168049E+04  0.50400001928E-02 0. -1.
    10030    2    1    2    0    0  0.00000000000E+00  0.00000000000E+00  0.68746629249E+01  0.26005082728E+04  0.26004991859E+04 0.  0.
        1    1    3    3  502    0  0.23582942121E+03  0.10684216587E+03  0.12776545760E+04  0.13036226371E+04  0.50400001928E-02 0.  1.
       -1    1    3    3    0  502 -0.23582942121E+03 -0.10684216587E+03 -0.12707799131E+04  0.12968856356E+04  0.50400001928E-02 0. -1.
</event>
<event>
 5   0  0.1702345E-05  0.2602288E+04  0.7818609E-02  0.8367425E-01
        2   -1    0    0  501    0  0.00000000000E+00  0.00000000000E+00  0.80643792743E+03  0.80643792744E+03  0.25500000920E-02 0. -1.
       -2   -1    0    0    0  501  0.00000000000E+00  0.00000000000E+00 -0.20993250436E+04  0.20993250436E+04  0.25500000920E-02 0.  1.
    10030    2    1    2    0    0  0.00000000000E+00  0.00000000000E+00 -0.12928871162E+04  0.29057629711E+04  0.26022877145E+04 0.  0.
        1    1    3    3  502    0  0.54880293806E+03  0.35694006494E+03  0.60913661429E+03  0.89422496592E+03  0.50400001928E-02 0. -1.
       -1    1    3    3    0  502 -0.54880293806E+03 -0.35694006494E+03 -0.19020237305E+04  0.20115380051E+04  0.50400001928E-02 0.  1.
</event>
<event>
 5   0  0.6706225E-06  0.2435873E+04  0.7818609E-02  0.8426194E-01
       -1   -1    0    0    0  501  0.00000000000E+00  0.00000000000E+00  0.65864656038E+03  0.65864656039E+03  0.50400001928E-02 0.  1.
        1   -1    0    0  501    0  0.00000000000E+00  0.00000000000E+00 -0.22521471543E+04  0.22521471543E+04  0.50400001928E-02 0. -1.
    10030    2    1    2    0    0  0.00000000000E+00  0.00000000000E+00 -0.15935005939E+04  0.29107937147E+04  0.24358727197E+04 0.  0.
        5    1    3    3  502    0 -0.93053332114E+03 -0.69213619746E+03 -0.35219254154E+03  0.12120257645E+04  0.46999998093E+01 0.  1.
       -5    1    3    3    0  502  0.93053332114E+03  0.69213619746E+03 -0.12413080524E+04  0.16987679502E+04  0.46999998093E+01 0. -1.
</event>
<event>
 5   0  0.6706225E-06  0.2612094E+04  0.7818609E-02  0.8364105E-01
        1   -1    0    0  501    0  0.00000000000E+00  0.00000000000E+00  0.21774691798E+04  0.21774691798E+04  0.50400001928E-02 0.  1.
       -1   -1    0    0    0  501  0.00000000000E+00  0.00000000000E+00 -0.78336730484E+03  0.78336730486E+03  0.50400001928E-02 0. -1.
    10030    2    1    2    0    0  0.00000000000E+00  0.00000000000E+00  0.13941018749E+04  0.29608364847E+04  0.26120935380E+04 0.  0.
        5    1    3    3  502    0 -0.34069051180E+03  0.17395475396E+03  0.21125359337E+04  0.21468955359E+04  0.46999998093E+01 0.  1.
       -5    1    3    3    0  502  0.34069051180E+03 -0.17395475396E+03 -0.71843405872E+03  0.81394094871E+03  0.46999998093E+01 0. -1.
</event>
<event>
 5   0  0.6993678E-06  0.2465422E+04  0.7818609E-02  0.8415409E-01
        1   -1    0    0  501    0  0.00000000000E+00  0.00000000000E+00  0.12503793572E+04  0.12503793572E+04  0.50400001928E-02 0.  1.
       -1   -1    0    0    0  501  0.00000000000E+00  0.00000000000E+00 -0.12152923928E+04  0.12152923928E+04  0.50400001928E-02 0. -1.
    10030    2    1    2    0    0  0.00000000000E+00  0.00000000000E+00  0.35086964392E+02  0.24656717500E+04  0.24654220904E+04 0.  0.
        1    1    3    3  502    0 -0.81934601465E+03  0.15718360167E+03  0.92512749708E+03  0.12457509632E+04  0.50400001928E-02 0.  1.
       -1    1    3    3    0  502  0.81934601465E+03 -0.15718360167E+03 -0.89004053268E+03  0.12199207869E+04  0.50400001928E-02 0. -1.
</event>
<event>
 5   0  0.6984287E-06  0.2577442E+04  0.7818609E-02  0.8375904E-01
        1   -1    0    0  501    0  0.00000000000E+00  0.00000000000E+00  0.19440758359E+04  0.19440758359E+04  0.50400001928E-02 0.  1.
       -1   -1    0    0    0  501  0.00000000000E+00  0.00000000000E+00 -0.85428834810E+03  0.85428834812E+03  0.50400001928E-02 0. -1.
    10030    2    1    2    0    0  0.00000000000E+00  0.00000000000E+00  0.10897874878E+04  0.27983641841E+04  0.25774416265E+04 0.  0.
        3    1    3    3  502    0  0.46807755616E+03  0.11984959186E+04  0.62402626696E+03  0.14299992508E+04  0.10100000352E+00 0. -1.
       -3    1    3    3    0  502 -0.46807755616E+03 -0.11984959186E+04  0.46576122087E+03  0.13683649332E+04  0.10100000352E+00 0.  1.
</event>
<event>
 5   0  0.6984287E-06  0.2615297E+04  0.7818609E-02  0.8363024E-01
        1   -1    0    0  501    0  0.00000000000E+00  0.00000000000E+00  0.10548348818E+04  0.10548348818E+04  0.50400001928E-02 0. -1.
       -1   -1    0    0    0  501  0.00000000000E+00  0.00000000000E+00 -0.16210545961E+04  0.16210545961E+04  0.50400001928E-02 0.  1.
    10030    2    1    2    0    0  0.00000000000E+00  0.00000000000E+00 -0.56621971435E+03  0.26758894780E+04  0.26152972552E+04 0.  0.
        3    1    3    3  502    0  0.22968415443E+01 -0.92849908709E+03  0.65899940042E+03  0.11385938917E+04  0.10100000352E+00 0. -1.
       -3    1    3    3    0  502 -0.22968415443E+01  0.92849908709E+03 -0.12252191148E+04  0.15372955863E+04  0.10100000352E+00 0.  1.
</event>
<event>
 5   0  0.6918420E-06  0.2600552E+04  0.7818609E-02  0.8368014E-01
       -1   -1    0    0    0  501  0.00000000000E+00  0.00000000000E+00  0.90546118071E+03  0.90546118072E+03  0.50400001928E-02 0. -1.
        1   -1    0    0  501    0  0.00000000000E+00  0.00000000000E+00 -0.18672442445E+04  0.18672442445E+04  0.50400001928E-02 0.  1.
    10030    2    1    2    0    0  0.00000000000E+00  0.00000000000E+00 -0.96178306375E+03  0.27727054252E+04  0.26005516171E+04 0.  0.
        4    1    3    3  502    0  0.37477112507E+03 -0.73573523018E+03 -0.15518542020E+04  0.17578432246E+04  0.12699999809E+01 0.  1.
       -4    1    3    3    0  502 -0.37477112507E+03  0.73573523018E+03  0.59007113824E+03  0.10148622006E+04  0.12699999809E+01 0. -1.
</event>
<event>
 5   0  0.6984287E-06  0.2600636E+04  0.7818609E-02  0.8367985E-01
       -1   -1    0    0    0  501  0.00000000000E+00  0.00000000000E+00  0.12095325475E+04  0.12095325475E+04  0.50400001928E-02 0. -1.
        1   -1    0    0  501    0  0.00000000000E+00  0.00000000000E+00 -0.13979180517E+04  0.13979180517E+04  0.50400001928E-02 0.  1.
    10030    2    1    2    0    0  0.00000000000E+00  0.00000000000E+00 -0.18838550420E+03  0.26074505991E+04  0.26006363700E+04 0.  0.
        3    1    3    3  502    0  0.43283323619E+03 -0.65570843304E+03 -0.11330201390E+04  0.13787794621E+04  0.10100000352E+00 0.  1.
       -3    1    3    3    0  502 -0.43283323619E+03  0.65570843304E+03  0.94463463481E+03  0.12286711370E+04  0.10100000352E+00 0. -1.
</event>
<event>
 5   0  0.6993678E-06  0.2538625E+04  0.7818609E-02  0.8389353E-01
       -1   -1    0    0    0  501  0.00000000000E+00  0.00000000000E+00  0.12286894642E+04  0.12286894642E+04  0.50400001928E-02 0.  1.
        1   -1    0    0  501    0  0.00000000000E+00  0.00000000000E+00 -0.13112785113E+04  0.13112785113E+04  0.50400001928E-02 0. -1.
    10030    2    1    2    0    0  0.00000000000E+00  0.00000000000E+00 -0.82589047108E+02  0.25399679756E+04  0.25386248967E+04 0.  0.
        1    1    3    3  502    0  0.28590761229E+03 -0.11698398858E+04 -0.44261216705E+03  0.12830331451E+04  0.50400001928E-02 0.  1.
       -1    1    3    3    0  502 -0.28590761229E+03  0.11698398858E+04  0.36002311994E+03  0.12569348304E+04  0.50400001928E-02 0. -1.
</event>
<event>
 5   0  0.6706225E-06  0.2566110E+04  0.7818609E-02  0.8379805E-01
       -1   -1    0    0    0  501  0.00000000000E+00  0.00000000000E+00  0.10807934482E+04  0.10807934482E+04  0.50400001928E-02 0. -1.
        1   -1    0    0  501    0  0.00000000000E+00  0.00000000000E+00 -0.15231681861E+04  0.15231681861E+04  0.50400001928E-02 0.  1.
    10030    2    1    2    0    0  0.00000000000E+00  0.00000000000E+00 -0.44237473796E+03  0.26039616343E+04  0.25661100491E+04 0.  0.
        5    1    3    3  502    0 -0.52674109382E+03  0.64802393334E+03  0.76725308485E+03  0.11340593390E+04  0.46999998093E+01 0. -1.
       -5    1    3    3    0  502  0.52674109382E+03 -0.64802393334E+03 -0.12096278228E+04  0.14699022953E+04  0.46999998093E+01 0.  1.
</event>
<event>
 5   0  0.1720129E-05  0.2581549E+04  0.7818609E-02  0.8374496E-01
       -2   -1    0    0    0  501  0.00000000000E+00  0.00000000000E+00  0.10833591611E+04  0.10833591611E+04  0.25500000920E-02 0. -1.
        2   -1    0    0  501    0  0.00000000000E+00  0.00000000000E+00 -0.15379004719E+04  0.15379004719E+04  0.25500000920E-02 0.  1.
    10030    2    1    2    0    0  0.00000000000E+00  0.00000000000E+00 -0.45454131077E+03  0.26212596330E+04  0.25815488103E+04 0.  0.
        3    1    3    3  502    0  0.59280923814E+03  0.12573065607E+03 -0.13844805394E+04  0.15112965841E+04  0.10100000352E+00 0.  1.
       -3    1    3    3    0  502 -0.59280923814E+03 -0.12573065607E+03  0.92993922866E+03  0.11099630489E+04  0.10100000352E+00 0. -1.
</event>
<event>
 5   0  0.1681731E-05  0.2591435E+04  0.7818609E-02  0.8371117E-01
       -2   -1    0    0    0  501  0.00000000000E+00  0.00000000000E+00  0.10266777801E+04  0.10266777801E+04  0.25500000920E-02 0.  1.
        2   -1    0    0  501    0  0.00000000000E+00  0.00000000000E+00 -0.16352581650E+04  0.16352581650E+04  0.25500000920E-02 0. -1.
    10030    2    1    2    0    0  0.00000000000E+00  0.00000000000E+00 -0.60858038486E+03  0.26619359451E+04  0.25914345237E+04 0.  0.
        2    1    3    3  502    0 -0.89765441903E+03  0.92406370155E+03 -0.16193402102E+03  0.12984220453E+04  0.25500000920E-02 0.  1.
       -2    1    3    3    0  502  0.89765441903E+03 -0.92406370155E+03 -0.44664636384E+03  0.13635138998E+04  0.25500000920E-02 0. -1.
</event>
<event>
 5   0  0.6706225E-06  0.2527244E+04  0.7818609E-02  0.8393344E-01
       -1   -1    0    0    0  501  0.00000000000E+00  0.00000000000E+00  0.10691119006E+04  0.10691119006E+04  0.50400001928E-02 0. -1.
        1   -1    0    0  501    0  0.00000000000E+00  0.00000000000E+00 -0.14935202818E+04  0.14935202819E+04  0.50400001928E-02 0.  1.
    10030    2    1    2    0    0  0.00000000000E+00  0.00000000000E+00 -0.42440838122E+03  0.25626321825E+04  0.25272438008E+04 0.  0.
        5    1    3    3  502    0 -0.43982203078E+02 -0.41209234528E+03 -0.14226379667E+04  0.14817811611E+04  0.46999998093E+01 0.  1.
       -5    1    3    3    0  502  0.43982203078E+02  0.41209234528E+03  0.99822958544E+03  0.10808510214E+04  0.46999998093E+01 0. -1.
</event>
<event>
 5   0  0.1720129E-05  0.2596321E+04  0.7818609E-02  0.8369452E-01
        2   -1    0    0  501    0  0.00000000000E+00  0.00000000000E+00  0.10753361142E+04  0.10753361142E+04  0.25500000920E-02 0. -1.
       -2   -1    0    0    0  501  0.00000000000E+00  0.00000000000E+00 -0.15671575406E+04  0.15671575406E+04  0.25500000920E-02 0.  1.
    10030    2    1    2    0    0  0.00000000000E+00  0.00000000000E+00 -0.49182142637E+03  0.26424936548E+04  0.25963213207E+04 0.  0.
        3    1    3    3  502    0 -0.59063267754E+03 -0.79863055804E+03  0.60475399501E+03  0.11629209486E+04  0.10100000352E+00 0. -1.
       -3    1    3    3    0  502  0.59063267754E+03  0.79863055804E+03 -0.10965754214E+04  0.14795727062E+04  0.10100000352E+00 0.  1.
</event>
<event>
 5   0  0.1702345E-05  0.2577079E+04  0.7818609E-02  0.8376029E-01
       -2   -1    0    0    0  501  0.00000000000E+00  0.00000000000E+00  0.11678542005E+04  0.11678542005E+04  0.25500000920E-02 0. -1.
        2   -1    0    0  501    0  0.00000000000E+00  0.00000000000E+00 -0.14216966819E+04  0.14216966819E+04  0.25500000920E-02 0.  1.
    10030    2    1    2    0    0  0.00000000000E+00  0.00000000000E+00 -0.25384248136E+03  0.25895508824E+04  0.25770793095E+04 0.  0.
        1    1    3    3  502    0  0.86192246607E+03 -0.66108557756E+03  0.56953466830E+03  0.12265048784E+04  0.50400001928E-02 0. -1.
       -1    1    3    3    0  502 -0.86192246607E+03  0.66108557756E+03 -0.82337714966E+03  0.13630460040E+04  0.50400001928E-02 0.  1.
</event>
<event>
 5   0  0.1677971E-05  0.2603552E+04  0.7818609E-02  0.8366996E-01
        2   -1    0    0  501    0  0.00000000000E+00  0.00000000000E+00  0.28754774019E+04  0.28754774019E+04  0.25500000920E-02 0. -1.
       -2   -1    0    0    0  501  0.00000000000E+00  0.00000000000E+00 -0.58933563570E+03  0.58933563570E+03  0.25500000920E-02 0.  1.
    10030    2    1    2    0    0  0.00000000000E+00  0.00000000000E+00  0.22861417662E+04  0.34648130376E+04  0.26035524213E+04 0.  0.
        4    1    3    3  502    0  0.53978558153E+03 -0.11235014726E+04  0.16427789333E+04  0.20621222731E+04  0.12699999809E+01 0. -1.
       -4    1    3    3    0  502 -0.53978558153E+03  0.11235014726E+04  0.64336283289E+03  0.14026907644E+04  0.12699999809E+01 0.  1.
</event>
<event>
 5   0  0.1681731E-05  0.2608496E+04  0.7818609E-02  0.8365321E-01
       -2   -1    0    0    0  501  0.00000000000E+00  0.00000000000E+00  0.10656325889E+04  0.10656325889E+04  0.25500000920E-02 0.  1.
        2   -1    0    0  501    0  0.00000000000E+00  0.00000000000E+00 -0.15962939784E+04  0.15962939784E+04  0.25500000920E-02 0. -1.
    10030    2    1    2    0    0  0.00000000000E+00  0.00000000000E+00 -0.53066138950E+03  0.26619265673E+04  0.26084960301E+04 0.  0.
        2    1    3    3  502    0  0.10948416426E+04  0.69526603353E+03 -0.40595686340E+03  0.13589974447E+04  0.25500000920E-02 0.  1.
       -2    1    3    3    0  502 -0.10948416426E+04 -0.69526603353E+03 -0.12470452609E+03  0.13029291226E+04  0.25500000920E-02 0. -1.
</event>
<event>
 5   0  0.6706225E-06  0.2585796E+04  0.7818609E-02  0.8373042E-01
       -1   -1    0    0    0  501  0.00000000000E+00  0.00000000000E+00  0.19034922295E+04  0.19034922295E+04  0.50400001928E-02 0. -1.
        1   -1    0    0  501    0  0.00000000000E+00  0.00000000000E+00 -0.87816745196E+03  0.87816745198E+03  0.50400001928E-02 0.  1.
    10030    2    1    2    0    0  0.00000000000E+00  0.00000000000E+00  0.10253247775E+04  0.27816596815E+04  0.25857957545E+04 0.  0.
        5    1    3    3  502    0  0.44696898386E+03  0.65887905194E+03  0.16084775523E+04  0.17947492872E+04  0.46999998093E+01 0. -1.
       -5    1    3    3    0  502 -0.44696898386E+03 -0.65887905194E+03 -0.58315277478E+03  0.98691039428E+03  0.46999998093E+01 0.  1.
</event>
<event>
 5   0  0.1681731E-05  0.2620165E+04  0.7818609E-02  0.8361384E-01
        2   -1    0    0  501    0  0.00000000000E+00  0.00000000000E+00  0.10599393902E+04  0.10599393902E+04  0.25500000920E-02 0. -1.
       -2   -1    0    0    0  501  0.00000000000E+00  0.00000000000E+00 -0.16192591709E+04  0.16192591709E+04  0.25500000920E-02 0.  1.
    10030    2    1    2    0    0  0.00000000000E+00  0.00000000000E+00 -0.55931978071E+03  0.26791985611E+04  0.26201653217E+04 0.  0.
        2    1    3    3  502    0 -0.63847357508E+03  0.94127810073E+03 -0.94443329360E+03  0.14783799292E+04  0.25500000920E-02 0.  1.
       -2    1    3    3    0  502  0.63847357508E+03 -0.94127810073E+03  0.38511351289E+03  0.12008186319E+04  0.25500000920E-02 0. -1.
</event>
<event>
 5   0  0.6706225E-06  0.2605051E+04  0.7818609E-02  0.8366488E-01
       -1   -1    0    0    0  501  0.00000000000E+00  0.00000000000E+00  0.98130947020E+03  0.98130947022E+03  0.50400001928E-02 0. -1.
        1   -1    0    0  501    0  0.00000000000E+00  0.00000000000E+00 -0.17288862083E+04  0.17288862083E+04  0.50400001928E-02 0.  1.
    10030    2    1    2    0    0  0.00000000000E+00  0.00000000000E+00 -0.74757673813E+03  0.27101956786E+04  0.26050507935E+04 0.  0.
        5    1    3    3  502    0  0.90213920830E+03 -0.66237303771E+03  0.31940590858E+03  0.11638880602E+04  0.46999998093E+01 0. -1.
       -5    1    3    3    0  502 -0.90213920830E+03  0.66237303771E+03 -0.10669826467E+04  0.15463076184E+04  0.46999998093E+01 0.  1.
</event>
<event>
 5   0  0.6918420E-06  0.2597071E+04  0.7818609E-02  0.8369197E-01
        1   -1    0    0  501    0  0.00000000000E+00  0.00000000000E+00  0.10482212248E+04  0.10482212249E+04  0.50400001928E-02 0. -1.
       -1   -1    0    0    0  501  0.00000000000E+00  0.00000000000E+00 -0.16086251210E+04  0.16086251210E+04  0.50400001928E-02 0.  1.
    10030    2    1    2    0    0  0.00000000000E+00  0.00000000000E+00 -0.56040389619E+03  0.26568463459E+04  0.25970714235E+04 0.  0.
        4    1    3    3  502    0  0.79606493527E+03  0.99341060160E+03 -0.18163207924E+02  0.12731518054E+04  0.12699999809E+01 0. -1.
       -4    1    3    3    0  502 -0.79606493527E+03 -0.99341060160E+03 -0.54224068826E+03  0.13836945405E+04  0.12699999809E+01 0.  1.
</event>
<event>
 5   0  0.7138294E-06  0.2599065E+04  0.7818609E-02  0.8368519E-01
        1   -1    0    0  501    0  0.00000000000E+00  0.00000000000E+00  0.25099091749E+04  0.25099091749E+04  0.50400001928E-02 0. -1.
       -1   -1    0    0    0  501  0.00000000000E+00  0.00000000000E+00 -0.67284688212E+03  0.67284688214E+03  0.50400001928E-02 0.  1.
    10030    2    1    2    0    0  0.00000000000E+00  0.00000000000E+00  0.18370622927E+04  0.31827560570E+04  0.25990648801E+04 0.  0.
        2    1    3    3  502    0 -0.11090918366E+04  0.12224917940E+03  0.17342826099E+04  0.20622234929E+04  0.25500000920E-02 0. -1.
       -2    1    3    3    0  502  0.11090918366E+04 -0.12224917940E+03  0.10277968284E+03  0.11205325640E+04  0.25500000920E-02 0.  1.
</event>
<event>
 5   0  0.6918420E-06  0.2617841E+04  0.7818609E-02  0.8362166E-01
        1   -1    0    0  501    0  0.00000000000E+00  0.00000000000E+00  0.18353600803E+04  0.18353600803E+04  0.50400001928E-02 0.  1.
       -1   -1    0    0    0  501  0.00000000000E+00  0.00000000000E+00 -0.93348061207E+03  0.93348061208E+03  0.50400001928E-02 0. -1.
    10030    2    1    2    0    0  0.00000000000E+00  0.00000000000E+00  0.90187946824E+03  0.27688406924E+04  0.26178411343E+04 0.  0.
        4    1    3    3  502    0  0.75729314025E+03 -0.96813684302E+03 -0.25004459820E+02  0.12293936241E+04  0.12699999809E+01 0.  1.
       -4    1    3    3    0  502 -0.75729314025E+03  0.96813684302E+03  0.92688392806E+03  0.15394470683E+04  0.12699999809E+01 0. -1.
</event>
<event>
 5   0  0.1702345E-05  0.2604409E+04  0.7818609E-02  0.8366705E-01
        2   -1    0    0  501    0  0.00000000000E+00  0.00000000000E+00  0.87045820269E+03  0.87045820269E+03  0.25500000920E-02 0.  1.
       -2   -1    0    0    0  501  0.00000000000E+00  0.00000000000E+00 -0.19480972178E+04  0.19480972178E+04  0.25500000920E-02 0. -1.
    10030    2    1    2    0    0  0.00000000000E+00  0.00000000000E+00 -0.10776390151E+04  0.28185554205E+04  0.26044094938E+04 0.  0.
        1    1    3    3  502    0  0.10796243613E+04 -0.12662822011E+03  0.23715403204E+03  0.11125940421E+04  0.50400001928E-02 0.  1.
       -1    1    3    3    0  502 -0.10796243613E+04  0.12662822011E+03 -0.13147930472E+04  0.17059613784E+04  0.50400001928E-02 0. -1.
</event>
<event>
 5   0  0.1677971E-05  0.2599437E+04  0.7818609E-02  0.8368393E-01
       -2   -1    0    0    0  501  0.00000000000E+00  0.00000000000E+00  0.12356605981E+04  0.12356605981E+04  0.25500000920E-02 0.  1.
        2   -1    0    0  501    0  0.00000000000E+00  0.00000000000E+00 -0.13670968241E+04  0.13670968241E+04  0.25500000920E-02 0. -1.
    10030    2    1    2    0    0  0.00000000000E+00  0.00000000000E+00 -0.13143622594E+03  0.26027574222E+04  0.25994366154E+04 0.  0.
        4    1    3    3  502    0 -0.53332460973E+03  0.73223439465E+03 -0.99893008762E+03  0.13485048316E+04  0.12699999809E+01 0. -1.
       -4    1    3    3    0  502  0.53332460973E+03 -0.73223439465E+03  0.86749386168E+03  0.12542525906E+04  0.12699999809E+01 0.  1.
</event>
<event>
 5   0  0.6984287E-06  0.2598772E+04  0.7818609E-02  0.8368618E-01
       -1   -1    0    0    0  501  0.00000000000E+00  0.00000000000E+00  0.73384463743E+03  0.73384463744E+03  0.50400001928E-02 0.  1.
        1   -1    0    0  501    0  0.00000000000E+00  0.00000000000E+00 -0.23007654783E+04  0.23007654784E+04  0.50400001928E-02 0. -1.
    10030    2    1    2    0    0  0.00000000000E+00  0.00000000000E+00 -0.15669208409E+04  0.30346101158E+04  0.25987723319E+04 0.  0.
        3    1    3    3  502    0 -0.35901498988E+03  0.53014658434E+03  0.53685522417E+03  0.83556011499E+03  0.10100000352E+00 0.  1.
       -3    1    3    3    0  502  0.35901498988E+03 -0.53014658434E+03 -0.21037760651E+04  0.21990500008E+04  0.10100000352E+00 0. -1.
</event>
<event>
 5   0  0.1720129E-05  0.2581267E+04  0.7818609E-02  0.8374592E-01
        2   -1    0    0  501    0  0.00000000000E+00  0.00000000000E+00  0.16685753648E+04  0.16685753648E+04  0.25500000920E-02 0.  1.
       -2   -1    0    0    0  501  0.00000000000E+00  0.00000000000E+00 -0.99829800192E+03  0.99829800192E+03  0.25500000920E-02 0. -1.
    10030    2    1    2    0    0  0.00000000000E+00  0.00000000000E+00  0.67027736291E+03  0.26668733668E+04  0.25812674815E+04 0.  0.
        3    1    3    3  502    0  0.20215136577E+03 -0.34056378679E+03  0.16042440500E+04  0.16524066841E+04  0.10100000352E+00 0.  1.
       -3    1    3    3    0  502 -0.20215136577E+03  0.34056378679E+03 -0.93396668704E+03  0.10144666827E+04  0.10100000352E+00 0. -1.
</event>
<event>
 5   0  0.6984287E-06  0.2577358E+04  0.7818609E-02  0.8375933E-01
       -1   -1    0    0    0  501  0.00000000000E+00  0.00000000000E+00  0.11706264502E+04  0.11706264502E+04  0.50400001928E-02 0. -1.
        1   -1    0    0  501    0  0.00000000000E+00  0.00000000000E+00 -0.14186367262E+04  0.14186367262E+04  0.50400001928E-02 0.  1.
    10030    2    1    2    0    0  0.00000000000E+00  0.00000000000E+00 -0.24801027608E+03  0.25892631764E+04  0.25773580853E+04 0.  0.
        3    1    3    3  502    0  0.33821015706E+03 -0.10240553170E+04 -0.83268417881E+03  0.13625117814E+04  0.10100000352E+00 0.  1.
       -3    1    3    3    0  502 -0.33821015706E+03  0.10240553170E+04  0.58467390272E+03  0.12267513950E+04  0.10100000352E+00 0. -1.
</event>
<event>
 5   0  0.7138294E-06  0.2573822E+04  0.7818609E-02  0.8377148E-01
       -1   -1    0    0    0  501  0.00000000000E+00  0.00000000000E+00  0.10815245028E+04  0.10815245028E+04  0.50400001928E-02 0. -1.
        1   -1    0    0  501    0  0.00000000000E+00  0.00000000000E+00 -0.15313013575E+04  0.15313013575E+04  0.50400001928E-02 0.  1.
    10030    2    1    2    0    0  0.00000000000E+00  0.00000000000E+00 -0.44977685466E+03  0.26128258604E+04  0.25738220136E+04 0.  0.
        2    1    3    3  502    0  0.81936703170E+03 -0.91387739768E+03 -0.61753882150E+03  0.13740045221E+04  0.25500000920E-02 0.  1.
       -2    1    3    3    0  502 -0.81936703170E+03  0.91387739768E+03  0.16776196684E+03  0.12388213383E+04  0.25500000920E-02 0. -1.
</event>
<event>
 5   0  0.1681731E-05  0.2589667E+04  0.7818609E-02  0.8371720E-01
        2   -1    0    0  501    0  0.00000000000E+00  0.00000000000E+00  0.16490499183E+04  0.16490499183E+04  0.25500000920E-02 0. -1.
       -2   -1    0    0    0  501  0.00000000000E+00  0.00000000000E+00 -0.10167029485E+04  0.10167029485E+04  0.25500000920E-02 0.  1.
    10030    2    1    2    0    0  0.00000000000E+00  0.00000000000E+00  0.63234696975E+03  0.26657528668E+04  0.25896670938E+04 0.  0.
        2    1    3    3  502    0  0.52680141564E+01 -0.32937285600E+03  0.16051945381E+04  0.16386469221E+04  0.25500000920E-02 0. -1.
       -2    1    3    3    0  502 -0.52680141564E+01  0.32937285600E+03 -0.97284756837E+03  0.10271059447E+04  0.25500000920E-02 0.  1.
</event>
<event>
 5   0  0.6706225E-06  0.2584557E+04  0.7818609E-02  0.8373466E-01
       -1   -1    0    0    0  501  0.00000000000E+00  0.00000000000E+00  0.18334430808E+04  0.18334430808E+04  0.50400001928E-02 0. -1.
        1   -1    0    0  501    0  0.00000000000E+00  0.00000000000E+00 -0.91084546376E+03  0.91084546378E+03  0.50400001928E-02 0.  1.
    10030    2    1    2    0    0  0.00000000000E+00  0.00000000000E+00  0.92259761704E+03  0.27442885446E+04  0.25845566840E+04 0.  0.
        5    1    3    3  502    0 -0.29038708255E+02  0.12913904762E+04  0.42116584401E+03  0.13586520404E+04  0.46999998093E+01 0.  1.
       -5    1    3    3    0  502  0.29038708255E+02 -0.12913904762E+04  0.50143177303E+03  0.13856365042E+04  0.46999998093E+01 0. -1.
</event>
<event>
 5   0  0.6993678E-06  0.2610739E+04  0.7818609E-02  0.8364563E-01
        1   -1    0    0  501    0  0.00000000000E+00  0.00000000000E+00  0.24740993857E+04  0.24740993857E+04  0.50400001928E-02 0. -1.
       -1   -1    0    0    0  501  0.00000000000E+00  0.00000000000E+00 -0.68873109091E+03  0.68873109092E+03  0.50400001928E-02 0.  1.
    10030    2    1    2    0    0  0.00000000000E+00  0.00000000000E+00  0.17853682948E+04  0.31628304766E+04  0.26107387222E+04 0.  0.
        1    1    3    3  502    0  0.23379420473E+03 -0.12571464369E+04  0.57465948657E+03  0.14018952955E+04  0.50400001928E-02 0.  1.
       -1    1    3    3    0  502 -0.23379420473E+03  0.12571464369E+04  0.12107088082E+04  0.17609351812E+04  0.50400001928E-02 0. -1.
</event>
<event>
 5   0  0.1677971E-05  0.2616348E+04  0.7818609E-02  0.8362669E-01
        2   -1    0    0  501    0  0.00000000000E+00  0.00000000000E+00  0.23035615064E+04  0.23035615064E+04  0.25500000920E-02 0. -1.
       -2   -1    0    0    0  501  0.00000000000E+00  0.00000000000E+00 -0.74290139034E+03  0.74290139035E+03  0.25500000920E-02 0.  1.
    10030    2    1    2    0    0  0.00000000000E+00  0.00000000000E+00  0.15606601161E+04  0.30464628967E+04  0.26163478713E+04 0.  0.
        4    1    3    3  502    0  0.92672715179E+03 -0.38129231272E+03 -0.19880818914E+03  0.10216326887E+04  0.12699999809E+01 0.  1.
       -4    1    3    3    0  502 -0.92672715179E+03  0.38129231272E+03  0.17594683052E+04  0.20248302081E+04  0.12699999809E+01 0. -1.
</event>
<event>
 5   0  0.6993678E-06  0.2596470E+04  0.7818609E-02  0.8369401E-01
        1   -1    0    0  501    0  0.00000000000E+00  0.00000000000E+00  0.18469687283E+04  0.18469687283E+04  0.50400001928E-02 0. -1.
       -1   -1    0    0    0  501  0.00000000000E+00  0.00000000000E+00 -0.91252953774E+03  0.91252953775E+03  0.50400001928E-02 0.  1.
    10030    2    1    2    0    0  0.00000000000E+00  0.00000000000E+00  0.93443919053E+03  0.27594982660E+04  0.25964695414E+04 0.  0.
        1    1    3    3  502    0 -0.11655065211E+04  0.11160490120E+03 -0.12884510788E+03  0.11779058394E+04  0.50400001928E-02 0.  1.
       -1    1    3    3    0  502  0.11655065211E+04 -0.11160490120E+03  0.10632842984E+04  0.15815924266E+04  0.50400001928E-02 0. -1.
</event>
<event>
 5   0  0.1677971E-05  0.2601162E+04  0.7818609E-02  0.8367807E-01
       -2   -1    0    0    0  501  0.00000000000E+00  0.00000000000E+00  0.13517875742E+04  0.13517875742E+04  0.25500000920E-02 0.  1.
        2   -1    0    0  501    0  0.00000000000E+00  0.00000000000E+00 -0.12513143567E+04  0.12513143567E+04  0.25500000920E-02 0. -1.
    10030    2    1    2    0    0  0.00000000000E+00  0.00000000000E+00  0.10047321754E+03  0.26031019310E+04  0.26011622009E+04 0.  0.
        4    1    3    3  502    0  0.10735334651E+04 -0.14341798996E+03  0.77081992280E+03  0.13293636774E+04  0.12699999809E+01 0.  1.
       -4    1    3    3    0  502 -0.10735334651E+04  0.14341798996E+03 -0.67034670526E+03  0.12737382536E+04  0.12699999809E+01 0. -1.
</event>
<event>
 5   0  0.1869956E-05  0.2624116E+04  0.7818609E-02  0.8360055E-01
        2   -1    0    0  501    0  0.00000000000E+00  0.00000000000E+00  0.10958150724E+04  0.10958150724E+04  0.25500000920E-02 0. -1.
       -2   -1    0    0    0  501  0.00000000000E+00  0.00000000000E+00 -0.15709733652E+04  0.15709733652E+04  0.25500000920E-02 0.  1.
    10030    2    1    2    0    0  0.00000000000E+00  0.00000000000E+00 -0.47515829280E+03  0.26667884376E+04  0.26241160736E+04 0.  0.
        5    1    3    3  502    0 -0.59833867401E+03  0.11676563103E+04 -0.23085535226E+03  0.13321961986E+04  0.46999998093E+01 0. -1.
       -5    1    3    3    0  502  0.59833867401E+03 -0.11676563103E+04 -0.24430294053E+03  0.13345922391E+04  0.46999998093E+01 0.  1.
</event>
<event>
 5   0  0.6918420E-06  0.2536901E+04  0.7818609E-02  0.8389956E-01
       -1   -1    0    0    0  501  0.00000000000E+00  0.00000000000E+00  0.18077080123E+04  0.18077080124E+04  0.50400001928E-02 0.  1.
        1   -1    0    0  501    0  0.00000000000E+00  0.00000000000E+00 -0.89005920029E+03  0.89005920030E+03  0.50400001928E-02 0. -1.
    10030    2    1    2    0    0  0.00000000000E+00  0.00000000000E+00  0.91764881206E+03  0.26977672127E+04  0.25369013760E+04 0.  0.
        4    1    3    3  502    0 -0.23728207421E+03 -0.40519255864E+03  0.17118818329E+04  0.17751126204E+04  0.12699999809E+01 0.  1.
       -4    1    3    3    0  502  0.23728207421E+03  0.40519255864E+03 -0.79423302085E+03  0.92265459227E+03  0.12699999809E+01 0. -1.
</event>
<event>
 5   0  0.1869956E-05  0.2597094E+04  0.7818609E-02  0.8369189E-01
       -2   -1    0    0    0  501  0.00000000000E+00  0.00000000000E+00  0.13638447957E+04  0.13638447957E+04  0.25500000920E-02 0.  1.
        2   -1    0    0  501    0  0.00000000000E+00  0.00000000000E+00 -0.12363752534E+04  0.12363752534E+04  0.25500000920E-02 0. -1.
    10030    2    1    2    0    0  0.00000000000E+00  0.00000000000E+00  0.12746954234E+03  0.26002200491E+04  0.25970937256E+04 0.  0.
        5    1    3    3  502    0 -0.11764302856E+04  0.54733744838E+03  0.11513238017E+03  0.13026296689E+04  0.46999998093E+01 0.  1.
       -5    1    3    3    0  502  0.11764302856E+04 -0.54733744838E+03  0.12337162165E+02  0.12975903802E+04  0.46999998093E+01 0. -1.
</event>
<event>
 5   0  0.7138294E-06  0.2583445E+04  0.7818609E-02  0.8373846E-01
       -1   -1    0    0    0  501  0.00000000000E+00  0.00000000000E+00  0.10461962367E+04  0.10461962368E+04  0.50400001928E-02 0. -1.
        1   -1    0    0  501    0  0.00000000000E+00  0.00000000000E+00 -0.15948706272E+04  0.15948706272E+04  0.50400001928E-02 0.  1.
    10030    2    1    2    0    0  0.00000000000E+00  0.00000000000E+00 -0.54867439045E+03  0.26410668640E+04  0.25834454887E+04 0.  0.
        2    1    3    3  502    0 -0.10399180298E+04  0.62045021923E+03  0.18531289397E+03  0.12250423878E+04  0.25500000920E-02 0.  1.
       -2    1    3    3    0  502  0.10399180298E+04 -0.62045021923E+03 -0.73398728442E+03  0.14160244761E+04  0.25500000920E-02 0. -1.
</event>
<event>
 5   0  0.1681731E-05  0.2633188E+04  0.7818609E-02  0.8357015E-01
       -2   -1    0    0    0  501  0.00000000000E+00  0.00000000000E+00  0.86062494838E+03  0.86062494838E+03  0.25500000920E-02 0. -1.
        2   -1    0    0  501    0  0.00000000000E+00  0.00000000000E+00 -0.20141409358E+04  0.20141409358E+04  0.25500000920E-02 0.  1.
    10030    2    1    2    0    0  0.00000000000E+00  0.00000000000E+00 -0.11535159874E+04  0.28747658842E+04  0.26331881352E+04 0.  0.
        2    1    3    3  502    0 -0.11660856066E+04  0.39904751680E+03 -0.71214316240E+02  0.12345306968E+04  0.25500000920E-02 0. -1.
       -2    1    3    3    0  502  0.11660856066E+04 -0.39904751680E+03 -0.10823016712E+04  0.16402351874E+04  0.25500000920E-02 0.  1.
</event>
<event>
 5   0  0.6706225E-06  0.2588615E+04  0.7818609E-02  0.8372079E-01
       -1   -1    0    0    0  501  0.00000000000E+00  0.00000000000E+00  0.11755619977E+04  0.11755619977E+04  0.50400001928E-02 0. -1.
        1   -1    0    0  501    0  0.00000000000E+00  0.00000000000E+00 -0.14250481438E+04  0.14250481438E+04  0.50400001928E-02 0.  1.
    10030    2    1    2    0    0  0.00000000000E+00  0.00000000000E+00 -0.24948614603E+03  0.26006101415E+04  0.25886154158E+04 0.  0.
        5    1    3    3  502    0 -0.50975380190E+02  0.11680001424E+04  0.43315662118E+03  0.12467836904E+04  0.46999998093E+01 0.  1.
       -5    1    3    3    0  502  0.50975380190E+02 -0.11680001424E+04 -0.68264276721E+03  0.13538264511E+04  0.46999998093E+01 0. -1.
</event>
</LesHouchesEvents>
